POPC bilayer and 5FIBZ with EP hydrated t= 76000.00000 step= 0
34138
    1PA    C116    1   3.334   5.023   3.927
    1PA    H16R    2   3.317   5.051   3.823
    1PA    H16S    3   3.429   5.065   3.961
    1PA    H16T    4   3.263   5.074   3.992
    1PA    C115    5   3.325   4.872   3.955
    1PA    H15R    6   3.245   4.839   3.889
    1PA    H15S    7   3.405   4.820   3.903
    1PA    C114    8   3.306   4.843   4.105
    1PA    H14R    9   3.212   4.883   4.145
    1PA    H14S   10   3.317   4.734   4.107
    1PA    C113   11   3.419   4.898   4.192
    1PA    H13R   12   3.515   4.847   4.177
    1PA    H13S   13   3.440   5.004   4.174
    1PA    C112   14   3.391   4.892   4.342
    1PA    H12R   15   3.297   4.945   4.361
    1PA    H12S   16   3.379   4.784   4.360
    1PA    C111   17   3.505   4.957   4.421
    1PA    H11R   18   3.606   4.929   4.390
    1PA    H11S   19   3.502   5.065   4.402
    1PA    C110   20   3.507   4.921   4.570
    1PA    H10R   21   3.476   4.817   4.577
    1PA    H10S   22   3.608   4.921   4.613
    1PA     C19   23   3.416   5.021   4.642
    1PA     H9R   24   3.449   5.120   4.612
    1PA     H9S   25   3.314   5.001   4.607
    1PA     C18   26   3.416   4.994   4.794
    1PA     H8R   27   3.425   4.887   4.813
    1PA     H8S   28   3.507   5.039   4.836
    1PA     C17   29   3.292   5.046   4.867
    1PA     H7R   30   3.214   5.034   4.791
    1PA     H7S   31   3.282   4.990   4.960
    1PA     C16   32   3.312   5.194   4.903
    1PA     H6R   33   3.369   5.246   4.827
    1PA     H6S   34   3.214   5.237   4.922
    1PA     C15   35   3.398   5.215   5.028
    1PA     H5R   36   3.352   5.147   5.100
    1PA     H5S   37   3.501   5.188   5.002
    1PA     C14   38   3.391   5.359   5.080
    1PA     H4R   39   3.427   5.427   5.003
    1PA     H4S   40   3.286   5.381   5.097
    1PA     C13   41   3.473   5.382   5.209
    1PA     H3R   42   3.439   5.325   5.295
    1PA     H3S   43   3.573   5.347   5.184
    1PA     C12   44   3.476   5.533   5.239
    1PA     H2R   45   3.490   5.593   5.149
    1PA     H2S   46   3.377   5.563   5.273
    2PC     C11   47   3.573   5.568   5.349
    2PC     O12   48   3.672   5.636   5.331
    2PC     O11   49   3.518   5.532   5.466
    2PC      C1   50   3.579   5.577   5.588
    2PC      HR   51   3.556   5.507   5.668
    2PC      HS   52   3.687   5.566   5.574
    2PC      C2   53   3.530   5.718   5.623
    2PC      HX   54   3.585   5.742   5.715
    2PC      C3   55   3.381   5.722   5.661
    2PC      HA   56   3.322   5.710   5.570
    2PC      HB   57   3.361   5.636   5.725
    2PC     O31   58   3.360   5.839   5.741
    2PC     P31   59   3.208   5.864   5.782
    2PC     O32   60   3.174   5.730   5.863
    2PC     C31   61   3.141   5.743   6.002
    2PC     H1A   62   3.233   5.764   6.058
    2PC     H1B   63   3.057   5.813   6.005
    2PC     C32   64   3.076   5.616   6.059
    2PC     H2A   65   3.038   5.637   6.159
    2PC     H2B   66   2.990   5.589   5.998
    2PC     N31   67   3.162   5.493   6.064
    2PC     C33   68   3.097   5.390   6.150
    2PC     H3A   69   2.994   5.389   6.114
    2PC     H3B   70   3.140   5.292   6.130
    2PC     H3C   71   3.096   5.423   6.254
    2PC     C34   72   3.184   5.438   5.926
    2PC     H4A   73   3.245   5.513   5.876
    2PC     H4B   74   3.239   5.344   5.931
    2PC     H4C   75   3.089   5.434   5.872
    2PC     C35   76   3.302   5.525   6.109
    2PC     H5A   77   3.347   5.427   6.126
    2PC     H5B   78   3.300   5.581   6.203
    2PC     H5C   79   3.355   5.577   6.029
    2PC     O33   80   3.194   5.995   5.850
    2PC     O34   81   3.132   5.893   5.658
    2PC     O21   82   3.549   5.815   5.519
    2PC     C21   83   3.669   5.872   5.502
    2PC     O22   84   3.757   5.861   5.585
    3OL     C12   85   3.667   5.954   5.375
    3OL     H2R   86   3.582   5.928   5.312
    3OL     H2S   87   3.753   5.925   5.315
    3OL     C13   88   3.665   6.106   5.397
    3OL     H3R   89   3.737   6.135   5.474
    3OL     H3S   90   3.565   6.141   5.421
    3OL     C14   91   3.693   6.173   5.262
    3OL     H4R   92   3.785   6.129   5.222
    3OL     H4S   93   3.713   6.277   5.290
    3OL     C15   94   3.571   6.182   5.170
    3OL     H5R   95   3.480   6.206   5.227
    3OL     H5S   96   3.553   6.079   5.137
    3OL     C16   97   3.602   6.275   5.052
    3OL     H6R   98   3.528   6.266   4.973
    3OL     H6S   99   3.697   6.245   5.006
    3OL     C17  100   3.637   6.419   5.093
    3OL     H7R  101   3.726   6.418   5.155
    3OL     H7S  102   3.562   6.458   5.162
    3OL     C18  103   3.647   6.519   4.977
    3OL     H8R  104   3.735   6.504   4.913
    3OL     H8S  105   3.681   6.609   5.028
    3OL     C19  106   3.519   6.552   4.904
    3OL     H9R  107   3.445   6.587   4.976
    3OL    C110  108   3.500   6.548   4.774
    3OL    H10R  109   3.405   6.580   4.731
    3OL    C111  110   3.606   6.510   4.673
    3OL    H11R  111   3.676   6.437   4.714
    3OL    H11S  112   3.654   6.603   4.644
    3OL    C112  113   3.546   6.442   4.549
    3OL    H12R  114   3.505   6.342   4.566
    3OL    H12S  115   3.622   6.428   4.473
    3OL    C113  116   3.443   6.534   4.482
    3OL    H13R  117   3.492   6.628   4.460
    3OL    H13S  118   3.353   6.553   4.541
    3OL    C114  119   3.399   6.471   4.349
    3OL    H14R  120   3.365   6.372   4.380
    3OL    H14S  121   3.485   6.453   4.285
    3OL    C115  122   3.286   6.557   4.291
    3OL    H15R  123   3.320   6.652   4.249
    3OL    H15S  124   3.225   6.593   4.374
    3OL    C116  125   3.182   6.478   4.210
    3OL    H16R  126   3.122   6.556   4.163
    3OL    H16S  127   3.133   6.411   4.280
    3OL    C117  128   3.247   6.403   4.092
    3OL    H17R  129   3.326   6.329   4.106
    3OL    H17S  130   3.298   6.469   4.022
    3OL    C118  131   3.143   6.321   4.014
    3OL    H18R  132   3.193   6.290   3.922
    3OL    H18S  133   3.052   6.371   3.981
    3OL    H18T  134   3.100   6.234   4.064
    1PA    C116  135   1.320   3.956   3.804
    1PA    H16R  136   1.426   3.974   3.824
    1PA    H16S  137   1.260   4.026   3.863
    1PA    H16T  138   1.304   3.950   3.697
    1PA    C115  139   1.273   3.818   3.852
    1PA    H15R  140   1.178   3.805   3.801
    1PA    H15S  141   1.331   3.734   3.814
    1PA    C114  142   1.253   3.802   4.004
    1PA    H14R  143   1.202   3.886   4.052
    1PA    H14S  144   1.190   3.713   4.007
    1PA    C113  145   1.379   3.783   4.089
    1PA    H13R  146   1.352   3.715   4.170
    1PA    H13S  147   1.467   3.736   4.045
    1PA    C112  148   1.435   3.906   4.161
    1PA    H12R  149   1.544   3.891   4.162
    1PA    H12S  150   1.418   3.996   4.103
    1PA    C111  151   1.391   3.925   4.307
    1PA    H11R  152   1.416   4.029   4.327
    1PA    H11S  153   1.283   3.911   4.317
    1PA    C110  154   1.482   3.840   4.397
    1PA    H10R  155   1.426   3.795   4.480
    1PA    H10S  156   1.511   3.747   4.347
    1PA     C19  157   1.601   3.921   4.450
    1PA     H9R  158   1.676   3.848   4.484
    1PA     H9S  159   1.651   3.956   4.359
    1PA     C18  160   1.570   4.027   4.557
    1PA     H8R  161   1.498   4.097   4.514
    1PA     H8S  162   1.517   3.976   4.637
    1PA     C17  163   1.694   4.107   4.601
    1PA     H7R  164   1.750   4.128   4.510
    1PA     H7S  165   1.669   4.200   4.652
    1PA     C16  166   1.785   4.020   4.689
    1PA     H6R  167   1.738   3.999   4.785
    1PA     H6S  168   1.797   3.922   4.643
    1PA     C15  169   1.921   4.089   4.704
    1PA     H5R  170   1.988   4.014   4.747
    1PA     H5S  171   1.965   4.118   4.609
    1PA     C14  172   1.930   4.208   4.801
    1PA     H4R  173   1.864   4.280   4.753
    1PA     H4S  174   1.884   4.180   4.896
    1PA     C13  175   2.073   4.257   4.828
    1PA     H3R  176   2.119   4.275   4.731
    1PA     H3S  177   2.061   4.354   4.877
    1PA     C12  178   2.155   4.166   4.921
    1PA     H2R  179   2.193   4.074   4.877
    1PA     H2S  180   2.246   4.216   4.951
    2PC     C11  181   2.096   4.139   5.057
    2PC     O12  182   2.085   4.025   5.097
    2PC     O11  183   2.048   4.248   5.119
    2PC      C1  184   2.012   4.241   5.258
    2PC      HR  185   1.963   4.331   5.297
    2PC      HS  186   1.943   4.157   5.262
    2PC      C2  187   2.140   4.206   5.334
    2PC      HX  188   2.171   4.107   5.298
    2PC      C3  189   2.105   4.183   5.482
    2PC      HA  190   2.051   4.089   5.498
    2PC      HB  191   2.192   4.182   5.545
    2PC     O31  192   2.019   4.288   5.532
    2PC     P31  193   1.954   4.262   5.676
    2PC     O32  194   1.850   4.151   5.625
    2PC     C31  195   1.740   4.193   5.542
    2PC     H1A  196   1.659   4.225   5.609
    2PC     H1B  197   1.770   4.277   5.479
    2PC     C32  198   1.689   4.070   5.465
    2PC     H2A  199   1.595   4.096   5.415
    2PC     H2B  200   1.764   4.047   5.390
    2PC     N31  201   1.663   3.942   5.539
    2PC     C33  202   1.591   3.854   5.442
    2PC     H3A  203   1.557   3.772   5.506
    2PC     H3B  204   1.509   3.909   5.395
    2PC     H3C  205   1.663   3.821   5.367
    2PC     C34  206   1.794   3.878   5.573
    2PC     H4A  207   1.852   3.941   5.641
    2PC     H4B  208   1.786   3.775   5.609
    2PC     H4C  209   1.851   3.873   5.480
    2PC     C35  210   1.572   3.974   5.653
    2PC     H5A  211   1.521   3.888   5.698
    2PC     H5B  212   1.491   4.038   5.620
    2PC     H5C  213   1.630   4.040   5.718
    2PC     O33  214   2.041   4.231   5.792
    2PC     O34  215   1.886   4.388   5.712
    2PC     O21  216   2.237   4.311   5.328
    2PC     C21  217   2.343   4.291   5.248
    2PC     O22  218   2.355   4.194   5.176
    3OL     C12  219   2.452   4.396   5.245
    3OL     H2R  220   2.528   4.361   5.175
    3OL     H2S  221   2.502   4.390   5.342
    3OL     C13  222   2.405   4.540   5.220
    3OL     H3R  223   2.496   4.600   5.221
    3OL     H3S  224   2.348   4.575   5.306
    3OL     C14  225   2.332   4.568   5.088
    3OL     H4R  226   2.304   4.673   5.078
    3OL     H4S  227   2.244   4.504   5.078
    3OL     C15  228   2.420   4.536   4.966
    3OL     H5R  229   2.350   4.526   4.883
    3OL     H5S  230   2.468   4.439   4.985
    3OL     C16  231   2.507   4.658   4.931
    3OL     H6R  232   2.580   4.674   5.011
    3OL     H6S  233   2.432   4.737   4.922
    3OL     C17  234   2.592   4.649   4.804
    3OL     H7R  235   2.664   4.570   4.823
    3OL     H7S  236   2.649   4.740   4.783
    3OL     C18  237   2.512   4.613   4.678
    3OL     H8R  238   2.444   4.699   4.677
    3OL     H8S  239   2.465   4.518   4.700
    3OL     C19  240   2.603   4.608   4.557
    3OL     H9R  241   2.685   4.537   4.559
    3OL    C110  242   2.610   4.686   4.450
    3OL    H10R  243   2.683   4.667   4.372
    3OL    C111  244   2.504   4.787   4.413
    3OL    H11R  245   2.417   4.775   4.477
    3OL    H11S  246   2.479   4.774   4.307
    3OL    C112  247   2.562   4.928   4.428
    3OL    H12R  248   2.578   4.948   4.534
    3OL    H12S  249   2.501   5.011   4.392
    3OL    C113  250   2.700   4.941   4.361
    3OL    H13R  251   2.772   4.862   4.380
    3OL    H13S  252   2.747   5.032   4.398
    3OL    C114  253   2.690   4.967   4.209
    3OL    H14R  254   2.622   5.048   4.182
    3OL    H14S  255   2.648   4.879   4.160
    3OL    C115  256   2.838   4.978   4.168
    3OL    H15R  257   2.899   4.887   4.173
    3OL    H15S  258   2.890   5.054   4.225
    3OL    C116  259   2.847   5.022   4.021
    3OL    H16R  260   2.819   5.127   4.010
    3OL    H16S  261   2.791   4.962   3.950
    3OL    C117  262   2.992   5.016   3.971
    3OL    H17R  263   3.040   4.917   3.973
    3OL    H17S  264   3.063   5.078   4.027
    3OL    C118  265   2.986   5.071   3.828
    3OL    H18R  266   2.919   5.017   3.761
    3OL    H18S  267   3.084   5.063   3.781
    3OL    H18T  268   2.960   5.177   3.833
    1PA    C116  269   1.671   2.816   3.693
    1PA    H16R  270   1.572   2.810   3.739
    1PA    H16S  271   1.747   2.794   3.768
    1PA    H16T  272   1.680   2.736   3.619
    1PA    C115  273   1.700   2.953   3.630
    1PA    H15R  274   1.790   2.950   3.568
    1PA    H15S  275   1.614   2.976   3.566
    1PA    C114  276   1.713   3.057   3.742
    1PA    H14R  277   1.765   3.016   3.829
    1PA    H14S  278   1.778   3.141   3.720
    1PA    C113  279   1.578   3.116   3.784
    1PA    H13R  280   1.527   3.154   3.695
    1PA    H13S  281   1.511   3.035   3.813
    1PA    C112  282   1.591   3.217   3.899
    1PA    H12R  283   1.640   3.174   3.987
    1PA    H12S  284   1.656   3.298   3.866
    1PA    C111  285   1.460   3.281   3.946
    1PA    H11R  286   1.397   3.297   3.858
    1PA    H11S  287   1.408   3.209   4.009
    1PA    C110  288   1.470   3.410   4.029
    1PA    H10R  289   1.550   3.473   3.992
    1PA    H10S  290   1.372   3.457   4.027
    1PA     C19  291   1.477   3.372   4.178
    1PA     H9R  292   1.394   3.307   4.204
    1PA     H9S  293   1.572   3.320   4.195
    1PA     C18  294   1.474   3.491   4.274
    1PA     H8R  295   1.526   3.580   4.237
    1PA     H8S  296   1.370   3.522   4.262
    1PA     C17  297   1.502   3.463   4.422
    1PA     H7R  298   1.436   3.517   4.490
    1PA     H7S  299   1.469   3.361   4.436
    1PA     C16  300   1.645   3.457   4.476
    1PA     H6R  301   1.677   3.365   4.427
    1PA     H6S  302   1.694   3.543   4.430
    1PA     C15  303   1.638   3.449   4.629
    1PA     H5R  304   1.544   3.399   4.653
    1PA     H5S  305   1.721   3.387   4.666
    1PA     C14  306   1.649   3.590   4.687
    1PA     H4R  307   1.749   3.613   4.650
    1PA     H4S  308   1.577   3.666   4.657
    1PA     C13  309   1.652   3.583   4.840
    1PA     H3R  310   1.711   3.496   4.870
    1PA     H3S  311   1.705   3.674   4.871
    1PA     C12  312   1.511   3.582   4.899
    1PA     H2R  313   1.469   3.678   4.870
    1PA     H2S  314   1.457   3.497   4.857
    2PC     C11  315   1.518   3.574   5.049
    2PC     O12  316   1.591   3.639   5.122
    2PC     O11  317   1.431   3.490   5.108
    2PC      C1  318   1.421   3.475   5.250
    2PC      HR  319   1.388   3.373   5.264
    2PC      HS  320   1.521   3.475   5.293
    2PC      C2  321   1.352   3.594   5.320
    2PC      HX  322   1.412   3.685   5.315
    2PC      C3  323   1.335   3.556   5.467
    2PC      HA  324   1.249   3.489   5.479
    2PC      HB  325   1.429   3.506   5.489
    2PC     O31  326   1.337   3.679   5.542
    2PC     P31  327   1.245   3.698   5.672
    2PC     O32  328   1.315   3.820   5.748
    2PC     C31  329   1.228   3.926   5.789
    2PC     H1A  330   1.197   3.965   5.692
    2PC     H1B  331   1.142   3.882   5.840
    2PC     C32  332   1.314   4.020   5.875
    2PC     H2A  333   1.393   4.064   5.813
    2PC     H2B  334   1.239   4.098   5.890
    2PC     N31  335   1.363   3.983   6.011
    2PC     C33  336   1.262   3.908   6.093
    2PC     H3A  337   1.180   3.979   6.104
    2PC     H3B  338   1.231   3.819   6.038
    2PC     H3C  339   1.317   3.879   6.182
    2PC     C34  340   1.471   3.882   5.986
    2PC     H4A  341   1.437   3.810   5.911
    2PC     H4B  342   1.562   3.937   5.962
    2PC     H4C  343   1.488   3.825   6.078
    2PC     C35  344   1.417   4.103   6.084
    2PC     H5A  345   1.477   4.073   6.170
    2PC     H5B  346   1.336   4.159   6.130
    2PC     H5C  347   1.478   4.162   6.016
    2PC     O33  348   1.100   3.716   5.651
    2PC     O34  349   1.258   3.567   5.740
    2PC     O21  350   1.220   3.610   5.266
    2PC     C21  351   1.164   3.732   5.271
    2PC     O22  352   1.218   3.833   5.309
    3OL     C12  353   1.019   3.731   5.227
    3OL     H2R  354   0.997   3.830   5.188
    3OL     H2S  355   0.959   3.712   5.316
    3OL     C13  356   0.993   3.615   5.130
    3OL     H3R  357   0.987   3.521   5.184
    3OL     H3S  358   1.075   3.606   5.059
    3OL     C14  359   0.863   3.632   5.049
    3OL     H4R  360   0.865   3.727   4.996
    3OL     H4S  361   0.776   3.633   5.115
    3OL     C15  362   0.856   3.519   4.945
    3OL     H5R  363   0.840   3.419   4.984
    3OL     H5S  364   0.953   3.513   4.895
    3OL     C16  365   0.759   3.561   4.834
    3OL     H6R  366   0.780   3.662   4.798
    3OL     H6S  367   0.656   3.544   4.866
    3OL     C17  368   0.787   3.477   4.708
    3OL     H7R  369   0.821   3.376   4.728
    3OL     H7S  370   0.869   3.530   4.658
    3OL     C18  371   0.665   3.466   4.616
    3OL     H8R  372   0.692   3.449   4.512
    3OL     H8S  373   0.622   3.566   4.610
    3OL     C19  374   0.558   3.370   4.660
    3OL     H9R  375   0.514   3.401   4.755
    3OL    C110  376   0.523   3.258   4.600
    3OL    H10R  377   0.453   3.184   4.637
    3OL    C111  378   0.573   3.230   4.460
    3OL    H11R  379   0.677   3.197   4.458
    3OL    H11S  380   0.549   3.320   4.403
    3OL    C112  381   0.493   3.124   4.384
    3OL    H12R  382   0.387   3.151   4.391
    3OL    H12S  383   0.496   3.026   4.432
    3OL    C113  384   0.534   3.124   4.236
    3OL    H13R  385   0.639   3.156   4.228
    3OL    H13S  386   0.477   3.198   4.180
    3OL    C114  387   0.512   2.983   4.180
    3OL    H14R  388   0.406   2.956   4.179
    3OL    H14S  389   0.566   2.903   4.231
    3OL    C115  390   0.536   2.979   4.029
    3OL    H15R  391   0.475   3.059   3.986
    3OL    H15S  392   0.497   2.884   3.993
    3OL    C116  393   0.687   2.985   4.002
    3OL    H16R  394   0.747   2.916   4.062
    3OL    H16S  395   0.731   3.081   4.029
    3OL    C117  396   0.720   2.971   3.852
    3OL    H17R  397   0.685   2.876   3.811
    3OL    H17S  398   0.829   2.976   3.844
    3OL    C118  399   0.685   3.099   3.775
    3OL    H18R  400   0.739   3.090   3.681
    3OL    H18S  401   0.731   3.184   3.825
    3OL    H18T  402   0.582   3.116   3.743
    1PA    C116  403   2.291   6.112   4.256
    1PA    H16R  404   2.251   6.172   4.337
    1PA    H16S  405   2.274   6.170   4.165
    1PA    H16T  406   2.399   6.103   4.266
    1PA    C115  407   2.212   5.982   4.237
    1PA    H15R  408   2.115   6.024   4.211
    1PA    H15S  409   2.240   5.919   4.152
    1PA    C114  410   2.185   5.902   4.365
    1PA    H14R  411   2.180   5.969   4.451
    1PA    H14S  412   2.092   5.845   4.363
    1PA    C113  413   2.298   5.801   4.389
    1PA    H13R  414   2.291   5.722   4.314
    1PA    H13S  415   2.390   5.858   4.376
    1PA    C112  416   2.266   5.744   4.529
    1PA    H12R  417   2.218   5.814   4.597
    1PA    H12S  418   2.202   5.656   4.532
    1PA    C111  419   2.391   5.701   4.607
    1PA    H11R  420   2.446   5.622   4.555
    1PA    H11S  421   2.471   5.775   4.619
    1PA    C110  422   2.350   5.640   4.741
    1PA    H10R  423   2.287   5.706   4.801
    1PA    H10S  424   2.304   5.544   4.716
    1PA     C19  425   2.463   5.593   4.834
    1PA     H9R  426   2.435   5.523   4.913
    1PA     H9S  427   2.536   5.539   4.773
    1PA     C18  428   2.525   5.705   4.918
    1PA     H8R  429   2.484   5.797   4.876
    1PA     H8S  430   2.488   5.693   5.020
    1PA     C17  431   2.677   5.700   4.899
    1PA     H7R  432   2.709   5.709   4.795
    1PA     H7S  433   2.702   5.795   4.947
    1PA     C16  434   2.723   5.581   4.984
    1PA     H6R  435   2.684   5.574   5.086
    1PA     H6S  436   2.680   5.492   4.938
    1PA     C15  437   2.876   5.571   4.982
    1PA     H5R  438   2.905   5.606   4.883
    1PA     H5S  439   2.912   5.649   5.050
    1PA     C14  440   2.925   5.430   5.019
    1PA     H4R  441   2.856   5.363   4.968
    1PA     H4S  442   3.030   5.413   4.992
    1PA     C13  443   2.905   5.416   5.171
    1PA     H3R  444   2.943   5.503   5.224
    1PA     H3S  445   2.799   5.394   5.188
    1PA     C12  446   2.991   5.299   5.219
    1PA     H2R  447   2.958   5.213   5.160
    1PA     H2S  448   3.096   5.325   5.203
    2PC     C11  449   2.956   5.269   5.363
    2PC     O12  450   2.868   5.326   5.423
    2PC     O11  451   3.026   5.170   5.419
    2PC      C1  452   2.980   5.124   5.547
    2PC      HR  453   3.067   5.067   5.581
    2PC      HS  454   2.967   5.207   5.617
    2PC      C2  455   2.857   5.032   5.541
    2PC      HX  456   2.773   5.084   5.494
    2PC      C3  457   2.824   4.985   5.684
    2PC      HA  458   2.905   4.915   5.705
    2PC      HB  459   2.830   5.071   5.751
    2PC     O31  460   2.689   4.936   5.689
    2PC     P31  461   2.628   4.878   5.825
    2PC     O32  462   2.526   4.766   5.772
    2PC     C31  463   2.389   4.803   5.749
    2PC     H1A  464   2.343   4.804   5.848
    2PC     H1B  465   2.383   4.902   5.703
    2PC     C32  466   2.304   4.702   5.670
    2PC     H2A  467   2.199   4.727   5.654
    2PC     H2B  468   2.350   4.701   5.571
    2PC     N31  469   2.313   4.561   5.719
    2PC     C33  470   2.228   4.554   5.843
    2PC     H3A  471   2.129   4.592   5.824
    2PC     H3B  472   2.215   4.449   5.867
    2PC     H3C  473   2.282   4.609   5.920
    2PC     C34  474   2.249   4.466   5.622
    2PC     H4A  475   2.259   4.363   5.657
    2PC     H4B  476   2.145   4.497   5.621
    2PC     H4C  477   2.279   4.475   5.518
    2PC     C35  478   2.453   4.514   5.743
    2PC     H5A  479   2.500   4.573   5.821
    2PC     H5B  480   2.513   4.528   5.653
    2PC     H5C  481   2.441   4.409   5.770
    2PC     O33  482   2.729   4.816   5.914
    2PC     O34  483   2.556   4.983   5.901
    2PC     O21  484   2.890   4.919   5.459
    2PC     C21  485   2.879   4.932   5.326
    2PC     O22  486   2.826   5.024   5.265
    3OL     C12  487   2.913   4.804   5.255
    3OL     H2R  488   2.837   4.786   5.179
    3OL     H2S  489   2.910   4.724   5.329
    3OL     C13  490   3.050   4.821   5.187
    3OL     H3R  491   3.129   4.844   5.258
    3OL     H3S  492   3.043   4.910   5.123
    3OL     C14  493   3.079   4.688   5.117
    3OL     H4R  494   3.065   4.610   5.192
    3OL     H4S  495   3.182   4.685   5.080
    3OL     C15  496   2.990   4.648   4.998
    3OL     H5R  497   2.883   4.662   5.016
    3OL     H5S  498   2.999   4.539   4.996
    3OL     C16  499   3.034   4.708   4.864
    3OL     H6R  500   3.141   4.684   4.856
    3OL     H6S  501   3.034   4.817   4.858
    3OL     C17  502   2.960   4.649   4.743
    3OL     H7R  503   2.861   4.693   4.736
    3OL     H7S  504   2.942   4.543   4.765
    3OL     C18  505   3.032   4.672   4.610
    3OL     H8R  506   3.138   4.649   4.602
    3OL     H8S  507   3.021   4.780   4.594
    3OL     C19  508   2.967   4.596   4.497
    3OL     H9R  509   2.869   4.629   4.463
    3OL    C110  510   3.019   4.493   4.432
    3OL    H10R  511   2.952   4.441   4.365
    3OL    C111  512   3.144   4.418   4.473
    3OL    H11R  513   3.136   4.313   4.444
    3OL    H11S  514   3.152   4.421   4.582
    3OL    C112  515   3.276   4.487   4.436
    3OL    H12R  516   3.288   4.571   4.505
    3OL    H12S  517   3.269   4.525   4.334
    3OL    C113  518   3.401   4.400   4.452
    3OL    H13R  519   3.390   4.307   4.395
    3OL    H13S  520   3.404   4.376   4.559
    3OL    C114  521   3.529   4.473   4.407
    3OL    H14R  522   3.535   4.568   4.461
    3OL    H14S  523   3.518   4.486   4.299
    3OL    C115  524   3.659   4.395   4.429
    3OL    H15R  525   3.645   4.306   4.369
    3OL    H15S  526   3.669   4.368   4.535
    3OL    C116  527   3.781   4.480   4.390
    3OL    H16R  528   3.868   4.453   4.450
    3OL    H16S  529   3.753   4.582   4.419
    3OL    C117  530   3.828   4.446   4.247
    3OL    H17R  531   3.735   4.450   4.190
    3OL    H17S  532   3.873   4.347   4.247
    3OL    C118  533   3.930   4.543   4.187
    3OL    H18R  534   3.963   4.511   4.087
    3OL    H18S  535   4.024   4.544   4.243
    3OL    H18T  536   3.889   4.643   4.175
    1PA    C116  537   1.211   2.759   3.881
    1PA    H16R  538   1.210   2.665   3.826
    1PA    H16S  539   1.249   2.847   3.829
    1PA    H16T  540   1.104   2.780   3.889
    1PA    C115  541   1.266   2.740   4.023
    1PA    H15R  542   1.224   2.817   4.088
    1PA    H15S  543   1.240   2.638   4.052
    1PA    C114  544   1.417   2.769   4.020
    1PA    H14R  545   1.474   2.703   3.955
    1PA    H14S  546   1.423   2.875   3.996
    1PA    C113  547   1.473   2.763   4.163
    1PA    H13R  548   1.398   2.766   4.243
    1PA    H13S  549   1.509   2.660   4.171
    1PA    C112  550   1.589   2.861   4.180
    1PA    H12R  551   1.654   2.835   4.264
    1PA    H12S  552   1.654   2.865   4.092
    1PA    C111  553   1.540   3.006   4.193
    1PA    H11R  554   1.624   3.073   4.172
    1PA    H11S  555   1.460   3.024   4.122
    1PA    C110  556   1.492   3.034   4.336
    1PA    H10R  557   1.419   3.115   4.341
    1PA    H10S  558   1.442   2.940   4.359
    1PA     C19  559   1.611   3.057   4.430
    1PA     H9R  560   1.678   2.971   4.426
    1PA     H9S  561   1.676   3.141   4.401
    1PA     C18  562   1.560   3.063   4.574
    1PA     H8R  563   1.510   3.159   4.589
    1PA     H8S  564   1.488   2.982   4.594
    1PA     C17  565   1.673   3.056   4.677
    1PA     H7R  566   1.699   2.950   4.683
    1PA     H7S  567   1.756   3.113   4.633
    1PA     C16  568   1.619   3.115   4.809
    1PA     H6R  569   1.563   3.206   4.790
    1PA     H6S  570   1.558   3.045   4.866
    1PA     C15  571   1.727   3.144   4.914
    1PA     H5R  572   1.768   3.054   4.960
    1PA     H5S  573   1.800   3.198   4.854
    1PA     C14  574   1.671   3.243   5.017
    1PA     H4R  575   1.658   3.341   4.972
    1PA     H4S  576   1.577   3.205   5.057
    1PA     C13  577   1.760   3.262   5.141
    1PA     H3R  578   1.697   3.312   5.214
    1PA     H3S  579   1.779   3.168   5.193
    1PA     C12  580   1.894   3.332   5.113
    1PA     H2R  581   1.949   3.296   5.026
    1PA     H2S  582   1.875   3.431   5.072
    2PC     C11  583   1.981   3.331   5.236
    2PC     O12  584   1.965   3.257   5.331
    2PC     O11  585   2.075   3.426   5.237
    2PC      C1  586   2.151   3.463   5.353
    2PC      HR  587   2.187   3.566   5.356
    2PC      HS  588   2.081   3.458   5.437
    2PC      C2  589   2.265   3.364   5.373
    2PC      HX  590   2.241   3.258   5.377
    2PC      C3  591   2.336   3.396   5.505
    2PC      HA  592   2.277   3.369   5.594
    2PC      HB  593   2.432   3.345   5.513
    2PC     O31  594   2.362   3.535   5.522
    2PC     P31  595   2.418   3.580   5.665
    2PC     O32  596   2.560   3.650   5.637
    2PC     C31  597   2.674   3.569   5.604
    2PC     H1A  598   2.707   3.503   5.684
    2PC     H1B  599   2.642   3.511   5.517
    2PC     C32  600   2.790   3.665   5.573
    2PC     H2A  601   2.863   3.615   5.508
    2PC     H2B  602   2.748   3.742   5.508
    2PC     N31  603   2.840   3.749   5.686
    2PC     C33  604   2.957   3.829   5.636
    2PC     H3A  605   2.922   3.871   5.541
    2PC     H3B  606   2.988   3.905   5.707
    2PC     H3C  607   3.037   3.756   5.622
    2PC     C34  608   2.733   3.838   5.742
    2PC     H4A  609   2.779   3.904   5.816
    2PC     H4B  610   2.688   3.900   5.665
    2PC     H4C  611   2.659   3.775   5.792
    2PC     C35  612   2.887   3.664   5.801
    2PC     H5A  613   2.941   3.728   5.870
    2PC     H5B  614   2.952   3.587   5.759
    2PC     H5C  615   2.801   3.607   5.839
    2PC     O33  616   2.327   3.676   5.731
    2PC     O34  617   2.446   3.474   5.765
    2PC     O21  618   2.359   3.389   5.267
    2PC     C21  619   2.445   3.292   5.235
    2PC     O22  620   2.451   3.177   5.275
    3OL     C12  621   2.533   3.341   5.122
    3OL     H2R  622   2.638   3.332   5.148
    3OL     H2S  623   2.514   3.448   5.111
    3OL     C13  624   2.495   3.270   4.991
    3OL     H3R  625   2.429   3.321   4.920
    3OL     H3S  626   2.441   3.179   5.016
    3OL     C14  627   2.620   3.233   4.911
    3OL     H4R  628   2.664   3.148   4.964
    3OL     H4S  629   2.691   3.316   4.908
    3OL     C15  630   2.588   3.186   4.769
    3OL     H5R  631   2.500   3.122   4.761
    3OL     H5S  632   2.663   3.114   4.734
    3OL     C16  633   2.578   3.300   4.667
    3OL     H6R  634   2.676   3.344   4.649
    3OL     H6S  635   2.521   3.382   4.710
    3OL     C17  636   2.519   3.251   4.534
    3OL     H7R  637   2.427   3.194   4.547
    3OL     H7S  638   2.595   3.183   4.495
    3OL     C18  639   2.496   3.373   4.444
    3OL     H8R  640   2.573   3.449   4.445
    3OL     H8S  641   2.408   3.426   4.483
    3OL     C19  642   2.463   3.331   4.303
    3OL     H9R  643   2.445   3.226   4.280
    3OL    C110  644   2.455   3.422   4.207
    3OL    H10R  645   2.436   3.396   4.103
    3OL    C111  646   2.464   3.570   4.231
    3OL    H11R  647   2.563   3.599   4.266
    3OL    H11S  648   2.401   3.593   4.317
    3OL    C112  649   2.430   3.651   4.105
    3OL    H12R  650   2.327   3.640   4.070
    3OL    H12S  651   2.487   3.610   4.021
    3OL    C113  652   2.454   3.801   4.125
    3OL    H13R  653   2.558   3.817   4.155
    3OL    H13S  654   2.390   3.832   4.208
    3OL    C114  655   2.428   3.881   3.996
    3OL    H14R  656   2.447   3.986   4.016
    3OL    H14S  657   2.322   3.871   3.971
    3OL    C115  658   2.500   3.832   3.869
    3OL    H15R  659   2.464   3.894   3.787
    3OL    H15S  660   2.452   3.736   3.848
    3OL    C116  661   2.653   3.814   3.867
    3OL    H16R  662   2.683   3.741   3.942
    3OL    H16S  663   2.697   3.911   3.893
    3OL    C117  664   2.701   3.765   3.730
    3OL    H17R  665   2.669   3.845   3.662
    3OL    H17S  666   2.656   3.670   3.703
    3OL    C118  667   2.854   3.751   3.730
    3OL    H18R  668   2.898   3.826   3.795
    3OL    H18S  669   2.889   3.756   3.626
    3OL    H18T  670   2.879   3.648   3.758
    1PA    C116  671   0.433   3.591   3.924
    1PA    H16R  672   0.379   3.686   3.925
    1PA    H16S  673   0.357   3.515   3.940
    1PA    H16T  674   0.479   3.575   3.826
    1PA    C115  675   0.542   3.604   4.032
    1PA    H15R  676   0.598   3.697   4.017
    1PA    H15S  677   0.496   3.614   4.131
    1PA    C114  678   0.637   3.485   4.024
    1PA    H14R  679   0.583   3.391   4.014
    1PA    H14S  680   0.696   3.489   3.932
    1PA    C113  681   0.724   3.473   4.150
    1PA    H13R  682   0.668   3.480   4.244
    1PA    H13S  683   0.770   3.375   4.150
    1PA    C112  684   0.846   3.566   4.157
    1PA    H12R  685   0.898   3.571   4.061
    1PA    H12S  686   0.800   3.664   4.170
    1PA    C111  687   0.936   3.542   4.280
    1PA    H11R  688   0.878   3.538   4.372
    1PA    H11S  689   0.992   3.450   4.275
    1PA    C110  690   1.043   3.652   4.288
    1PA    H10R  691   1.117   3.635   4.210
    1PA    H10S  692   0.992   3.746   4.266
    1PA     C19  693   1.123   3.650   4.419
    1PA     H9R  694   1.133   3.549   4.459
    1PA     H9S  695   1.225   3.687   4.403
    1PA     C18  696   1.064   3.752   4.517
    1PA     H8R  697   1.069   3.854   4.477
    1PA     H8S  698   0.958   3.734   4.536
    1PA     C17  699   1.136   3.742   4.652
    1PA     H7R  700   1.094   3.658   4.709
    1PA     H7S  701   1.244   3.732   4.639
    1PA     C16  702   1.112   3.870   4.733
    1PA     H6R  703   1.150   3.956   4.678
    1PA     H6S  704   1.009   3.878   4.769
    1PA     C15  705   1.191   3.865   4.864
    1PA     H5R  706   1.157   3.775   4.915
    1PA     H5S  707   1.295   3.858   4.834
    1PA     C14  708   1.175   3.992   4.949
    1PA     H4R  709   1.179   4.075   4.878
    1PA     H4S  710   1.078   4.003   4.998
    1PA     C13  711   1.281   4.011   5.058
    1PA     H3R  712   1.249   4.073   5.142
    1PA     H3S  713   1.301   3.911   5.099
    1PA     C12  714   1.407   4.061   4.986
    1PA     H2R  715   1.452   3.986   4.921
    1PA     H2S  716   1.383   4.148   4.926
    2PC     C11  717   1.499   4.124   5.088
    2PC     O12  718   1.510   4.091   5.205
    2PC     O11  719   1.587   4.208   5.031
    2PC      C1  720   1.662   4.300   5.112
    2PC      HR  721   1.677   4.275   5.218
    2PC      HS  722   1.757   4.321   5.063
    2PC      C2  723   1.586   4.433   5.115
    2PC      HX  724   1.651   4.512   5.155
    2PC      C3  725   1.461   4.418   5.203
    2PC      HA  726   1.380   4.371   5.147
    2PC      HB  727   1.493   4.365   5.293
    2PC     O31  728   1.427   4.552   5.245
    2PC     P31  729   1.339   4.587   5.374
    2PC     O32  730   1.459   4.618   5.475
    2PC     C31  731   1.441   4.731   5.563
    2PC     H1A  732   1.461   4.823   5.507
    2PC     H1B  733   1.338   4.747   5.596
    2PC     C32  734   1.537   4.704   5.680
    2PC     H2A  735   1.523   4.598   5.701
    2PC     H2B  736   1.638   4.723   5.643
    2PC     N31  737   1.515   4.788   5.803
    2PC     C33  738   1.489   4.930   5.762
    2PC     H3A  739   1.411   4.943   5.688
    2PC     H3B  740   1.450   4.984   5.848
    2PC     H3C  741   1.581   4.978   5.727
    2PC     C34  742   1.398   4.728   5.875
    2PC     H4A  743   1.428   4.628   5.906
    2PC     H4B  744   1.351   4.783   5.956
    2PC     H4C  745   1.322   4.727   5.796
    2PC     C35  746   1.630   4.785   5.899
    2PC     H5A  747   1.610   4.840   5.991
    2PC     H5B  748   1.707   4.843   5.848
    2PC     H5C  749   1.664   4.682   5.909
    2PC     O33  750   1.241   4.689   5.329
    2PC     O34  751   1.260   4.469   5.418
    2PC     O21  752   1.548   4.483   4.986
    2PC     C21  753   1.643   4.517   4.898
    2PC     O22  754   1.764   4.515   4.913
    3OL     C12  755   1.577   4.553   4.768
    3OL     H2R  756   1.483   4.596   4.802
    3OL     H2S  757   1.535   4.466   4.718
    3OL     C13  758   1.659   4.652   4.683
    3OL     H3R  759   1.731   4.592   4.629
    3OL     H3S  760   1.710   4.725   4.747
    3OL     C14  761   1.571   4.721   4.578
    3OL     H4R  762   1.500   4.782   4.634
    3OL     H4S  763   1.516   4.654   4.512
    3OL     C15  764   1.662   4.807   4.488
    3OL     H5R  765   1.726   4.745   4.426
    3OL     H5S  766   1.731   4.865   4.550
    3OL     C16  767   1.573   4.906   4.411
    3OL     H6R  768   1.537   4.979   4.484
    3OL     H6S  769   1.485   4.860   4.367
    3OL     C17  770   1.645   4.975   4.295
    3OL     H7R  771   1.677   4.904   4.218
    3OL     H7S  772   1.742   5.012   4.327
    3OL     C18  773   1.561   5.086   4.229
    3OL     H8R  774   1.488   5.051   4.156
    3OL     H8S  775   1.629   5.141   4.164
    3OL     C19  776   1.499   5.184   4.325
    3OL     H9R  777   1.563   5.246   4.387
    3OL    C110  778   1.371   5.216   4.335
    3OL    H10R  779   1.352   5.298   4.405
    3OL    C111  780   1.253   5.140   4.279
    3OL    H11R  781   1.262   5.034   4.301
    3OL    H11S  782   1.258   5.142   4.170
    3OL    C112  783   1.115   5.196   4.315
    3OL    H12R  784   1.099   5.194   4.423
    3OL    H12S  785   1.035   5.132   4.277
    3OL    C113  786   1.105   5.345   4.279
    3OL    H13R  787   1.197   5.397   4.306
    3OL    H13S  788   1.018   5.385   4.332
    3OL    C114  789   1.079   5.379   4.132
    3OL    H14R  790   1.009   5.312   4.082
    3OL    H14S  791   1.170   5.363   4.074
    3OL    C115  792   1.033   5.524   4.114
    3OL    H15R  793   1.111   5.581   4.166
    3OL    H15S  794   0.937   5.548   4.160
    3OL    C116  795   1.035   5.556   3.963
    3OL    H16R  796   0.968   5.501   3.896
    3OL    H16S  797   1.134   5.550   3.918
    3OL    C117  798   0.987   5.702   3.966
    3OL    H17R  799   1.051   5.761   4.031
    3OL    H17S  800   0.882   5.705   3.996
    3OL    C118  801   0.983   5.758   3.823
    3OL    H18R  802   0.920   5.706   3.750
    3OL    H18S  803   1.086   5.767   3.791
    3OL    H18T  804   0.947   5.861   3.829
    1PA    C116  805   0.594   1.366   3.937
    1PA    H16R  806   0.506   1.380   3.874
    1PA    H16S  807   0.644   1.462   3.953
    1PA    H16T  808   0.564   1.323   4.033
    1PA    C115  809   0.692   1.272   3.866
    1PA    H15R  810   0.644   1.174   3.859
    1PA    H15S  811   0.698   1.312   3.765
    1PA    C114  812   0.830   1.255   3.933
    1PA    H14R  813   0.907   1.221   3.864
    1PA    H14S  814   0.853   1.355   3.972
    1PA    C113  815   0.822   1.160   4.053
    1PA    H13R  816   0.721   1.165   4.093
    1PA    H13S  817   0.853   1.057   4.032
    1PA    C112  818   0.914   1.218   4.161
    1PA    H12R  819   1.011   1.251   4.122
    1PA    H12S  820   0.866   1.307   4.203
    1PA    C111  821   0.936   1.125   4.281
    1PA    H11R  822   0.844   1.106   4.337
    1PA    H11S  823   0.988   1.035   4.251
    1PA    C110  824   1.022   1.206   4.380
    1PA    H10R  825   1.116   1.232   4.331
    1PA    H10S  826   0.964   1.294   4.410
    1PA     C19  827   1.067   1.138   4.510
    1PA     H9R  828   0.977   1.095   4.554
    1PA     H9S  829   1.140   1.059   4.489
    1PA     C18  830   1.146   1.237   4.597
    1PA     H8R  831   1.206   1.180   4.668
    1PA     H8S  832   1.205   1.299   4.530
    1PA     C17  833   1.043   1.311   4.684
    1PA     H7R  834   0.955   1.335   4.624
    1PA     H7S  835   1.012   1.247   4.766
    1PA     C16  836   1.095   1.446   4.735
    1PA     H6R  837   1.182   1.432   4.799
    1PA     H6S  838   1.122   1.506   4.649
    1PA     C15  839   0.988   1.516   4.822
    1PA     H5R  840   0.899   1.526   4.761
    1PA     H5S  841   0.948   1.462   4.908
    1PA     C14  842   1.038   1.659   4.846
    1PA     H4R  843   1.129   1.643   4.904
    1PA     H4S  844   1.070   1.703   4.751
    1PA     C13  845   0.931   1.741   4.919
    1PA     H3R  846   0.857   1.750   4.840
    1PA     H3S  847   0.879   1.693   5.002
    1PA     C12  848   0.964   1.888   4.949
    1PA     H2R  849   1.028   1.895   5.037
    1PA     H2S  850   1.011   1.927   4.859
    2PC     C11  851   0.837   1.956   4.994
    2PC     O12  852   0.730   1.899   5.006
    2PC     O11  853   0.852   2.087   5.016
    2PC      C1  854   0.746   2.159   5.082
    2PC      HR  855   0.765   2.265   5.063
    2PC      HS  856   0.651   2.130   5.037
    2PC      C2  857   0.749   2.121   5.230
    2PC      HX  858   0.722   2.015   5.238
    2PC      C3  859   0.634   2.191   5.303
    2PC      HA  860   0.666   2.282   5.354
    2PC      HB  861   0.553   2.221   5.235
    2PC     O31  862   0.583   2.110   5.410
    2PC     P31  863   0.487   2.171   5.522
    2PC     O32  864   0.396   2.258   5.423
    2PC     C31  865   0.268   2.306   5.467
    2PC     H1A  866   0.218   2.231   5.529
    2PC     H1B  867   0.283   2.390   5.536
    2PC     C32  868   0.192   2.354   5.343
    2PC     H2A  869   0.113   2.425   5.368
    2PC     H2B  870   0.269   2.397   5.278
    2PC     N31  871   0.112   2.251   5.268
    2PC     C33  872   0.029   2.163   5.356
    2PC     H3A  873   0.090   2.092   5.412
    2PC     H3B  874  -0.020   2.221   5.434
    2PC     H3C  875  -0.043   2.105   5.298
    2PC     C34  876   0.012   2.312   5.175
    2PC     H4A  877  -0.057   2.379   5.225
    2PC     H4B  878   0.070   2.361   5.096
    2PC     H4C  879  -0.043   2.232   5.125
    2PC     C35  880   0.209   2.176   5.182
    2PC     H5A  881   0.170   2.091   5.127
    2PC     H5B  882   0.295   2.144   5.242
    2PC     H5C  883   0.247   2.237   5.099
    2PC     O33  884   0.419   2.072   5.608
    2PC     O34  885   0.555   2.270   5.610
    2PC     O21  886   0.878   2.155   5.284
    2PC     C21  887   0.964   2.053   5.299
    2PC     O22  888   0.946   1.934   5.277
    3OL     C12  889   1.100   2.098   5.345
    3OL     H2R  890   1.084   2.150   5.439
    3OL     H2S  891   1.134   2.177   5.278
    3OL     C13  892   1.203   1.985   5.359
    3OL     H3R  893   1.161   1.897   5.407
    3OL     H3S  894   1.286   2.019   5.422
    3OL     C14  895   1.263   1.939   5.225
    3OL     H4R  896   1.185   1.956   5.151
    3OL     H4S  897   1.274   1.832   5.246
    3OL     C15  898   1.396   2.008   5.192
    3OL     H5R  899   1.466   1.994   5.274
    3OL     H5S  900   1.386   2.117   5.183
    3OL     C16  901   1.458   1.967   5.058
    3OL     H6R  902   1.546   2.032   5.050
    3OL     H6S  903   1.389   1.974   4.975
    3OL     C17  904   1.502   1.820   5.058
    3OL     H7R  905   1.410   1.763   5.075
    3OL     H7S  906   1.574   1.810   5.139
    3OL     C18  907   1.564   1.790   4.921
    3OL     H8R  908   1.670   1.815   4.927
    3OL     H8S  909   1.512   1.845   4.843
    3OL     C19  910   1.561   1.643   4.888
    3OL     H9R  911   1.473   1.593   4.928
    3OL    C110  912   1.644   1.574   4.811
    3OL    H10R  913   1.620   1.470   4.790
    3OL    C111  914   1.780   1.623   4.767
    3OL    H11R  915   1.823   1.693   4.838
    3OL    H11S  916   1.764   1.671   4.671
    3OL    C112  917   1.873   1.501   4.758
    3OL    H12R  918   1.807   1.416   4.741
    3OL    H12S  919   1.919   1.481   4.855
    3OL    C113  920   1.984   1.537   4.658
    3OL    H13R  921   2.039   1.620   4.701
    3OL    H13S  922   1.945   1.564   4.560
    3OL    C114  923   2.085   1.423   4.639
    3OL    H14R  924   2.170   1.464   4.585
    3OL    H14S  925   2.038   1.348   4.576
    3OL    C115  926   2.147   1.380   4.773
    3OL    H15R  927   2.079   1.317   4.829
    3OL    H15S  928   2.177   1.470   4.827
    3OL    C116  929   2.271   1.292   4.758
    3OL    H16R  930   2.351   1.336   4.697
    3OL    H16S  931   2.233   1.206   4.704
    3OL    C117  932   2.330   1.241   4.890
    3OL    H17R  933   2.369   1.141   4.868
    3OL    H17S  934   2.251   1.231   4.964
    3OL    C118  935   2.430   1.334   4.961
    3OL    H18R  936   2.473   1.287   5.050
    3OL    H18S  937   2.380   1.423   5.000
    3OL    H18T  938   2.508   1.359   4.889
    1PA    C116  939   3.388   3.711   4.961
    1PA    H16R  940   3.345   3.704   5.061
    1PA    H16S  941   3.384   3.816   4.931
    1PA    H16T  942   3.493   3.682   4.969
    1PA    C115  943   3.314   3.623   4.859
    1PA    H15R  944   3.359   3.524   4.872
    1PA    H15S  945   3.207   3.617   4.879
    1PA    C114  946   3.348   3.671   4.717
    1PA    H14R  947   3.440   3.729   4.706
    1PA    H14S  948   3.353   3.581   4.655
    1PA    C113  949   3.234   3.764   4.673
    1PA    H13R  950   3.242   3.778   4.565
    1PA    H13S  951   3.139   3.711   4.675
    1PA    C112  952   3.226   3.899   4.746
    1PA    H12R  953   3.204   3.878   4.851
    1PA    H12S  954   3.320   3.953   4.732
    1PA    C111  955   3.101   3.980   4.711
    1PA    H11R  956   3.105   3.997   4.603
    1PA    H11S  957   3.016   3.911   4.720
    1PA    C110  958   3.080   4.101   4.802
    1PA    H10R  959   2.993   4.158   4.767
    1PA    H10S  960   3.063   4.059   4.902
    1PA     C19  961   3.201   4.195   4.790
    1PA     H9R  962   3.295   4.156   4.827
    1PA     H9S  963   3.219   4.224   4.686
    1PA     C18  964   3.178   4.324   4.870
    1PA     H8R  965   3.081   4.369   4.847
    1PA     H8S  966   3.162   4.309   4.977
    1PA     C17  967   3.290   4.427   4.847
    1PA     H7R  968   3.280   4.463   4.744
    1PA     H7S  969   3.270   4.514   4.910
    1PA     C16  970   3.431   4.370   4.870
    1PA     H6R  971   3.436   4.308   4.960
    1PA     H6S  972   3.452   4.300   4.789
    1PA     C15  973   3.542   4.476   4.875
    1PA     H5R  974   3.638   4.436   4.906
    1PA     H5S  975   3.564   4.522   4.778
    1PA     C14  976   3.514   4.595   4.968
    1PA     H4R  977   3.604   4.655   4.959
    1PA     H4S  978   3.420   4.647   4.948
    1PA     C13  979   3.514   4.555   5.116
    1PA     H3R  980   3.431   4.488   5.139
    1PA     H3S  981   3.597   4.488   5.140
    1PA     C12  982   3.504   4.680   5.205
    1PA     H2R  983   3.598   4.735   5.203
    1PA     H2S  984   3.423   4.745   5.169
    2PC     C11  985   3.467   4.640   5.346
    2PC     O12  986   3.395   4.713   5.411
    2PC     O11  987   3.544   4.537   5.383
    2PC      C1  988   3.544   4.501   5.523
    2PC      HR  989   3.446   4.513   5.570
    2PC      HS  990   3.554   4.393   5.533
    2PC      C2  991   3.658   4.574   5.594
    2PC      HX  992   3.675   4.524   5.689
    2PC      C3  993   3.632   4.722   5.626
    2PC      HA  994   3.696   4.785   5.563
    2PC      HB  995   3.526   4.746   5.609
    2PC     O31  996   3.657   4.751   5.764
    2PC     P31  997   3.645   4.899   5.823
    2PC     O32  998   3.803   4.923   5.821
    2PC     C31  999   3.876   4.874   5.935
    2PC     H1A 1000   3.847   4.929   6.026
    2PC     H1B 1001   3.851   4.769   5.950
    2PC     C32 1002   4.025   4.893   5.901
    2PC     H2A 1003   4.046   4.999   5.888
    2PC     H2B 1004   4.089   4.854   5.981
    2PC     N31 1005   4.074   4.811   5.786
    2PC     C33 1006   4.009   4.845   5.655
    2PC     H3A 1007   4.036   4.944   5.620
    2PC     H3B 1008   4.041   4.767   5.584
    2PC     H3C 1009   3.903   4.837   5.679
    2PC     C34 1010   4.218   4.850   5.775
    2PC     H4A 1011   4.229   4.953   5.743
    2PC     H4B 1012   4.261   4.837   5.875
    2PC     H4C 1013   4.268   4.783   5.704
    2PC     C35 1014   4.061   4.666   5.820
    2PC     H5A 1015   4.083   4.594   5.741
    2PC     H5B 1016   3.959   4.643   5.850
    2PC     H5C 1017   4.130   4.647   5.903
    2PC     O33 1018   3.555   4.992   5.750
    2PC     O34 1019   3.592   4.892   5.962
    2PC     O21 1020   3.779   4.558   5.517
    2PC     C21 1021   3.828   4.433   5.505
    2PC     O22 1022   3.792   4.331   5.559
    3OL     C12 1023   3.934   4.426   5.397
    3OL     H2R 1024   3.959   4.321   5.383
    3OL     H2S 1025   4.023   4.474   5.439
    3OL     C13 1026   3.883   4.485   5.265
    3OL     H3R 1027   3.860   4.589   5.291
    3OL     H3S 1028   3.797   4.439   5.218
    3OL     C14 1029   3.992   4.477   5.157
    3OL     H4R 1030   3.933   4.507   5.070
    3OL     H4S 1031   4.018   4.372   5.143
    3OL     C15 1032   4.111   4.570   5.186
    3OL     H5R 1033   4.175   4.532   5.266
    3OL     H5S 1034   4.081   4.673   5.205
    3OL     C16 1035   4.206   4.584   5.066
    3OL     H6R 1036   4.156   4.610   4.973
    3OL     H6S 1037   4.254   4.486   5.061
    3OL     C17 1038   4.318   4.683   5.102
    3OL     H7R 1039   4.381   4.650   5.185
    3OL     H7S 1040   4.267   4.774   5.134
    3OL     C18 1041   4.417   4.719   4.990
    3OL     H8R 1042   4.480   4.798   5.031
    3OL     H8S 1043   4.364   4.763   4.906
    3OL     C19 1044   4.499   4.598   4.952
    3OL     H9R 1045   4.560   4.563   5.035
    3OL    C110 1046   4.502   4.537   4.835
    3OL    H10R 1047   4.562   4.447   4.824
    3OL    C111 1048   4.427   4.589   4.715
    3OL    H11R 1049   4.441   4.697   4.714
    3OL    H11S 1050   4.324   4.556   4.731
    3OL    C112 1051   4.459   4.524   4.580
    3OL    H12R 1052   4.425   4.420   4.570
    3OL    H12S 1053   4.568   4.522   4.572
    3OL    C113 1054   4.405   4.590   4.452
    3OL    H13R 1055   4.430   4.696   4.442
    3OL    H13S 1056   4.297   4.607   4.456
    3OL    C114 1057   4.453   4.521   4.324
    3OL    H14R 1058   4.419   4.417   4.329
    3OL    H14S 1059   4.561   4.509   4.322
    3OL    C115 1060   4.397   4.588   4.197
    3OL    H15R 1061   4.406   4.697   4.190
    3OL    H15S 1062   4.294   4.550   4.196
    3OL    C116 1063   4.469   4.523   4.078
    3OL    H16R 1064   4.578   4.530   4.083
    3OL    H16S 1065   4.449   4.416   4.087
    3OL    C117 1066   4.423   4.573   3.940
    3OL    H17R 1067   4.451   4.677   3.924
    3OL    H17S 1068   4.314   4.569   3.940
    3OL    C118 1069   4.484   4.485   3.831
    3OL    H18R 1070   4.463   4.518   3.729
    3OL    H18S 1071   4.593   4.489   3.843
    3OL    H18T 1072   4.457   4.380   3.849
    1PA    C116 1073   0.364   4.436   3.764
    1PA    H16R 1074   0.434   4.456   3.682
    1PA    H16S 1075   0.360   4.514   3.839
    1PA    H16T 1076   0.261   4.434   3.727
    1PA    C115 1077   0.402   4.303   3.831
    1PA    H15R 1078   0.326   4.289   3.908
    1PA    H15S 1079   0.400   4.229   3.751
    1PA    C114 1080   0.537   4.306   3.905
    1PA    H14R 1081   0.608   4.373   3.856
    1PA    H14S 1082   0.522   4.342   4.007
    1PA    C113 1083   0.595   4.164   3.914
    1PA    H13R 1084   0.521   4.085   3.927
    1PA    H13S 1085   0.646   4.143   3.819
    1PA    C112 1086   0.691   4.156   4.033
    1PA    H12R 1087   0.753   4.244   4.010
    1PA    H12S 1088   0.642   4.149   4.130
    1PA    C111 1089   0.774   4.027   4.022
    1PA    H11R 1090   0.707   3.944   4.045
    1PA    H11S 1091   0.808   4.018   3.919
    1PA    C110 1092   0.887   4.021   4.126
    1PA    H10R 1093   0.832   4.034   4.219
    1PA    H10S 1094   0.926   3.919   4.128
    1PA     C19 1095   0.991   4.133   4.113
    1PA     H9R 1096   1.049   4.107   4.025
    1PA     H9S 1097   0.941   4.230   4.106
    1PA     C18 1098   1.082   4.125   4.237
    1PA     H8R 1099   1.095   4.021   4.268
    1PA     H8S 1100   1.182   4.165   4.219
    1PA     C17 1101   1.025   4.213   4.349
    1PA     H7R 1102   1.013   4.316   4.315
    1PA     H7S 1103   0.926   4.170   4.369
    1PA     C16 1104   1.104   4.224   4.480
    1PA     H6R 1105   1.104   4.125   4.527
    1PA     H6S 1106   1.205   4.254   4.451
    1PA     C15 1107   1.044   4.323   4.581
    1PA     H5R 1108   1.021   4.418   4.532
    1PA     H5S 1109   0.954   4.274   4.618
    1PA     C14 1110   1.130   4.330   4.709
    1PA     H4R 1111   1.127   4.232   4.757
    1PA     H4S 1112   1.234   4.343   4.680
    1PA     C13 1113   1.089   4.440   4.808
    1PA     H3R 1114   1.000   4.492   4.772
    1PA     H3S 1115   1.050   4.377   4.889
    1PA     C12 1116   1.211   4.524   4.845
    1PA     H2R 1117   1.289   4.475   4.904
    1PA     H2S 1118   1.262   4.553   4.753
    2PC     C11 1119   1.183   4.652   4.921
    2PC     O12 1120   1.075   4.687   4.964
    2PC     O11 1121   1.298   4.717   4.942
    2PC      C1 1122   1.298   4.828   5.033
    2PC      HR 1123   1.249   4.917   4.991
    2PC      HS 1124   1.245   4.802   5.125
    2PC      C2 1125   1.446   4.863   5.053
    2PC      HX 1126   1.501   4.769   5.061
    2PC      C3 1127   1.471   4.939   5.185
    2PC      HA 1128   1.450   4.866   5.264
    2PC      HB 1129   1.579   4.957   5.189
    2PC     O31 1130   1.388   5.056   5.185
    2PC     P31 1131   1.402   5.176   5.289
    2PC     O32 1132   1.448   5.289   5.185
    2PC     C31 1133   1.585   5.302   5.140
    2PC     H1A 1134   1.623   5.208   5.100
    2PC     H1B 1135   1.568   5.365   5.052
    2PC     C32 1136   1.664   5.357   5.259
    2PC     H2A 1137   1.642   5.292   5.343
    2PC     H2B 1138   1.768   5.357   5.226
    2PC     N31 1139   1.641   5.495   5.312
    2PC     C33 1140   1.506   5.511   5.376
    2PC     H3A 1141   1.507   5.455   5.469
    2PC     H3B 1142   1.498   5.616   5.407
    2PC     H3C 1143   1.434   5.473   5.303
    2PC     C34 1144   1.756   5.518   5.406
    2PC     H4A 1145   1.765   5.430   5.469
    2PC     H4B 1146   1.843   5.526   5.341
    2PC     H4C 1147   1.749   5.611   5.463
    2PC     C35 1148   1.657   5.605   5.211
    2PC     H5A 1149   1.626   5.700   5.254
    2PC     H5B 1150   1.580   5.577   5.139
    2PC     H5C 1151   1.757   5.602   5.169
    2PC     O33 1152   1.282   5.209   5.369
    2PC     O34 1153   1.489   5.162   5.409
    2PC     O21 1154   1.486   4.953   4.948
    2PC     C21 1155   1.616   4.974   4.921
    2PC     O22 1156   1.708   4.920   4.979
    3OL     C12 1157   1.620   5.069   4.804
    3OL     H2R 1158   1.582   5.158   4.855
    3OL     H2S 1159   1.554   5.032   4.725
    3OL     C13 1160   1.758   5.103   4.747
    3OL     H3R 1161   1.797   5.005   4.719
    3OL     H3S 1162   1.828   5.141   4.821
    3OL     C14 1163   1.739   5.195   4.626
    3OL     H4R 1164   1.715   5.296   4.662
    3OL     H4S 1165   1.654   5.156   4.570
    3OL     C15 1166   1.864   5.199   4.537
    3OL     H5R 1167   1.836   5.250   4.445
    3OL     H5S 1168   1.893   5.104   4.493
    3OL     C16 1169   1.983   5.271   4.602
    3OL     H6R 1170   2.025   5.226   4.692
    3OL     H6S 1171   1.957   5.370   4.641
    3OL     C17 1172   2.094   5.302   4.500
    3OL     H7R 1173   2.171   5.365   4.543
    3OL     H7S 1174   2.056   5.355   4.413
    3OL     C18 1175   2.160   5.174   4.448
    3OL     H8R 1176   2.082   5.107   4.411
    3OL     H8S 1177   2.201   5.118   4.532
    3OL     C19 1178   2.269   5.195   4.346
    3OL     H9R 1179   2.364   5.166   4.390
    3OL    C110 1180   2.252   5.233   4.220
    3OL    H10R 1181   2.336   5.250   4.154
    3OL    C111 1182   2.127   5.271   4.148
    3OL    H11R 1183   2.142   5.370   4.105
    3OL    H11S 1184   2.039   5.278   4.213
    3OL    C112 1185   2.084   5.185   4.029
    3OL    H12R 1186   2.082   5.079   4.054
    3OL    H12S 1187   2.149   5.200   3.942
    3OL    C113 1188   1.938   5.228   4.009
    3OL    H13R 1189   1.925   5.336   4.009
    3OL    H13S 1190   1.874   5.188   4.088
    3OL    C114 1191   1.892   5.176   3.872
    3OL    H14R 1192   1.880   5.068   3.867
    3OL    H14S 1193   1.949   5.201   3.782
    3OL    C115 1194   1.754   5.238   3.847
    3OL    H15R 1195   1.769   5.344   3.826
    3OL    H15S 1196   1.704   5.237   3.944
    3OL    C116 1197   1.680   5.178   3.727
    3OL    H16R 1198   1.679   5.069   3.728
    3OL    H16S 1199   1.722   5.199   3.628
    3OL    C117 1200   1.539   5.237   3.717
    3OL    H17R 1201   1.550   5.345   3.708
    3OL    H17S 1202   1.487   5.221   3.812
    3OL    C118 1203   1.469   5.175   3.595
    3OL    H18R 1204   1.468   5.067   3.613
    3OL    H18S 1205   1.527   5.199   3.506
    3OL    H18T 1206   1.368   5.215   3.586
    1PA    C116 1207   0.083   3.350   3.635
    1PA    H16R 1208   0.151   3.287   3.578
    1PA    H16S 1209   0.064   3.440   3.577
    1PA    H16T 1210  -0.009   3.294   3.657
    1PA    C115 1211   0.148   3.380   3.771
    1PA    H15R 1212   0.243   3.422   3.739
    1PA    H15S 1213   0.092   3.458   3.822
    1PA    C114 1214   0.168   3.251   3.852
    1PA    H14R 1215   0.071   3.208   3.877
    1PA    H14S 1216   0.223   3.180   3.790
    1PA    C113 1217   0.241   3.265   3.987
    1PA    H13R 1218   0.258   3.166   4.029
    1PA    H13S 1219   0.338   3.310   3.967
    1PA    C112 1220   0.161   3.358   4.079
    1PA    H12R 1221   0.168   3.459   4.040
    1PA    H12S 1222   0.059   3.318   4.085
    1PA    C111 1223   0.236   3.361   4.212
    1PA    H11R 1224   0.233   3.266   4.266
    1PA    H11S 1225   0.342   3.385   4.198
    1PA    C110 1226   0.181   3.461   4.314
    1PA    H10R 1227   0.197   3.554   4.259
    1PA    H10S 1228   0.075   3.449   4.340
    1PA     C19 1229   0.261   3.456   4.445
    1PA     H9R 1230   0.248   3.356   4.487
    1PA     H9S 1231   0.368   3.468   4.430
    1PA     C18 1232   0.216   3.564   4.544
    1PA     H8R 1233   0.218   3.665   4.505
    1PA     H8S 1234   0.112   3.542   4.567
    1PA     C17 1235   0.302   3.555   4.671
    1PA     H7R 1236   0.308   3.450   4.694
    1PA     H7S 1237   0.398   3.598   4.641
    1PA     C16 1238   0.248   3.643   4.785
    1PA     H6R 1239   0.208   3.739   4.751
    1PA     H6S 1240   0.167   3.587   4.831
    1PA     C15 1241   0.362   3.672   4.884
    1PA     H5R 1242   0.421   3.586   4.917
    1PA     H5S 1243   0.430   3.742   4.833
    1PA     C14 1244   0.304   3.738   5.010
    1PA     H4R 1245   0.255   3.834   4.991
    1PA     H4S 1246   0.233   3.672   5.061
    1PA     C13 1247   0.413   3.746   5.118
    1PA     H3R 1248   0.370   3.770   5.215
    1PA     H3S 1249   0.457   3.648   5.134
    1PA     C12 1250   0.526   3.843   5.082
    1PA     H2R 1251   0.593   3.800   5.006
    1PA     H2S 1252   0.485   3.930   5.031
    2PC     C11 1253   0.607   3.882   5.202
    2PC     O12 1254   0.712   3.828   5.230
    2PC     O11 1255   0.549   3.980   5.275
    2PC      C1 1256   0.622   4.024   5.391
    2PC      HR 1257   0.613   3.940   5.462
    2PC      HS 1258   0.726   4.047   5.370
    2PC      C2 1259   0.563   4.152   5.451
    2PC      HX 1260   0.613   4.166   5.547
    2PC      C3 1261   0.413   4.146   5.483
    2PC      HA 1262   0.347   4.160   5.397
    2PC      HB 1263   0.384   4.047   5.518
    2PC     O31 1264   0.378   4.239   5.587
    2PC     P31 1265   0.426   4.222   5.739
    2PC     O32 1266   0.565   4.299   5.754
    2PC     C31 1267   0.597   4.373   5.873
    2PC     H1A 1268   0.554   4.474   5.871
    2PC     H1B 1269   0.551   4.323   5.958
    2PC     C32 1270   0.748   4.394   5.896
    2PC     H2A 1271   0.767   4.404   6.003
    2PC     H2B 1272   0.797   4.302   5.865
    2PC     N31 1273   0.818   4.503   5.820
    2PC     C33 1274   0.965   4.504   5.845
    2PC     H3A 1275   0.988   4.535   5.947
    2PC     H3B 1276   1.005   4.405   5.820
    2PC     H3C 1277   1.016   4.574   5.778
    2PC     C34 1278   0.796   4.485   5.673
    2PC     H4A 1279   0.860   4.555   5.619
    2PC     H4B 1280   0.836   4.386   5.651
    2PC     H4C 1281   0.691   4.489   5.643
    2PC     C35 1282   0.770   4.641   5.853
    2PC     H5A 1283   0.833   4.712   5.799
    2PC     H5B 1284   0.773   4.647   5.962
    2PC     H5C 1285   0.664   4.642   5.826
    2PC     O33 1286   0.320   4.293   5.816
    2PC     O34 1287   0.421   4.080   5.782
    2PC     O21 1288   0.585   4.276   5.380
    2PC     C21 1289   0.710   4.325   5.377
    2PC     O22 1290   0.807   4.270   5.425
    3OL     C12 1291   0.713   4.454   5.299
    3OL     H2R 1292   0.772   4.517   5.365
    3OL     H2S 1293   0.619   4.510   5.300
    3OL     C13 1294   0.773   4.435   5.159
    3OL     H3R 1295   0.877   4.401   5.169
    3OL     H3S 1296   0.787   4.534   5.116
    3OL     C14 1297   0.685   4.340   5.076
    3OL     H4R 1298   0.578   4.357   5.092
    3OL     H4S 1299   0.712   4.238   5.104
    3OL     C15 1300   0.703   4.362   4.925
    3OL     H5R 1301   0.757   4.454   4.903
    3OL     H5S 1302   0.600   4.386   4.897
    3OL     C16 1303   0.765   4.242   4.852
    3OL     H6R 1304   0.861   4.228   4.903
    3OL     H6S 1305   0.798   4.276   4.754
    3OL     C17 1306   0.671   4.122   4.836
    3OL     H7R 1307   0.583   4.160   4.784
    3OL     H7S 1308   0.633   4.108   4.937
    3OL     C18 1309   0.733   3.994   4.778
    3OL     H8R 1310   0.662   3.912   4.771
    3OL     H8S 1311   0.806   3.955   4.850
    3OL     C19 1312   0.801   4.013   4.644
    3OL     H9R 1313   0.900   4.059   4.645
    3OL    C110 1314   0.772   3.951   4.531
    3OL    H10R 1315   0.850   3.951   4.455
    3OL    C111 1316   0.654   3.863   4.498
    3OL    H11R 1317   0.587   3.848   4.583
    3OL    H11S 1318   0.696   3.764   4.480
    3OL    C112 1319   0.582   3.926   4.379
    3OL    H12R 1320   0.637   3.915   4.285
    3OL    H12S 1321   0.569   4.032   4.401
    3OL    C113 1322   0.448   3.857   4.347
    3OL    H13R 1323   0.380   3.881   4.429
    3OL    H13S 1324   0.445   3.748   4.349
    3OL    C114 1325   0.381   3.907   4.219
    3OL    H14R 1326   0.308   3.828   4.200
    3OL    H14S 1327   0.444   3.915   4.130
    3OL    C115 1328   0.313   4.041   4.250
    3OL    H15R 1329   0.386   4.116   4.280
    3OL    H15S 1330   0.248   4.028   4.336
    3OL    C116 1331   0.227   4.089   4.132
    3OL    H16R 1332   0.149   4.015   4.114
    3OL    H16S 1333   0.279   4.118   4.040
    3OL    C117 1334   0.166   4.223   4.175
    3OL    H17R 1335   0.242   4.299   4.195
    3OL    H17S 1336   0.109   4.222   4.268
    3OL    C118 1337   0.070   4.271   4.064
    3OL    H18R 1338   0.033   4.371   4.088
    3OL    H18S 1339  -0.020   4.211   4.065
    3OL    H18T 1340   0.105   4.266   3.961
    1PA    C116 1341   0.989   2.562   3.578
    1PA    H16R 1342   0.994   2.553   3.469
    1PA    H16S 1343   1.092   2.574   3.614
    1PA    H16T 1344   0.937   2.653   3.606
    1PA    C115 1345   0.933   2.438   3.647
    1PA    H15R 1346   0.825   2.438   3.629
    1PA    H15S 1347   0.981   2.351   3.601
    1PA    C114 1348   0.948   2.429   3.800
    1PA    H14R 1349   0.901   2.335   3.830
    1PA    H14S 1350   1.055   2.421   3.818
    1PA    C113 1351   0.897   2.551   3.877
    1PA    H13R 1352   0.909   2.649   3.830
    1PA    H13S 1353   0.788   2.544   3.887
    1PA    C112 1354   0.946   2.534   4.021
    1PA    H12R 1355   0.904   2.443   4.064
    1PA    H12S 1356   1.055   2.524   4.018
    1PA    C111 1357   0.913   2.665   4.096
    1PA    H11R 1358   0.965   2.749   4.050
    1PA    H11S 1359   0.808   2.688   4.079
    1PA    C110 1360   0.938   2.652   4.247
    1PA    H10R 1361   0.911   2.553   4.284
    1PA    H10S 1362   1.043   2.667   4.273
    1PA     C19 1363   0.856   2.760   4.319
    1PA     H9R 1364   0.874   2.849   4.259
    1PA     H9S 1365   0.749   2.739   4.314
    1PA     C18 1366   0.877   2.768   4.471
    1PA     H8R 1367   0.831   2.673   4.501
    1PA     H8S 1368   0.980   2.780   4.505
    1PA     C17 1369   0.794   2.888   4.521
    1PA     H7R 1370   0.834   2.979   4.476
    1PA     H7S 1371   0.690   2.871   4.494
    1PA     C16 1372   0.816   2.913   4.671
    1PA     H6R 1373   0.788   2.826   4.730
    1PA     H6S 1374   0.920   2.944   4.685
    1PA     C15 1375   0.723   3.029   4.708
    1PA     H5R 1376   0.730   3.110   4.635
    1PA     H5S 1377   0.621   2.991   4.707
    1PA     C14 1378   0.745   3.103   4.841
    1PA     H4R 1379   0.832   3.170   4.830
    1PA     H4S 1380   0.665   3.175   4.857
    1PA     C13 1381   0.745   3.003   4.957
    1PA     H3R 1382   0.819   2.925   4.937
    1PA     H3S 1383   0.774   3.063   5.043
    1PA     C12 1384   0.605   2.945   4.980
    1PA     H2R 1385   0.532   3.026   4.965
    1PA     H2S 1386   0.584   2.871   4.902
    2PC     C11 1387   0.581   2.879   5.113
    2PC     O12 1388   0.592   2.760   5.137
    2PC     O11 1389   0.540   2.968   5.206
    2PC      C1 1390   0.524   2.927   5.343
    2PC      HR 1391   0.451   2.994   5.390
    2PC      HS 1392   0.491   2.823   5.346
    2PC      C2 1393   0.661   2.933   5.412
    2PC      HX 1394   0.713   2.854   5.357
    2PC      C3 1395   0.654   2.890   5.559
    2PC      HA 1396   0.626   2.784   5.562
    2PC      HB 1397   0.744   2.902   5.620
    2PC     O31 1398   0.554   2.965   5.631
    2PC     P31 1399   0.475   2.885   5.745
    2PC     O32 1400   0.470   2.976   5.877
    2PC     C31 1401   0.341   3.017   5.925
    2PC     H1A 1402   0.354   3.095   6.001
    2PC     H1B 1403   0.300   3.061   5.834
    2PC     C32 1404   0.272   2.897   5.991
    2PC     H2A 1405   0.165   2.918   5.998
    2PC     H2B 1406   0.285   2.811   5.925
    2PC     N31 1407   0.316   2.857   6.128
    2PC     C33 1408   0.295   2.963   6.231
    2PC     H3A 1409   0.336   2.938   6.329
    2PC     H3B 1410   0.356   3.043   6.190
    2PC     H3C 1411   0.190   2.991   6.239
    2PC     C34 1412   0.242   2.730   6.161
    2PC     H4A 1413   0.256   2.653   6.085
    2PC     H4B 1414   0.278   2.701   6.260
    2PC     H4C 1415   0.139   2.765   6.172
    2PC     C35 1416   0.464   2.833   6.134
    2PC     H5A 1417   0.486   2.737   6.088
    2PC     H5B 1418   0.490   2.842   6.240
    2PC     H5C 1419   0.515   2.908   6.074
    2PC     O33 1420   0.347   2.847   5.681
    2PC     O34 1421   0.535   2.754   5.782
    2PC     O21 1422   0.722   3.061   5.388
    2PC     C21 1423   0.852   3.076   5.420
    2PC     O22 1424   0.929   2.988   5.453
    3OL     C12 1425   0.896   3.218   5.394
    3OL     H2R 1426   0.895   3.272   5.489
    3OL     H2S 1427   0.826   3.269   5.328
    3OL     C13 1428   1.035   3.235   5.332
    3OL     H3R 1429   1.107   3.167   5.378
    3OL     H3S 1430   1.057   3.338   5.360
    3OL     C14 1431   1.030   3.231   5.178
    3OL     H4R 1432   0.951   3.301   5.149
    3OL     H4S 1433   1.003   3.133   5.139
    3OL     C15 1434   1.163   3.284   5.122
    3OL     H5R 1435   1.239   3.221   5.168
    3OL     H5S 1436   1.164   3.391   5.147
    3OL     C16 1437   1.159   3.254   4.972
    3OL     H6R 1438   1.054   3.246   4.943
    3OL     H6S 1439   1.207   3.156   4.960
    3OL     C17 1440   1.245   3.358   4.899
    3OL     H7R 1441   1.351   3.346   4.921
    3OL     H7S 1442   1.210   3.456   4.934
    3OL     C18 1443   1.226   3.353   4.747
    3OL     H8R 1444   1.286   3.434   4.705
    3OL     H8S 1445   1.124   3.386   4.727
    3OL     C19 1446   1.260   3.224   4.678
    3OL     H9R 1447   1.354   3.175   4.704
    3OL    C110 1448   1.187   3.153   4.593
    3OL    H10R 1449   1.235   3.063   4.554
    3OL    C111 1450   1.061   3.206   4.530
    3OL    H11R 1451   1.036   3.304   4.572
    3OL    H11S 1452   0.981   3.142   4.567
    3OL    C112 1453   1.055   3.219   4.377
    3OL    H12R 1454   1.134   3.283   4.338
    3OL    H12S 1455   0.951   3.246   4.355
    3OL    C113 1456   1.073   3.085   4.304
    3OL    H13R 1457   1.016   3.011   4.359
    3OL    H13S 1458   1.180   3.061   4.298
    3OL    C114 1459   1.023   3.084   4.159
    3OL    H14R 1460   0.914   3.082   4.160
    3OL    H14S 1461   1.049   2.988   4.113
    3OL    C115 1462   1.074   3.202   4.075
    3OL    H15R 1463   1.183   3.190   4.074
    3OL    H15S 1464   1.043   3.293   4.126
    3OL    C116 1465   1.015   3.183   3.934
    3OL    H16R 1466   0.907   3.197   3.936
    3OL    H16S 1467   1.041   3.081   3.904
    3OL    C117 1468   1.071   3.282   3.831
    3OL    H17R 1469   1.022   3.272   3.735
    3OL    H17S 1470   1.178   3.263   3.816
    3OL    C118 1471   1.049   3.430   3.866
    3OL    H18R 1472   1.107   3.481   3.788
    3OL    H18S 1473   1.084   3.454   3.966
    3OL    H18T 1474   0.941   3.443   3.860
    1PA    C116 1475   1.768   2.371   3.763
    1PA    H16R 1476   1.872   2.391   3.737
    1PA    H16S 1477   1.696   2.384   3.682
    1PA    H16T 1478   1.760   2.269   3.803
    1PA    C115 1479   1.737   2.461   3.883
    1PA    H15R 1480   1.746   2.563   3.845
    1PA    H15S 1481   1.631   2.446   3.906
    1PA    C114 1482   1.823   2.440   4.008
    1PA    H14R 1483   1.833   2.332   4.020
    1PA    H14S 1484   1.918   2.491   3.991
    1PA    C113 1485   1.744   2.507   4.121
    1PA    H13R 1486   1.738   2.614   4.099
    1PA    H13S 1487   1.645   2.461   4.122
    1PA    C112 1488   1.812   2.493   4.258
    1PA    H12R 1489   1.826   2.387   4.277
    1PA    H12S 1490   1.909   2.540   4.242
    1PA    C111 1491   1.727   2.541   4.377
    1PA    H11R 1492   1.687   2.642   4.366
    1PA    H11S 1493   1.637   2.478   4.379
    1PA    C110 1494   1.785   2.531   4.519
    1PA    H10R 1495   1.705   2.548   4.592
    1PA    H10S 1496   1.823   2.431   4.541
    1PA     C19 1497   1.897   2.629   4.555
    1PA     H9R 1498   1.980   2.595   4.492
    1PA     H9S 1499   1.875   2.731   4.523
    1PA     C18 1500   1.927   2.627   4.705
    1PA     H8R 1501   1.937   2.524   4.741
    1PA     H8S 1502   2.028   2.667   4.712
    1PA     C17 1503   1.839   2.722   4.787
    1PA     H7R 1504   1.874   2.821   4.757
    1PA     H7S 1505   1.732   2.716   4.768
    1PA     C16 1506   1.867   2.690   4.935
    1PA     H6R 1507   1.968   2.649   4.947
    1PA     H6S 1508   1.861   2.787   4.984
    1PA     C15 1509   1.753   2.601   4.988
    1PA     H5R 1510   1.763   2.592   5.097
    1PA     H5S 1511   1.666   2.663   4.970
    1PA     C14 1512   1.745   2.461   4.925
    1PA     H4R 1513   1.651   2.408   4.941
    1PA     H4S 1514   1.759   2.471   4.817
    1PA     C13 1515   1.850   2.368   4.985
    1PA     H3R 1516   1.879   2.292   4.912
    1PA     H3S 1517   1.939   2.425   5.012
    1PA     C12 1518   1.795   2.289   5.105
    1PA     H2R 1519   1.745   2.358   5.174
    1PA     H2S 1520   1.722   2.214   5.074
    2PC     C11 1521   1.896   2.215   5.188
    2PC     O12 1522   2.015   2.202   5.168
    2PC     O11 1523   1.827   2.158   5.288
    2PC      C1 1524   1.898   2.111   5.404
    2PC      HR 1525   1.992   2.059   5.383
    2PC      HS 1526   1.920   2.200   5.464
    2PC      C2 1527   1.810   2.012   5.481
    2PC      HX 1528   1.706   2.045   5.477
    2PC      C3 1529   1.854   2.005   5.628
    2PC      HA 1530   1.834   2.103   5.674
    2PC      HB 1531   1.794   1.927   5.676
    2PC     O31 1532   1.994   1.974   5.640
    2PC     P31 1533   2.058   1.936   5.781
    2PC     O32 1534   2.175   2.043   5.798
    2PC     C31 1535   2.135   2.177   5.765
    2PC     H1A 1536   2.113   2.175   5.658
    2PC     H1B 1537   2.048   2.214   5.820
    2PC     C32 1538   2.248   2.271   5.807
    2PC     H2A 1539   2.263   2.258   5.914
    2PC     H2B 1540   2.340   2.241   5.756
    2PC     N31 1541   2.229   2.417   5.781
    2PC     C33 1542   2.240   2.454   5.636
    2PC     H3A 1543   2.170   2.400   5.573
    2PC     H3B 1544   2.220   2.561   5.624
    2PC     H3C 1545   2.341   2.433   5.602
    2PC     C34 1546   2.103   2.480   5.831
    2PC     H4A 1547   2.084   2.447   5.933
    2PC     H4B 1548   2.108   2.589   5.832
    2PC     H4C 1549   2.028   2.438   5.764
    2PC     C35 1550   2.329   2.501   5.854
    2PC     H5A 1551   2.427   2.468   5.819
    2PC     H5B 1552   2.322   2.486   5.962
    2PC     H5C 1553   2.312   2.607   5.836
    2PC     O33 1554   1.978   1.945   5.905
    2PC     O34 1555   2.127   1.805   5.793
    2PC     O21 1556   1.822   1.887   5.410
    2PC     C21 1557   1.716   1.805   5.401
    2PC     O22 1558   1.610   1.840   5.449
    3OL     C12 1559   1.733   1.677   5.323
    3OL     H2R 1560   1.839   1.651   5.332
    3OL     H2S 1561   1.725   1.699   5.216
    3OL     C13 1562   1.650   1.558   5.372
    3OL     H3R 1563   1.544   1.583   5.367
    3OL     H3S 1564   1.664   1.541   5.479
    3OL     C14 1565   1.669   1.431   5.288
    3OL     H4R 1566   1.672   1.466   5.185
    3OL     H4S 1567   1.583   1.366   5.301
    3OL     C15 1568   1.799   1.358   5.326
    3OL     H5R 1569   1.800   1.344   5.434
    3OL     H5S 1570   1.876   1.431   5.303
    3OL     C16 1571   1.805   1.222   5.256
    3OL     H6R 1572   1.739   1.157   5.315
    3OL     H6S 1573   1.907   1.183   5.259
    3OL     C17 1574   1.758   1.215   5.109
    3OL     H7R 1575   1.799   1.300   5.055
    3OL     H7S 1576   1.650   1.206   5.108
    3OL     C18 1577   1.811   1.087   5.043
    3OL     H8R 1578   1.766   1.072   4.945
    3OL     H8S 1579   1.787   1.008   5.114
    3OL     C19 1580   1.959   1.089   5.016
    3OL     H9R 1581   2.011   1.126   5.104
    3OL    C110 1582   2.024   1.044   4.910
    3OL    H10R 1583   2.132   1.051   4.905
    3OL    C111 1584   1.949   0.999   4.787
    3OL    H11R 1585   2.013   1.001   4.698
    3OL    H11S 1586   1.864   1.065   4.765
    3OL    C112 1587   1.891   0.857   4.795
    3OL    H12R 1588   1.838   0.829   4.704
    3OL    H12S 1589   1.812   0.858   4.871
    3OL    C113 1590   2.000   0.752   4.823
    3OL    H13R 1591   2.050   0.772   4.917
    3OL    H13S 1592   2.073   0.758   4.742
    3OL    C114 1593   1.939   0.612   4.838
    3OL    H14R 1594   1.863   0.605   4.760
    3OL    H14S 1595   1.886   0.614   4.934
    3OL    C115 1596   2.045   0.501   4.842
    3OL    H15R 1597   2.125   0.508   4.916
    3OL    H15S 1598   2.096   0.504   4.746
    3OL    C116 1599   1.973   0.367   4.869
    3OL    H16R 1600   1.898   0.347   4.792
    3OL    H16S 1601   1.917   0.369   4.962
    3OL    C117 1602   2.063   0.242   4.873
    3OL    H17R 1603   2.140   0.251   4.950
    3OL    H17S 1604   2.118   0.248   4.779
    3OL    C118 1605   1.978   0.114   4.872
    3OL    H18R 1606   2.041   0.046   4.814
    3OL    H18S 1607   1.879   0.138   4.834
    3OL    H18T 1608   1.962   0.078   4.974
    1PA    C116 1609   1.001   6.344   4.361
    1PA    H16R 1610   1.033   6.448   4.374
    1PA    H16S 1611   1.079   6.269   4.366
    1PA    H16T 1612   0.946   6.326   4.454
    1PA    C115 1613   0.918   6.353   4.233
    1PA    H15R 1614   0.823   6.406   4.243
    1PA    H15S 1615   0.972   6.420   4.166
    1PA    C114 1616   0.915   6.210   4.177
    1PA    H14R 1617   0.902   6.145   4.263
    1PA    H14S 1618   0.829   6.202   4.110
    1PA    C113 1619   1.034   6.162   4.093
    1PA    H13R 1620   1.011   6.164   3.986
    1PA    H13S 1621   1.111   6.240   4.086
    1PA    C112 1622   1.102   6.033   4.140
    1PA    H12R 1623   1.096   6.029   4.249
    1PA    H12S 1624   1.052   5.946   4.097
    1PA    C111 1625   1.247   6.038   4.090
    1PA    H11R 1626   1.254   6.055   3.983
    1PA    H11S 1627   1.295   6.120   4.143
    1PA    C110 1628   1.324   5.912   4.133
    1PA    H10R 1629   1.273   5.823   4.094
    1PA    H10S 1630   1.420   5.907   4.081
    1PA     C19 1631   1.348   5.891   4.283
    1PA     H9R 1632   1.253   5.879   4.337
    1PA     H9S 1633   1.406   5.799   4.292
    1PA     C18 1634   1.442   5.994   4.345
    1PA     H8R 1635   1.540   5.992   4.296
    1PA     H8S 1636   1.391   6.091   4.344
    1PA     C17 1637   1.462   5.957   4.493
    1PA     H7R 1638   1.361   5.958   4.534
    1PA     H7S 1639   1.509   5.859   4.505
    1PA     C16 1640   1.554   6.058   4.562
    1PA     H6R 1641   1.652   6.071   4.515
    1PA     H6S 1642   1.502   6.153   4.577
    1PA     C15 1643   1.595   6.010   4.702
    1PA     H5R 1644   1.503   5.996   4.758
    1PA     H5S 1645   1.648   5.915   4.696
    1PA     C14 1646   1.672   6.125   4.770
    1PA     H4R 1647   1.759   6.159   4.713
    1PA     H4S 1648   1.609   6.212   4.787
    1PA     C13 1649   1.706   6.084   4.914
    1PA     H3R 1650   1.623   6.032   4.963
    1PA     H3S 1651   1.784   6.008   4.902
    1PA     C12 1652   1.756   6.203   4.996
    1PA     H2R 1653   1.836   6.252   4.941
    1PA     H2S 1654   1.674   6.274   4.996
    2PC     C11 1655   1.779   6.163   5.140
    2PC     O12 1656   1.688   6.112   5.201
    2PC     O11 1657   1.900   6.197   5.186
    2PC      C1 1658   1.945   6.160   5.318
    2PC      HR 1659   2.048   6.197   5.317
    2PC      HS 1660   1.880   6.214   5.387
    2PC      C2 1661   1.944   6.008   5.342
    2PC      HX 1662   1.849   5.955   5.331
    2PC      C3 1663   1.977   5.986   5.490
    2PC      HA 1664   2.079   6.025   5.502
    2PC      HB 1665   1.903   6.032   5.556
    2PC     O31 1666   1.989   5.850   5.537
    2PC     P31 1667   2.006   5.816   5.692
    2PC     O32 1668   2.164   5.825   5.710
    2PC     C31 1669   2.208   5.946   5.773
    2PC     H1A 1670   2.188   6.025   5.699
    2PC     H1B 1671   2.164   5.956   5.873
    2PC     C32 1672   2.361   5.941   5.784
    2PC     H2A 1673   2.406   5.950   5.684
    2PC     H2B 1674   2.400   6.029   5.835
    2PC     N31 1675   2.424   5.826   5.856
    2PC     C33 1676   2.432   5.705   5.767
    2PC     H3A 1677   2.506   5.710   5.687
    2PC     H3B 1678   2.460   5.622   5.833
    2PC     H3C 1679   2.329   5.698   5.733
    2PC     C34 1680   2.565   5.859   5.894
    2PC     H4A 1681   2.560   5.949   5.955
    2PC     H4B 1682   2.602   5.781   5.961
    2PC     H4C 1683   2.629   5.879   5.807
    2PC     C35 1684   2.342   5.801   5.980
    2PC     H5A 1685   2.361   5.877   6.056
    2PC     H5B 1686   2.361   5.708   6.033
    2PC     H5C 1687   2.238   5.809   5.949
    2PC     O33 1688   1.930   5.901   5.787
    2PC     O34 1689   1.971   5.679   5.736
    2PC     O21 1690   2.047   5.946   5.264
    2PC     C21 1691   2.016   5.909   5.139
    2PC     O22 1692   1.901   5.895   5.103
    3OL     C12 1693   2.137   5.884   5.053
    3OL     H2R 1694   2.101   5.843   4.959
    3OL     H2S 1695   2.195   5.804   5.099
    3OL     C13 1696   2.227   6.007   5.037
    3OL     H3R 1697   2.331   5.983   5.012
    3OL     H3S 1698   2.228   6.044   5.140
    3OL     C14 1699   2.161   6.109   4.943
    3OL     H4R 1700   2.202   6.206   4.972
    3OL     H4S 1701   2.054   6.107   4.954
    3OL     C15 1702   2.212   6.087   4.800
    3OL     H5R 1703   2.181   5.987   4.766
    3OL     H5S 1704   2.321   6.091   4.792
    3OL     C16 1705   2.165   6.184   4.691
    3OL     H6R 1706   2.187   6.154   4.588
    3OL     H6S 1707   2.225   6.271   4.718
    3OL     C17 1708   2.017   6.217   4.703
    3OL     H7R 1709   2.017   6.265   4.801
    3OL     H7S 1710   1.957   6.126   4.704
    3OL     C18 1711   1.974   6.299   4.580
    3OL     H8R 1712   2.030   6.392   4.572
    3OL     H8S 1713   1.868   6.324   4.596
    3OL     C19 1714   1.986   6.217   4.454
    3OL     H9R 1715   2.045   6.127   4.471
    3OL    C110 1716   1.943   6.246   4.332
    3OL    H10R 1717   1.967   6.195   4.239
    3OL    C111 1718   1.873   6.376   4.301
    3OL    H11R 1719   1.936   6.436   4.234
    3OL    H11S 1720   1.864   6.437   4.390
    3OL    C112 1721   1.729   6.348   4.253
    3OL    H12R 1722   1.680   6.444   4.239
    3OL    H12S 1723   1.685   6.295   4.338
    3OL    C113 1724   1.715   6.264   4.126
    3OL    H13R 1725   1.610   6.236   4.123
    3OL    H13S 1726   1.782   6.178   4.131
    3OL    C114 1727   1.767   6.334   3.999
    3OL    H14R 1728   1.874   6.355   4.008
    3OL    H14S 1729   1.708   6.424   3.983
    3OL    C115 1730   1.740   6.244   3.878
    3OL    H15R 1731   1.636   6.211   3.872
    3OL    H15S 1732   1.808   6.158   3.887
    3OL    C116 1733   1.764   6.319   3.747
    3OL    H16R 1734   1.738   6.425   3.744
    3OL    H16S 1735   1.713   6.268   3.665
    3OL    C117 1736   1.914   6.330   3.715
    3OL    H17R 1737   1.958   6.230   3.724
    3OL    H17S 1738   1.962   6.394   3.789
    3OL    C118 1739   1.940   6.382   3.573
    3OL    H18R 1740   1.910   6.303   3.504
    3OL    H18S 1741   2.045   6.409   3.559
    3OL    H18T 1742   1.880   6.470   3.549
    1PA    C116 1743   0.674   0.223   4.954
    1PA    H16R 1744   0.604   0.179   5.026
    1PA    H16S 1745   0.643   0.327   4.938
    1PA    H16T 1746   0.776   0.227   4.993
    1PA    C115 1747   0.674   0.141   4.824
    1PA    H15R 1748   0.769   0.152   4.771
    1PA    H15S 1749   0.670   0.036   4.853
    1PA    C114 1750   0.568   0.178   4.719
    1PA    H14R 1751   0.552   0.091   4.656
    1PA    H14S 1752   0.476   0.199   4.774
    1PA    C113 1753   0.603   0.300   4.633
    1PA    H13R 1754   0.592   0.396   4.682
    1PA    H13S 1755   0.706   0.307   4.598
    1PA    C112 1756   0.524   0.310   4.502
    1PA    H12R 1757   0.578   0.367   4.425
    1PA    H12S 1758   0.498   0.207   4.476
    1PA    C111 1759   0.387   0.377   4.522
    1PA    H11R 1760   0.316   0.316   4.579
    1PA    H11S 1761   0.396   0.478   4.563
    1PA    C110 1762   0.319   0.395   4.386
    1PA    H10R 1763   0.396   0.436   4.321
    1PA    H10S 1764   0.298   0.296   4.344
    1PA     C19 1765   0.202   0.494   4.382
    1PA     H9R 1766   0.229   0.585   4.438
    1PA     H9S 1767   0.167   0.530   4.285
    1PA     C18 1768   0.082   0.434   4.455
    1PA     H8R 1769   0.027   0.354   4.403
    1PA     H8S 1770   0.107   0.390   4.552
    1PA     C17 1771  -0.017   0.542   4.501
    1PA     H7R 1772  -0.030   0.602   4.410
    1PA     H7S 1773  -0.115   0.499   4.522
    1PA     C16 1774   0.027   0.647   4.604
    1PA     H6R 1775   0.114   0.700   4.565
    1PA     H6S 1776  -0.053   0.721   4.610
    1PA     C15 1777   0.065   0.583   4.739
    1PA     H5R 1778  -0.014   0.521   4.781
    1PA     H5S 1779   0.145   0.509   4.734
    1PA     C14 1780   0.120   0.690   4.835
    1PA     H4R 1781   0.219   0.725   4.807
    1PA     H4S 1782   0.055   0.778   4.835
    1PA     C13 1783   0.130   0.649   4.982
    1PA     H3R 1784   0.174   0.729   5.041
    1PA     H3S 1785   0.032   0.623   5.021
    1PA     C12 1786   0.232   0.534   4.996
    1PA     H2R 1787   0.182   0.441   4.968
    1PA     H2S 1788   0.320   0.552   4.934
    2PC     C11 1789   0.267   0.503   5.139
    2PC     O12 1790   0.212   0.555   5.233
    2PC     O11 1791   0.370   0.417   5.147
    2PC      C1 1792   0.391   0.350   5.273
    2PC      HR 1793   0.482   0.291   5.257
    2PC      HS 1794   0.405   0.429   5.347
    2PC      C2 1795   0.274   0.264   5.320
    2PC      HX 1796   0.182   0.323   5.316
    2PC      C3 1797   0.291   0.220   5.466
    2PC      HA 1798   0.285   0.309   5.530
    2PC      HB 1799   0.211   0.149   5.490
    2PC     O31 1800   0.424   0.167   5.480
    2PC     P31 1801   0.476   0.113   5.621
    2PC     O32 1802   0.355   0.018   5.667
    2PC     C31 1803   0.380  -0.077   5.772
    2PC     H1A 1804   0.447  -0.156   5.736
    2PC     H1B 1805   0.416  -0.029   5.863
    2PC     C32 1806   0.243  -0.142   5.797
    2PC     H2A 1807   0.164  -0.075   5.829
    2PC     H2B 1808   0.206  -0.184   5.703
    2PC     N31 1809   0.245  -0.258   5.892
    2PC     C33 1810   0.283  -0.210   6.029
    2PC     H3A 1811   0.215  -0.135   6.070
    2PC     H3B 1812   0.287  -0.294   6.098
    2PC     H3C 1813   0.384  -0.168   6.032
    2PC     C34 1814   0.108  -0.318   5.898
    2PC     H4A 1815   0.047  -0.241   5.947
    2PC     H4B 1816   0.079  -0.333   5.794
    2PC     H4C 1817   0.118  -0.405   5.963
    2PC     C35 1818   0.332  -0.367   5.838
    2PC     H5A 1819   0.311  -0.395   5.734
    2PC     H5B 1820   0.325  -0.459   5.896
    2PC     H5C 1821   0.436  -0.336   5.843
    2PC     O33 1822   0.601   0.034   5.627
    2PC     O34 1823   0.496   0.233   5.707
    2PC     O21 1824   0.269   0.139   5.248
    2PC     C21 1825   0.199   0.132   5.134
    2PC     O22 1826   0.135   0.228   5.094
    3OL     C12 1827   0.206   0.003   5.057
    3OL     H2R 1828   0.112  -0.051   5.069
    3OL     H2S 1829   0.285  -0.061   5.097
    3OL     C13 1830   0.249   0.031   4.912
    3OL     H3R 1831   0.345   0.083   4.911
    3OL     H3S 1832   0.181   0.099   4.860
    3OL     C14 1833   0.245  -0.099   4.832
    3OL     H4R 1834   0.313  -0.172   4.877
    3OL     H4S 1835   0.295  -0.088   4.735
    3OL     C15 1836   0.108  -0.166   4.818
    3OL     H5R 1837   0.067  -0.172   4.919
    3OL     H5S 1838   0.119  -0.272   4.795
    3OL     C16 1839   0.003  -0.101   4.726
    3OL     H6R 1840  -0.019  -0.006   4.775
    3OL     H6S 1841  -0.082  -0.169   4.717
    3OL     C17 1842   0.051  -0.087   4.581
    3OL     H7R 1843   0.128  -0.010   4.570
    3OL     H7S 1844  -0.041  -0.053   4.532
    3OL     C18 1845   0.097  -0.217   4.513
    3OL     H8R 1846   0.178  -0.260   4.572
    3OL     H8S 1847   0.145  -0.191   4.418
    3OL     C19 1848  -0.028  -0.300   4.495
    3OL     H9R 1849  -0.107  -0.242   4.448
    3OL    C110 1850  -0.040  -0.430   4.519
    3OL    H10R 1851  -0.134  -0.473   4.486
    3OL    C111 1852   0.062  -0.514   4.593
    3OL    H11R 1853   0.050  -0.526   4.700
    3OL    H11S 1854   0.162  -0.475   4.574
    3OL    C112 1855   0.049  -0.661   4.551
    3OL    H12R 1856   0.048  -0.664   4.442
    3OL    H12S 1857  -0.051  -0.698   4.576
    3OL    C113 1858   0.178  -0.720   4.608
    3OL    H13R 1859   0.176  -0.700   4.715
    3OL    H13S 1860   0.271  -0.680   4.567
    3OL    C114 1861   0.170  -0.872   4.589
    3OL    H14R 1862   0.206  -0.881   4.486
    3OL    H14S 1863   0.069  -0.914   4.586
    3OL    C115 1864   0.268  -0.951   4.676
    3OL    H15R 1865   0.356  -0.890   4.700
    3OL    H15S 1866   0.312  -1.031   4.616
    3OL    C116 1867   0.201  -1.002   4.805
    3OL    H16R 1868   0.161  -0.918   4.862
    3OL    H16S 1869   0.277  -1.050   4.867
    3OL    C117 1870   0.082  -1.097   4.787
    3OL    H17R 1871   0.100  -1.181   4.855
    3OL    H17S 1872   0.090  -1.150   4.692
    3OL    C118 1873  -0.060  -1.050   4.822
    3OL    H18R 1874  -0.138  -1.123   4.797
    3OL    H18S 1875  -0.099  -0.971   4.757
    3OL    H18T 1876  -0.077  -1.006   4.920
    1PA    C116 1877   4.057   3.117   3.968
    1PA    H16R 1878   4.109   3.204   3.928
    1PA    H16S 1879   3.949   3.131   3.956
    1PA    H16T 1880   4.085   3.022   3.924
    1PA    C115 1881   4.084   3.107   4.119
    1PA    H15R 1882   4.189   3.088   4.140
    1PA    H15S 1883   4.064   3.208   4.157
    1PA    C114 1884   4.004   2.996   4.188
    1PA    H14R 1885   3.899   3.027   4.189
    1PA    H14S 1886   4.018   2.901   4.137
    1PA    C113 1887   4.052   2.987   4.334
    1PA    H13R 1888   4.155   2.951   4.333
    1PA    H13S 1889   4.049   3.087   4.378
    1PA    C112 1890   3.962   2.885   4.404
    1PA    H12R 1891   3.860   2.923   4.405
    1PA    H12S 1892   3.958   2.791   4.349
    1PA    C111 1893   4.006   2.859   4.549
    1PA    H11R 1894   3.926   2.797   4.591
    1PA    H11S 1895   4.101   2.805   4.554
    1PA    C110 1896   4.005   2.983   4.639
    1PA    H10R 1897   4.054   3.070   4.594
    1PA    H10S 1898   3.901   3.017   4.637
    1PA     C19 1899   4.047   2.966   4.785
    1PA     H9R 1900   3.998   2.877   4.825
    1PA     H9S 1901   4.153   2.943   4.792
    1PA     C18 1902   3.999   3.088   4.865
    1PA     H8R 1903   4.045   3.180   4.827
    1PA     H8S 1904   3.891   3.100   4.852
    1PA     C17 1905   4.036   3.061   5.012
    1PA     H7R 1906   3.984   2.974   5.054
    1PA     H7S 1907   4.140   3.030   5.006
    1PA     C16 1908   4.010   3.185   5.098
    1PA     H6R 1909   4.059   3.270   5.050
    1PA     H6S 1910   3.904   3.210   5.102
    1PA     C15 1911   4.056   3.173   5.244
    1PA     H5R 1912   4.044   3.077   5.295
    1PA     H5S 1913   4.164   3.190   5.240
    1PA     C14 1914   3.998   3.282   5.335
    1PA     H4R 1915   4.014   3.381   5.291
    1PA     H4S 1916   3.889   3.281   5.339
    1PA     C13 1917   4.056   3.269   5.476
    1PA     H3R 1918   3.994   3.342   5.530
    1PA     H3S 1919   4.037   3.171   5.521
    1PA     C12 1920   4.205   3.306   5.482
    1PA     H2R 1921   4.275   3.233   5.441
    1PA     H2S 1922   4.213   3.399   5.426
    2PC     C11 1923   4.251   3.324   5.624
    2PC     O12 1924   4.179   3.315   5.722
    2PC     O11 1925   4.381   3.352   5.641
    2PC      C1 1926   4.441   3.379   5.769
    2PC      HR 1927   4.381   3.451   5.825
    2PC      HS 1928   4.431   3.284   5.823
    2PC      C2 1929   4.589   3.411   5.744
    2PC      HX 1930   4.626   3.348   5.663
    2PC      C3 1931   4.676   3.375   5.864
    2PC      HA 1932   4.646   3.274   5.893
    2PC      HB 1933   4.781   3.367   5.834
    2PC     O31 1934   4.657   3.465   5.974
    2PC     P31 1935   4.752   3.459   6.103
    2PC     O32 1936   4.891   3.511   6.045
    2PC     C31 1937   4.906   3.643   5.989
    2PC     H1A 1938   4.857   3.658   5.892
    2PC     H1B 1939   4.863   3.725   6.047
    2PC     C32 1940   5.055   3.655   5.953
    2PC     H2A 1941   5.086   3.575   5.885
    2PC     H2B 1942   5.071   3.750   5.902
    2PC     N31 1943   5.158   3.653   6.061
    2PC     C33 1944   5.192   3.518   6.115
    2PC     H3A 1945   5.123   3.476   6.189
    2PC     H3B 1946   5.204   3.442   6.038
    2PC     H3C 1947   5.286   3.527   6.169
    2PC     C34 1948   5.284   3.711   6.004
    2PC     H4A 1949   5.293   3.660   5.908
    2PC     H4B 1950   5.262   3.817   5.992
    2PC     H4C 1951   5.359   3.678   6.077
    2PC     C35 1952   5.118   3.750   6.168
    2PC     H5A 1953   5.098   3.839   6.109
    2PC     H5B 1954   5.196   3.766   6.243
    2PC     H5C 1955   5.026   3.712   6.213
    2PC     O33 1956   4.698   3.562   6.195
    2PC     O34 1957   4.743   3.330   6.174
    2PC     O21 1958   4.612   3.548   5.707
    2PC     C21 1959   4.717   3.581   5.630
    2PC     O22 1960   4.783   3.497   5.572
    3OL     C12 1961   4.735   3.728   5.604
    3OL     H2R 1962   4.725   3.769   5.705
    3OL     H2S 1963   4.653   3.764   5.541
    3OL     C13 1964   4.873   3.777   5.558
    3OL     H3R 1965   4.955   3.764   5.629
    3OL     H3S 1966   4.857   3.885   5.547
    3OL     C14 1967   4.891   3.749   5.408
    3OL     H4R 1968   4.813   3.801   5.352
    3OL     H4S 1969   4.901   3.640   5.399
    3OL     C15 1970   5.020   3.805   5.346
    3OL     H5R 1971   5.108   3.784   5.406
    3OL     H5S 1972   5.016   3.913   5.330
    3OL     C16 1973   5.036   3.760   5.200
    3OL     H6R 1974   4.946   3.769   5.140
    3OL     H6S 1975   5.072   3.657   5.201
    3OL     C17 1976   5.139   3.845   5.124
    3OL     H7R 1977   5.235   3.835   5.175
    3OL     H7S 1978   5.113   3.951   5.128
    3OL     C18 1979   5.158   3.792   4.981
    3OL     H8R 1980   5.061   3.786   4.933
    3OL     H8S 1981   5.199   3.692   4.989
    3OL     C19 1982   5.257   3.882   4.911
    3OL     H9R 1983   5.346   3.901   4.970
    3OL    C110 1984   5.238   3.947   4.797
    3OL    H10R 1985   5.309   4.022   4.766
    3OL    C111 1986   5.121   3.934   4.702
    3OL    H11R 1987   5.054   4.020   4.705
    3OL    H11S 1988   5.057   3.848   4.723
    3OL    C112 1989   5.174   3.928   4.558
    3OL    H12R 1990   5.254   4.003   4.551
    3OL    H12S 1991   5.094   3.956   4.490
    3OL    C113 1992   5.234   3.791   4.524
    3OL    H13R 1993   5.153   3.718   4.536
    3OL    H13S 1994   5.312   3.762   4.593
    3OL    C114 1995   5.279   3.776   4.378
    3OL    H14R 1996   5.378   3.820   4.363
    3OL    H14S 1997   5.216   3.827   4.305
    3OL    C115 1998   5.286   3.632   4.326
    3OL    H15R 1999   5.196   3.578   4.297
    3OL    H15S 2000   5.330   3.564   4.399
    3OL    C116 2001   5.382   3.622   4.206
    3OL    H16R 2002   5.472   3.680   4.225
    3OL    H16S 2003   5.333   3.670   4.122
    3OL    C117 2004   5.413   3.474   4.180
    3OL    H17R 2005   5.486   3.427   4.245
    3OL    H17S 2006   5.465   3.464   4.085
    3OL    C118 2007   5.286   3.389   4.168
    3OL    H18R 2008   5.247   3.385   4.270
    3OL    H18S 2009   5.317   3.290   4.134
    3OL    H18T 2010   5.209   3.426   4.100
    1PA    C116 2011   3.664  -0.203   4.121
    1PA    H16R 2012   3.640  -0.276   4.044
    1PA    H16S 2013   3.720  -0.132   4.061
    1PA    H16T 2014   3.572  -0.157   4.158
    1PA    C115 2015   3.741  -0.270   4.235
    1PA    H15R 2016   3.808  -0.342   4.188
    1PA    H15S 2017   3.790  -0.206   4.309
    1PA    C114 2018   3.640  -0.361   4.306
    1PA    H14R 2019   3.565  -0.291   4.345
    1PA    H14S 2020   3.588  -0.425   4.234
    1PA    C113 2021   3.694  -0.454   4.416
    1PA    H13R 2022   3.607  -0.512   4.448
    1PA    H13S 2023   3.767  -0.516   4.365
    1PA    C112 2024   3.750  -0.377   4.536
    1PA    H12R 2025   3.842  -0.324   4.507
    1PA    H12S 2026   3.670  -0.318   4.581
    1PA    C111 2027   3.784  -0.481   4.643
    1PA    H11R 2028   3.692  -0.531   4.674
    1PA    H11S 2029   3.835  -0.568   4.600
    1PA    C110 2030   3.847  -0.405   4.760
    1PA    H10R 2031   3.948  -0.377   4.728
    1PA    H10S 2032   3.793  -0.312   4.778
    1PA     C19 2033   3.851  -0.488   4.889
    1PA     H9R 2034   3.746  -0.498   4.918
    1PA     H9S 2035   3.886  -0.588   4.862
    1PA     C18 2036   3.922  -0.423   5.008
    1PA     H8R 2037   3.914  -0.314   5.008
    1PA     H8S 2038   3.881  -0.462   5.101
    1PA     C17 2039   4.073  -0.454   5.010
    1PA     H7R 2040   4.080  -0.563   5.016
    1PA     H7S 2041   4.132  -0.417   4.926
    1PA     C16 2042   4.135  -0.421   5.146
    1PA     H6R 2043   4.062  -0.457   5.220
    1PA     H6S 2044   4.231  -0.471   5.158
    1PA     C15 2045   4.149  -0.269   5.164
    1PA     H5R 2046   4.192  -0.226   5.073
    1PA     H5S 2047   4.056  -0.214   5.182
    1PA     C14 2048   4.242  -0.244   5.284
    1PA     H4R 2049   4.334  -0.299   5.266
    1PA     H4S 2050   4.267  -0.138   5.286
    1PA     C13 2051   4.171  -0.278   5.416
    1PA     H3R 2052   4.082  -0.214   5.426
    1PA     H3S 2053   4.133  -0.380   5.416
    1PA     C12 2054   4.261  -0.245   5.535
    1PA     H2R 2055   4.347  -0.313   5.534
    1PA     H2S 2056   4.302  -0.147   5.508
    2PC     C11 2057   4.196  -0.248   5.671
    2PC     O12 2058   4.087  -0.298   5.686
    2PC     O11 2059   4.268  -0.197   5.773
    2PC      C1 2060   4.207  -0.166   5.899
    2PC      HR 2061   4.128  -0.239   5.919
    2PC      HS 2062   4.280  -0.174   5.980
    2PC      C2 2063   4.139  -0.028   5.902
    2PC      HX 2064   4.204   0.054   5.869
    2PC      C3 2065   4.070   0.011   6.033
    2PC      HA 2066   3.969  -0.033   6.038
    2PC      HB 2067   4.130  -0.011   6.122
    2PC     O31 2068   4.054   0.153   6.043
    2PC     P31 2069   3.953   0.215   6.151
    2PC     O32 2070   3.939   0.367   6.103
    2PC     C31 2071   3.801   0.398   6.077
    2PC     H1A 2072   3.779   0.346   5.984
    2PC     H1B 2073   3.742   0.364   6.163
    2PC     C32 2074   3.783   0.550   6.063
    2PC     H2A 2075   3.859   0.574   5.988
    2PC     H2B 2076   3.683   0.579   6.028
    2PC     N31 2077   3.802   0.645   6.176
    2PC     C33 2078   3.809   0.782   6.116
    2PC     H3A 2079   3.738   0.777   6.033
    2PC     H3B 2080   3.781   0.860   6.188
    2PC     H3C 2081   3.908   0.799   6.074
    2PC     C34 2082   3.687   0.630   6.271
    2PC     H4A 2083   3.683   0.533   6.322
    2PC     H4B 2084   3.689   0.710   6.345
    2PC     H4C 2085   3.597   0.641   6.211
    2PC     C35 2086   3.926   0.618   6.256
    2PC     H5A 2087   4.010   0.615   6.186
    2PC     H5B 2088   3.916   0.527   6.315
    2PC     H5C 2089   3.936   0.704   6.323
    2PC     O33 2090   3.829   0.135   6.145
    2PC     O34 2091   4.009   0.210   6.288
    2PC     O21 2092   4.037  -0.029   5.801
    2PC     C21 2093   4.006   0.087   5.741
    2PC     O22 2094   4.072   0.189   5.739
    3OL     C12 2095   3.862   0.075   5.697
    3OL     H2R 2096   3.809   0.136   5.770
    3OL     H2S 2097   3.823  -0.027   5.699
    3OL     C13 2098   3.832   0.137   5.560
    3OL     H3R 2099   3.866   0.241   5.557
    3OL     H3S 2100   3.725   0.146   5.541
    3OL     C14 2101   3.887   0.049   5.446
    3OL     H4R 2102   3.829  -0.043   5.433
    3OL     H4S 2103   3.983   0.008   5.475
    3OL     C15 2104   3.902   0.132   5.318
    3OL     H5R 2105   3.957   0.221   5.351
    3OL     H5S 2106   3.802   0.166   5.290
    3OL     C16 2107   3.983   0.064   5.207
    3OL     H6R 2108   3.918  -0.010   5.159
    3OL     H6S 2109   4.069   0.012   5.250
    3OL     C17 2110   4.043   0.170   5.114
    3OL     H7R 2111   4.127   0.211   5.170
    3OL     H7S 2112   3.987   0.254   5.075
    3OL     C18 2113   4.109   0.089   5.002
    3OL     H8R 2114   4.180   0.017   5.044
    3OL     H8S 2115   4.172   0.157   4.944
    3OL     C19 2116   4.012   0.016   4.912
    3OL     H9R 2117   3.962  -0.073   4.951
    3OL    C110 2118   3.999   0.033   4.781
    3OL    H10R 2119   3.933  -0.025   4.717
    3OL    C111 2120   4.058   0.145   4.701
    3OL    H11R 2121   4.103   0.108   4.608
    3OL    H11S 2122   4.146   0.191   4.747
    3OL    C112 2123   3.948   0.250   4.682
    3OL    H12R 2124   3.907   0.280   4.779
    3OL    H12S 2125   3.866   0.203   4.628
    3OL    C113 2126   3.996   0.372   4.602
    3OL    H13R 2127   4.103   0.392   4.599
    3OL    H13S 2128   3.945   0.462   4.636
    3OL    C114 2129   3.953   0.368   4.454
    3OL    H14R 2130   3.961   0.266   4.418
    3OL    H14S 2131   4.009   0.429   4.382
    3OL    C115 2132   3.811   0.416   4.421
    3OL    H15R 2133   3.819   0.524   4.430
    3OL    H15S 2134   3.744   0.373   4.496
    3OL    C116 2135   3.762   0.388   4.278
    3OL    H16R 2136   3.771   0.279   4.270
    3OL    H16S 2137   3.809   0.449   4.200
    3OL    C117 2138   3.615   0.431   4.265
    3OL    H17R 2139   3.605   0.535   4.294
    3OL    H17S 2140   3.552   0.373   4.333
    3OL    C118 2141   3.556   0.423   4.123
    3OL    H18R 2142   3.447   0.435   4.129
    3OL    H18S 2143   3.576   0.323   4.086
    3OL    H18T 2144   3.603   0.491   4.052
    1PA    C116 2145   3.884   5.734   3.891
    1PA    H16R 2146   3.918   5.668   3.812
    1PA    H16S 2147   3.950   5.820   3.906
    1PA    H16T 2148   3.791   5.781   3.857
    1PA    C115 2149   3.851   5.658   4.020
    1PA    H15R 2150   3.824   5.726   4.100
    1PA    H15S 2151   3.769   5.588   4.002
    1PA    C114 2152   3.972   5.577   4.069
    1PA    H14R 2153   3.998   5.502   3.994
    1PA    H14S 2154   4.052   5.650   4.080
    1PA    C113 2155   3.943   5.514   4.206
    1PA    H13R 2156   3.894   5.593   4.265
    1PA    H13S 2157   3.871   5.434   4.188
    1PA    C112 2158   4.062   5.464   4.289
    1PA    H12R 2159   4.099   5.376   4.236
    1PA    H12S 2160   4.138   5.542   4.282
    1PA    C111 2161   4.024   5.443   4.436
    1PA    H11R 2162   4.001   5.540   4.479
    1PA    H11S 2163   3.935   5.380   4.447
    1PA    C110 2164   4.136   5.369   4.511
    1PA    H10R 2165   4.150   5.273   4.462
    1PA    H10S 2166   4.228   5.426   4.493
    1PA     C19 2167   4.108   5.351   4.661
    1PA     H9R 2168   4.083   5.442   4.715
    1PA     H9S 2169   4.010   5.304   4.669
    1PA     C18 2170   4.220   5.278   4.736
    1PA     H8R 2171   4.243   5.188   4.677
    1PA     H8S 2172   4.312   5.336   4.729
    1PA     C17 2173   4.188   5.232   4.879
    1PA     H7R 2174   4.159   5.317   4.942
    1PA     H7S 2175   4.111   5.155   4.870
    1PA     C16 2176   4.314   5.175   4.945
    1PA     H6R 2177   4.346   5.089   4.886
    1PA     H6S 2178   4.394   5.249   4.946
    1PA     C15 2179   4.286   5.136   5.091
    1PA     H5R 2180   4.237   5.218   5.143
    1PA     H5S 2181   4.215   5.053   5.095
    1PA     C14 2182   4.416   5.102   5.166
    1PA     H4R 2183   4.480   5.039   5.103
    1PA     H4S 2184   4.478   5.189   5.189
    1PA     C13 2185   4.388   5.026   5.296
    1PA     H3R 2186   4.328   5.080   5.369
    1PA     H3S 2187   4.332   4.933   5.280
    1PA     C12 2188   4.517   4.987   5.370
    1PA     H2R 2189   4.576   4.917   5.310
    1PA     H2S 2190   4.585   5.072   5.380
    2PC     C11 2191   4.498   4.926   5.506
    2PC     O12 2192   4.387   4.900   5.549
    2PC     O11 2193   4.610   4.903   5.577
    2PC      C1 2194   4.601   4.832   5.702
    2PC      HR 2195   4.696   4.840   5.757
    2PC      HS 2196   4.530   4.880   5.769
    2PC      C2 2197   4.563   4.684   5.688
    2PC      HX 2198   4.469   4.694   5.634
    2PC      C3 2199   4.535   4.614   5.822
    2PC      HA 2200   4.493   4.517   5.797
    2PC      HB 2201   4.631   4.601   5.873
    2PC     O31 2202   4.435   4.688   5.895
    2PC     P31 2203   4.414   4.661   6.051
    2PC     O32 2204   4.568   4.694   6.078
    2PC     C31 2205   4.595   4.828   6.124
    2PC     H1A 2206   4.586   4.902   6.043
    2PC     H1B 2207   4.518   4.854   6.197
    2PC     C32 2208   4.736   4.841   6.182
    2PC     H2A 2209   4.809   4.810   6.107
    2PC     H2B 2210   4.747   4.948   6.204
    2PC     N31 2211   4.777   4.753   6.296
    2PC     C33 2212   4.733   4.809   6.428
    2PC     H3A 2213   4.783   4.903   6.448
    2PC     H3B 2214   4.624   4.804   6.421
    2PC     H3C 2215   4.761   4.735   6.503
    2PC     C34 2216   4.720   4.614   6.295
    2PC     H4A 2217   4.611   4.615   6.298
    2PC     H4B 2218   4.756   4.552   6.213
    2PC     H4C 2219   4.762   4.580   6.390
    2PC     C35 2220   4.926   4.743   6.284
    2PC     H5A 2221   4.955   4.682   6.198
    2PC     H5B 2222   4.950   4.684   6.372
    2PC     H5C 2223   4.963   4.845   6.296
    2PC     O33 2224   4.318   4.750   6.121
    2PC     O34 2225   4.385   4.521   6.091
    2PC     O21 2226   4.661   4.613   5.609
    2PC     C21 2227   4.622   4.508   5.536
    2PC     O22 2228   4.504   4.479   5.529
    3OL     C12 2229   4.733   4.437   5.464
    3OL     H2R 2230   4.779   4.370   5.537
    3OL     H2S 2231   4.803   4.514   5.430
    3OL     C13 2232   4.682   4.359   5.343
    3OL     H3R 2233   4.653   4.436   5.271
    3OL     H3S 2234   4.601   4.290   5.369
    3OL     C14 2235   4.791   4.277   5.272
    3OL     H4R 2236   4.827   4.191   5.330
    3OL     H4S 2237   4.876   4.344   5.260
    3OL     C15 2238   4.750   4.217   5.136
    3OL     H5R 2239   4.732   4.305   5.073
    3OL     H5S 2240   4.656   4.162   5.140
    3OL     C16 2241   4.858   4.117   5.092
    3OL     H6R 2242   4.859   4.030   5.158
    3OL     H6S 2243   4.954   4.167   5.100
    3OL     C17 2244   4.838   4.079   4.945
    3OL     H7R 2245   4.910   4.001   4.917
    3OL     H7S 2246   4.849   4.167   4.882
    3OL     C18 2247   4.698   4.023   4.918
    3OL     H8R 2248   4.624   4.100   4.940
    3OL     H8S 2249   4.689   3.946   4.995
    3OL     C19 2250   4.668   3.972   4.779
    3OL     H9R 2251   4.656   4.052   4.706
    3OL    C110 2252   4.656   3.844   4.747
    3OL    H10R 2253   4.636   3.814   4.645
    3OL    C111 2254   4.689   3.731   4.842
    3OL    H11R 2255   4.599   3.689   4.886
    3OL    H11S 2256   4.749   3.774   4.922
    3OL    C112 2257   4.775   3.621   4.779
    3OL    H12R 2258   4.863   3.670   4.737
    3OL    H12S 2259   4.729   3.579   4.689
    3OL    C113 2260   4.813   3.509   4.877
    3OL    H13R 2261   4.719   3.472   4.919
    3OL    H13S 2262   4.868   3.549   4.963
    3OL    C114 2263   4.898   3.398   4.815
    3OL    H14R 2264   4.850   3.366   4.722
    3OL    H14S 2265   4.891   3.310   4.880
    3OL    C115 2266   5.042   3.450   4.813
    3OL    H15R 2267   5.079   3.442   4.915
    3OL    H15S 2268   5.047   3.553   4.782
    3OL    C116 2269   5.126   3.358   4.723
    3OL    H16R 2270   5.085   3.360   4.622
    3OL    H16S 2271   5.123   3.254   4.759
    3OL    C117 2272   5.270   3.410   4.720
    3OL    H17R 2273   5.316   3.397   4.819
    3OL    H17S 2274   5.270   3.516   4.697
    3OL    C118 2275   5.353   3.335   4.615
    3OL    H18R 2276   5.448   3.388   4.605
    3OL    H18S 2277   5.306   3.337   4.517
    3OL    H18T 2278   5.375   3.230   4.638
    1PA    C116 2279   0.337   5.819   3.669
    1PA    H16R 2280   0.388   5.795   3.575
    1PA    H16S 2281   0.355   5.919   3.707
    1PA    H16T 2282   0.231   5.794   3.664
    1PA    C115 2283   0.389   5.724   3.778
    1PA    H15R 2284   0.335   5.725   3.874
    1PA    H15S 2285   0.390   5.620   3.744
    1PA    C114 2286   0.530   5.768   3.820
    1PA    H14R 2287   0.594   5.786   3.734
    1PA    H14S 2288   0.540   5.865   3.870
    1PA    C113 2289   0.588   5.662   3.915
    1PA    H13R 2290   0.665   5.700   3.982
    1PA    H13S 2291   0.511   5.643   3.990
    1PA    C112 2292   0.626   5.528   3.850
    1PA    H12R 2293   0.600   5.518   3.745
    1PA    H12S 2294   0.735   5.522   3.852
    1PA    C111 2295   0.582   5.407   3.933
    1PA    H11R 2296   0.474   5.409   3.949
    1PA    H11S 2297   0.610   5.324   3.867
    1PA    C110 2298   0.653   5.395   4.069
    1PA    H10R 2299   0.756   5.430   4.059
    1PA    H10S 2300   0.605   5.459   4.143
    1PA     C19 2301   0.645   5.253   4.128
    1PA     H9R 2302   0.539   5.231   4.144
    1PA     H9S 2303   0.677   5.177   4.057
    1PA     C18 2304   0.722   5.229   4.258
    1PA     H8R 2305   0.722   5.121   4.273
    1PA     H8S 2306   0.826   5.260   4.244
    1PA     C17 2307   0.664   5.301   4.380
    1PA     H7R 2308   0.677   5.408   4.362
    1PA     H7S 2309   0.559   5.274   4.398
    1PA     C16 2310   0.750   5.270   4.503
    1PA     H6R 2311   0.746   5.164   4.527
    1PA     H6S 2312   0.856   5.287   4.481
    1PA     C15 2313   0.694   5.363   4.612
    1PA     H5R 2314   0.722   5.467   4.594
    1PA     H5S 2315   0.585   5.362   4.600
    1PA     C14 2316   0.746   5.321   4.750
    1PA     H4R 2317   0.750   5.213   4.765
    1PA     H4S 2318   0.850   5.352   4.761
    1PA     C13 2319   0.657   5.383   4.859
    1PA     H3R 2320   0.670   5.491   4.869
    1PA     H3S 2321   0.553   5.361   4.833
    1PA     C12 2322   0.676   5.319   4.998
    1PA     H2R 2323   0.655   5.215   4.975
    1PA     H2S 2324   0.776   5.323   5.042
    2PC     C11 2325   0.583   5.376   5.102
    2PC     O12 2326   0.545   5.491   5.110
    2PC     O11 2327   0.551   5.280   5.190
    2PC      C1 2328   0.455   5.315   5.292
    2PC      HR 2329   0.468   5.243   5.373
    2PC      HS 2330   0.480   5.414   5.330
    2PC      C2 2331   0.310   5.317   5.240
    2PC      HX 2332   0.287   5.389   5.161
    2PC      C3 2333   0.211   5.343   5.354
    2PC      HA 2334   0.239   5.428   5.417
    2PC      HB 2335   0.109   5.366   5.322
    2PC     O31 2336   0.225   5.231   5.444
    2PC     P31 2337   0.107   5.207   5.549
    2PC     O32 2338   0.160   5.292   5.674
    2PC     C31 2339   0.244   5.226   5.770
    2PC     H1A 2340   0.204   5.131   5.807
    2PC     H1B 2341   0.344   5.207   5.732
    2PC     C32 2342   0.241   5.319   5.893
    2PC     H2A 2343   0.138   5.330   5.928
    2PC     H2B 2344   0.300   5.259   5.962
    2PC     N31 2345   0.320   5.446   5.885
    2PC     C33 2346   0.222   5.546   5.830
    2PC     H3A 2347   0.199   5.530   5.725
    2PC     H3B 2348   0.127   5.556   5.883
    2PC     H3C 2349   0.272   5.642   5.841
    2PC     C34 2350   0.346   5.483   6.027
    2PC     H4A 2351   0.410   5.413   6.082
    2PC     H4B 2352   0.394   5.580   6.039
    2PC     H4C 2353   0.251   5.478   6.081
    2PC     C35 2354   0.451   5.438   5.813
    2PC     H5A 2355   0.518   5.355   5.838
    2PC     H5B 2356   0.507   5.531   5.822
    2PC     H5C 2357   0.423   5.421   5.709
    2PC     O33 2358  -0.027   5.236   5.494
    2PC     O34 2359   0.096   5.068   5.599
    2PC     O21 2360   0.293   5.184   5.190
    2PC     C21 2361   0.180   5.152   5.123
    2PC     O22 2362   0.095   5.232   5.090
    3OL     C12 2363   0.159   5.004   5.102
    3OL     H2R 2364   0.090   4.963   5.177
    3OL     H2S 2365   0.255   4.953   5.111
    3OL     C13 2366   0.111   4.973   4.960
    3OL     H3R 2367   0.160   5.037   4.886
    3OL     H3S 2368   0.007   4.997   4.935
    3OL     C14 2369   0.132   4.823   4.933
    3OL     H4R 2370   0.101   4.756   5.014
    3OL     H4S 2371   0.239   4.805   4.931
    3OL     C15 2372   0.077   4.778   4.797
    3OL     H5R 2373   0.127   4.834   4.717
    3OL     H5S 2374  -0.029   4.802   4.797
    3OL     C16 2375   0.093   4.626   4.779
    3OL     H6R 2376   0.016   4.594   4.708
    3OL     H6S 2377   0.082   4.571   4.872
    3OL     C17 2378   0.232   4.597   4.722
    3OL     H7R 2379   0.306   4.652   4.780
    3OL     H7S 2380   0.240   4.646   4.624
    3OL     C18 2381   0.281   4.452   4.717
    3OL     H8R 2382   0.209   4.378   4.755
    3OL     H8S 2383   0.371   4.442   4.778
    3OL     C19 2384   0.315   4.403   4.579
    3OL     H9R 2385   0.228   4.354   4.535
    3OL    C110 2386   0.434   4.410   4.520
    3OL    H10R 2387   0.439   4.369   4.419
    3OL    C111 2388   0.566   4.454   4.576
    3OL    H11R 2389   0.633   4.370   4.594
    3OL    H11S 2390   0.550   4.502   4.673
    3OL    C112 2391   0.643   4.558   4.493
    3OL    H12R 2392   0.736   4.587   4.544
    3OL    H12S 2393   0.588   4.650   4.471
    3OL    C113 2394   0.675   4.491   4.359
    3OL    H13R 2395   0.590   4.438   4.317
    3OL    H13S 2396   0.748   4.410   4.366
    3OL    C114 2397   0.713   4.597   4.255
    3OL    H14R 2398   0.808   4.632   4.297
    3OL    H14S 2399   0.646   4.683   4.247
    3OL    C115 2400   0.752   4.554   4.113
    3OL    H15R 2401   0.667   4.507   4.062
    3OL    H15S 2402   0.830   4.479   4.103
    3OL    C116 2403   0.793   4.677   4.031
    3OL    H16R 2404   0.731   4.761   4.063
    3OL    H16S 2405   0.781   4.645   3.928
    3OL    C117 2406   0.942   4.711   4.048
    3OL    H17R 2407   1.006   4.632   4.007
    3OL    H17S 2408   0.954   4.696   4.155
    3OL    C118 2409   0.987   4.855   4.019
    3OL    H18R 2410   1.094   4.869   4.035
    3OL    H18S 2411   0.932   4.929   4.077
    3OL    H18T 2412   0.987   4.884   3.914
    1PA    C116 2413   6.611   2.977   4.429
    1PA    H16R 2414   6.610   2.906   4.512
    1PA    H16S 2415   6.612   3.082   4.459
    1PA    H16T 2416   6.706   2.958   4.379
    1PA    C115 2417   6.496   2.939   4.334
    1PA    H15R 2418   6.501   2.980   4.233
    1PA    H15S 2419   6.497   2.830   4.332
    1PA    C114 2420   6.360   2.976   4.395
    1PA    H14R 2421   6.282   2.907   4.363
    1PA    H14S 2422   6.358   2.968   4.504
    1PA    C113 2423   6.318   3.119   4.359
    1PA    H13R 2424   6.233   3.152   4.419
    1PA    H13S 2425   6.404   3.180   4.388
    1PA    C112 2426   6.286   3.150   4.212
    1PA    H12R 2427   6.375   3.142   4.149
    1PA    H12S 2428   6.215   3.071   4.184
    1PA    C111 2429   6.222   3.288   4.192
    1PA    H11R 2430   6.300   3.359   4.218
    1PA    H11S 2431   6.207   3.318   4.088
    1PA    C110 2432   6.094   3.319   4.271
    1PA    H10R 2433   6.008   3.260   4.239
    1PA    H10S 2434   6.111   3.296   4.376
    1PA     C19 2435   6.054   3.465   4.250
    1PA     H9R 2436   6.123   3.534   4.298
    1PA     H9S 2437   6.033   3.474   4.143
    1PA     C18 2438   5.916   3.486   4.315
    1PA     H8R 2439   5.838   3.435   4.259
    1PA     H8S 2440   5.915   3.447   4.417
    1PA     C17 2441   5.881   3.635   4.320
    1PA     H7R 2442   5.963   3.699   4.352
    1PA     H7S 2443   5.869   3.669   4.217
    1PA     C16 2444   5.759   3.652   4.411
    1PA     H6R 2445   5.702   3.740   4.380
    1PA     H6S 2446   5.691   3.568   4.392
    1PA     C15 2447   5.791   3.662   4.561
    1PA     H5R 2448   5.848   3.576   4.596
    1PA     H5S 2449   5.839   3.758   4.579
    1PA     C14 2450   5.652   3.650   4.623
    1PA     H4R 2451   5.584   3.725   4.581
    1PA     H4S 2452   5.614   3.549   4.611
    1PA     C13 2453   5.654   3.679   4.774
    1PA     H3R 2454   5.735   3.624   4.822
    1PA     H3S 2455   5.660   3.785   4.798
    1PA     C12 2456   5.528   3.629   4.846
    1PA     H2R 2457   5.437   3.677   4.809
    1PA     H2S 2458   5.513   3.523   4.828
    2PC     C11 2459   5.541   3.650   4.995
    2PC     O12 2460   5.625   3.716   5.053
    2PC     O11 2461   5.444   3.579   5.055
    2PC      C1 2462   5.457   3.557   5.196
    2PC      HR 2463   5.531   3.478   5.211
    2PC      HS 2464   5.483   3.644   5.257
    2PC      C2 2465   5.327   3.507   5.261
    2PC      HX 2466   5.249   3.581   5.242
    2PC      C3 2467   5.335   3.481   5.412
    2PC      HA 2468   5.317   3.576   5.465
    2PC      HB 2469   5.257   3.414   5.447
    2PC     O31 2470   5.468   3.434   5.436
    2PC     P31 2471   5.518   3.417   5.588
    2PC     O32 2472   5.661   3.346   5.572
    2PC     C31 2473   5.785   3.405   5.615
    2PC     H1A 2474   5.807   3.490   5.551
    2PC     H1B 2475   5.778   3.434   5.720
    2PC     C32 2476   5.896   3.300   5.597
    2PC     H2A 2477   5.865   3.205   5.641
    2PC     H2B 2478   5.917   3.274   5.493
    2PC     N31 2479   6.034   3.329   5.648
    2PC     C33 2480   6.071   3.472   5.626
    2PC     H3A 2481   6.004   3.543   5.674
    2PC     H3B 2482   6.168   3.486   5.674
    2PC     H3C 2483   6.074   3.484   5.518
    2PC     C34 2484   6.033   3.306   5.796
    2PC     H4A 2485   5.933   3.336   5.829
    2PC     H4B 2486   6.038   3.201   5.824
    2PC     H4C 2487   6.117   3.361   5.840
    2PC     C35 2488   6.124   3.243   5.565
    2PC     H5A 2489   6.226   3.267   5.596
    2PC     H5B 2490   6.097   3.256   5.461
    2PC     H5C 2491   6.112   3.137   5.588
    2PC     O33 2492   5.527   3.543   5.663
    2PC     O34 2493   5.447   3.304   5.653
    2PC     O21 2494   5.289   3.386   5.195
    2PC     C21 2495   5.164   3.338   5.195
    2PC     O22 2496   5.076   3.396   5.256
    3OL     C12 2497   5.135   3.207   5.126
    3OL     H2R 2498   5.206   3.135   5.165
    3OL     H2S 2499   5.169   3.220   5.023
    3OL     C13 2500   4.987   3.165   5.132
    3OL     H3R 2501   4.915   3.245   5.113
    3OL     H3S 2502   4.964   3.122   5.230
    3OL     C14 2503   4.972   3.058   5.023
    3OL     H4R 2504   5.029   2.969   5.051
    3OL     H4S 2505   5.015   3.100   4.932
    3OL     C15 2506   4.827   3.012   5.001
    3OL     H5R 2507   4.756   3.088   4.967
    3OL     H5S 2508   4.797   2.971   5.097
    3OL     C16 2509   4.809   2.899   4.898
    3OL     H6R 2510   4.876   2.818   4.926
    3OL     H6S 2511   4.846   2.941   4.804
    3OL     C17 2512   4.665   2.847   4.893
    3OL     H7R 2513   4.631   2.816   4.992
    3OL     H7S 2514   4.639   2.766   4.826
    3OL     C18 2515   4.562   2.958   4.865
    3OL     H8R 2516   4.553   3.032   4.944
    3OL     H8S 2517   4.465   2.907   4.862
    3OL     C19 2518   4.603   3.031   4.739
    3OL     H9R 2519   4.688   3.098   4.746
    3OL    C110 2520   4.537   3.016   4.625
    3OL    H10R 2521   4.570   3.062   4.533
    3OL    C111 2522   4.417   2.929   4.596
    3OL    H11R 2523   4.347   2.993   4.542
    3OL    H11S 2524   4.371   2.893   4.688
    3OL    C112 2525   4.446   2.815   4.497
    3OL    H12R 2526   4.491   2.865   4.411
    3OL    H12S 2527   4.353   2.772   4.460
    3OL    C113 2528   4.536   2.698   4.538
    3OL    H13R 2529   4.508   2.604   4.489
    3OL    H13S 2530   4.520   2.675   4.644
    3OL    C114 2531   4.688   2.708   4.520
    3OL    H14R 2532   4.727   2.801   4.561
    3OL    H14S 2533   4.713   2.712   4.414
    3OL    C115 2534   4.763   2.589   4.581
    3OL    H15R 2535   4.725   2.490   4.553
    3OL    H15S 2536   4.751   2.606   4.688
    3OL    C116 2537   4.910   2.586   4.538
    3OL    H16R 2538   4.961   2.682   4.547
    3OL    H16S 2539   4.906   2.545   4.437
    3OL    C117 2540   4.986   2.480   4.620
    3OL    H17R 2541   4.920   2.397   4.646
    3OL    H17S 2542   5.007   2.530   4.715
    3OL    C118 2543   5.113   2.425   4.554
    3OL    H18R 2544   5.171   2.358   4.618
    3OL    H18S 2545   5.180   2.510   4.537
    3OL    H18T 2546   5.087   2.378   4.459
    1PA    C116 2547   0.152   1.131   3.717
    1PA    H16R 2548   0.233   1.200   3.689
    1PA    H16S 2549   0.062   1.144   3.657
    1PA    H16T 2550   0.185   1.033   3.684
    1PA    C115 2551   0.117   1.164   3.863
    1PA    H15R 2552   0.129   1.271   3.878
    1PA    H15S 2553   0.016   1.140   3.897
    1PA    C114 2554   0.229   1.092   3.938
    1PA    H14R 2555   0.229   0.984   3.918
    1PA    H14S 2556   0.324   1.144   3.921
    1PA    C113 2557   0.213   1.100   4.091
    1PA    H13R 2558   0.203   1.206   4.117
    1PA    H13S 2559   0.116   1.054   4.110
    1PA    C112 2560   0.314   1.021   4.175
    1PA    H12R 2561   0.316   0.916   4.144
    1PA    H12S 2562   0.414   1.060   4.154
    1PA    C111 2563   0.288   1.036   4.325
    1PA    H11R 2564   0.292   1.139   4.363
    1PA    H11S 2565   0.187   1.004   4.352
    1PA    C110 2566   0.405   0.981   4.407
    1PA    H10R 2567   0.502   0.996   4.359
    1PA    H10S 2568   0.406   1.024   4.508
    1PA     C19 2569   0.384   0.829   4.415
    1PA     H9R 2570   0.284   0.810   4.454
    1PA     H9S 2571   0.386   0.792   4.313
    1PA     C18 2572   0.488   0.763   4.507
    1PA     H8R 2573   0.492   0.659   4.475
    1PA     H8S 2574   0.588   0.805   4.491
    1PA     C17 2575   0.455   0.773   4.657
    1PA     H7R 2576   0.414   0.868   4.690
    1PA     H7S 2577   0.372   0.702   4.664
    1PA     C16 2578   0.563   0.718   4.752
    1PA     H6R 2579   0.583   0.612   4.736
    1PA     H6S 2580   0.664   0.758   4.734
    1PA     C15 2581   0.533   0.752   4.899
    1PA     H5R 2582   0.546   0.859   4.915
    1PA     H5S 2583   0.429   0.727   4.922
    1PA     C14 2584   0.626   0.670   4.989
    1PA     H4R 2585   0.579   0.572   4.992
    1PA     H4S 2586   0.726   0.665   4.944
    1PA     C13 2587   0.631   0.729   5.131
    1PA     H3R 2588   0.684   0.824   5.128
    1PA     H3S 2589   0.528   0.747   5.161
    1PA     C12 2590   0.680   0.630   5.237
    1PA     H2R 2591   0.641   0.530   5.214
    1PA     H2S 2592   0.789   0.624   5.223
    2PC     C11 2593   0.649   0.666   5.380
    2PC     O12 2594   0.731   0.700   5.463
    2PC     O11 2595   0.520   0.651   5.413
    2PC      C1 2596   0.470   0.695   5.540
    2PC      HR 2597   0.363   0.678   5.550
    2PC      HS 2598   0.521   0.645   5.623
    2PC      C2 2599   0.484   0.847   5.564
    2PC      HX 2600   0.585   0.877   5.538
    2PC      C3 2601   0.456   0.880   5.711
    2PC      HA 2602   0.547   0.851   5.764
    2PC      HB 2603   0.450   0.989   5.715
    2PC     O31 2604   0.331   0.822   5.752
    2PC     P31 2605   0.282   0.824   5.904
    2PC     O32 2606   0.230   0.975   5.915
    2PC     C31 2607   0.190   1.022   6.045
    2PC     H1A 2608   0.092   0.979   6.066
    2PC     H1B 2609   0.259   0.991   6.124
    2PC     C32 2610   0.179   1.175   6.052
    2PC     H2A 2611   0.096   1.206   5.989
    2PC     H2B 2612   0.149   1.198   6.154
    2PC     N31 2613   0.307   1.246   6.020
    2PC     C33 2614   0.299   1.389   6.063
    2PC     H3A 2615   0.211   1.438   6.022
    2PC     H3B 2616   0.310   1.374   6.170
    2PC     H3C 2617   0.383   1.444   6.019
    2PC     C34 2618   0.426   1.193   6.094
    2PC     H4A 2619   0.436   1.085   6.083
    2PC     H4B 2620   0.512   1.238   6.044
    2PC     H4C 2621   0.424   1.221   6.199
    2PC     C35 2622   0.343   1.226   5.875
    2PC     H5A 2623   0.412   1.142   5.876
    2PC     H5B 2624   0.377   1.321   5.834
    2PC     H5C 2625   0.252   1.191   5.826
    2PC     O33 2626   0.176   0.723   5.931
    2PC     O34 2627   0.386   0.792   6.005
    2PC     O21 2628   0.384   0.923   5.493
    2PC     C21 2629   0.410   0.952   5.364
    2PC     O22 2630   0.519   0.937   5.314
    3OL     C12 2631   0.293   1.004   5.285
    3OL     H2R 2632   0.265   1.092   5.342
    3OL     H2S 2633   0.206   0.938   5.286
    3OL     C13 2634   0.330   1.041   5.140
    3OL     H3R 2635   0.404   0.969   5.105
    3OL     H3S 2636   0.388   1.133   5.148
    3OL     C14 2637   0.197   1.048   5.064
    3OL     H4R 2638   0.114   1.106   5.104
    3OL     H4S 2639   0.156   0.947   5.065
    3OL     C15 2640   0.233   1.094   4.922
    3OL     H5R 2641   0.310   1.029   4.880
    3OL     H5S 2642   0.281   1.191   4.936
    3OL     C16 2643   0.111   1.108   4.829
    3OL     H6R 2644   0.027   1.160   4.875
    3OL     H6S 2645   0.078   1.009   4.797
    3OL     C17 2646   0.154   1.180   4.701
    3OL     H7R 2647   0.233   1.123   4.651
    3OL     H7S 2648   0.194   1.279   4.725
    3OL     C18 2649   0.043   1.204   4.598
    3OL     H8R 2650  -0.048   1.230   4.652
    3OL     H8S 2651   0.026   1.107   4.552
    3OL     C19 2652   0.092   1.311   4.503
    3OL     H9R 2653   0.193   1.349   4.511
    3OL    C110 2654   0.025   1.358   4.399
    3OL    H10R 2655   0.074   1.429   4.333
    3OL    C111 2656  -0.122   1.327   4.381
    3OL    H11R 2657  -0.182   1.418   4.384
    3OL    H11S 2658  -0.157   1.247   4.446
    3OL    C112 2659  -0.135   1.275   4.237
    3OL    H12R 2660  -0.070   1.191   4.210
    3OL    H12S 2661  -0.107   1.361   4.177
    3OL    C113 2662  -0.282   1.240   4.208
    3OL    H13R 2663  -0.341   1.331   4.214
    3OL    H13S 2664  -0.322   1.168   4.279
    3OL    C114 2665  -0.292   1.191   4.063
    3OL    H14R 2666  -0.241   1.096   4.045
    3OL    H14S 2667  -0.244   1.269   4.005
    3OL    C115 2668  -0.438   1.181   4.014
    3OL    H15R 2669  -0.456   1.200   3.908
    3OL    H15S 2670  -0.498   1.255   4.067
    3OL    C116 2671  -0.499   1.045   4.046
    3OL    H16R 2672  -0.606   1.063   4.036
    3OL    H16S 2673  -0.486   1.036   4.154
    3OL    C117 2674  -0.448   0.927   3.962
    3OL    H17R 2675  -0.505   0.834   3.973
    3OL    H17S 2676  -0.343   0.907   3.982
    3OL    C118 2677  -0.461   0.957   3.812
    3OL    H18R 2678  -0.400   1.046   3.793
    3OL    H18S 2679  -0.563   0.967   3.776
    3OL    H18T 2680  -0.416   0.879   3.751
    1PA    C116 2681   1.624   4.387   4.396
    1PA    H16R 2682   1.615   4.283   4.366
    1PA    H16S 2683   1.525   4.429   4.417
    1PA    H16T 2684   1.679   4.392   4.490
    1PA    C115 2685   1.706   4.457   4.287
    1PA    H15R 2686   1.652   4.455   4.193
    1PA    H15S 2687   1.713   4.563   4.316
    1PA    C114 2688   1.849   4.401   4.276
    1PA    H14R 2689   1.920   4.477   4.243
    1PA    H14S 2690   1.892   4.380   4.374
    1PA    C113 2691   1.856   4.278   4.186
    1PA    H13R 2692   1.758   4.232   4.174
    1PA    H13S 2693   1.872   4.306   4.082
    1PA    C112 2694   1.959   4.179   4.245
    1PA    H12R 2695   1.953   4.177   4.354
    1PA    H12S 2696   1.927   4.081   4.210
    1PA    C111 2697   2.099   4.224   4.203
    1PA    H11R 2698   2.106   4.214   4.095
    1PA    H11S 2699   2.116   4.332   4.211
    1PA    C110 2700   2.206   4.139   4.271
    1PA    H10R 2701   2.176   4.039   4.237
    1PA    H10S 2702   2.302   4.165   4.226
    1PA     C19 2703   2.231   4.149   4.422
    1PA     H9R 2704   2.268   4.248   4.449
    1PA     H9S 2705   2.139   4.136   4.478
    1PA     C18 2706   2.343   4.050   4.455
    1PA     H8R 2707   2.313   3.950   4.425
    1PA     H8S 2708   2.437   4.074   4.405
    1PA     C17 2709   2.372   4.044   4.605
    1PA     H7R 2710   2.282   4.065   4.664
    1PA     H7S 2711   2.403   3.942   4.628
    1PA     C16 2712   2.468   4.151   4.658
    1PA     H6R 2713   2.556   4.157   4.595
    1PA     H6S 2714   2.420   4.250   4.660
    1PA     C15 2715   2.520   4.123   4.800
    1PA     H5R 2716   2.441   4.125   4.875
    1PA     H5S 2717   2.567   4.024   4.802
    1PA     C14 2718   2.630   4.222   4.843
    1PA     H4R 2719   2.701   4.208   4.761
    1PA     H4S 2720   2.584   4.320   4.854
    1PA     C13 2721   2.688   4.187   4.981
    1PA     H3R 2722   2.606   4.185   5.053
    1PA     H3S 2723   2.733   4.087   4.974
    1PA     C12 2724   2.784   4.303   5.011
    1PA     H2R 2725   2.857   4.308   4.930
    1PA     H2S 2726   2.732   4.397   4.993
    2PC     C11 2727   2.849   4.301   5.147
    2PC     O12 2728   2.966   4.330   5.159
    2PC     O11 2729   2.763   4.295   5.250
    2PC      C1 2730   2.821   4.300   5.381
    2PC      HR 2731   2.889   4.216   5.391
    2PC      HS 2732   2.867   4.398   5.398
    2PC      C2 2733   2.709   4.287   5.486
    2PC      HX 2734   2.655   4.381   5.499
    2PC      C3 2735   2.764   4.259   5.627
    2PC      HA 2736   2.815   4.162   5.631
    2PC      HB 2737   2.824   4.344   5.659
    2PC     O31 2738   2.660   4.250   5.725
    2PC     P31 2739   2.691   4.236   5.882
    2PC     O32 2740   2.574   4.137   5.930
    2PC     C31 2741   2.513   4.168   6.056
    2PC     H1A 2742   2.594   4.189   6.127
    2PC     H1B 2743   2.453   4.259   6.057
    2PC     C32 2744   2.446   4.044   6.115
    2PC     H2A 2745   2.408   4.076   6.213
    2PC     H2B 2746   2.359   4.009   6.059
    2PC     N31 2747   2.526   3.918   6.129
    2PC     C33 2748   2.453   3.814   6.210
    2PC     H3A 2749   2.356   3.798   6.164
    2PC     H3B 2750   2.511   3.722   6.210
    2PC     H3C 2751   2.447   3.863   6.307
    2PC     C34 2752   2.557   3.857   5.996
    2PC     H4A 2753   2.466   3.830   5.942
    2PC     H4B 2754   2.613   3.921   5.928
    2PC     H4C 2755   2.611   3.763   6.013
    2PC     C35 2756   2.649   3.956   6.205
    2PC     H5A 2757   2.705   4.014   6.132
    2PC     H5B 2758   2.708   3.867   6.226
    2PC     H5C 2759   2.616   4.015   6.291
    2PC     O33 2760   2.823   4.190   5.929
    2PC     O34 2761   2.688   4.369   5.947
    2PC     O21 2762   2.616   4.187   5.443
    2PC     C21 2763   2.644   4.056   5.449
    2PC     O22 2764   2.752   4.009   5.479
    3OL     C12 2765   2.527   3.967   5.415
    3OL     H2R 2766   2.444   4.030   5.384
    3OL     H2S 2767   2.516   3.890   5.491
    3OL     C13 2768   2.554   3.893   5.283
    3OL     H3R 2769   2.637   3.822   5.291
    3OL     H3S 2770   2.586   3.968   5.210
    3OL     C14 2771   2.426   3.818   5.243
    3OL     H4R 2772   2.342   3.887   5.228
    3OL     H4S 2773   2.385   3.746   5.315
    3OL     C15 2774   2.454   3.748   5.110
    3OL     H5R 2775   2.536   3.678   5.128
    3OL     H5S 2776   2.484   3.825   5.039
    3OL     C16 2777   2.330   3.680   5.050
    3OL     H6R 2778   2.238   3.737   5.057
    3OL     H6S 2779   2.316   3.589   5.109
    3OL     C17 2780   2.358   3.641   4.904
    3OL     H7R 2781   2.445   3.577   4.888
    3OL     H7S 2782   2.372   3.731   4.844
    3OL     C18 2783   2.235   3.561   4.858
    3OL     H8R 2784   2.138   3.609   4.867
    3OL     H8S 2785   2.222   3.471   4.918
    3OL     C19 2786   2.252   3.512   4.716
    3OL     H9R 2787   2.290   3.412   4.708
    3OL    C110 2788   2.204   3.575   4.610
    3OL    H10R 2789   2.224   3.537   4.510
    3OL    C111 2790   2.164   3.721   4.614
    3OL    H11R 2791   2.217   3.767   4.531
    3OL    H11S 2792   2.191   3.779   4.702
    3OL    C112 2793   2.017   3.747   4.583
    3OL    H12R 2794   2.001   3.855   4.589
    3OL    H12S 2795   1.951   3.694   4.652
    3OL    C113 2796   1.965   3.710   4.443
    3OL    H13R 2797   1.856   3.713   4.455
    3OL    H13S 2798   2.002   3.610   4.419
    3OL    C114 2799   2.012   3.809   4.336
    3OL    H14R 2800   2.116   3.840   4.342
    3OL    H14S 2801   1.954   3.897   4.365
    3OL    C115 2802   1.981   3.764   4.193
    3OL    H15R 2803   2.030   3.671   4.164
    3OL    H15S 2804   2.012   3.847   4.128
    3OL    C116 2805   1.828   3.755   4.183
    3OL    H16R 2806   1.786   3.854   4.203
    3OL    H16S 2807   1.786   3.685   4.255
    3OL    C117 2808   1.787   3.698   4.047
    3OL    H17R 2809   1.687   3.660   4.070
    3OL    H17S 2810   1.845   3.608   4.027
    3OL    C118 2811   1.783   3.799   3.931
    3OL    H18R 2812   1.740   3.895   3.960
    3OL    H18S 2813   1.711   3.759   3.859
    3OL    H18T 2814   1.874   3.826   3.877
    1PA    C116 2815   2.862   5.529   3.986
    1PA    H16R 2816   2.768   5.529   4.042
    1PA    H16S 2817   2.854   5.442   3.921
    1PA    H16T 2818   2.873   5.620   3.928
    1PA    C115 2819   2.985   5.518   4.077
    1PA    H15R 2820   3.075   5.509   4.016
    1PA    H15S 2821   2.988   5.609   4.138
    1PA    C114 2822   2.974   5.393   4.166
    1PA    H14R 2823   2.882   5.396   4.225
    1PA    H14S 2824   2.970   5.312   4.094
    1PA    C113 2825   3.093   5.380   4.261
    1PA    H13R 2826   3.188   5.396   4.209
    1PA    H13S 2827   3.081   5.468   4.325
    1PA    C112 2828   3.108   5.244   4.331
    1PA    H12R 2829   3.102   5.169   4.253
    1PA    H12S 2830   3.205   5.238   4.383
    1PA    C111 2831   2.990   5.214   4.425
    1PA    H11R 2832   2.894   5.255   4.391
    1PA    H11S 2833   2.968   5.108   4.429
    1PA    C110 2834   3.022   5.269   4.564
    1PA    H10R 2835   3.112   5.219   4.603
    1PA    H10S 2836   3.049   5.374   4.552
    1PA     C19 2837   2.894   5.242   4.644
    1PA     H9R 2838   2.887   5.320   4.720
    1PA     H9S 2839   2.799   5.254   4.591
    1PA     C18 2840   2.886   5.103   4.710
    1PA     H8R 2841   2.839   5.035   4.638
    1PA     H8S 2842   2.985   5.058   4.722
    1PA     C17 2843   2.814   5.086   4.844
    1PA     H7R 2844   2.850   4.993   4.887
    1PA     H7S 2845   2.860   5.162   4.906
    1PA     C16 2846   2.662   5.104   4.824
    1PA     H6R 2847   2.623   5.203   4.800
    1PA     H6S 2848   2.633   5.039   4.741
    1PA     C15 2849   2.589   5.061   4.952
    1PA     H5R 2850   2.483   5.045   4.931
    1PA     H5S 2851   2.632   4.968   4.988
    1PA     C14 2852   2.612   5.169   5.059
    1PA     H4R 2853   2.718   5.175   5.082
    1PA     H4S 2854   2.583   5.267   5.020
    1PA     C13 2855   2.519   5.135   5.176
    1PA     H3R 2856   2.420   5.164   5.140
    1PA     H3S 2857   2.524   5.027   5.192
    1PA     C12 2858   2.554   5.217   5.301
    1PA     H2R 2859   2.655   5.210   5.340
    1PA     H2S 2860   2.539   5.325   5.287
    2PC     C11 2861   2.456   5.183   5.411
    2PC     O12 2862   2.488   5.116   5.507
    2PC     O11 2863   2.328   5.209   5.381
    2PC      C1 2864   2.233   5.168   5.480
    2PC      HR 2865   2.262   5.067   5.509
    2PC      HS 2866   2.242   5.236   5.565
    2PC      C2 2867   2.098   5.165   5.409
    2PC      HX 2868   2.068   5.264   5.374
    2PC      C3 2869   1.986   5.119   5.504
    2PC      HA 2870   1.972   5.185   5.591
    2PC      HB 2871   1.892   5.110   5.449
    2PC     O31 2872   2.009   4.999   5.580
    2PC     P31 2873   1.902   4.960   5.692
    2PC     O32 2874   1.968   5.010   5.828
    2PC     C31 2875   1.902   5.125   5.883
    2PC     H1A 2876   1.891   5.209   5.814
    2PC     H1B 2877   1.804   5.095   5.920
    2PC     C32 2878   1.985   5.158   6.008
    2PC     H2A 2879   1.941   5.239   6.068
    2PC     H2B 2880   1.985   5.064   6.063
    2PC     N31 2881   2.129   5.196   5.990
    2PC     C33 2882   2.158   5.278   6.112
    2PC     H3A 2883   2.266   5.280   6.105
    2PC     H3B 2884   2.116   5.379   6.107
    2PC     H3C 2885   2.126   5.229   6.203
    2PC     C34 2886   2.222   5.081   5.966
    2PC     H4A 2887   2.322   5.119   5.945
    2PC     H4B 2888   2.214   5.022   6.057
    2PC     H4C 2889   2.187   5.016   5.885
    2PC     C35 2890   2.127   5.294   5.877
    2PC     H5A 2891   2.221   5.347   5.871
    2PC     H5B 2892   2.042   5.361   5.891
    2PC     H5C 2893   2.111   5.233   5.788
    2PC     O33 2894   1.771   5.028   5.675
    2PC     O34 2895   1.871   4.815   5.684
    2PC     O21 2896   2.105   5.073   5.298
    2PC     C21 2897   2.021   5.084   5.194
    2PC     O22 2898   1.946   5.176   5.169
    3OL     C12 2899   2.054   4.977   5.093
    3OL     H2R 2900   1.964   4.957   5.034
    3OL     H2S 2901   2.093   4.889   5.144
    3OL     C13 2902   2.166   5.019   4.997
    3OL     H3R 2903   2.262   4.973   5.022
    3OL     H3S 2904   2.185   5.127   4.997
    3OL     C14 2905   2.137   4.980   4.852
    3OL     H4R 2906   2.203   5.036   4.786
    3OL     H4S 2907   2.039   5.011   4.817
    3OL     C15 2908   2.145   4.829   4.824
    3OL     H5R 2909   2.091   4.769   4.897
    3OL     H5S 2910   2.249   4.800   4.826
    3OL     C16 2911   2.087   4.793   4.686
    3OL     H6R 2912   2.156   4.846   4.621
    3OL     H6S 2913   1.988   4.836   4.671
    3OL     C17 2914   2.083   4.642   4.661
    3OL     H7R 2915   2.005   4.586   4.713
    3OL     H7S 2916   2.175   4.606   4.706
    3OL     C18 2917   2.093   4.598   4.514
    3OL     H8R 2918   2.073   4.491   4.518
    3OL     H8S 2919   2.194   4.616   4.480
    3OL     C19 2920   1.993   4.665   4.423
    3OL     H9R 2921   1.894   4.623   4.439
    3OL    C110 2922   2.012   4.735   4.312
    3OL    H10R 2923   1.925   4.752   4.250
    3OL    C111 2924   2.138   4.807   4.272
    3OL    H11R 2925   2.201   4.791   4.359
    3OL    H11S 2926   2.125   4.910   4.238
    3OL    C112 2927   2.187   4.723   4.153
    3OL    H12R 2928   2.104   4.679   4.099
    3OL    H12S 2929   2.232   4.632   4.193
    3OL    C113 2930   2.293   4.797   4.070
    3OL    H13R 2931   2.376   4.835   4.131
    3OL    H13S 2932   2.252   4.880   4.013
    3OL    C114 2933   2.348   4.709   3.958
    3OL    H14R 2934   2.362   4.605   3.989
    3OL    H14S 2935   2.450   4.740   3.935
    3OL    C115 2936   2.260   4.726   3.833
    3OL    H15R 2937   2.271   4.827   3.793
    3OL    H15S 2938   2.159   4.696   3.858
    3OL    C116 2939   2.299   4.625   3.725
    3OL    H16R 2940   2.309   4.536   3.788
    3OL    H16S 2941   2.400   4.654   3.695
    3OL    C117 2942   2.194   4.613   3.613
    3OL    H17R 2943   2.179   4.709   3.563
    3OL    H17S 2944   2.103   4.580   3.663
    3OL    C118 2945   2.236   4.509   3.509
    3OL    H18R 2946   2.306   4.547   3.435
    3OL    H18S 2947   2.147   4.474   3.458
    3OL    H18T 2948   2.284   4.424   3.559
    1PA    C116 2949   5.566   3.906   3.986
    1PA    H16R 2950   5.474   3.850   4.006
    1PA    H16S 2951   5.645   3.832   4.002
    1PA    H16T 2952   5.571   3.945   3.885
    1PA    C115 2953   5.576   4.016   4.092
    1PA    H15R 2954   5.657   4.082   4.059
    1PA    H15S 2955   5.482   4.071   4.084
    1PA    C114 2956   5.609   3.970   4.235
    1PA    H14R 2957   5.532   3.901   4.270
    1PA    H14S 2958   5.706   3.923   4.249
    1PA    C113 2959   5.615   4.088   4.333
    1PA    H13R 2960   5.689   4.160   4.298
    1PA    H13S 2961   5.522   4.145   4.342
    1PA    C112 2962   5.648   4.028   4.471
    1PA    H12R 2963   5.574   3.951   4.493
    1PA    H12S 2964   5.744   3.978   4.460
    1PA    C111 2965   5.658   4.130   4.586
    1PA    H11R 2966   5.708   4.221   4.552
    1PA    H11S 2967   5.564   4.174   4.619
    1PA    C110 2968   5.731   4.071   4.707
    1PA    H10R 2969   5.664   3.992   4.744
    1PA    H10S 2970   5.825   4.023   4.679
    1PA     C19 2971   5.761   4.174   4.816
    1PA     H9R 2972   5.835   4.145   4.892
    1PA     H9S 2973   5.814   4.254   4.763
    1PA     C18 2974   5.633   4.202   4.896
    1PA     H8R 2975   5.550   4.238   4.835
    1PA     H8S 2976   5.609   4.111   4.950
    1PA     C17 2977   5.657   4.312   5.001
    1PA     H7R 2978   5.566   4.304   5.061
    1PA     H7S 2979   5.737   4.286   5.071
    1PA     C16 2980   5.670   4.449   4.934
    1PA     H6R 2981   5.751   4.451   4.861
    1PA     H6S 2982   5.576   4.458   4.878
    1PA     C15 2983   5.688   4.568   5.030
    1PA     H5R 2984   5.611   4.563   5.108
    1PA     H5S 2985   5.777   4.562   5.093
    1PA     C14 2986   5.687   4.702   4.955
    1PA     H4R 2987   5.776   4.696   4.892
    1PA     H4S 2988   5.598   4.720   4.894
    1PA     C13 2989   5.713   4.816   5.053
    1PA     H3R 2990   5.634   4.813   5.129
    1PA     H3S 2991   5.811   4.796   5.097
    1PA     C12 2992   5.710   4.954   4.985
    1PA     H2R 2993   5.790   4.963   4.911
    1PA     H2S 2994   5.614   4.960   4.934
    2PC     C11 2995   5.731   5.060   5.090
    2PC     O12 2996   5.788   5.046   5.196
    2PC     O11 2997   5.664   5.173   5.063
    2PC      C1 2998   5.650   5.273   5.166
    2PC      HR 2999   5.578   5.348   5.132
    2PC      HS 3000   5.616   5.233   5.261
    2PC      C2 3001   5.779   5.354   5.183
    2PC      HX 3002   5.862   5.283   5.193
    2PC      C3 3003   5.775   5.443   5.308
    2PC      HA 3004   5.829   5.536   5.289
    2PC      HB 3005   5.673   5.474   5.334
    2PC     O31 3006   5.833   5.364   5.413
    2PC     P31 3007   5.795   5.406   5.562
    2PC     O32 3008   5.757   5.263   5.626
    2PC     C31 3009   5.637   5.202   5.576
    2PC     H1A 3010   5.622   5.246   5.477
    2PC     H1B 3011   5.661   5.095   5.566
    2PC     C32 3012   5.522   5.228   5.673
    2PC     H2A 3013   5.501   5.335   5.683
    2PC     H2B 3014   5.431   5.176   5.643
    2PC     N31 3015   5.550   5.190   5.816
    2PC     C33 3016   5.423   5.206   5.893
    2PC     H3A 3017   5.447   5.145   5.980
    2PC     H3B 3018   5.405   5.311   5.919
    2PC     H3C 3019   5.346   5.156   5.834
    2PC     C34 3020   5.590   5.046   5.822
    2PC     H4A 3021   5.621   5.020   5.923
    2PC     H4B 3022   5.503   4.984   5.803
    2PC     H4C 3023   5.676   5.028   5.757
    2PC     C35 3024   5.656   5.274   5.880
    2PC     H5A 3025   5.647   5.380   5.855
    2PC     H5B 3026   5.755   5.231   5.864
    2PC     H5C 3027   5.633   5.244   5.982
    2PC     O33 3028   5.911   5.463   5.635
    2PC     O34 3029   5.682   5.501   5.558
    2PC     O21 3030   5.802   5.434   5.065
    2PC     C21 3031   5.929   5.455   5.024
    2PC     O22 3032   6.030   5.420   5.082
    3OL     C12 3033   5.942   5.527   4.893
    3OL     H2R 3034   6.036   5.582   4.883
    3OL     H2S 3035   5.863   5.601   4.886
    3OL     C13 3036   5.932   5.417   4.786
    3OL     H3R 3037   5.858   5.347   4.824
    3OL     H3S 3038   6.022   5.356   4.785
    3OL     C14 3039   5.895   5.486   4.653
    3OL     H4R 3040   5.808   5.549   4.671
    3OL     H4S 3041   5.862   5.404   4.589
    3OL     C15 3042   6.011   5.565   4.592
    3OL     H5R 3043   6.104   5.508   4.581
    3OL     H5S 3044   6.028   5.649   4.660
    3OL     C16 3045   5.966   5.612   4.453
    3OL     H6R 3046   5.886   5.684   4.471
    3OL     H6S 3047   5.941   5.529   4.388
    3OL     C17 3048   6.084   5.685   4.387
    3OL     H7R 3049   6.164   5.614   4.369
    3OL     H7S 3050   6.121   5.759   4.458
    3OL     C18 3051   6.031   5.753   4.259
    3OL     H8R 3052   5.955   5.824   4.292
    3OL     H8S 3053   5.986   5.672   4.202
    3OL     C19 3054   6.138   5.824   4.181
    3OL     H9R 3055   6.137   5.933   4.184
    3OL    C110 3056   6.223   5.772   4.094
    3OL    H10R 3057   6.293   5.831   4.036
    3OL    C111 3058   6.234   5.624   4.064
    3OL    H11R 3059   6.164   5.564   4.123
    3OL    H11S 3060   6.339   5.596   4.076
    3OL    C112 3061   6.204   5.590   3.918
    3OL    H12R 3062   6.103   5.619   3.890
    3OL    H12S 3063   6.207   5.484   3.893
    3OL    C113 3064   6.304   5.663   3.827
    3OL    H13R 3065   6.407   5.636   3.853
    3OL    H13S 3066   6.311   5.771   3.842
    3OL    C114 3067   6.272   5.626   3.682
    3OL    H14R 3068   6.182   5.677   3.646
    3OL    H14S 3069   6.243   5.521   3.684
    3OL    C115 3070   6.384   5.672   3.588
    3OL    H15R 3071   6.473   5.626   3.632
    3OL    H15S 3072   6.399   5.780   3.581
    3OL    C116 3073   6.354   5.622   3.446
    3OL    H16R 3074   6.422   5.670   3.376
    3OL    H16S 3075   6.253   5.652   3.416
    3OL    C117 3076   6.372   5.471   3.432
    3OL    H17R 3077   6.316   5.419   3.511
    3OL    H17S 3078   6.475   5.441   3.454
    3OL    C118 3079   6.324   5.430   3.292
    3OL    H18R 3080   6.250   5.502   3.257
    3OL    H18S 3081   6.292   5.326   3.298
    3OL    H18T 3082   6.412   5.436   3.228
    1PA    C116 3083  -0.121   3.634   4.036
    1PA    H16R 3084  -0.061   3.546   4.013
    1PA    H16S 3085  -0.099   3.713   3.963
    1PA    H16T 3086  -0.227   3.610   4.027
    1PA    C115 3087  -0.092   3.685   4.178
    1PA    H15R 3088  -0.117   3.612   4.255
    1PA    H15S 3089   0.015   3.703   4.194
    1PA    C114 3090  -0.168   3.815   4.204
    1PA    H14R 3091  -0.144   3.898   4.137
    1PA    H14S 3092  -0.275   3.793   4.195
    1PA    C113 3093  -0.149   3.861   4.349
    1PA    H13R 3094  -0.223   3.937   4.375
    1PA    H13S 3095  -0.163   3.776   4.417
    1PA    C112 3096  -0.009   3.917   4.374
    1PA    H12R 3097   0.066   3.856   4.322
    1PA    H12S 3098  -0.011   4.019   4.334
    1PA    C111 3099   0.028   3.917   4.523
    1PA    H11R 3100   0.000   3.824   4.572
    1PA    H11S 3101   0.137   3.926   4.532
    1PA    C110 3102  -0.056   4.024   4.593
    1PA    H10R 3103  -0.037   4.123   4.551
    1PA    H10S 3104  -0.162   3.999   4.577
    1PA     C19 3105  -0.023   4.040   4.742
    1PA     H9R 3106  -0.090   4.115   4.784
    1PA     H9S 3107  -0.048   3.941   4.781
    1PA     C18 3108   0.122   4.077   4.777
    1PA     H8R 3109   0.194   3.996   4.760
    1PA     H8S 3110   0.157   4.161   4.717
    1PA     C17 3111   0.124   4.122   4.924
    1PA     H7R 3112   0.062   4.210   4.941
    1PA     H7S 3113   0.086   4.044   4.991
    1PA     C16 3114   0.266   4.167   4.962
    1PA     H6R 3115   0.337   4.085   4.974
    1PA     H6S 3116   0.310   4.230   4.885
    1PA     C15 3117   0.270   4.256   5.088
    1PA     H5R 3118   0.230   4.197   5.170
    1PA     H5S 3119   0.375   4.276   5.108
    1PA     C14 3120   0.184   4.382   5.072
    1PA     H4R 3121   0.181   4.419   4.969
    1PA     H4S 3122   0.083   4.358   5.105
    1PA     C13 3123   0.246   4.498   5.150
    1PA     H3R 3124   0.354   4.508   5.137
    1PA     H3S 3125   0.209   4.597   5.121
    1PA     C12 3126   0.212   4.489   5.300
    1PA     H2R 3127   0.105   4.470   5.307
    1PA     H2S 3128   0.275   4.415   5.348
    2PC     C11 3129   0.239   4.611   5.384
    2PC     O12 3130   0.275   4.601   5.499
    2PC     O11 3131   0.237   4.737   5.337
    2PC      C1 3132   0.258   4.851   5.423
    2PC      HR 3133   0.220   4.943   5.378
    2PC      HS 3134   0.207   4.830   5.518
    2PC      C2 3135   0.409   4.867   5.449
    2PC      HX 3136   0.446   4.767   5.472
    2PC      C3 3137   0.433   4.968   5.562
    2PC      HA 3138   0.432   5.069   5.519
    2PC      HB 3139   0.359   4.950   5.640
    2PC     O31 3140   0.569   4.955   5.607
    2PC     P31 3141   0.644   5.072   5.687
    2PC     O32 3142   0.667   5.186   5.577
    2PC     C31 3143   0.775   5.185   5.483
    2PC     H1A 3144   0.865   5.147   5.531
    2PC     H1B 3145   0.761   5.124   5.394
    2PC     C32 3146   0.801   5.331   5.441
    2PC     H2A 3147   0.893   5.329   5.382
    2PC     H2B 3148   0.720   5.368   5.377
    2PC     N31 3149   0.828   5.440   5.540
    2PC     C33 3150   0.954   5.407   5.615
    2PC     H3A 3151   0.930   5.310   5.660
    2PC     H3B 3152   1.041   5.399   5.551
    2PC     H3C 3153   0.970   5.469   5.703
    2PC     C34 3154   0.849   5.568   5.465
    2PC     H4A 3155   0.775   5.572   5.385
    2PC     H4B 3156   0.845   5.655   5.530
    2PC     H4C 3157   0.947   5.562   5.417
    2PC     C35 3158   0.714   5.456   5.635
    2PC     H5A 3159   0.733   5.545   5.694
    2PC     H5B 3160   0.720   5.379   5.712
    2PC     H5C 3161   0.617   5.457   5.584
    2PC     O33 3162   0.573   5.116   5.809
    2PC     O34 3163   0.776   5.026   5.736
    2PC     O21 3164   0.469   4.908   5.325
    2PC     C21 3165   0.598   4.895   5.290
    2PC     O22 3166   0.676   4.830   5.356
    3OL     C12 3167   0.630   4.986   5.174
    3OL     H2R 3168   0.688   5.069   5.215
    3OL     H2S 3169   0.541   5.036   5.135
    3OL     C13 3170   0.718   4.924   5.066
    3OL     H3R 3171   0.804   4.873   5.111
    3OL     H3S 3172   0.752   5.009   5.007
    3OL     C14 3173   0.653   4.822   4.971
    3OL     H4R 3174   0.640   4.735   5.035
    3OL     H4S 3175   0.732   4.796   4.901
    3OL     C15 3176   0.525   4.867   4.899
    3OL     H5R 3177   0.452   4.918   4.962
    3OL     H5S 3178   0.473   4.773   4.879
    3OL     C16 3179   0.549   4.941   4.767
    3OL     H6R 3180   0.595   4.872   4.696
    3OL     H6S 3181   0.613   5.030   4.775
    3OL     C17 3182   0.409   4.988   4.723
    3OL     H7R 3183   0.365   5.046   4.805
    3OL     H7S 3184   0.347   4.900   4.705
    3OL     C18 3185   0.416   5.083   4.604
    3OL     H8R 3186   0.483   5.037   4.531
    3OL     H8S 3187   0.467   5.178   4.625
    3OL     C19 3188   0.284   5.111   4.537
    3OL     H9R 3189   0.214   5.181   4.583
    3OL    C110 3190   0.248   5.066   4.418
    3OL    H10R 3191   0.146   5.074   4.381
    3OL    C111 3192   0.324   4.966   4.334
    3OL    H11R 3193   0.286   4.864   4.343
    3OL    H11S 3194   0.430   4.970   4.360
    3OL    C112 3195   0.313   4.996   4.184
    3OL    H12R 3196   0.360   5.091   4.160
    3OL    H12S 3197   0.207   5.000   4.157
    3OL    C113 3198   0.366   4.874   4.107
    3OL    H13R 3199   0.313   4.780   4.127
    3OL    H13S 3200   0.471   4.853   4.131
    3OL    C114 3201   0.342   4.899   3.958
    3OL    H14R 3202   0.401   4.985   3.926
    3OL    H14S 3203   0.235   4.909   3.938
    3OL    C115 3204   0.389   4.786   3.865
    3OL    H15R 3205   0.333   4.793   3.772
    3OL    H15S 3206   0.363   4.692   3.914
    3OL    C116 3207   0.539   4.772   3.834
    3OL    H16R 3208   0.559   4.673   3.793
    3OL    H16S 3209   0.596   4.781   3.927
    3OL    C117 3210   0.583   4.871   3.726
    3OL    H17R 3211   0.587   4.968   3.775
    3OL    H17S 3212   0.507   4.875   3.647
    3OL    C118 3213   0.726   4.847   3.677
    3OL    H18R 3214   0.784   4.855   3.769
    3OL    H18S 3215   0.755   4.929   3.610
    3OL    H18T 3216   0.740   4.750   3.629
    1PA    C116 3217   2.339   2.431   4.004
    1PA    H16R 3218   2.420   2.409   4.075
    1PA    H16S 3219   2.261   2.495   4.045
    1PA    H16T 3220   2.384   2.497   3.929
    1PA    C115 3221   2.270   2.308   3.944
    1PA    H15R 3222   2.241   2.327   3.840
    1PA    H15S 3223   2.348   2.232   3.947
    1PA    C114 3224   2.154   2.255   4.029
    1PA    H14R 3225   2.102   2.336   4.080
    1PA    H14S 3226   2.086   2.208   3.957
    1PA    C113 3227   2.198   2.145   4.126
    1PA    H13R 3228   2.245   2.067   4.066
    1PA    H13S 3229   2.275   2.184   4.193
    1PA    C112 3230   2.080   2.099   4.212
    1PA    H12R 3231   2.008   2.180   4.211
    1PA    H12S 3232   2.046   2.007   4.163
    1PA    C111 3233   2.119   2.069   4.357
    1PA    H11R 3234   2.043   2.011   4.409
    1PA    H11S 3235   2.214   2.017   4.367
    1PA    C110 3236   2.147   2.201   4.431
    1PA    H10R 3237   2.225   2.257   4.379
    1PA    H10S 3238   2.059   2.265   4.440
    1PA     C19 3239   2.192   2.174   4.575
    1PA     H9R 3240   2.123   2.099   4.611
    1PA     H9S 3241   2.287   2.120   4.580
    1PA     C18 3242   2.197   2.297   4.667
    1PA     H8R 3243   2.251   2.380   4.620
    1PA     H8S 3244   2.095   2.330   4.681
    1PA     C17 3245   2.252   2.257   4.804
    1PA     H7R 3246   2.210   2.161   4.834
    1PA     H7S 3247   2.360   2.243   4.799
    1PA     C16 3248   2.226   2.370   4.905
    1PA     H6R 3249   2.272   2.463   4.873
    1PA     H6S 3250   2.119   2.389   4.911
    1PA     C15 3251   2.287   2.329   5.040
    1PA     H5R 3252   2.239   2.234   5.064
    1PA     H5S 3253   2.394   2.308   5.030
    1PA     C14 3254   2.261   2.439   5.143
    1PA     H4R 3255   2.299   2.536   5.110
    1PA     H4S 3256   2.157   2.464   5.158
    1PA     C13 3257   2.335   2.419   5.276
    1PA     H3R 3258   2.320   2.509   5.336
    1PA     H3S 3259   2.300   2.333   5.334
    1PA     C12 3260   2.488   2.420   5.269
    1PA     H2R 3261   2.502   2.322   5.223
    1PA     H2S 3262   2.532   2.500   5.209
    2PC     C11 3263   2.550   2.422   5.406
    2PC     O12 3264   2.520   2.512   5.482
    2PC     O11 3265   2.643   2.326   5.419
    2PC      C1 3266   2.698   2.300   5.549
    2PC      HR 3267   2.769   2.218   5.538
    2PC      HS 3268   2.753   2.387   5.588
    2PC      C2 3269   2.590   2.257   5.649
    2PC      HX 3270   2.504   2.324   5.643
    2PC      C3 3271   2.653   2.264   5.789
    2PC      HA 3272   2.714   2.176   5.814
    2PC      HB 3273   2.726   2.345   5.797
    2PC     O31 3274   2.544   2.287   5.880
    2PC     P31 3275   2.576   2.316   6.034
    2PC     O32 3276   2.658   2.182   6.065
    2PC     C31 3277   2.620   2.094   6.172
    2PC     H1A 3278   2.512   2.082   6.167
    2PC     H1B 3279   2.671   1.998   6.156
    2PC     C32 3280   2.653   2.163   6.305
    2PC     H2A 3281   2.756   2.199   6.308
    2PC     H2B 3282   2.578   2.236   6.334
    2PC     N31 3283   2.652   2.066   6.419
    2PC     C33 3284   2.660   2.150   6.542
    2PC     H3A 3285   2.567   2.206   6.555
    2PC     H3B 3286   2.675   2.081   6.625
    2PC     H3C 3287   2.750   2.212   6.540
    2PC     C34 3288   2.526   1.984   6.428
    2PC     H4A 3289   2.437   2.048   6.431
    2PC     H4B 3290   2.518   1.917   6.342
    2PC     H4C 3291   2.525   1.920   6.516
    2PC     C35 3292   2.771   1.975   6.414
    2PC     H5A 3293   2.796   1.939   6.514
    2PC     H5B 3294   2.860   2.035   6.393
    2PC     H5C 3295   2.766   1.895   6.341
    2PC     O33 3296   2.656   2.437   6.065
    2PC     O34 3297   2.452   2.330   6.113
    2PC     O21 3298   2.545   2.121   5.637
    2PC     C21 3299   2.458   2.099   5.536
    2PC     O22 3300   2.385   2.184   5.489
    3OL     C12 3301   2.480   1.961   5.480
    3OL     H2R 3302   2.440   1.893   5.556
    3OL     H2S 3303   2.586   1.935   5.481
    3OL     C13 3304   2.407   1.933   5.348
    3OL     H3R 3305   2.299   1.949   5.355
    3OL     H3S 3306   2.411   1.824   5.337
    3OL     C14 3307   2.479   2.014   5.239
    3OL     H4R 3308   2.585   1.987   5.246
    3OL     H4S 3309   2.463   2.119   5.262
    3OL     C15 3310   2.417   1.964   5.108
    3OL     H5R 3311   2.313   1.998   5.105
    3OL     H5S 3312   2.407   1.856   5.110
    3OL     C16 3313   2.495   1.999   4.981
    3OL     H6R 3314   2.506   2.108   4.973
    3OL     H6S 3315   2.435   1.967   4.896
    3OL     C17 3316   2.636   1.938   4.987
    3OL     H7R 3317   2.626   1.830   5.000
    3OL     H7S 3318   2.696   1.979   5.069
    3OL     C18 3319   2.711   1.979   4.859
    3OL     H8R 3320   2.714   2.087   4.849
    3OL     H8S 3321   2.666   1.929   4.773
    3OL     C19 3322   2.851   1.925   4.874
    3OL     H9R 3323   2.868   1.881   4.972
    3OL    C110 3324   2.947   1.937   4.784
    3OL    H10R 3325   3.045   1.901   4.812
    3OL    C111 3326   2.934   1.986   4.641
    3OL    H11R 3327   2.997   2.075   4.637
    3OL    H11S 3328   2.831   2.014   4.621
    3OL    C112 3329   2.987   1.877   4.547
    3OL    H12R 3330   2.967   1.912   4.446
    3OL    H12S 3331   2.922   1.788   4.549
    3OL    C113 3332   3.136   1.845   4.567
    3OL    H13R 3333   3.170   1.803   4.662
    3OL    H13S 3334   3.185   1.940   4.543
    3OL    C114 3335   3.176   1.760   4.446
    3OL    H14R 3336   3.155   1.813   4.353
    3OL    H14S 3337   3.118   1.667   4.445
    3OL    C115 3338   3.325   1.724   4.431
    3OL    H15R 3339   3.346   1.647   4.507
    3OL    H15S 3340   3.384   1.810   4.463
    3OL    C116 3341   3.374   1.680   4.293
    3OL    H16R 3342   3.359   1.762   4.222
    3OL    H16S 3343   3.321   1.589   4.264
    3OL    C117 3344   3.525   1.654   4.306
    3OL    H17R 3345   3.547   1.573   4.376
    3OL    H17S 3346   3.563   1.749   4.346
    3OL    C118 3347   3.589   1.619   4.171
    3OL    H18R 3348   3.534   1.547   4.110
    3OL    H18S 3349   3.691   1.588   4.192
    3OL    H18T 3350   3.598   1.701   4.100
    1PA    C116 3351   3.348   1.100   4.027
    1PA    H16R 3352   3.413   1.048   3.955
    1PA    H16S 3353   3.248   1.081   3.989
    1PA    H16T 3354   3.357   1.043   4.119
    1PA    C115 3355   3.383   1.249   4.042
    1PA    H15R 3356   3.489   1.250   4.066
    1PA    H15S 3357   3.357   1.301   3.950
    1PA    C114 3358   3.297   1.294   4.160
    1PA    H14R 3359   3.299   1.404   4.157
    1PA    H14S 3360   3.191   1.265   4.158
    1PA    C113 3361   3.360   1.251   4.293
    1PA    H13R 3362   3.354   1.143   4.309
    1PA    H13S 3363   3.463   1.286   4.288
    1PA    C112 3364   3.289   1.319   4.411
    1PA    H12R 3365   3.305   1.427   4.411
    1PA    H12S 3366   3.182   1.295   4.410
    1PA    C111 3367   3.349   1.262   4.541
    1PA    H11R 3368   3.376   1.157   4.529
    1PA    H11S 3369   3.439   1.324   4.553
    1PA    C110 3370   3.266   1.290   4.667
    1PA    H10R 3371   3.172   1.235   4.670
    1PA    H10S 3372   3.319   1.258   4.757
    1PA     C19 3373   3.227   1.438   4.676
    1PA     H9R 3374   3.315   1.498   4.651
    1PA     H9S 3375   3.156   1.464   4.597
    1PA     C18 3376   3.170   1.464   4.816
    1PA     H8R 3377   3.083   1.397   4.814
    1PA     H8S 3378   3.237   1.446   4.899
    1PA     C17 3379   3.119   1.609   4.830
    1PA     H7R 3380   3.211   1.664   4.806
    1PA     H7S 3381   3.048   1.628   4.749
    1PA     C16 3382   3.053   1.638   4.965
    1PA     H6R 3383   3.105   1.591   5.049
    1PA     H6S 3384   3.043   1.743   4.992
    1PA     C15 3385   2.908   1.587   4.970
    1PA     H5R 3386   2.850   1.626   4.887
    1PA     H5S 3387   2.905   1.478   4.962
    1PA     C14 3388   2.831   1.604   5.102
    1PA     H4R 3389   2.875   1.555   5.189
    1PA     H4S 3390   2.816   1.711   5.116
    1PA     C13 3391   2.700   1.527   5.082
    1PA     H3R 3392   2.663   1.536   4.979
    1PA     H3S 3393   2.724   1.423   5.102
    1PA     C12 3394   2.600   1.563   5.193
    1PA     H2R 3395   2.576   1.669   5.183
    1PA     H2S 3396   2.510   1.501   5.187
    2PC     C11 3397   2.652   1.546   5.334
    2PC     O12 3398   2.592   1.600   5.424
    2PC     O11 3399   2.760   1.467   5.345
    2PC      C1 3400   2.803   1.436   5.479
    2PC      HR 3401   2.826   1.529   5.532
    2PC      HS 3402   2.726   1.384   5.537
    2PC      C2 3403   2.933   1.355   5.468
    2PC      HX 3404   2.916   1.279   5.391
    2PC      C3 3405   2.982   1.298   5.602
    2PC      HA 3406   2.917   1.220   5.644
    2PC      HB 3407   3.083   1.258   5.589
    2PC     O31 3408   2.969   1.402   5.701
    2PC     P31 3409   3.026   1.379   5.848
    2PC     O32 3410   2.926   1.265   5.899
    2PC     C31 3411   2.785   1.290   5.916
    2PC     H1A 3412   2.759   1.370   5.846
    2PC     H1B 3413   2.727   1.202   5.886
    2PC     C32 3414   2.760   1.322   6.064
    2PC     H2A 3415   2.799   1.240   6.125
    2PC     H2B 3416   2.804   1.417   6.094
    2PC     N31 3417   2.618   1.352   6.102
    2PC     C33 3418   2.618   1.417   6.237
    2PC     H3A 3419   2.654   1.519   6.220
    2PC     H3B 3420   2.515   1.421   6.271
    2PC     H3C 3421   2.684   1.357   6.301
    2PC     C34 3422   2.537   1.432   6.006
    2PC     H4A 3423   2.537   1.385   5.907
    2PC     H4B 3424   2.435   1.438   6.044
    2PC     H4C 3425   2.579   1.531   6.022
    2PC     C35 3426   2.544   1.222   6.115
    2PC     H5A 3427   2.444   1.240   6.156
    2PC     H5B 3428   2.608   1.161   6.178
    2PC     H5C 3429   2.550   1.172   6.018
    2PC     O33 3430   3.164   1.325   5.847
    2PC     O34 3431   3.018   1.492   5.944
    2PC     O21 3432   3.022   1.451   5.406
    2PC     C21 3433   3.141   1.403   5.365
    2PC     O22 3434   3.182   1.291   5.388
    3OL     C12 3435   3.226   1.497   5.283
    3OL     H2R 3436   3.295   1.546   5.352
    3OL     H2S 3437   3.157   1.573   5.246
    3OL     C13 3438   3.312   1.438   5.170
    3OL     H3R 3439   3.248   1.382   5.101
    3OL     H3S 3440   3.378   1.367   5.221
    3OL     C14 3441   3.393   1.543   5.094
    3OL     H4R 3442   3.456   1.603   5.161
    3OL     H4S 3443   3.335   1.610   5.031
    3OL     C15 3444   3.488   1.467   5.000
    3OL     H5R 3445   3.441   1.375   4.965
    3OL     H5S 3446   3.580   1.439   5.052
    3OL     C16 3447   3.537   1.553   4.883
    3OL     H6R 3448   3.587   1.644   4.916
    3OL     H6S 3449   3.442   1.575   4.833
    3OL     C17 3450   3.628   1.469   4.792
    3OL     H7R 3451   3.583   1.374   4.764
    3OL     H7S 3452   3.713   1.433   4.851
    3OL     C18 3453   3.686   1.542   4.670
    3OL     H8R 3454   3.766   1.609   4.701
    3OL     H8S 3455   3.612   1.608   4.624
    3OL     C19 3456   3.728   1.435   4.572
    3OL     H9R 3457   3.653   1.395   4.503
    3OL    C110 3458   3.847   1.379   4.559
    3OL    H10R 3459   3.866   1.307   4.481
    3OL    C111 3460   3.965   1.403   4.651
    3OL    H11R 3461   3.931   1.471   4.730
    3OL    H11S 3462   4.042   1.454   4.593
    3OL    C112 3463   4.017   1.281   4.728
    3OL    H12R 3464   4.055   1.211   4.653
    3OL    H12S 3465   3.940   1.242   4.795
    3OL    C113 3466   4.132   1.327   4.820
    3OL    H13R 3467   4.083   1.394   4.890
    3OL    H13S 3468   4.204   1.387   4.765
    3OL    C114 3469   4.209   1.212   4.888
    3OL    H14R 3470   4.289   1.257   4.946
    3OL    H14S 3471   4.251   1.143   4.815
    3OL    C115 3472   4.120   1.124   4.977
    3OL    H15R 3473   4.058   1.064   4.911
    3OL    H15S 3474   4.058   1.197   5.030
    3OL    C116 3475   4.195   1.034   5.076
    3OL    H16R 3476   4.266   1.080   5.145
    3OL    H16S 3477   4.250   0.963   5.015
    3OL    C117 3478   4.093   0.957   5.162
    3OL    H17R 3479   4.135   0.890   5.237
    3OL    H17S 3480   4.036   0.896   5.092
    3OL    C118 3481   4.002   1.057   5.235
    3OL    H18R 3482   4.060   1.136   5.282
    3OL    H18S 3483   3.954   1.005   5.319
    3OL    H18T 3484   3.939   1.111   5.165
    1PA    C116 3485   0.220   5.946   3.999
    1PA    H16R 3486   0.147   5.976   3.923
    1PA    H16S 3487   0.311   5.982   3.952
    1PA    H16T 3488   0.211   5.839   4.016
    1PA    C115 3489   0.215   6.036   4.123
    1PA    H15R 3490   0.239   6.138   4.095
    1PA    H15S 3491   0.112   6.046   4.157
    1PA    C114 3492   0.289   5.969   4.240
    1PA    H14R 3493   0.248   6.002   4.336
    1PA    H14S 3494   0.273   5.861   4.234
    1PA    C113 3495   0.438   6.004   4.232
    1PA    H13R 3496   0.484   5.971   4.138
    1PA    H13S 3497   0.447   6.113   4.231
    1PA    C112 3498   0.522   5.936   4.341
    1PA    H12R 3499   0.617   5.990   4.339
    1PA    H12S 3500   0.477   5.949   4.440
    1PA    C111 3501   0.546   5.789   4.307
    1PA    H11R 3502   0.453   5.732   4.312
    1PA    H11S 3503   0.566   5.788   4.200
    1PA    C110 3504   0.647   5.712   4.393
    1PA    H10R 3505   0.627   5.745   4.495
    1PA    H10S 3506   0.642   5.604   4.374
    1PA     C19 3507   0.786   5.760   4.351
    1PA     H9R 3508   0.785   5.746   4.243
    1PA     H9S 3509   0.805   5.867   4.361
    1PA     C18 3510   0.893   5.680   4.427
    1PA     H8R 3511   0.859   5.578   4.411
    1PA     H8S 3512   0.989   5.703   4.381
    1PA     C17 3513   0.910   5.710   4.577
    1PA     H7R 3514   0.816   5.683   4.626
    1PA     H7S 3515   0.995   5.650   4.611
    1PA     C16 3516   0.945   5.857   4.599
    1PA     H6R 3517   1.020   5.897   4.532
    1PA     H6S 3518   0.855   5.915   4.576
    1PA     C15 3519   0.982   5.879   4.747
    1PA     H5R 3520   0.899   5.832   4.801
    1PA     H5S 3521   1.075   5.827   4.772
    1PA     C14 3522   0.986   6.026   4.791
    1PA     H4R 3523   0.903   6.079   4.745
    1PA     H4S 3524   0.968   6.029   4.899
    1PA     C13 3525   1.117   6.094   4.750
    1PA     H3R 3526   1.120   6.095   4.641
    1PA     H3S 3527   1.112   6.197   4.787
    1PA     C12 3528   1.243   6.027   4.806
    1PA     H2R 3529   1.254   5.930   4.759
    1PA     H2S 3530   1.323   6.089   4.764
    2PC     C11 3531   1.256   6.017   4.955
    2PC     O12 3532   1.173   6.050   5.038
    2PC     O11 3533   1.377   5.970   4.990
    2PC      C1 3534   1.404   5.945   5.129
    2PC      HR 3535   1.508   5.921   5.150
    2PC      HS 3536   1.390   6.040   5.182
    2PC      C2 3537   1.315   5.836   5.189
    2PC      HX 3538   1.209   5.847   5.163
    2PC      C3 3539   1.315   5.837   5.343
    2PC      HA 3540   1.270   5.931   5.373
    2PC      HB 3541   1.254   5.755   5.382
    2PC     O31 3542   1.449   5.832   5.395
    2PC     P31 3543   1.467   5.847   5.554
    2PC     O32 3544   1.458   6.007   5.568
    2PC     C31 3545   1.569   6.085   5.519
    2PC     H1A 3546   1.667   6.041   5.541
    2PC     H1B 3547   1.550   6.076   5.412
    2PC     C32 3548   1.567   6.228   5.573
    2PC     H2A 3549   1.543   6.225   5.679
    2PC     H2B 3550   1.668   6.271   5.573
    2PC     N31 3551   1.471   6.318   5.501
    2PC     C33 3552   1.335   6.255   5.488
    2PC     H3A 3553   1.337   6.164   5.428
    2PC     H3B 3554   1.295   6.235   5.588
    2PC     H3C 3555   1.260   6.322   5.445
    2PC     C34 3556   1.460   6.443   5.582
    2PC     H4A 3557   1.401   6.521   5.534
    2PC     H4B 3558   1.411   6.417   5.676
    2PC     H4C 3559   1.564   6.476   5.587
    2PC     C35 3560   1.532   6.356   5.370
    2PC     H5A 3561   1.553   6.269   5.306
    2PC     H5B 3562   1.623   6.412   5.393
    2PC     H5C 3563   1.461   6.420   5.318
    2PC     O33 3564   1.360   5.772   5.624
    2PC     O34 3565   1.593   5.796   5.613
    2PC     O21 3566   1.350   5.713   5.124
    2PC     C21 3567   1.280   5.676   5.015
    2PC     O22 3568   1.176   5.725   4.976
    3OL     C12 3569   1.351   5.569   4.938
    3OL     H2R 3570   1.342   5.477   4.996
    3OL     H2S 3571   1.455   5.601   4.929
    3OL     C13 3572   1.290   5.556   4.797
    3OL     H3R 3573   1.302   5.657   4.757
    3OL     H3S 3574   1.182   5.539   4.808
    3OL     C14 3575   1.357   5.454   4.705
    3OL     H4R 3576   1.464   5.474   4.701
    3OL     H4S 3577   1.317   5.460   4.604
    3OL     C15 3578   1.331   5.309   4.749
    3OL     H5R 3579   1.369   5.294   4.851
    3OL     H5S 3580   1.384   5.234   4.690
    3OL     C16 3581   1.183   5.276   4.725
    3OL     H6R 3582   1.144   5.305   4.628
    3OL     H6S 3583   1.122   5.326   4.801
    3OL     C17 3584   1.166   5.125   4.744
    3OL     H7R 3585   1.203   5.100   4.844
    3OL     H7S 3586   1.216   5.078   4.659
    3OL     C18 3587   1.017   5.089   4.748
    3OL     H8R 3588   0.970   5.114   4.652
    3OL     H8S 3589   0.964   5.146   4.824
    3OL     C19 3590   1.019   4.940   4.769
    3OL     H9R 3591   1.046   4.907   4.869
    3OL    C110 3592   0.995   4.845   4.680
    3OL    H10R 3593   0.992   4.741   4.711
    3OL    C111 3594   0.936   4.868   4.543
    3OL    H11R 3595   0.873   4.958   4.550
    3OL    H11S 3596   0.859   4.793   4.522
    3OL    C112 3597   1.041   4.873   4.432
    3OL    H12R 3598   1.116   4.951   4.447
    3OL    H12S 3599   0.978   4.914   4.353
    3OL    C113 3600   1.096   4.733   4.402
    3OL    H13R 3601   1.010   4.669   4.378
    3OL    H13S 3602   1.141   4.697   4.495
    3OL    C114 3603   1.198   4.734   4.288
    3OL    H14R 3604   1.286   4.774   4.338
    3OL    H14S 3605   1.167   4.796   4.204
    3OL    C115 3606   1.220   4.593   4.229
    3OL    H15R 3607   1.124   4.549   4.202
    3OL    H15S 3608   1.267   4.532   4.307
    3OL    C116 3609   1.314   4.597   4.108
    3OL    H16R 3610   1.398   4.663   4.129
    3OL    H16S 3611   1.255   4.644   4.028
    3OL    C117 3612   1.345   4.456   4.056
    3OL    H17R 3613   1.381   4.390   4.136
    3OL    H17S 3614   1.420   4.467   3.978
    3OL    C118 3615   1.224   4.406   3.976
    3OL    H18R 3616   1.224   4.298   3.960
    3OL    H18S 3617   1.227   4.460   3.881
    3OL    H18T 3618   1.127   4.433   4.019
    1PA    C116 3619   2.121   3.293   4.004
    1PA    H16R 3620   2.108   3.333   3.904
    1PA    H16S 3621   2.167   3.194   3.994
    1PA    H16T 3622   2.190   3.356   4.058
    1PA    C115 3623   1.979   3.293   4.062
    1PA    H15R 3624   1.917   3.372   4.019
    1PA    H15S 3625   1.929   3.203   4.027
    1PA    C114 3626   1.973   3.303   4.215
    1PA    H14R 3627   2.003   3.402   4.251
    1PA    H14S 3628   1.865   3.301   4.234
    1PA    C113 3629   2.043   3.193   4.294
    1PA    H13R 3630   2.017   3.097   4.248
    1PA    H13S 3631   2.151   3.208   4.285
    1PA    C112 3632   2.005   3.213   4.441
    1PA    H12R 3633   1.994   3.316   4.475
    1PA    H12S 3634   1.906   3.171   4.457
    1PA    C111 3635   2.095   3.134   4.537
    1PA    H11R 3636   2.091   3.027   4.516
    1PA    H11S 3637   2.193   3.175   4.518
    1PA    C110 3638   2.053   3.155   4.683
    1PA    H10R 3639   2.062   3.260   4.711
    1PA    H10S 3640   1.951   3.116   4.697
    1PA     C19 3641   2.145   3.065   4.766
    1PA     H9R 3642   2.131   2.963   4.732
    1PA     H9S 3643   2.247   3.098   4.750
    1PA     C18 3644   2.118   3.074   4.917
    1PA     H8R 3645   2.147   3.173   4.953
    1PA     H8S 3646   2.014   3.058   4.946
    1PA     C17 3647   2.196   2.967   4.994
    1PA     H7R 3648   2.151   2.871   4.970
    1PA     H7S 3649   2.294   2.968   4.946
    1PA     C16 3650   2.209   3.003   5.143
    1PA     H6R 3651   2.300   2.950   5.171
    1PA     H6S 3652   2.229   3.109   5.154
    1PA     C15 3653   2.085   2.967   5.225
    1PA     H5R 3654   2.079   3.013   5.324
    1PA     H5S 3655   1.993   2.999   5.176
    1PA     C14 3656   2.089   2.816   5.248
    1PA     H4R 3657   2.078   2.769   5.150
    1PA     H4S 3658   2.179   2.772   5.289
    1PA     C13 3659   1.976   2.765   5.339
    1PA     H3R 3660   1.958   2.827   5.428
    1PA     H3S 3661   1.884   2.759   5.280
    1PA     C12 3662   2.013   2.624   5.385
    1PA     H2R 3663   2.039   2.566   5.296
    1PA     H2S 3664   2.107   2.624   5.440
    2PC     C11 3665   1.915   2.542   5.466
    2PC     O12 3666   1.944   2.431   5.508
    2PC     O11 3667   1.807   2.609   5.508
    2PC      C1 3668   1.726   2.550   5.611
    2PC      HR 3669   1.692   2.451   5.580
    2PC      HS 3670   1.779   2.537   5.706
    2PC      C2 3671   1.595   2.627   5.632
    2PC      HX 3672   1.618   2.732   5.612
    2PC      C3 3673   1.555   2.619   5.780
    2PC      HA 3674   1.523   2.516   5.798
    2PC      HB 3675   1.638   2.645   5.846
    2PC     O31 3676   1.444   2.708   5.802
    2PC     P31 3677   1.401   2.728   5.955
    2PC     O32 3678   1.243   2.751   5.966
    2PC     C31 3679   1.195   2.809   6.088
    2PC     H1A 3680   1.256   2.760   6.164
    2PC     H1B 3681   1.230   2.913   6.090
    2PC     C32 3682   1.042   2.794   6.094
    2PC     H2A 3683   1.003   2.859   6.173
    2PC     H2B 3684   0.997   2.832   6.003
    2PC     N31 3685   0.984   2.658   6.119
    2PC     C33 3686   1.003   2.567   6.001
    2PC     H3A 3687   0.923   2.493   6.004
    2PC     H3B 3688   0.984   2.622   5.909
    2PC     H3C 3689   1.101   2.520   5.991
    2PC     C34 3690   1.051   2.595   6.238
    2PC     H4A 3691   1.024   2.489   6.235
    2PC     H4B 3692   1.160   2.596   6.233
    2PC     H4C 3693   1.029   2.655   6.326
    2PC     C35 3694   0.838   2.677   6.144
    2PC     H5A 3695   0.801   2.586   6.191
    2PC     H5B 3696   0.789   2.696   6.048
    2PC     H5C 3697   0.831   2.763   6.211
    2PC     O33 3698   1.433   2.610   6.039
    2PC     O34 3699   1.463   2.847   6.018
    2PC     O21 3700   1.483   2.578   5.556
    2PC     C21 3701   1.475   2.613   5.426
    2PC     O22 3702   1.546   2.698   5.377
    3OL     C12 3703   1.383   2.530   5.339
    3OL     H2R 3704   1.293   2.590   5.325
    3OL     H2S 3705   1.367   2.437   5.394
    3OL     C13 3706   1.448   2.499   5.204
    3OL     H3R 3707   1.534   2.434   5.223
    3OL     H3S 3708   1.488   2.595   5.170
    3OL     C14 3709   1.346   2.421   5.119
    3OL     H4R 3710   1.272   2.496   5.089
    3OL     H4S 3711   1.299   2.343   5.178
    3OL     C15 3712   1.407   2.366   4.989
    3OL     H5R 3713   1.501   2.316   5.016
    3OL     H5S 3714   1.438   2.446   4.921
    3OL     C16 3715   1.290   2.293   4.923
    3OL     H6R 3716   1.206   2.362   4.909
    3OL     H6S 3717   1.266   2.213   4.994
    3OL     C17 3718   1.325   2.234   4.785
    3OL     H7R 3719   1.427   2.195   4.795
    3OL     H7S 3720   1.320   2.310   4.707
    3OL     C18 3721   1.226   2.121   4.756
    3OL     H8R 3722   1.131   2.150   4.802
    3OL     H8S 3723   1.257   2.027   4.801
    3OL     C19 3724   1.218   2.097   4.607
    3OL     H9R 3725   1.183   2.171   4.536
    3OL    C110 3726   1.236   1.981   4.545
    3OL    H10R 3727   1.219   1.974   4.438
    3OL    C111 3728   1.279   1.848   4.602
    3OL    H11R 3729   1.215   1.766   4.569
    3OL    H11S 3730   1.282   1.851   4.711
    3OL    C112 3731   1.420   1.811   4.555
    3OL    H12R 3732   1.438   1.712   4.599
    3OL    H12S 3733   1.495   1.880   4.595
    3OL    C113 3734   1.435   1.792   4.404
    3OL    H13R 3735   1.428   1.885   4.348
    3OL    H13S 3736   1.350   1.732   4.371
    3OL    C114 3737   1.562   1.724   4.350
    3OL    H14R 3738   1.659   1.761   4.385
    3OL    H14S 3739   1.550   1.732   4.241
    3OL    C115 3740   1.562   1.575   4.386
    3OL    H15R 3741   1.478   1.526   4.336
    3OL    H15S 3742   1.538   1.564   4.492
    3OL    C116 3743   1.694   1.505   4.348
    3OL    H16R 3744   1.745   1.500   4.444
    3OL    H16S 3745   1.743   1.573   4.278
    3OL    C117 3746   1.657   1.367   4.293
    3OL    H17R 3747   1.576   1.325   4.353
    3OL    H17S 3748   1.739   1.296   4.308
    3OL    C118 3749   1.628   1.372   4.143
    3OL    H18R 3750   1.713   1.410   4.086
    3OL    H18S 3751   1.539   1.433   4.127
    3OL    H18T 3752   1.605   1.277   4.094
    1PA    C116 3753   3.825   3.322   4.332
    1PA    H16R 3754   3.888   3.333   4.421
    1PA    H16S 3755   3.861   3.396   4.259
    1PA    H16T 3756   3.843   3.225   4.286
    1PA    C115 3757   3.676   3.333   4.369
    1PA    H15R 3758   3.647   3.433   4.399
    1PA    H15S 3759   3.622   3.310   4.277
    1PA    C114 3760   3.641   3.240   4.487
    1PA    H14R 3761   3.534   3.252   4.506
    1PA    H14S 3762   3.644   3.134   4.462
    1PA    C113 3763   3.701   3.274   4.624
    1PA    H13R 3764   3.665   3.195   4.689
    1PA    H13S 3765   3.810   3.272   4.612
    1PA    C112 3766   3.653   3.409   4.680
    1PA    H12R 3767   3.692   3.492   4.623
    1PA    H12S 3768   3.545   3.412   4.669
    1PA    C111 3769   3.698   3.429   4.826
    1PA    H11R 3770   3.615   3.478   4.876
    1PA    H11S 3771   3.722   3.331   4.869
    1PA    C110 3772   3.817   3.523   4.842
    1PA    H10R 3773   3.905   3.498   4.782
    1PA    H10S 3774   3.779   3.620   4.808
    1PA     C19 3775   3.860   3.546   4.988
    1PA     H9R 3776   3.777   3.583   5.048
    1PA     H9S 3777   3.896   3.451   5.026
    1PA     C18 3778   3.970   3.653   4.996
    1PA     H8R 3779   4.057   3.604   4.952
    1PA     H8S 3780   3.950   3.743   4.937
    1PA     C17 3781   3.999   3.678   5.145
    1PA     H7R 3782   3.910   3.727   5.184
    1PA     H7S 3783   4.032   3.589   5.199
    1PA     C16 3784   4.121   3.771   5.146
    1PA     H6R 3785   4.210   3.726   5.102
    1PA     H6S 3786   4.096   3.857   5.084
    1PA     C15 3787   4.152   3.818   5.289
    1PA     H5R 3788   4.222   3.901   5.282
    1PA     H5S 3789   4.061   3.850   5.340
    1PA     C14 3790   4.225   3.712   5.375
    1PA     H4R 3791   4.169   3.621   5.395
    1PA     H4S 3792   4.318   3.680   5.328
    1PA     C13 3793   4.258   3.785   5.506
    1PA     H3R 3794   4.346   3.849   5.503
    1PA     H3S 3795   4.175   3.852   5.530
    1PA     C12 3796   4.274   3.682   5.619
    1PA     H2R 3797   4.192   3.611   5.636
    1PA     H2S 3798   4.358   3.615   5.596
    2PC     C11 3799   4.310   3.743   5.752
    2PC     O12 3800   4.279   3.691   5.857
    2PC     O11 3801   4.392   3.849   5.741
    2PC      C1 3802   4.443   3.927   5.850
    2PC      HR 3803   4.487   3.856   5.921
    2PC      HS 3804   4.532   3.979   5.813
    2PC      C2 3805   4.331   4.017   5.901
    2PC      HX 3806   4.386   4.104   5.938
    2PC      C3 3807   4.235   3.955   6.004
    2PC      HA 3808   4.143   3.935   5.950
    2PC      HB 3809   4.278   3.860   6.036
    2PC     O31 3810   4.206   4.040   6.117
    2PC     P31 3811   4.315   4.078   6.229
    2PC     O32 3812   4.346   3.945   6.313
    2PC     C31 3813   4.248   3.897   6.407
    2PC     H1A 3814   4.240   3.974   6.484
    2PC     H1B 3815   4.153   3.899   6.355
    2PC     C32 3816   4.286   3.759   6.464
    2PC     H2A 3817   4.216   3.726   6.541
    2PC     H2B 3818   4.296   3.690   6.381
    2PC     N31 3819   4.410   3.748   6.548
    2PC     C33 3820   4.391   3.832   6.671
    2PC     H3A 3821   4.292   3.812   6.714
    2PC     H3B 3822   4.481   3.830   6.732
    2PC     H3C 3823   4.379   3.936   6.639
    2PC     C34 3824   4.428   3.608   6.599
    2PC     H4A 3825   4.492   3.546   6.537
    2PC     H4B 3826   4.474   3.615   6.698
    2PC     H4C 3827   4.335   3.556   6.622
    2PC     C35 3828   4.536   3.793   6.481
    2PC     H5A 3829   4.549   3.746   6.383
    2PC     H5B 3830   4.615   3.769   6.552
    2PC     H5C 3831   4.525   3.901   6.467
    2PC     O33 3832   4.429   4.154   6.174
    2PC     O34 3833   4.253   4.184   6.312
    2PC     O21 3834   4.268   4.062   5.780
    2PC     C21 3835   4.329   4.127   5.680
    2PC     O22 3836   4.445   4.164   5.682
    3OL     C12 3837   4.241   4.143   5.559
    3OL     H2R 3838   4.180   4.234   5.565
    3OL     H2S 3839   4.184   4.051   5.555
    3OL     C13 3840   4.325   4.162   5.431
    3OL     H3R 3841   4.403   4.087   5.422
    3OL     H3S 3842   4.386   4.252   5.443
    3OL     C14 3843   4.240   4.170   5.304
    3OL     H4R 3844   4.207   4.273   5.292
    3OL     H4S 3845   4.152   4.106   5.310
    3OL     C15 3846   4.325   4.144   5.178
    3OL     H5R 3847   4.371   4.045   5.174
    3OL     H5S 3848   4.404   4.219   5.181
    3OL     C16 3849   4.244   4.164   5.049
    3OL     H6R 3850   4.225   4.271   5.041
    3OL     H6S 3851   4.144   4.121   5.059
    3OL     C17 3852   4.317   4.110   4.925
    3OL     H7R 3853   4.420   4.091   4.955
    3OL     H7S 3854   4.314   4.189   4.849
    3OL     C18 3855   4.267   3.973   4.879
    3OL     H8R 3856   4.159   3.969   4.869
    3OL     H8S 3857   4.302   3.902   4.954
    3OL     C19 3858   4.335   3.939   4.748
    3OL     H9R 3859   4.418   4.007   4.732
    3OL    C110 3860   4.324   3.833   4.670
    3OL    H10R 3861   4.391   3.827   4.584
    3OL    C111 3862   4.225   3.720   4.689
    3OL    H11R 3863   4.192   3.714   4.793
    3OL    H11S 3864   4.287   3.633   4.665
    3OL    C112 3865   4.109   3.725   4.590
    3OL    H12R 3866   4.059   3.627   4.591
    3OL    H12S 3867   4.142   3.744   4.488
    3OL    C113 3868   4.016   3.834   4.644
    3OL    H13R 3869   4.068   3.930   4.639
    3OL    H13S 3870   3.993   3.813   4.748
    3OL    C114 3871   3.898   3.823   4.546
    3OL    H14R 3872   3.866   3.719   4.541
    3OL    H14S 3873   3.929   3.855   4.446
    3OL    C115 3874   3.774   3.905   4.585
    3OL    H15R 3875   3.803   4.006   4.614
    3OL    H15S 3876   3.727   3.867   4.676
    3OL    C116 3877   3.665   3.899   4.477
    3OL    H16R 3878   3.610   3.805   4.481
    3OL    H16S 3879   3.702   3.915   4.376
    3OL    C117 3880   3.556   4.002   4.509
    3OL    H17R 3881   3.597   4.102   4.494
    3OL    H17S 3882   3.530   3.991   4.614
    3OL    C118 3883   3.432   3.981   4.420
    3OL    H18R 3884   3.357   4.058   4.443
    3OL    H18S 3885   3.394   3.880   4.438
    3OL    H18T 3886   3.462   3.986   4.315
    1PA    C116 3887   2.122   5.490   3.762
    1PA    H16R 3888   2.087   5.388   3.742
    1PA    H16S 3889   2.134   5.552   3.673
    1PA    H16T 3890   2.050   5.540   3.827
    1PA    C115 3891   2.250   5.495   3.844
    1PA    H15R 3892   2.243   5.456   3.946
    1PA    H15S 3893   2.327   5.432   3.799
    1PA    C114 3894   2.305   5.637   3.864
    1PA    H14R 3895   2.333   5.678   3.767
    1PA    H14S 3896   2.225   5.689   3.917
    1PA    C113 3897   2.437   5.638   3.942
    1PA    H13R 3898   2.422   5.582   4.034
    1PA    H13S 3899   2.511   5.593   3.876
    1PA    C112 3900   2.486   5.779   3.980
    1PA    H12R 3901   2.509   5.836   3.890
    1PA    H12S 3902   2.411   5.835   4.036
    1PA    C111 3903   2.608   5.756   4.070
    1PA    H11R 3904   2.582   5.700   4.160
    1PA    H11S 3905   2.689   5.711   4.011
    1PA    C110 3906   2.649   5.896   4.116
    1PA    H10R 3907   2.652   5.973   4.039
    1PA    H10S 3908   2.570   5.936   4.180
    1PA     C19 3909   2.787   5.904   4.182
    1PA     H9R 3910   2.786   5.848   4.276
    1PA     H9S 3911   2.847   5.861   4.101
    1PA     C18 3912   2.839   6.047   4.202
    1PA     H8R 3913   2.943   6.055   4.236
    1PA     H8S 3914   2.828   6.110   4.113
    1PA     C17 3915   2.766   6.110   4.322
    1PA     H7R 3916   2.767   6.219   4.317
    1PA     H7S 3917   2.668   6.063   4.324
    1PA     C16 3918   2.821   6.093   4.465
    1PA     H6R 3919   2.835   5.985   4.476
    1PA     H6S 3920   2.919   6.139   4.474
    1PA     C15 3921   2.719   6.148   4.567
    1PA     H5R 3922   2.743   6.253   4.580
    1PA     H5S 3923   2.617   6.137   4.530
    1PA     C14 3924   2.739   6.082   4.704
    1PA     H4R 3925   2.688   5.985   4.702
    1PA     H4S 3926   2.840   6.053   4.734
    1PA     C13 3927   2.676   6.167   4.814
    1PA     H3R 3928   2.738   6.255   4.830
    1PA     H3S 3929   2.584   6.206   4.769
    1PA     C12 3930   2.661   6.083   4.942
    1PA     H2R 3931   2.598   5.997   4.921
    1PA     H2S 3932   2.758   6.041   4.968
    2PC     C11 3933   2.600   6.171   5.049
    2PC     O12 3934   2.536   6.272   5.032
    2PC     O11 3935   2.631   6.122   5.170
    2PC      C1 3936   2.583   6.179   5.293
    2PC      HR 3937   2.642   6.129   5.371
    2PC      HS 3938   2.595   6.288   5.288
    2PC      C2 3939   2.431   6.166   5.313
    2PC      HX 3940   2.373   6.216   5.234
    2PC      C3 3941   2.397   6.237   5.445
    2PC      HA 3942   2.476   6.219   5.519
    2PC      HB 3943   2.399   6.344   5.422
    2PC     O31 3944   2.268   6.209   5.502
    2PC     P31 3945   2.222   6.299   5.626
    2PC     O32 3946   2.235   6.448   5.569
    2PC     C31 3947   2.194   6.559   5.651
    2PC     H1A 3948   2.092   6.589   5.630
    2PC     H1B 3949   2.193   6.541   5.759
    2PC     C32 3950   2.285   6.676   5.613
    2PC     H2A 3951   2.299   6.677   5.505
    2PC     H2B 3952   2.224   6.764   5.636
    2PC     N31 3953   2.424   6.682   5.668
    2PC     C33 3954   2.500   6.557   5.634
    2PC     H3A 3955   2.500   6.534   5.527
    2PC     H3B 3956   2.602   6.553   5.673
    2PC     H3C 3957   2.459   6.474   5.693
    2PC     C34 3958   2.494   6.790   5.591
    2PC     H4A 3959   2.433   6.877   5.616
    2PC     H4B 3960   2.598   6.793   5.622
    2PC     H4C 3961   2.483   6.781   5.483
    2PC     C35 3962   2.431   6.701   5.817
    2PC     H5A 3963   2.382   6.617   5.867
    2PC     H5B 3964   2.376   6.790   5.847
    2PC     H5C 3965   2.536   6.699   5.847
    2PC     O33 3966   2.084   6.265   5.663
    2PC     O34 3967   2.310   6.270   5.742
    2PC     O21 3968   2.399   6.026   5.317
    2PC     C21 3969   2.442   5.937   5.408
    2PC     O22 3970   2.543   5.948   5.476
    3OL     C12 3971   2.352   5.817   5.411
    3OL     H2R 3972   2.251   5.854   5.392
    3OL     H2S 3973   2.350   5.800   5.519
    3OL     C13 3974   2.409   5.712   5.314
    3OL     H3R 3975   2.518   5.701   5.321
    3OL     H3S 3976   2.387   5.739   5.211
    3OL     C14 3977   2.345   5.574   5.328
    3OL     H4R 3978   2.357   5.542   5.431
    3OL     H4S 3979   2.390   5.490   5.274
    3OL     C15 3980   2.197   5.564   5.289
    3OL     H5R 3981   2.154   5.664   5.283
    3OL     H5S 3982   2.142   5.502   5.360
    3OL     C16 3983   2.182   5.510   5.146
    3OL     H6R 3984   2.236   5.416   5.131
    3OL     H6S 3985   2.217   5.580   5.071
    3OL     C17 3986   2.034   5.492   5.116
    3OL     H7R 3987   1.986   5.589   5.127
    3OL     H7S 3988   1.996   5.420   5.189
    3OL     C18 3989   2.007   5.437   4.975
    3OL     H8R 3990   2.064   5.345   4.962
    3OL     H8S 3991   2.045   5.507   4.900
    3OL     C19 3992   1.863   5.413   4.936
    3OL     H9R 3993   1.833   5.311   4.959
    3OL    C110 3994   1.776   5.495   4.879
    3OL    H10R 3995   1.674   5.460   4.862
    3OL    C111 3996   1.807   5.639   4.850
    3OL    H11R 3997   1.895   5.676   4.904
    3OL    H11S 3998   1.719   5.696   4.881
    3OL    C112 3999   1.827   5.679   4.703
    3OL    H12R 4000   1.923   5.637   4.670
    3OL    H12S 4001   1.836   5.788   4.703
    3OL    C113 4002   1.719   5.625   4.607
    3OL    H13R 4003   1.621   5.652   4.646
    3OL    H13S 4004   1.718   5.516   4.615
    3OL    C114 4005   1.748   5.675   4.465
    3OL    H14R 4006   1.847   5.651   4.427
    3OL    H14S 4007   1.745   5.784   4.463
    3OL    C115 4008   1.644   5.615   4.369
    3OL    H15R 4009   1.548   5.658   4.399
    3OL    H15S 4010   1.644   5.507   4.380
    3OL    C116 4011   1.665   5.656   4.222
    3OL    H16R 4012   1.766   5.633   4.185
    3OL    H16S 4013   1.642   5.762   4.210
    3OL    C117 4014   1.564   5.578   4.137
    3OL    H17R 4015   1.461   5.583   4.174
    3OL    H17S 4016   1.593   5.474   4.148
    3OL    C118 4017   1.584   5.627   3.993
    3OL    H18R 4018   1.526   5.552   3.938
    3OL    H18S 4019   1.691   5.622   3.971
    3OL    H18T 4020   1.540   5.725   3.971
    1PA    C116 4021   3.323   2.638   4.266
    1PA    H16R 4022   3.246   2.628   4.190
    1PA    H16S 4023   3.310   2.738   4.309
    1PA    H16T 4024   3.322   2.558   4.340
    1PA    C115 4025   3.456   2.626   4.191
    1PA    H15R 4026   3.466   2.534   4.132
    1PA    H15S 4027   3.471   2.700   4.112
    1PA    C114 4028   3.579   2.630   4.283
    1PA    H14R 4029   3.590   2.546   4.352
    1PA    H14S 4030   3.666   2.633   4.217
    1PA    C113 4031   3.590   2.763   4.358
    1PA    H13R 4032   3.695   2.790   4.371
    1PA    H13S 4033   3.546   2.847   4.304
    1PA    C112 4034   3.526   2.749   4.497
    1PA    H12R 4035   3.431   2.697   4.485
    1PA    H12S 4036   3.574   2.676   4.563
    1PA    C111 4037   3.514   2.888   4.562
    1PA    H11R 4038   3.614   2.926   4.585
    1PA    H11S 4039   3.466   2.966   4.504
    1PA    C110 4040   3.436   2.873   4.694
    1PA    H10R 4041   3.336   2.854   4.655
    1PA    H10S 4042   3.461   2.784   4.753
    1PA     C19 4043   3.424   3.001   4.777
    1PA     H9R 4044   3.405   3.083   4.708
    1PA     H9S 4045   3.343   3.005   4.850
    1PA     C18 4046   3.553   3.013   4.860
    1PA     H8R 4047   3.633   2.978   4.796
    1PA     H8S 4048   3.570   3.119   4.882
    1PA     C17 4049   3.544   2.937   4.993
    1PA     H7R 4050   3.444   2.944   5.035
    1PA     H7S 4051   3.569   2.834   4.966
    1PA     C16 4052   3.643   2.982   5.102
    1PA     H6R 4053   3.743   2.987   5.058
    1PA     H6S 4054   3.615   3.086   5.120
    1PA     C15 4055   3.638   2.889   5.224
    1PA     H5R 4056   3.534   2.880   5.256
    1PA     H5S 4057   3.674   2.792   5.190
    1PA     C14 4058   3.723   2.943   5.339
    1PA     H4R 4059   3.729   2.854   5.401
    1PA     H4S 4060   3.820   2.970   5.297
    1PA     C13 4061   3.658   3.059   5.415
    1PA     H3R 4062   3.652   3.141   5.343
    1PA     H3S 4063   3.561   3.018   5.446
    1PA     C12 4064   3.739   3.104   5.538
    1PA     H2R 4065   3.770   3.012   5.589
    1PA     H2S 4066   3.834   3.145   5.504
    2PC     C11 4067   3.670   3.203   5.629
    2PC     O12 4068   3.581   3.163   5.700
    2PC     O11 4069   3.720   3.328   5.627
    2PC      C1 4070   3.644   3.419   5.709
    2PC      HR 4071   3.538   3.414   5.681
    2PC      HS 4072   3.651   3.392   5.815
    2PC      C2 4073   3.693   3.558   5.673
    2PC      HX 4074   3.801   3.551   5.654
    2PC      C3 4075   3.668   3.648   5.796
    2PC      HA 4076   3.729   3.599   5.872
    2PC      HB 4077   3.706   3.749   5.777
    2PC     O31 4078   3.532   3.645   5.842
    2PC     P31 4079   3.502   3.714   5.983
    2PC     O32 4080   3.500   3.864   5.929
    2PC     C31 4081   3.542   3.972   6.014
    2PC     H1A 4082   3.508   4.068   5.974
    2PC     H1B 4083   3.507   3.949   6.115
    2PC     C32 4084   3.695   3.984   6.015
    2PC     H2A 4085   3.731   3.889   6.055
    2PC     H2B 4086   3.730   4.015   5.917
    2PC     N31 4087   3.763   4.081   6.107
    2PC     C33 4088   3.710   4.217   6.073
    2PC     H3A 4089   3.716   4.216   5.964
    2PC     H3B 4090   3.608   4.242   6.103
    2PC     H3C 4091   3.774   4.300   6.102
    2PC     C34 4092   3.744   4.043   6.251
    2PC     H4A 4093   3.761   3.938   6.277
    2PC     H4B 4094   3.811   4.107   6.308
    2PC     H4C 4095   3.642   4.068   6.280
    2PC     C35 4096   3.911   4.089   6.081
    2PC     H5A 4097   3.952   3.988   6.085
    2PC     H5B 4098   3.949   4.153   6.161
    2PC     H5C 4099   3.934   4.138   5.986
    2PC     O33 4100   3.372   3.673   6.042
    2PC     O34 4101   3.609   3.699   6.084
    2PC     O21 4102   3.616   3.626   5.572
    2PC     C21 4103   3.659   3.628   5.445
    2PC     O22 4104   3.771   3.609   5.404
    3OL     C12 4105   3.541   3.651   5.354
    3OL     H2R 4106   3.560   3.736   5.289
    3OL     H2S 4107   3.455   3.685   5.412
    3OL     C13 4108   3.496   3.531   5.270
    3OL     H3R 4109   3.571   3.496   5.198
    3OL     H3S 4110   3.407   3.571   5.222
    3OL     C14 4111   3.458   3.408   5.353
    3OL     H4R 4112   3.387   3.433   5.432
    3OL     H4S 4113   3.552   3.386   5.404
    3OL     C15 4114   3.408   3.290   5.269
    3OL     H5R 4115   3.401   3.207   5.340
    3OL     H5S 4116   3.471   3.258   5.185
    3OL     C16 4117   3.268   3.310   5.211
    3OL     H6R 4118   3.267   3.398   5.146
    3OL     H6S 4119   3.199   3.331   5.294
    3OL     C17 4120   3.218   3.193   5.126
    3OL     H7R 4121   3.218   3.110   5.198
    3OL     H7S 4122   3.284   3.168   5.042
    3OL     C18 4123   3.075   3.211   5.073
    3OL     H8R 4124   3.013   3.196   5.162
    3OL     H8S 4125   3.046   3.136   5.000
    3OL     C19 4126   3.061   3.349   5.014
    3OL     H9R 4127   3.070   3.429   5.086
    3OL    C110 4128   3.038   3.382   4.887
    3OL    H10R 4129   3.028   3.484   4.854
    3OL    C111 4130   3.045   3.298   4.762
    3OL    H11R 4131   2.963   3.323   4.694
    3OL    H11S 4132   3.042   3.191   4.781
    3OL    C112 4133   3.168   3.335   4.679
    3OL    H12R 4134   3.237   3.251   4.688
    3OL    H12S 4135   3.233   3.414   4.719
    3OL    C113 4136   3.141   3.375   4.533
    3OL    H13R 4137   3.092   3.471   4.529
    3OL    H13S 4138   3.084   3.296   4.484
    3OL    C114 4139   3.271   3.386   4.453
    3OL    H14R 4140   3.326   3.292   4.450
    3OL    H14S 4141   3.336   3.462   4.495
    3OL    C115 4142   3.238   3.433   4.311
    3OL    H15R 4143   3.169   3.517   4.321
    3OL    H15S 4144   3.203   3.347   4.254
    3OL    C116 4145   3.361   3.478   4.231
    3OL    H16R 4146   3.338   3.472   4.125
    3OL    H16S 4147   3.447   3.416   4.255
    3OL    C117 4148   3.405   3.622   4.263
    3OL    H17R 4149   3.510   3.633   4.237
    3OL    H17S 4150   3.388   3.635   4.370
    3OL    C118 4151   3.309   3.724   4.200
    3OL    H18R 4152   3.270   3.680   4.108
    3OL    H18S 4153   3.360   3.817   4.176
    3OL    H18T 4154   3.231   3.736   4.275
    1PA    C116 4155   5.578   6.469   3.520
    1PA    H16R 4156   5.554   6.525   3.429
    1PA    H16S 4157   5.488   6.418   3.557
    1PA    H16T 4158   5.650   6.395   3.487
    1PA    C115 4159   5.638   6.549   3.636
    1PA    H15R 4160   5.734   6.594   3.609
    1PA    H15S 4161   5.570   6.629   3.668
    1PA    C114 4162   5.655   6.461   3.760
    1PA    H14R 4163   5.556   6.455   3.805
    1PA    H14S 4164   5.683   6.361   3.724
    1PA    C113 4165   5.758   6.518   3.858
    1PA    H13R 4166   5.852   6.531   3.805
    1PA    H13S 4167   5.721   6.617   3.888
    1PA    C112 4168   5.770   6.420   3.976
    1PA    H12R 4169   5.811   6.476   4.060
    1PA    H12S 4170   5.667   6.399   4.005
    1PA    C111 4171   5.855   6.293   3.955
    1PA    H11R 4172   5.797   6.227   3.890
    1PA    H11S 4173   5.953   6.315   3.912
    1PA    C110 4174   5.880   6.216   4.085
    1PA    H10R 4175   5.950   6.136   4.058
    1PA    H10S 4176   5.926   6.282   4.159
    1PA     C19 4177   5.758   6.142   4.141
    1PA     H9R 4178   5.680   6.216   4.162
    1PA     H9S 4179   5.729   6.067   4.067
    1PA     C18 4180   5.785   6.082   4.280
    1PA     H8R 4181   5.868   6.012   4.272
    1PA     H8S 4182   5.823   6.164   4.341
    1PA     C17 4183   5.657   6.016   4.335
    1PA     H7R 4184   5.571   6.083   4.330
    1PA     H7S 4185   5.642   5.935   4.264
    1PA     C16 4186   5.683   5.959   4.475
    1PA     H6R 4187   5.768   5.893   4.460
    1PA     H6S 4188   5.713   6.035   4.548
    1PA     C15 4189   5.564   5.878   4.529
    1PA     H5R 4190   5.465   5.923   4.531
    1PA     H5S 4191   5.555   5.789   4.467
    1PA     C14 4192   5.582   5.820   4.670
    1PA     H4R 4193   5.484   5.800   4.713
    1PA     H4S 4194   5.629   5.722   4.654
    1PA     C13 4195   5.663   5.903   4.770
    1PA     H3R 4196   5.685   5.832   4.850
    1PA     H3S 4197   5.764   5.925   4.735
    1PA     C12 4198   5.584   6.020   4.830
    1PA     H2R 4199   5.567   6.100   4.758
    1PA     H2S 4200   5.480   5.993   4.853
    2PC     C11 4201   5.657   6.081   4.946
    2PC     O12 4202   5.778   6.091   4.952
    2PC     O11 4203   5.580   6.095   5.055
    2PC      C1 4204   5.637   6.117   5.186
    2PC      HR 4205   5.725   6.053   5.194
    2PC      HS 4206   5.653   6.224   5.202
    2PC      C2 4207   5.530   6.063   5.282
    2PC      HX 4208   5.432   6.108   5.262
    2PC      C3 4209   5.559   6.097   5.429
    2PC      HA 4210   5.641   6.037   5.470
    2PC      HB 4211   5.609   6.194   5.428
    2PC     O31 4212   5.447   6.093   5.519
    2PC     P31 4213   5.467   6.029   5.665
    2PC     O32 4214   5.570   6.133   5.731
    2PC     C31 4215   5.577   6.135   5.875
    2PC     H1A 4216   5.482   6.168   5.917
    2PC     H1B 4217   5.606   6.032   5.900
    2PC     C32 4218   5.690   6.237   5.896
    2PC     H2A 4219   5.672   6.328   5.838
    2PC     H2B 4220   5.686   6.261   6.002
    2PC     N31 4221   5.830   6.192   5.871
    2PC     C33 4222   5.872   6.187   5.727
    2PC     H3A 4223   5.850   6.284   5.682
    2PC     H3B 4224   5.977   6.159   5.721
    2PC     H3C 4225   5.809   6.113   5.677
    2PC     C34 4226   5.924   6.278   5.950
    2PC     H4A 4227   5.911   6.252   6.056
    2PC     H4B 4228   6.024   6.253   5.914
    2PC     H4C 4229   5.900   6.382   5.931
    2PC     C35 4230   5.851   6.055   5.929
    2PC     H5A 4231   5.800   5.983   5.865
    2PC     H5B 4232   5.806   6.066   6.028
    2PC     H5C 4233   5.960   6.046   5.921
    2PC     O33 4234   5.341   6.022   5.742
    2PC     O34 4235   5.514   5.890   5.646
    2PC     O21 4236   5.524   5.923   5.252
    2PC     C21 4237   5.415   5.858   5.207
    2PC     O22 4238   5.308   5.914   5.202
    3OL     C12 4239   5.436   5.714   5.168
    3OL     H2R 4240   5.365   5.647   5.217
    3OL     H2S 4241   5.535   5.693   5.207
    3OL     C13 4242   5.425   5.680   5.019
    3OL     H3R 4243   5.495   5.597   5.010
    3OL     H3S 4244   5.465   5.764   4.962
    3OL     C14 4245   5.287   5.636   4.967
    3OL     H4R 4246   5.222   5.723   4.968
    3OL     H4S 4247   5.245   5.558   5.031
    3OL     C15 4248   5.301   5.585   4.822
    3OL     H5R 4249   5.387   5.626   4.769
    3OL     H5S 4250   5.226   5.621   4.752
    3OL     C16 4251   5.286   5.435   4.799
    3OL     H6R 4252   5.267   5.414   4.693
    3OL     H6S 4253   5.197   5.404   4.855
    3OL     C17 4254   5.403   5.352   4.854
    3OL     H7R 4255   5.396   5.246   4.827
    3OL     H7S 4256   5.399   5.357   4.963
    3OL     C18 4257   5.537   5.394   4.792
    3OL     H8R 4258   5.611   5.332   4.844
    3OL     H8S 4259   5.554   5.498   4.822
    3OL     C19 4260   5.532   5.374   4.643
    3OL     H9R 4261   5.462   5.434   4.586
    3OL    C110 4262   5.605   5.283   4.580
    3OL    H10R 4263   5.585   5.258   4.476
    3OL    C111 4264   5.691   5.181   4.650
    3OL    H11R 4265   5.652   5.169   4.751
    3OL    H11S 4266   5.788   5.230   4.660
    3OL    C112 4267   5.707   5.048   4.575
    3OL    H12R 4268   5.606   5.014   4.552
    3OL    H12S 4269   5.769   4.981   4.634
    3OL    C113 4270   5.787   5.063   4.444
    3OL    H13R 4271   5.887   5.096   4.472
    3OL    H13S 4272   5.737   5.140   4.385
    3OL    C114 4273   5.784   4.935   4.358
    3OL    H14R 4274   5.687   4.918   4.311
    3OL    H14S 4275   5.806   4.849   4.422
    3OL    C115 4276   5.895   4.947   4.252
    3OL    H15R 4277   5.985   4.987   4.299
    3OL    H15S 4278   5.870   5.018   4.173
    3OL    C116 4279   5.929   4.809   4.194
    3OL    H16R 4280   5.841   4.753   4.160
    3OL    H16S 4281   5.971   4.741   4.268
    3OL    C117 4282   6.037   4.833   4.088
    3OL    H17R 4283   6.126   4.865   4.142
    3OL    H17S 4284   6.006   4.907   4.014
    3OL    C118 4285   6.080   4.708   4.010
    3OL    H18R 4286   6.160   4.732   3.939
    3OL    H18S 4287   5.997   4.660   3.958
    3OL    H18T 4288   6.124   4.636   4.079
    1PA    C116 4289   2.621   6.651   3.520
    1PA    H16R 4290   2.639   6.557   3.466
    1PA    H16S 4291   2.706   6.720   3.522
    1PA    H16T 4292   2.546   6.697   3.456
    1PA    C115 4293   2.566   6.622   3.660
    1PA    H15R 4294   2.536   6.721   3.695
    1PA    H15S 4295   2.481   6.554   3.653
    1PA    C114 4296   2.679   6.570   3.750
    1PA    H14R 4297   2.717   6.481   3.700
    1PA    H14S 4298   2.759   6.645   3.751
    1PA    C113 4299   2.638   6.525   3.891
    1PA    H13R 4300   2.579   6.602   3.943
    1PA    H13S 4301   2.568   6.441   3.894
    1PA    C112 4302   2.766   6.480   3.962
    1PA    H12R 4303   2.810   6.398   3.904
    1PA    H12S 4304   2.841   6.559   3.964
    1PA    C111 4305   2.745   6.439   4.108
    1PA    H11R 4306   2.655   6.378   4.119
    1PA    H11S 4307   2.819   6.367   4.145
    1PA    C110 4308   2.724   6.560   4.200
    1PA    H10R 4309   2.794   6.640   4.174
    1PA    H10S 4310   2.628   6.606   4.179
    1PA     C19 4311   2.738   6.520   4.348
    1PA     H9R 4312   2.691   6.597   4.409
    1PA     H9S 4313   2.683   6.429   4.371
    1PA     C18 4314   2.884   6.526   4.395
    1PA     H8R 4315   2.939   6.437   4.363
    1PA     H8S 4316   2.932   6.617   4.358
    1PA     C17 4317   2.887   6.540   4.548
    1PA     H7R 4318   2.837   6.629   4.586
    1PA     H7S 4319   2.846   6.451   4.596
    1PA     C16 4320   3.035   6.552   4.588
    1PA     H6R 4321   3.088   6.468   4.542
    1PA     H6S 4322   3.067   6.644   4.540
    1PA     C15 4323   3.056   6.565   4.740
    1PA     H5R 4324   2.970   6.524   4.793
    1PA     H5S 4325   3.145   6.506   4.763
    1PA     C14 4326   3.064   6.712   4.782
    1PA     H4R 4327   3.147   6.763   4.733
    1PA     H4S 4328   2.975   6.762   4.742
    1PA     C13 4329   3.074   6.725   4.935
    1PA     H3R 4330   3.080   6.826   4.976
    1PA     H3S 4331   2.983   6.680   4.977
    1PA     C12 4332   3.203   6.660   4.986
    1PA     H2R 4333   3.199   6.555   4.957
    1PA     H2S 4334   3.280   6.724   4.942
    2PC     C11 4335   3.218   6.674   5.136
    2PC     O12 4336   3.158   6.756   5.202
    2PC     O11 4337   3.304   6.582   5.181
    2PC      C1 4338   3.323   6.567   5.323
    2PC      HR 4339   3.411   6.506   5.346
    2PC      HS 4340   3.340   6.667   5.362
    2PC      C2 4341   3.198   6.509   5.392
    2PC      HX 4342   3.113   6.577   5.385
    2PC      C3 4343   3.229   6.498   5.542
    2PC      HA 4344   3.252   6.598   5.580
    2PC      HB 4345   3.142   6.476   5.604
    2PC     O31 4346   3.346   6.418   5.562
    2PC     P31 4347   3.396   6.411   5.715
    2PC     O32 4348   3.510   6.300   5.702
    2PC     C31 4349   3.472   6.161   5.700
    2PC     H1A 4350   3.385   6.136   5.762
    2PC     H1B 4351   3.431   6.143   5.600
    2PC     C32 4352   3.584   6.060   5.728
    2PC     H2A 4353   3.538   5.962   5.720
    2PC     H2B 4354   3.660   6.061   5.650
    2PC     N31 4355   3.661   6.068   5.857
    2PC     C33 4356   3.780   6.158   5.840
    2PC     H3A 4357   3.748   6.262   5.842
    2PC     H3B 4358   3.835   6.142   5.933
    2PC     H3C 4359   3.837   6.136   5.750
    2PC     C34 4360   3.572   6.096   5.974
    2PC     H4A 4361   3.532   6.197   5.965
    2PC     H4B 4362   3.499   6.016   5.975
    2PC     H4C 4363   3.635   6.095   6.063
    2PC     C35 4364   3.705   5.928   5.888
    2PC     H5A 4365   3.620   5.862   5.906
    2PC     H5B 4366   3.769   5.931   5.976
    2PC     H5C 4367   3.770   5.900   5.805
    2PC     O33 4368   3.458   6.537   5.762
    2PC     O34 4369   3.292   6.384   5.816
    2PC     O21 4370   3.175   6.376   5.343
    2PC     C21 4371   3.057   6.324   5.382
    2PC     O22 4372   2.979   6.371   5.462
    3OL     C12 4373   3.033   6.184   5.331
    3OL     H2R 4374   2.968   6.131   5.401
    3OL     H2S 4375   3.127   6.128   5.329
    3OL     C13 4376   2.972   6.181   5.191
    3OL     H3R 4377   2.891   6.251   5.171
    3OL     H3S 4378   2.931   6.082   5.172
    3OL     C14 4379   3.082   6.209   5.087
    3OL     H4R 4380   3.171   6.151   5.111
    3OL     H4S 4381   3.118   6.312   5.093
    3OL     C15 4382   3.024   6.187   4.947
    3OL     H5R 4383   2.954   6.267   4.921
    3OL     H5S 4384   2.988   6.085   4.933
    3OL     C16 4385   3.134   6.201   4.841
    3OL     H6R 4386   3.216   6.136   4.874
    3OL     H6S 4387   3.176   6.301   4.855
    3OL     C17 4388   3.096   6.179   4.694
    3OL     H7R 4389   3.033   6.266   4.671
    3OL     H7S 4390   3.043   6.086   4.672
    3OL     C18 4391   3.214   6.183   4.596
    3OL     H8R 4392   3.266   6.277   4.617
    3OL     H8S 4393   3.179   6.196   4.493
    3OL     C19 4394   3.306   6.066   4.620
    3OL     H9R 4395   3.363   6.071   4.713
    3OL    C110 4396   3.339   5.970   4.535
    3OL    H10R 4397   3.420   5.904   4.565
    3OL    C111 4398   3.274   5.946   4.401
    3OL    H11R 4399   3.349   5.928   4.324
    3OL    H11S 4400   3.210   6.032   4.381
    3OL    C112 4401   3.191   5.816   4.405
    3OL    H12R 4402   3.258   5.734   4.431
    3OL    H12S 4403   3.166   5.800   4.301
    3OL    C113 4404   3.061   5.815   4.486
    3OL    H13R 4405   3.004   5.907   4.469
    3OL    H13S 4406   3.082   5.821   4.593
    3OL    C114 4407   2.988   5.682   4.461
    3OL    H14R 4408   3.047   5.598   4.498
    3OL    H14S 4409   2.963   5.682   4.355
    3OL    C115 4410   2.867   5.674   4.556
    3OL    H15R 4411   2.803   5.762   4.559
    3OL    H15S 4412   2.901   5.645   4.656
    3OL    C116 4413   2.785   5.552   4.515
    3OL    H16R 4414   2.702   5.536   4.584
    3OL    H16S 4415   2.848   5.462   4.511
    3OL    C117 4416   2.717   5.567   4.378
    3OL    H17R 4417   2.792   5.584   4.300
    3OL    H17S 4418   2.647   5.650   4.385
    3OL    C118 4419   2.643   5.436   4.343
    3OL    H18R 4420   2.716   5.355   4.333
    3OL    H18S 4421   2.598   5.439   4.244
    3OL    H18T 4422   2.574   5.403   4.420
    1PA    C116 4423   4.352   0.111   3.953
    1PA    H16R 4424   4.343   0.067   4.052
    1PA    H16S 4425   4.456   0.107   3.917
    1PA    H16T 4426   4.282   0.052   3.894
    1PA    C115 4427   4.304   0.257   3.962
    1PA    H15R 4428   4.319   0.308   3.867
    1PA    H15S 4429   4.196   0.264   3.971
    1PA    C114 4430   4.378   0.343   4.065
    1PA    H14R 4431   4.486   0.328   4.076
    1PA    H14S 4432   4.371   0.448   4.036
    1PA    C113 4433   4.324   0.330   4.208
    1PA    H13R 4434   4.218   0.356   4.212
    1PA    H13S 4435   4.346   0.226   4.233
    1PA    C112 4436   4.404   0.423   4.300
    1PA    H12R 4437   4.509   0.395   4.308
    1PA    H12S 4438   4.397   0.528   4.269
    1PA    C111 4439   4.344   0.420   4.441
    1PA    H11R 4440   4.241   0.456   4.445
    1PA    H11S 4441   4.356   0.320   4.483
    1PA    C110 4442   4.417   0.515   4.538
    1PA    H10R 4443   4.442   0.607   4.486
    1PA    H10S 4444   4.363   0.539   4.630
    1PA     C19 4445   4.556   0.473   4.587
    1PA     H9R 4446   4.624   0.450   4.505
    1PA     H9S 4447   4.598   0.562   4.636
    1PA     C18 4448   4.558   0.348   4.676
    1PA     H8R 4449   4.502   0.267   4.629
    1PA     H8S 4450   4.665   0.327   4.686
    1PA     C17 4451   4.518   0.364   4.823
    1PA     H7R 4452   4.565   0.445   4.879
    1PA     H7S 4453   4.411   0.385   4.823
    1PA     C16 4454   4.548   0.226   4.884
    1PA     H6R 4455   4.485   0.150   4.838
    1PA     H6S 4456   4.651   0.192   4.867
    1PA     C15 4457   4.522   0.221   5.035
    1PA     H5R 4458   4.594   0.271   5.101
    1PA     H5S 4459   4.427   0.273   5.052
    1PA     C14 4460   4.515   0.074   5.080
    1PA     H4R 4461   4.427   0.019   5.046
    1PA     H4S 4462   4.614   0.032   5.061
    1PA     C13 4463   4.509   0.073   5.233
    1PA     H3R 4464   4.518  -0.031   5.265
    1PA     H3S 4465   4.597   0.122   5.275
    1PA     C12 4466   4.381   0.137   5.287
    1PA     H2R 4467   4.361   0.231   5.235
    1PA     H2S 4468   4.292   0.075   5.273
    2PC     C11 4469   4.413   0.164   5.432
    2PC     O12 4470   4.377   0.260   5.496
    2PC     O11 4471   4.473   0.059   5.491
    2PC      C1 4472   4.496   0.057   5.633
    2PC      HR 4473   4.571   0.132   5.660
    2PC      HS 4474   4.404   0.077   5.689
    2PC      C2 4475   4.554  -0.079   5.673
    2PC      HX 4476   4.470  -0.134   5.715
    2PC      C3 4477   4.674  -0.074   5.769
    2PC      HA 4478   4.693  -0.173   5.812
    2PC      HB 4479   4.764  -0.048   5.712
    2PC     O31 4480   4.659   0.022   5.875
    2PC     P31 4481   4.575  -0.018   6.005
    2PC     O32 4482   4.437   0.062   5.992
    2PC     C31 4483   4.434   0.194   6.048
    2PC     H1A 4484   4.396   0.192   6.150
    2PC     H1B 4485   4.534   0.239   6.050
    2PC     C32 4486   4.327   0.269   5.966
    2PC     H2A 4487   4.352   0.280   5.861
    2PC     H2B 4488   4.233   0.214   5.966
    2PC     N31 4489   4.293   0.407   6.013
    2PC     C33 4490   4.246   0.416   6.155
    2PC     H3A 4491   4.190   0.328   6.186
    2PC     H3B 4492   4.331   0.420   6.224
    2PC     H3C 4493   4.186   0.504   6.176
    2PC     C34 4494   4.412   0.499   6.007
    2PC     H4A 4495   4.371   0.597   6.028
    2PC     H4B 4496   4.473   0.471   6.093
    2PC     H4C 4497   4.467   0.490   5.913
    2PC     C35 4498   4.188   0.463   5.923
    2PC     H5A 4499   4.231   0.472   5.823
    2PC     H5B 4500   4.155   0.560   5.960
    2PC     H5C 4501   4.110   0.387   5.918
    2PC     O33 4502   4.554  -0.162   6.032
    2PC     O34 4503   4.658   0.028   6.118
    2PC     O21 4504   4.608  -0.144   5.557
    2PC     C21 4505   4.628  -0.277   5.563
    2PC     O22 4506   4.643  -0.341   5.665
    3OL     C12 4507   4.636  -0.339   5.425
    3OL     H2R 4508   4.540  -0.319   5.377
    3OL     H2S 4509   4.640  -0.447   5.444
    3OL     C13 4510   4.744  -0.281   5.334
    3OL     H3R 4511   4.835  -0.268   5.393
    3OL     H3S 4512   4.706  -0.189   5.289
    3OL     C14 4513   4.766  -0.378   5.217
    3OL     H4R 4514   4.778  -0.477   5.261
    3OL     H4S 4515   4.859  -0.357   5.163
    3OL     C15 4516   4.654  -0.383   5.112
    3OL     H5R 4517   4.553  -0.371   5.151
    3OL     H5S 4518   4.658  -0.482   5.067
    3OL     C16 4519   4.672  -0.277   5.002
    3OL     H6R 4520   4.776  -0.266   4.972
    3OL     H6S 4521   4.618  -0.190   5.041
    3OL     C17 4522   4.597  -0.333   4.881
    3OL     H7R 4523   4.491  -0.354   4.898
    3OL     H7S 4524   4.645  -0.425   4.849
    3OL     C18 4525   4.603  -0.244   4.756
    3OL     H8R 4526   4.567  -0.296   4.667
    3OL     H8S 4527   4.705  -0.206   4.745
    3OL     C19 4528   4.512  -0.125   4.774
    3OL     H9R 4529   4.566  -0.036   4.804
    3OL    C110 4530   4.387  -0.109   4.733
    3OL    H10R 4531   4.332  -0.019   4.760
    3OL    C111 4532   4.310  -0.236   4.704
    3OL    H11R 4533   4.276  -0.270   4.802
    3OL    H11S 4534   4.371  -0.308   4.650
    3OL    C112 4535   4.185  -0.217   4.617
    3OL    H12R 4536   4.102  -0.181   4.677
    3OL    H12S 4537   4.157  -0.315   4.576
    3OL    C113 4538   4.212  -0.129   4.494
    3OL    H13R 4539   4.288  -0.176   4.432
    3OL    H13S 4540   4.259  -0.036   4.528
    3OL    C114 4541   4.086  -0.109   4.408
    3OL    H14R 4542   3.997  -0.074   4.461
    3OL    H14S 4543   4.055  -0.199   4.354
    3OL    C115 4544   4.119  -0.016   4.291
    3OL    H15R 4545   4.194  -0.062   4.226
    3OL    H15S 4546   4.168   0.075   4.327
    3OL    C116 4547   3.995   0.014   4.206
    3OL    H16R 4548   3.912   0.051   4.268
    3OL    H16S 4549   3.972  -0.085   4.167
    3OL    C117 4550   4.032   0.109   4.092
    3OL    H17R 4551   4.106   0.060   4.029
    3OL    H17S 4552   4.079   0.198   4.135
    3OL    C118 4553   3.912   0.143   4.004
    3OL    H18R 4554   3.877   0.060   3.942
    3OL    H18S 4555   3.934   0.229   3.940
    3OL    H18T 4556   3.823   0.167   4.063
    1PA    C116 4557   4.785   5.376   3.913
    1PA    H16R 4558   4.677   5.361   3.912
    1PA    H16S 4559   4.826   5.341   3.817
    1PA    H16T 4560   4.814   5.479   3.936
    1PA    C115 4561   4.847   5.274   4.010
    1PA    H15R 4562   4.807   5.176   3.982
    1PA    H15S 4563   4.954   5.271   3.989
    1PA    C114 4564   4.821   5.307   4.157
    1PA    H14R 4565   4.895   5.258   4.220
    1PA    H14S 4566   4.842   5.413   4.174
    1PA    C113 4567   4.682   5.255   4.196
    1PA    H13R 4568   4.615   5.331   4.154
    1PA    H13S 4569   4.659   5.156   4.156
    1PA    C112 4570   4.659   5.263   4.347
    1PA    H12R 4571   4.739   5.217   4.405
    1PA    H12S 4572   4.654   5.366   4.384
    1PA    C111 4573   4.529   5.193   4.390
    1PA    H11R 4574   4.451   5.250   4.339
    1PA    H11S 4575   4.520   5.098   4.338
    1PA    C110 4576   4.509   5.192   4.543
    1PA    H10R 4577   4.584   5.258   4.588
    1PA    H10S 4578   4.421   5.251   4.568
    1PA     C19 4579   4.502   5.048   4.594
    1PA     H9R 4580   4.482   5.052   4.701
    1PA     H9S 4581   4.416   4.991   4.560
    1PA     C18 4582   4.636   4.976   4.570
    1PA     H8R 4583   4.624   4.871   4.595
    1PA     H8S 4584   4.663   4.987   4.464
    1PA     C17 4585   4.759   5.030   4.645
    1PA     H7R 4586   4.843   4.971   4.607
    1PA     H7S 4587   4.763   5.135   4.613
    1PA     C16 4588   4.737   5.030   4.797
    1PA     H6R 4589   4.663   5.109   4.813
    1PA     H6S 4590   4.690   4.934   4.821
    1PA     C15 4591   4.857   5.066   4.885
    1PA     H5R 4592   4.833   5.061   4.992
    1PA     H5S 4593   4.945   5.003   4.873
    1PA     C14 4594   4.893   5.215   4.871
    1PA     H4R 4595   4.937   5.230   4.772
    1PA     H4S 4596   4.805   5.280   4.875
    1PA     C13 4597   4.985   5.261   4.985
    1PA     H3R 4598   5.070   5.195   5.003
    1PA     H3S 4599   5.011   5.357   4.939
    1PA     C12 4600   4.909   5.292   5.114
    1PA     H2R 4601   4.977   5.361   5.165
    1PA     H2S 4602   4.811   5.335   5.096
    2PC     C11 4603   4.879   5.178   5.209
    2PC     O12 4604   4.780   5.173   5.279
    2PC     O11 4605   4.985   5.097   5.221
    2PC      C1 4606   4.997   5.001   5.328
    2PC      HR 4607   5.093   4.951   5.314
    2PC      HS 4608   4.989   5.059   5.420
    2PC      C2 4609   4.887   4.893   5.322
    2PC      HX 4610   4.791   4.945   5.315
    2PC      C3 4611   4.898   4.813   5.452
    2PC      HA 4612   4.873   4.885   5.531
    2PC      HB 4613   4.834   4.725   5.449
    2PC     O31 4614   5.034   4.768   5.466
    2PC     P31 4615   5.074   4.720   5.614
    2PC     O32 4616   4.985   4.588   5.639
    2PC     C31 4617   4.950   4.561   5.775
    2PC     H1A 4618   4.920   4.656   5.821
    2PC     H1B 4619   4.867   4.490   5.768
    2PC     C32 4620   5.063   4.498   5.858
    2PC     H2A 4621   5.148   4.566   5.852
    2PC     H2B 4622   5.032   4.497   5.962
    2PC     N31 4623   5.116   4.363   5.820
    2PC     C33 4624   5.236   4.326   5.901
    2PC     H3A 4625   5.263   4.220   5.899
    2PC     H3B 4626   5.317   4.387   5.860
    2PC     H3C 4627   5.219   4.346   6.007
    2PC     C34 4628   5.020   4.250   5.842
    2PC     H4A 4629   5.005   4.247   5.950
    2PC     H4B 4630   4.929   4.281   5.791
    2PC     H4C 4631   5.061   4.157   5.801
    2PC     C35 4632   5.151   4.358   5.674
    2PC     H5A 4633   5.241   4.413   5.646
    2PC     H5B 4634   5.072   4.406   5.616
    2PC     H5C 4635   5.158   4.254   5.640
    2PC     O33 4636   5.220   4.695   5.621
    2PC     O34 4637   5.051   4.824   5.717
    2PC     O21 4638   4.911   4.806   5.210
    2PC     C21 4639   4.819   4.713   5.181
    2PC     O22 4640   4.709   4.699   5.231
    3OL     C12 4641   4.882   4.629   5.072
    3OL     H2R 4642   4.826   4.535   5.071
    3OL     H2S 4643   4.984   4.610   5.105
    3OL     C13 4644   4.873   4.704   4.938
    3OL     H3R 4645   4.941   4.789   4.944
    3OL     H3S 4646   4.769   4.734   4.927
    3OL     C14 4647   4.906   4.603   4.827
    3OL     H4R 4648   4.877   4.502   4.859
    3OL     H4S 4649   5.011   4.609   4.800
    3OL     C15 4650   4.823   4.632   4.701
    3OL     H5R 4651   4.827   4.740   4.687
    3OL     H5S 4652   4.718   4.602   4.708
    3OL     C16 4653   4.871   4.547   4.583
    3OL     H6R 4654   4.961   4.598   4.549
    3OL     H6S 4655   4.804   4.558   4.498
    3OL     C17 4656   4.887   4.396   4.610
    3OL     H7R 4657   4.795   4.369   4.661
    3OL     H7S 4658   4.970   4.362   4.672
    3OL     C18 4659   4.894   4.319   4.477
    3OL     H8R 4660   4.989   4.351   4.432
    3OL     H8S 4661   4.822   4.352   4.402
    3OL     C19 4662   4.888   4.172   4.509
    3OL     H9R 4663   4.978   4.116   4.533
    3OL    C110 4664   4.778   4.101   4.493
    3OL    H10R 4665   4.784   3.992   4.494
    3OL    C111 4666   4.641   4.149   4.453
    3OL    H11R 4667   4.627   4.255   4.475
    3OL    H11S 4668   4.570   4.101   4.521
    3OL    C112 4669   4.609   4.113   4.308
    3OL    H12R 4670   4.502   4.123   4.288
    3OL    H12S 4671   4.622   4.005   4.307
    3OL    C113 4672   4.699   4.192   4.212
    3OL    H13R 4673   4.804   4.176   4.238
    3OL    H13S 4674   4.695   4.301   4.224
    3OL    C114 4675   4.665   4.155   4.067
    3OL    H14R 4676   4.697   4.236   4.001
    3OL    H14S 4677   4.555   4.157   4.064
    3OL    C115 4678   4.714   4.014   4.035
    3OL    H15R 4679   4.686   3.940   4.111
    3OL    H15S 4680   4.823   4.011   4.027
    3OL    C116 4681   4.645   3.967   3.906
    3OL    H16R 4682   4.667   4.043   3.831
    3OL    H16S 4683   4.542   3.933   3.919
    3OL    C117 4684   4.711   3.834   3.866
    3OL    H17R 4685   4.702   3.761   3.946
    3OL    H17S 4686   4.817   3.848   3.842
    3OL    C118 4687   4.651   3.778   3.736
    3OL    H18R 4688   4.676   3.672   3.726
    3OL    H18S 4689   4.672   3.831   3.643
    3OL    H18T 4690   4.542   3.778   3.745
    1PA    C116 4691   2.433   1.746   4.667
    1PA    H16R 4692   2.332   1.785   4.678
    1PA    H16S 4693   2.513   1.818   4.690
    1PA    H16T 4694   2.442   1.681   4.754
    1PA    C115 4695   2.459   1.671   4.536
    1PA    H15R 4696   2.387   1.591   4.520
    1PA    H15S 4697   2.452   1.748   4.458
    1PA    C114 4698   2.603   1.616   4.531
    1PA    H14R 4699   2.613   1.556   4.440
    1PA    H14S 4700   2.673   1.700   4.521
    1PA    C113 4701   2.651   1.534   4.651
    1PA    H13R 4702   2.643   1.594   4.742
    1PA    H13S 4703   2.584   1.449   4.663
    1PA    C112 4704   2.798   1.492   4.630
    1PA    H12R 4705   2.856   1.570   4.579
    1PA    H12S 4706   2.836   1.461   4.727
    1PA    C111 4707   2.797   1.380   4.525
    1PA    H11R 4708   2.753   1.402   4.428
    1PA    H11S 4709   2.899   1.357   4.494
    1PA    C110 4710   2.747   1.241   4.568
    1PA    H10R 4711   2.644   1.250   4.603
    1PA    H10S 4712   2.762   1.182   4.477
    1PA     C19 4713   2.843   1.199   4.679
    1PA     H9R 4714   2.944   1.207   4.638
    1PA     H9S 4715   2.823   1.262   4.767
    1PA     C18 4716   2.822   1.054   4.722
    1PA     H8R 4717   2.725   1.046   4.771
    1PA     H8S 4718   2.805   0.990   4.636
    1PA     C17 4719   2.936   0.997   4.808
    1PA     H7R 4720   2.944   0.890   4.786
    1PA     H7S 4721   3.038   1.036   4.801
    1PA     C16 4722   2.894   1.001   4.956
    1PA     H6R 4723   2.789   0.971   4.952
    1PA     H6S 4724   2.953   0.926   5.009
    1PA     C15 4725   2.910   1.145   5.007
    1PA     H5R 4726   2.994   1.196   4.960
    1PA     H5S 4727   2.821   1.200   4.977
    1PA     C14 4728   2.930   1.135   5.159
    1PA     H4R 4729   3.022   1.077   5.168
    1PA     H4S 4730   2.956   1.235   5.194
    1PA     C13 4731   2.822   1.068   5.246
    1PA     H3R 4732   2.812   0.966   5.208
    1PA     H3S 4733   2.857   1.067   5.349
    1PA     C12 4734   2.684   1.132   5.227
    1PA     H2R 4735   2.692   1.228   5.280
    1PA     H2S 4736   2.670   1.150   5.120
    2PC     C11 4737   2.560   1.061   5.274
    2PC     O12 4738   2.564   0.959   5.340
    2PC     O11 4739   2.447   1.121   5.233
    2PC      C1 4740   2.319   1.060   5.254
    2PC      HR 4741   2.253   1.093   5.173
    2PC      HS 4742   2.329   0.951   5.249
    2PC      C2 4743   2.262   1.093   5.392
    2PC      HX 4744   2.346   1.076   5.460
    2PC      C3 4745   2.146   1.005   5.438
    2PC      HA 4746   2.059   1.018   5.374
    2PC      HB 4747   2.180   0.902   5.429
    2PC     O31 4748   2.125   1.034   5.578
    2PC     P31 4749   2.034   0.928   5.656
    2PC     O32 4750   2.123   0.888   5.782
    2PC     C31 4751   2.145   0.992   5.880
    2PC     H1A 4752   2.202   1.078   5.847
    2PC     H1B 4753   2.053   1.025   5.929
    2PC     C32 4754   2.224   0.921   5.991
    2PC     H2A 4755   2.317   0.874   5.960
    2PC     H2B 4756   2.246   0.986   6.077
    2PC     N31 4757   2.155   0.806   6.057
    2PC     C33 4758   2.237   0.769   6.176
    2PC     H3A 4759   2.220   0.664   6.200
    2PC     H3B 4760   2.343   0.779   6.151
    2PC     H3C 4761   2.224   0.845   6.253
    2PC     C34 4762   2.015   0.842   6.095
    2PC     H4A 4763   1.991   0.768   6.171
    2PC     H4B 4764   2.032   0.940   6.141
    2PC     H4C 4765   1.950   0.848   6.008
    2PC     C35 4766   2.151   0.681   5.973
    2PC     H5A 4767   2.245   0.651   5.930
    2PC     H5B 4768   2.079   0.685   5.892
    2PC     H5C 4769   2.108   0.603   6.036
    2PC     O33 4770   1.911   0.978   5.723
    2PC     O34 4771   1.998   0.807   5.579
    2PC     O21 4772   2.219   1.231   5.391
    2PC     C21 4773   2.297   1.340   5.386
    2PC     O22 4774   2.417   1.343   5.406
    3OL     C12 4775   2.222   1.469   5.365
    3OL     H2R 4776   2.281   1.549   5.409
    3OL     H2S 4777   2.124   1.468   5.412
    3OL     C13 4778   2.202   1.506   5.218
    3OL     H3R 4779   2.152   1.424   5.166
    3OL     H3S 4780   2.296   1.525   5.165
    3OL     C14 4781   2.128   1.639   5.210
    3OL     H4R 4782   2.170   1.720   5.270
    3OL     H4S 4783   2.031   1.634   5.260
    3OL     C15 4784   2.110   1.679   5.063
    3OL     H5R 4785   2.059   1.594   5.018
    3OL     H5S 4786   2.211   1.687   5.024
    3OL     C16 4787   2.040   1.815   5.050
    3OL     H6R 4788   2.085   1.886   5.120
    3OL     H6S 4789   1.932   1.799   5.062
    3OL     C17 4790   2.066   1.871   4.910
    3OL     H7R 4791   2.019   1.807   4.836
    3OL     H7S 4792   2.172   1.872   4.889
    3OL     C18 4793   2.004   2.012   4.904
    3OL     H8R 4794   2.036   2.040   4.804
    3OL     H8S 4795   2.054   2.069   4.983
    3OL     C19 4796   1.854   2.019   4.918
    3OL     H9R 4797   1.814   1.997   5.017
    3OL    C110 4798   1.768   2.054   4.824
    3OL    H10R 4799   1.661   2.042   4.842
    3OL    C111 4800   1.806   2.100   4.686
    3OL    H11R 4801   1.827   2.007   4.632
    3OL    H11S 4802   1.892   2.167   4.689
    3OL    C112 4803   1.687   2.171   4.619
    3OL    H12R 4804   1.668   2.261   4.678
    3OL    H12S 4805   1.594   2.115   4.631
    3OL    C113 4806   1.715   2.197   4.471
    3OL    H13R 4807   1.808   2.254   4.470
    3OL    H13S 4808   1.641   2.263   4.426
    3OL    C114 4809   1.697   2.070   4.386
    3OL    H14R 4810   1.595   2.031   4.394
    3OL    H14S 4811   1.754   1.986   4.424
    3OL    C115 4812   1.721   2.102   4.237
    3OL    H15R 4813   1.828   2.112   4.219
    3OL    H15S 4814   1.663   2.189   4.208
    3OL    C116 4815   1.678   1.988   4.145
    3OL    H16R 4816   1.573   1.965   4.166
    3OL    H16S 4817   1.731   1.898   4.177
    3OL    C117 4818   1.698   2.026   3.997
    3OL    H17R 4819   1.658   2.122   3.964
    3OL    H17S 4820   1.643   1.950   3.941
    3OL    C118 4821   1.845   2.020   3.956
    3OL    H18R 4822   1.864   2.046   3.851
    3OL    H18S 4823   1.893   1.926   3.986
    3OL    H18T 4824   1.904   2.093   4.012
    1PA    C116 4825   3.989   6.271   3.766
    1PA    H16R 4826   4.064   6.343   3.799
    1PA    H16S 4827   3.899   6.330   3.748
    1PA    H16T 4828   4.037   6.231   3.676
    1PA    C115 4829   3.977   6.164   3.876
    1PA    H15R 4830   3.926   6.206   3.962
    1PA    H15S 4831   3.904   6.093   3.837
    1PA    C114 4832   4.110   6.119   3.938
    1PA    H14R 4833   4.172   6.062   3.868
    1PA    H14S 4834   4.162   6.212   3.960
    1PA    C113 4835   4.083   6.036   4.064
    1PA    H13R 4836   4.057   6.106   4.144
    1PA    H13S 4837   3.994   5.975   4.044
    1PA    C112 4838   4.207   5.973   4.129
    1PA    H12R 4839   4.241   5.917   4.041
    1PA    H12S 4840   4.289   6.041   4.155
    1PA    C111 4841   4.162   5.875   4.238
    1PA    H11R 4842   4.072   5.824   4.204
    1PA    H11S 4843   4.238   5.802   4.267
    1PA    C110 4844   4.117   5.954   4.362
    1PA    H10R 4845   4.184   6.037   4.384
    1PA    H10S 4846   4.019   5.995   4.336
    1PA     C19 4847   4.102   5.866   4.487
    1PA     H9R 4848   4.044   5.921   4.561
    1PA     H9S 4849   4.047   5.774   4.462
    1PA     C18 4850   4.237   5.826   4.550
    1PA     H8R 4851   4.307   5.784   4.477
    1PA     H8S 4852   4.274   5.923   4.583
    1PA     C17 4853   4.207   5.725   4.661
    1PA     H7R 4854   4.166   5.787   4.741
    1PA     H7S 4855   4.129   5.653   4.634
    1PA     C16 4856   4.333   5.671   4.731
    1PA     H6R 4857   4.375   5.582   4.682
    1PA     H6S 4858   4.413   5.743   4.715
    1PA     C15 4859   4.309   5.620   4.873
    1PA     H5R 4860   4.264   5.702   4.930
    1PA     H5S 4861   4.231   5.543   4.873
    1PA     C14 4862   4.439   5.573   4.940
    1PA     H4R 4863   4.475   5.485   4.886
    1PA     H4S 4864   4.517   5.649   4.935
    1PA     C13 4865   4.416   5.532   5.086
    1PA     H3R 4866   4.367   5.612   5.141
    1PA     H3S 4867   4.353   5.443   5.096
    1PA     C12 4868   4.551   5.511   5.156
    1PA     H2R 4869   4.600   5.419   5.123
    1PA     H2S 4870   4.612   5.596   5.127
    2PC     C11 4871   4.535   5.508   5.306
    2PC     O12 4872   4.514   5.607   5.373
    2PC     O11 4873   4.545   5.383   5.354
    2PC      C1 4874   4.548   5.357   5.496
    2PC      HR 4875   4.517   5.448   5.547
    2PC      HS 4876   4.486   5.272   5.526
    2PC      C2 4877   4.694   5.338   5.538
    2PC      HX 4878   4.734   5.261   5.472
    2PC      C3 4879   4.701   5.296   5.686
    2PC      HA 4880   4.658   5.198   5.709
    2PC      HB 4881   4.805   5.289   5.716
    2PC     O31 4882   4.643   5.396   5.771
    2PC     P31 4883   4.651   5.379   5.930
    2PC     O32 4884   4.632   5.532   5.976
    2PC     C31 4885   4.735   5.627   5.945
    2PC     H1A 4886   4.833   5.590   5.977
    2PC     H1B 4887   4.739   5.637   5.837
    2PC     C32 4888   4.715   5.769   6.001
    2PC     H2A 4889   4.797   5.832   5.966
    2PC     H2B 4890   4.617   5.805   5.971
    2PC     N31 4891   4.713   5.795   6.149
    2PC     C33 4892   4.692   5.943   6.162
    2PC     H3A 4893   4.602   5.974   6.109
    2PC     H3B 4894   4.678   5.968   6.268
    2PC     H3C 4895   4.781   5.994   6.126
    2PC     C34 4896   4.598   5.731   6.221
    2PC     H4A 4897   4.597   5.772   6.322
    2PC     H4B 4898   4.501   5.752   6.177
    2PC     H4C 4899   4.613   5.623   6.220
    2PC     C35 4900   4.842   5.752   6.212
    2PC     H5A 4901   4.868   5.647   6.197
    2PC     H5B 4902   4.836   5.771   6.320
    2PC     H5C 4903   4.923   5.811   6.169
    2PC     O33 4904   4.552   5.284   5.984
    2PC     O34 4905   4.781   5.323   5.972
    2PC     O21 4906   4.762   5.464   5.524
    2PC     C21 4907   4.896   5.470   5.512
    2PC     O22 4908   4.967   5.371   5.510
    3OL     C12 4909   4.940   5.614   5.515
    3OL     H2R 4910   4.997   5.631   5.606
    3OL     H2S 4911   4.859   5.686   5.527
    3OL     C13 4912   5.015   5.640   5.384
    3OL     H3R 4913   5.076   5.553   5.359
    3OL     H3S 4914   5.087   5.722   5.385
    3OL     C14 4915   4.910   5.673   5.277
    3OL     H4R 4916   4.850   5.755   5.316
    3OL     H4S 4917   4.841   5.592   5.253
    3OL     C15 4918   4.979   5.710   5.145
    3OL     H5R 4919   5.038   5.623   5.115
    3OL     H5S 4920   5.048   5.792   5.167
    3OL     C16 4921   4.883   5.744   5.031
    3OL     H6R 4922   4.922   5.822   4.965
    3OL     H6S 4923   4.781   5.765   5.064
    3OL     C17 4924   4.876   5.622   4.938
    3OL     H7R 4925   4.824   5.550   5.001
    3OL     H7S 4926   4.977   5.591   4.911
    3OL     C18 4927   4.798   5.660   4.811
    3OL     H8R 4928   4.856   5.727   4.748
    3OL     H8S 4929   4.710   5.716   4.843
    3OL     C19 4930   4.746   5.540   4.737
    3OL     H9R 4931   4.640   5.522   4.754
    3OL    C110 4932   4.814   5.467   4.651
    3OL    H10R 4933   4.763   5.385   4.600
    3OL    C111 4934   4.960   5.477   4.613
    3OL    H11R 4935   5.008   5.381   4.591
    3OL    H11S 4936   5.025   5.521   4.689
    3OL    C112 4937   4.976   5.549   4.478
    3OL    H12R 4938   4.911   5.637   4.471
    3OL    H12S 4939   4.936   5.486   4.398
    3OL    C113 4940   5.119   5.598   4.454
    3OL    H13R 4941   5.185   5.516   4.483
    3OL    H13S 4942   5.143   5.674   4.528
    3OL    C114 4943   5.124   5.660   4.314
    3OL    H14R 4944   5.055   5.744   4.314
    3OL    H14S 4945   5.097   5.594   4.230
    3OL    C115 4946   5.262   5.718   4.284
    3OL    H15R 4947   5.342   5.643   4.283
    3OL    H15S 4948   5.289   5.787   4.364
    3OL    C116 4949   5.258   5.795   4.151
    3OL    H16R 4950   5.178   5.867   4.167
    3OL    H16S 4951   5.225   5.722   4.076
    3OL    C117 4952   5.389   5.870   4.121
    3OL    H17R 4953   5.423   5.929   4.207
    3OL    H17S 4954   5.384   5.948   4.046
    3OL    C118 4955   5.500   5.777   4.072
    3OL    H18R 4956   5.539   5.708   4.148
    3OL    H18S 4957   5.582   5.844   4.047
    3OL    H18T 4958   5.463   5.728   3.981
    1PA    C116 4959   1.291  -0.026   3.698
    1PA    H16R 4960   1.254  -0.038   3.800
    1PA    H16S 4961   1.314  -0.127   3.662
    1PA    H16T 4962   1.210  -0.001   3.631
    1PA    C115 4963   1.416   0.060   3.672
    1PA    H15R 4964   1.506   0.007   3.705
    1PA    H15S 4965   1.425   0.074   3.564
    1PA    C114 4966   1.408   0.199   3.736
    1PA    H14R 4967   1.473   0.268   3.682
    1PA    H14S 4968   1.305   0.236   3.725
    1PA    C113 4969   1.460   0.200   3.880
    1PA    H13R 4970   1.554   0.146   3.864
    1PA    H13S 4971   1.485   0.301   3.912
    1PA    C112 4972   1.377   0.117   3.978
    1PA    H12R 4973   1.276   0.152   3.958
    1PA    H12S 4974   1.379   0.010   3.956
    1PA    C111 4975   1.426   0.144   4.121
    1PA    H11R 4976   1.533   0.125   4.112
    1PA    H11S 4977   1.422   0.249   4.153
    1PA    C110 4978   1.363   0.051   4.226
    1PA    H10R 4979   1.257   0.074   4.219
    1PA    H10S 4980   1.377  -0.053   4.194
    1PA     C19 4981   1.420   0.077   4.366
    1PA     H9R 4982   1.525   0.048   4.365
    1PA     H9S 4983   1.425   0.185   4.382
    1PA     C18 4984   1.348   0.005   4.481
    1PA     H8R 4985   1.240   0.023   4.487
    1PA     H8S 4986   1.363  -0.102   4.468
    1PA     C17 4987   1.409   0.052   4.613
    1PA     H7R 4988   1.389   0.159   4.623
    1PA     H7S 4989   1.351   0.010   4.696
    1PA     C16 4990   1.560   0.028   4.629
    1PA     H6R 4991   1.589  -0.077   4.619
    1PA     H6S 4992   1.615   0.088   4.556
    1PA     C15 4993   1.607   0.064   4.771
    1PA     H5R 4994   1.550   0.003   4.841
    1PA     H5S 4995   1.711   0.035   4.785
    1PA     C14 4996   1.589   0.211   4.812
    1PA     H4R 4997   1.655   0.261   4.740
    1PA     H4S 4998   1.491   0.257   4.797
    1PA     C13 4999   1.633   0.253   4.953
    1PA     H3R 5000   1.718   0.189   4.978
    1PA     H3S 5001   1.660   0.359   4.957
    1PA     C12 5002   1.519   0.227   5.052
    1PA     H2R 5003   1.429   0.277   5.016
    1PA     H2S 5004   1.493   0.121   5.058
    2PC     C11 5005   1.547   0.275   5.192
    2PC     O12 5006   1.464   0.259   5.279
    2PC     O11 5007   1.660   0.346   5.207
    2PC      C1 5008   1.703   0.383   5.339
    2PC      HR 5009   1.798   0.438   5.333
    2PC      HS 5010   1.630   0.459   5.368
    2PC      C2 5011   1.715   0.267   5.438
    2PC      HX 5012   1.635   0.192   5.433
    2PC      C3 5013   1.702   0.322   5.581
    2PC      HA 5014   1.783   0.386   5.617
    2PC      HB 5015   1.608   0.374   5.597
    2PC     O31 5016   1.689   0.210   5.671
    2PC     P31 5017   1.673   0.232   5.829
    2PC     O32 5018   1.519   0.189   5.843
    2PC     C31 5019   1.422   0.294   5.861
    2PC     H1A 5020   1.428   0.342   5.959
    2PC     H1B 5021   1.432   0.368   5.781
    2PC     C32 5022   1.284   0.226   5.857
    2PC     H2A 5023   1.275   0.207   5.751
    2PC     H2B 5024   1.284   0.134   5.915
    2PC     N31 5025   1.164   0.308   5.893
    2PC     C33 5026   1.176   0.350   6.036
    2PC     H3A 5027   1.082   0.398   6.065
    2PC     H3B 5028   1.195   0.256   6.087
    2PC     H3C 5029   1.255   0.423   6.056
    2PC     C34 5030   1.149   0.429   5.806
    2PC     H4A 5031   1.056   0.482   5.830
    2PC     H4B 5032   1.230   0.499   5.827
    2PC     H4C 5033   1.146   0.394   5.703
    2PC     C35 5034   1.040   0.225   5.876
    2PC     H5A 5035   0.954   0.287   5.850
    2PC     H5B 5036   1.023   0.173   5.970
    2PC     H5C 5037   1.049   0.156   5.793
    2PC     O33 5038   1.755   0.149   5.921
    2PC     O34 5039   1.672   0.376   5.863
    2PC     O21 5040   1.842   0.202   5.421
    2PC     C21 5041   1.860   0.111   5.323
    2PC     O22 5042   1.772   0.078   5.246
    3OL     C12 5043   2.005   0.080   5.299
    3OL     H2R 5044   2.020   0.001   5.225
    3OL     H2S 5045   2.047   0.035   5.390
    3OL     C13 5046   2.073   0.208   5.250
    3OL     H3R 5047   2.043   0.285   5.322
    3OL     H3S 5048   2.039   0.244   5.153
    3OL     C14 5049   2.223   0.183   5.246
    3OL     H4R 5050   2.246   0.112   5.166
    3OL     H4S 5051   2.256   0.144   5.343
    3OL     C15 5052   2.311   0.303   5.208
    3OL     H5R 5053   2.315   0.315   5.100
    3OL     H5S 5054   2.414   0.287   5.238
    3OL     C16 5055   2.266   0.434   5.274
    3OL     H6R 5056   2.269   0.418   5.382
    3OL     H6S 5057   2.162   0.462   5.255
    3OL     C17 5058   2.356   0.554   5.238
    3OL     H7R 5059   2.456   0.518   5.263
    3OL     H7S 5060   2.353   0.640   5.304
    3OL     C18 5061   2.346   0.607   5.095
    3OL     H8R 5062   2.239   0.620   5.078
    3OL     H8S 5063   2.387   0.535   5.024
    3OL     C19 5064   2.417   0.740   5.080
    3OL     H9R 5065   2.457   0.775   5.174
    3OL    C110 5066   2.411   0.809   4.967
    3OL    H10R 5067   2.451   0.909   4.966
    3OL    C111 5068   2.349   0.769   4.836
    3OL    H11R 5069   2.263   0.833   4.814
    3OL    H11S 5070   2.309   0.667   4.840
    3OL    C112 5071   2.446   0.785   4.718
    3OL    H12R 5072   2.501   0.691   4.728
    3OL    H12S 5073   2.525   0.859   4.731
    3OL    C113 5074   2.399   0.783   4.572
    3OL    H13R 5075   2.313   0.716   4.570
    3OL    H13S 5076   2.478   0.745   4.507
    3OL    C114 5077   2.376   0.932   4.545
    3OL    H14R 5078   2.468   0.989   4.558
    3OL    H14S 5079   2.294   0.966   4.609
    3OL    C115 5080   2.348   0.950   4.395
    3OL    H15R 5081   2.260   0.897   4.360
    3OL    H15S 5082   2.431   0.903   4.342
    3OL    C116 5083   2.336   1.099   4.358
    3OL    H16R 5084   2.289   1.168   4.428
    3OL    H16S 5085   2.283   1.098   4.262
    3OL    C117 5086   2.468   1.165   4.319
    3OL    H17R 5087   2.505   1.119   4.227
    3OL    H17S 5088   2.537   1.147   4.402
    3OL    C118 5089   2.457   1.313   4.278
    3OL    H18R 5090   2.440   1.378   4.364
    3OL    H18S 5091   2.369   1.315   4.214
    3OL    H18T 5092   2.547   1.334   4.221
    1PA    C116 5093   1.232   1.460   3.763
    1PA    H16R 5094   1.222   1.459   3.654
    1PA    H16S 5095   1.147   1.409   3.808
    1PA    H16T 5096   1.320   1.401   3.787
    1PA    C115 5097   1.241   1.605   3.814
    1PA    H15R 5098   1.308   1.657   3.745
    1PA    H15S 5099   1.151   1.666   3.821
    1PA    C114 5100   1.311   1.619   3.950
    1PA    H14R 5101   1.411   1.576   3.945
    1PA    H14S 5102   1.333   1.724   3.968
    1PA    C113 5103   1.239   1.544   4.063
    1PA    H13R 5104   1.205   1.443   4.041
    1PA    H13S 5105   1.311   1.522   4.142
    1PA    C112 5106   1.115   1.616   4.119
    1PA    H12R 5107   1.138   1.721   4.140
    1PA    H12S 5108   1.035   1.617   4.045
    1PA    C111 5109   1.051   1.551   4.242
    1PA    H11R 5110   1.007   1.459   4.201
    1PA    H11S 5111   1.127   1.525   4.316
    1PA    C110 5112   0.937   1.631   4.307
    1PA    H10R 5113   0.877   1.672   4.225
    1PA    H10S 5114   0.880   1.564   4.372
    1PA     C19 5115   0.988   1.735   4.407
    1PA     H9R 5116   1.030   1.679   4.490
    1PA     H9S 5117   1.052   1.812   4.362
    1PA     C18 5118   0.861   1.802   4.463
    1PA     H8R 5119   0.791   1.832   4.385
    1PA     H8S 5120   0.816   1.734   4.535
    1PA     C17 5121   0.900   1.927   4.543
    1PA     H7R 5122   0.951   1.892   4.633
    1PA     H7S 5123   0.970   1.984   4.482
    1PA     C16 5124   0.778   2.007   4.591
    1PA     H6R 5125   0.691   1.975   4.533
    1PA     H6S 5126   0.758   1.990   4.697
    1PA     C15 5127   0.779   2.158   4.565
    1PA     H5R 5128   0.830   2.186   4.472
    1PA     H5S 5129   0.677   2.199   4.567
    1PA     C14 5130   0.843   2.244   4.675
    1PA     H4R 5131   0.779   2.256   4.762
    1PA     H4S 5132   0.938   2.202   4.709
    1PA     C13 5133   0.869   2.385   4.619
    1PA     H3R 5134   0.929   2.387   4.528
    1PA     H3S 5135   0.773   2.434   4.602
    1PA     C12 5136   0.942   2.466   4.727
    1PA     H2R 5137   1.030   2.416   4.769
    1PA     H2S 5138   0.982   2.563   4.695
    2PC     C11 5139   0.859   2.505   4.847
    2PC     O12 5140   0.738   2.511   4.846
    2PC     O11 5141   0.937   2.538   4.952
    2PC      C1 5142   0.870   2.565   5.076
    2PC      HR 5143   0.820   2.662   5.077
    2PC      HS 5144   0.803   2.478   5.082
    2PC      C2 5145   0.967   2.546   5.194
    2PC      HX 5146   1.015   2.448   5.196
    2PC      C3 5147   0.899   2.569   5.329
    2PC      HA 5148   0.862   2.669   5.352
    2PC      HB 5149   0.820   2.494   5.338
    2PC     O31 5150   0.991   2.526   5.432
    2PC     P31 5151   0.952   2.531   5.587
    2PC     O32 5152   1.084   2.609   5.632
    2PC     C31 5153   1.078   2.751   5.608
    2PC     H1A 5154   1.044   2.768   5.506
    2PC     H1B 5155   1.003   2.790   5.677
    2PC     C32 5156   1.219   2.800   5.643
    2PC     H2A 5157   1.224   2.783   5.751
    2PC     H2B 5158   1.285   2.733   5.588
    2PC     N31 5159   1.247   2.943   5.606
    2PC     C33 5160   1.384   2.972   5.661
    2PC     H3A 5161   1.386   2.962   5.770
    2PC     H3B 5162   1.456   2.909   5.610
    2PC     H3C 5163   1.403   3.077   5.638
    2PC     C34 5164   1.254   2.951   5.456
    2PC     H4A 5165   1.279   3.056   5.441
    2PC     H4B 5166   1.319   2.873   5.417
    2PC     H4C 5167   1.156   2.924   5.417
    2PC     C35 5168   1.161   3.049   5.666
    2PC     H5A 5169   1.058   3.042   5.630
    2PC     H5B 5170   1.195   3.151   5.645
    2PC     H5C 5171   1.171   3.030   5.773
    2PC     O33 5172   0.833   2.619   5.602
    2PC     O34 5173   0.943   2.405   5.663
    2PC     O21 5174   1.067   2.649   5.182
    2PC     C21 5175   1.046   2.781   5.176
    2PC     O22 5176   0.943   2.838   5.207
    3OL     C12 5177   1.161   2.853   5.110
    3OL     H2R 5178   1.247   2.863   5.176
    3OL     H2S 5179   1.134   2.958   5.096
    3OL     C13 5180   1.221   2.779   4.990
    3OL     H3R 5181   1.135   2.767   4.924
    3OL     H3S 5182   1.250   2.683   5.033
    3OL     C14 5183   1.343   2.852   4.932
    3OL     H4R 5184   1.405   2.890   5.013
    3OL     H4S 5185   1.310   2.940   4.878
    3OL     C15 5186   1.417   2.759   4.835
    3OL     H5R 5187   1.441   2.659   4.871
    3OL     H5S 5188   1.514   2.803   4.809
    3OL     C16 5189   1.352   2.734   4.698
    3OL     H6R 5190   1.318   2.819   4.639
    3OL     H6S 5191   1.264   2.673   4.721
    3OL     C17 5192   1.441   2.641   4.615
    3OL     H7R 5193   1.458   2.540   4.655
    3OL     H7S 5194   1.538   2.687   4.595
    3OL     C18 5195   1.367   2.621   4.482
    3OL     H8R 5196   1.430   2.570   4.409
    3OL     H8S 5197   1.330   2.716   4.441
    3OL     C19 5198   1.258   2.520   4.508
    3OL     H9R 5199   1.222   2.520   4.610
    3OL    C110 5200   1.208   2.431   4.423
    3OL    H10R 5201   1.121   2.372   4.448
    3OL    C111 5202   1.261   2.405   4.284
    3OL    H11R 5203   1.369   2.418   4.277
    3OL    H11S 5204   1.217   2.465   4.203
    3OL    C112 5205   1.236   2.259   4.245
    3OL    H12R 5206   1.280   2.189   4.316
    3OL    H12S 5207   1.291   2.237   4.153
    3OL    C113 5208   1.087   2.228   4.225
    3OL    H13R 5209   1.054   2.298   4.148
    3OL    H13S 5210   1.041   2.232   4.324
    3OL    C114 5211   1.064   2.084   4.178
    3OL    H14R 5212   1.085   2.007   4.254
    3OL    H14S 5213   1.128   2.072   4.091
    3OL    C115 5214   0.917   2.073   4.135
    3OL    H15R 5215   0.886   2.159   4.076
    3OL    H15S 5216   0.856   2.079   4.225
    3OL    C116 5217   0.886   1.942   4.062
    3OL    H16R 5218   0.918   1.865   4.132
    3OL    H16S 5219   0.945   1.928   3.971
    3OL    C117 5220   0.736   1.936   4.029
    3OL    H17R 5221   0.705   2.026   3.974
    3OL    H17S 5222   0.675   1.914   4.116
    3OL    C118 5223   0.711   1.817   3.936
    3OL    H18R 5224   0.769   1.732   3.973
    3OL    H18S 5225   0.752   1.828   3.835
    3OL    H18T 5226   0.605   1.793   3.925
    1PA    C116 5227   4.151   0.704   4.071
    1PA    H16R 5228   4.122   0.807   4.049
    1PA    H16S 5229   4.136   0.634   3.988
    1PA    H16T 5230   4.254   0.699   4.107
    1PA    C115 5231   4.060   0.650   4.182
    1PA    H15R 5232   3.959   0.638   4.144
    1PA    H15S 5233   4.093   0.552   4.216
    1PA    C114 5234   4.059   0.759   4.291
    1PA    H14R 5235   4.034   0.858   4.252
    1PA    H14S 5236   3.981   0.730   4.361
    1PA    C113 5237   4.181   0.754   4.385
    1PA    H13R 5238   4.191   0.652   4.420
    1PA    H13S 5239   4.269   0.781   4.326
    1PA    C112 5240   4.187   0.858   4.498
    1PA    H12R 5241   4.288   0.866   4.539
    1PA    H12S 5242   4.162   0.954   4.451
    1PA    C111 5243   4.089   0.832   4.613
    1PA    H11R 5244   4.053   0.921   4.666
    1PA    H11S 5245   3.997   0.792   4.570
    1PA    C110 5246   4.152   0.737   4.715
    1PA    H10R 5247   4.195   0.651   4.663
    1PA    H10S 5248   4.233   0.793   4.762
    1PA     C19 5249   4.053   0.683   4.820
    1PA     H9R 5250   4.019   0.767   4.879
    1PA     H9S 5251   3.964   0.637   4.777
    1PA     C18 5252   4.126   0.580   4.907
    1PA     H8R 5253   4.047   0.531   4.964
    1PA     H8S 5254   4.150   0.490   4.850
    1PA     C17 5255   4.243   0.630   4.993
    1PA     H7R 5256   4.323   0.647   4.921
    1PA     H7S 5257   4.222   0.723   5.047
    1PA     C16 5258   4.279   0.530   5.104
    1PA     H6R 5259   4.192   0.507   5.165
    1PA     H6S 5260   4.308   0.436   5.056
    1PA     C15 5261   4.394   0.587   5.189
    1PA     H5R 5262   4.445   0.507   5.243
    1PA     H5S 5263   4.475   0.630   5.130
    1PA     C14 5264   4.343   0.686   5.294
    1PA     H4R 5265   4.303   0.767   5.232
    1PA     H4S 5266   4.270   0.646   5.365
    1PA     C13 5267   4.457   0.735   5.385
    1PA     H3R 5268   4.545   0.730   5.320
    1PA     H3S 5269   4.429   0.838   5.409
    1PA     C12 5270   4.481   0.646   5.508
    1PA     H2R 5271   4.389   0.635   5.566
    1PA     H2S 5272   4.510   0.548   5.472
    2PC     C11 5273   4.598   0.682   5.596
    2PC     O12 5274   4.593   0.718   5.712
    2PC     O11 5275   4.716   0.662   5.535
    2PC      C1 5276   4.842   0.682   5.602
    2PC      HR 5277   4.917   0.703   5.526
    2PC      HS 5278   4.832   0.771   5.665
    2PC      C2 5279   4.879   0.555   5.681
    2PC      HX 5280   4.795   0.543   5.749
    2PC      C3 5281   5.011   0.570   5.758
    2PC      HA 5282   5.069   0.481   5.732
    2PC      HB 5283   5.071   0.652   5.720
    2PC     O31 5284   4.994   0.571   5.901
    2PC     P31 5285   5.129   0.576   5.987
    2PC     O32 5286   5.192   0.431   5.960
    2PC     C31 5287   5.116   0.318   6.008
    2PC     H1A 5288   5.135   0.306   6.115
    2PC     H1B 5289   5.014   0.335   5.973
    2PC     C32 5290   5.174   0.193   5.940
    2PC     H2A 5291   5.169   0.212   5.832
    2PC     H2B 5292   5.279   0.190   5.968
    2PC     N31 5293   5.109   0.059   5.958
    2PC     C33 5294   4.970   0.060   5.903
    2PC     H3A 5295   4.985   0.109   5.807
    2PC     H3B 5296   4.932  -0.041   5.886
    2PC     H3C 5297   4.911   0.136   5.956
    2PC     C34 5298   5.183  -0.035   5.867
    2PC     H4A 5299   5.162  -0.011   5.763
    2PC     H4B 5300   5.290  -0.034   5.883
    2PC     H4C 5301   5.157  -0.140   5.878
    2PC     C35 5302   5.115   0.020   6.103
    2PC     H5A 5303   5.044   0.084   6.155
    2PC     H5B 5304   5.220   0.026   6.135
    2PC     H5C 5305   5.065  -0.076   6.115
    2PC     O33 5306   5.210   0.691   5.941
    2PC     O34 5307   5.115   0.589   6.134
    2PC     O21 5308   4.875   0.447   5.587
    2PC     C21 5309   4.884   0.320   5.631
    2PC     O22 5310   4.899   0.289   5.747
    3OL     C12 5311   4.849   0.219   5.524
    3OL     H2R 5312   4.813   0.283   5.443
    3OL     H2S 5313   4.767   0.159   5.565
    3OL     C13 5314   4.968   0.135   5.476
    3OL     H3R 5315   5.005   0.082   5.564
    3OL     H3S 5316   5.060   0.190   5.455
    3OL     C14 5317   4.937   0.051   5.352
    3OL     H4R 5318   4.836   0.011   5.366
    3OL     H4S 5319   5.016  -0.025   5.345
    3OL     C15 5320   4.947   0.140   5.228
    3OL     H5R 5321   5.047   0.184   5.218
    3OL     H5S 5322   4.874   0.221   5.232
    3OL     C16 5323   4.904   0.064   5.102
    3OL     H6R 5324   4.800   0.033   5.096
    3OL     H6S 5325   4.963  -0.028   5.100
    3OL     C17 5326   4.932   0.134   4.969
    3OL     H7R 5327   5.037   0.165   4.964
    3OL     H7S 5328   4.873   0.226   4.965
    3OL     C18 5329   4.891   0.051   4.846
    3OL     H8R 5330   4.783   0.039   4.847
    3OL     H8S 5331   4.927  -0.052   4.850
    3OL     C19 5332   4.926   0.130   4.722
    3OL     H9R 5333   5.018   0.187   4.734
    3OL    C110 5334   4.866   0.122   4.604
    3OL    H10R 5335   4.903   0.172   4.515
    3OL    C111 5336   4.746   0.035   4.580
    3OL    H11R 5337   4.682   0.075   4.658
    3OL    H11S 5338   4.763  -0.071   4.601
    3OL    C112 5339   4.697   0.038   4.434
    3OL    H12R 5340   4.780   0.027   4.364
    3OL    H12S 5341   4.653   0.137   4.418
    3OL    C113 5342   4.594  -0.072   4.409
    3OL    H13R 5343   4.515  -0.066   4.485
    3OL    H13S 5344   4.644  -0.169   4.415
    3OL    C114 5345   4.546  -0.051   4.264
    3OL    H14R 5346   4.626  -0.021   4.196
    3OL    H14S 5347   4.472   0.027   4.279
    3OL    C115 5348   4.483  -0.182   4.215
    3OL    H15R 5349   4.428  -0.153   4.125
    3OL    H15S 5350   4.409  -0.214   4.289
    3OL    C116 5351   4.594  -0.286   4.198
    3OL    H16R 5352   4.560  -0.374   4.143
    3OL    H16S 5353   4.627  -0.330   4.293
    3OL    C117 5354   4.712  -0.240   4.112
    3OL    H17R 5355   4.787  -0.319   4.099
    3OL    H17S 5356   4.766  -0.154   4.152
    3OL    C118 5357   4.667  -0.215   3.967
    3OL    H18R 5358   4.604  -0.128   3.951
    3OL    H18S 5359   4.620  -0.306   3.930
    3OL    H18T 5360   4.754  -0.192   3.905
    1PA    C116 5361   4.341   3.492   4.229
    1PA    H16R 5362   4.412   3.527   4.153
    1PA    H16S 5363   4.283   3.580   4.256
    1PA    H16T 5364   4.276   3.410   4.197
    1PA    C115 5365   4.421   3.442   4.350
    1PA    H15R 5366   4.480   3.354   4.324
    1PA    H15S 5367   4.496   3.517   4.377
    1PA    C114 5368   4.333   3.407   4.471
    1PA    H14R 5369   4.262   3.490   4.481
    1PA    H14S 5370   4.276   3.315   4.458
    1PA    C113 5371   4.427   3.390   4.591
    1PA    H13R 5372   4.499   3.309   4.576
    1PA    H13S 5373   4.484   3.482   4.606
    1PA    C112 5374   4.340   3.348   4.711
    1PA    H12R 5375   4.266   3.424   4.732
    1PA    H12S 5376   4.288   3.253   4.693
    1PA    C111 5377   4.428   3.341   4.837
    1PA    H11R 5378   4.491   3.251   4.835
    1PA    H11S 5379   4.489   3.431   4.846
    1PA    C110 5380   4.346   3.317   4.965
    1PA    H10R 5381   4.254   3.374   4.956
    1PA    H10S 5382   4.305   3.216   4.958
    1PA     C19 5383   4.422   3.355   5.092
    1PA     H9R 5384   4.470   3.453   5.094
    1PA     H9S 5385   4.353   3.360   5.176
    1PA     C18 5386   4.539   3.259   5.118
    1PA     H8R 5387   4.493   3.161   5.131
    1PA     H8S 5388   4.599   3.247   5.027
    1PA     C17 5389   4.639   3.275   5.233
    1PA     H7R 5390   4.727   3.213   5.215
    1PA     H7S 5391   4.674   3.378   5.219
    1PA     C16 5392   4.580   3.257   5.374
    1PA     H6R 5393   4.656   3.285   5.448
    1PA     H6S 5394   4.491   3.318   5.387
    1PA     C15 5395   4.530   3.115   5.403
    1PA     H5R 5396   4.487   3.114   5.504
    1PA     H5S 5397   4.450   3.090   5.333
    1PA     C14 5398   4.629   2.998   5.413
    1PA     H4R 5399   4.693   2.994   5.325
    1PA     H4S 5400   4.693   3.013   5.500
    1PA     C13 5401   4.569   2.857   5.416
    1PA     H3R 5402   4.546   2.827   5.519
    1PA     H3S 5403   4.483   2.835   5.353
    1PA     C12 5404   4.688   2.761   5.395
    1PA     H2R 5405   4.700   2.746   5.288
    1PA     H2S 5406   4.780   2.812   5.422
    2PC     C11 5407   4.669   2.627   5.461
    2PC     O12 5408   4.736   2.593   5.556
    2PC     O11 5409   4.588   2.543   5.394
    2PC      C1 5410   4.572   2.409   5.442
    2PC      HR 5411   4.519   2.350   5.367
    2PC      HS 5412   4.670   2.366   5.464
    2PC      C2 5413   4.486   2.416   5.569
    2PC      HX 5414   4.529   2.482   5.645
    2PC      C3 5415   4.473   2.281   5.641
    2PC      HA 5416   4.455   2.200   5.570
    2PC      HB 5417   4.562   2.257   5.700
    2PC     O31 5418   4.357   2.287   5.726
    2PC     P31 5419   4.291   2.155   5.787
    2PC     O32 5420   4.236   2.089   5.651
    2PC     C31 5421   4.243   1.947   5.630
    2PC     H1A 5422   4.332   1.929   5.569
    2PC     H1B 5423   4.237   1.899   5.728
    2PC     C32 5424   4.117   1.898   5.557
    2PC     H2A 5425   4.109   1.944   5.458
    2PC     H2B 5426   4.132   1.792   5.537
    2PC     N31 5427   3.984   1.929   5.617
    2PC     C33 5428   3.950   2.075   5.602
    2PC     H3A 5429   4.028   2.137   5.647
    2PC     H3B 5430   3.932   2.089   5.496
    2PC     H3C 5431   3.855   2.097   5.651
    2PC     C34 5432   3.880   1.842   5.553
    2PC     H4A 5433   3.916   1.741   5.533
    2PC     H4B 5434   3.787   1.855   5.609
    2PC     H4C 5435   3.864   1.898   5.460
    2PC     C35 5436   3.982   1.891   5.762
    2PC     H5A 5437   3.881   1.887   5.802
    2PC     H5B 5438   4.036   1.959   5.828
    2PC     H5C 5439   4.025   1.792   5.772
    2PC     O33 5440   4.385   2.061   5.852
    2PC     O34 5441   4.180   2.179   5.882
    2PC     O21 5442   4.360   2.479   5.538
    2PC     C21 5443   4.268   2.415   5.464
    2PC     O22 5444   4.281   2.304   5.417
    3OL     C12 5445   4.138   2.490   5.447
    3OL     H2R 5446   4.147   2.583   5.504
    3OL     H2S 5447   4.050   2.440   5.491
    3OL     C13 5448   4.102   2.504   5.299
    3OL     H3R 5449   4.077   2.402   5.266
    3OL     H3S 5450   4.189   2.532   5.240
    3OL     C14 5451   3.981   2.595   5.270
    3OL     H4R 5452   4.015   2.697   5.283
    3OL     H4S 5453   3.918   2.566   5.355
    3OL     C15 5454   3.906   2.575   5.138
    3OL     H5R 5455   3.822   2.644   5.134
    3OL     H5S 5456   3.861   2.476   5.128
    3OL     C16 5457   4.013   2.593   5.030
    3OL     H6R 5458   4.083   2.509   5.026
    3OL     H6S 5459   4.069   2.683   5.057
    3OL     C17 5460   3.958   2.609   4.887
    3OL     H7R 5461   4.044   2.630   4.823
    3OL     H7S 5462   3.889   2.693   4.889
    3OL     C18 5463   3.881   2.485   4.840
    3OL     H8R 5464   3.819   2.460   4.926
    3OL     H8S 5465   3.948   2.403   4.814
    3OL     C19 5466   3.795   2.532   4.725
    3OL     H9R 5467   3.765   2.636   4.727
    3OL    C110 5468   3.778   2.462   4.613
    3OL    H10R 5469   3.727   2.518   4.535
    3OL    C111 5470   3.814   2.318   4.588
    3OL    H11R 5471   3.742   2.283   4.514
    3OL    H11S 5472   3.785   2.259   4.675
    3OL    C112 5473   3.958   2.300   4.538
    3OL    H12R 5474   3.963   2.203   4.488
    3OL    H12S 5475   4.031   2.288   4.619
    3OL    C113 5476   3.987   2.416   4.442
    3OL    H13R 5477   3.956   2.516   4.473
    3OL    H13S 5478   3.924   2.403   4.354
    3OL    C114 5479   4.134   2.424   4.400
    3OL    H14R 5480   4.158   2.330   4.351
    3OL    H14S 5481   4.205   2.430   4.483
    3OL    C115 5482   4.155   2.545   4.307
    3OL    H15R 5483   4.140   2.634   4.368
    3OL    H15S 5484   4.089   2.534   4.220
    3OL    C116 5485   4.294   2.543   4.242
    3OL    H16R 5486   4.301   2.458   4.174
    3OL    H16S 5487   4.373   2.522   4.314
    3OL    C117 5488   4.321   2.667   4.156
    3OL    H17R 5489   4.293   2.757   4.211
    3OL    H17S 5490   4.263   2.656   4.065
    3OL    C118 5491   4.469   2.686   4.121
    3OL    H18R 5492   4.529   2.702   4.211
    3OL    H18S 5493   4.484   2.777   4.062
    3OL    H18T 5494   4.504   2.601   4.063
    1PA    C116 5495   2.194   2.583   4.363
    1PA    H16R 5496   2.190   2.583   4.472
    1PA    H16S 5497   2.286   2.535   4.329
    1PA    H16T 5498   2.122   2.509   4.328
    1PA    C115 5499   2.151   2.719   4.307
    1PA    H15R 5500   2.160   2.725   4.198
    1PA    H15S 5501   2.051   2.757   4.330
    1PA    C114 5502   2.234   2.839   4.354
    1PA    H14R 5503   2.180   2.929   4.324
    1PA    H14S 5504   2.231   2.844   4.463
    1PA    C113 5505   2.368   2.842   4.280
    1PA    H13R 5506   2.410   2.741   4.273
    1PA    H13S 5507   2.350   2.865   4.174
    1PA    C112 5508   2.477   2.932   4.338
    1PA    H12R 5509   2.571   2.919   4.284
    1PA    H12S 5510   2.442   3.033   4.315
    1PA    C111 5511   2.503   2.898   4.485
    1PA    H11R 5512   2.583   2.965   4.518
    1PA    H11S 5513   2.414   2.925   4.542
    1PA    C110 5514   2.533   2.750   4.513
    1PA    H10R 5515   2.449   2.684   4.489
    1PA    H10S 5516   2.616   2.719   4.450
    1PA     C19 5517   2.575   2.736   4.660
    1PA     H9R 5518   2.635   2.649   4.688
    1PA     H9S 5519   2.642   2.820   4.678
    1PA     C18 5520   2.460   2.738   4.763
    1PA     H8R 5521   2.389   2.819   4.744
    1PA     H8S 5522   2.398   2.649   4.749
    1PA     C17 5523   2.512   2.730   4.907
    1PA     H7R 5524   2.437   2.702   4.981
    1PA     H7S 5525   2.593   2.657   4.912
    1PA     C16 5526   2.565   2.866   4.953
    1PA     H6R 5527   2.654   2.888   4.894
    1PA     H6S 5528   2.495   2.942   4.918
    1PA     C15 5529   2.574   2.878   5.106
    1PA     H5R 5530   2.611   2.974   5.141
    1PA     H5S 5531   2.481   2.855   5.160
    1PA     C14 5532   2.663   2.769   5.167
    1PA     H4R 5533   2.632   2.670   5.133
    1PA     H4S 5534   2.764   2.776   5.127
    1PA     C13 5535   2.656   2.759   5.320
    1PA     H3R 5536   2.557   2.723   5.349
    1PA     H3S 5537   2.725   2.680   5.351
    1PA     C12 5538   2.659   2.897   5.387
    1PA     H2R 5539   2.732   2.957   5.334
    1PA     H2S 5540   2.560   2.935   5.361
    2PC     C11 5541   2.687   2.886   5.535
    2PC     O12 5542   2.623   2.819   5.613
    2PC     O11 5543   2.790   2.962   5.577
    2PC      C1 5544   2.850   2.936   5.705
    2PC      HR 5545   2.916   3.022   5.720
    2PC      HS 5546   2.767   2.933   5.776
    2PC      C2 5547   2.923   2.802   5.721
    2PC      HX 5548   2.861   2.721   5.684
    2PC      C3 5549   2.962   2.775   5.867
    2PC      HA 5550   2.916   2.682   5.902
    2PC      HB 5551   3.071   2.759   5.869
    2PC     O31 5552   2.921   2.886   5.949
    2PC     P31 5553   2.963   2.899   6.103
    2PC     O32 5554   3.088   2.999   6.099
    2PC     C31 5555   3.057   3.129   6.047
    2PC     H1A 5556   2.979   3.130   5.969
    2PC     H1B 5557   3.029   3.191   6.132
    2PC     C32 5558   3.183   3.191   5.984
    2PC     H2A 5559   3.215   3.125   5.903
    2PC     H2B 5560   3.161   3.294   5.956
    2PC     N31 5561   3.307   3.205   6.067
    2PC     C33 5562   3.269   3.294   6.182
    2PC     H3A 5563   3.188   3.252   6.242
    2PC     H3B 5564   3.354   3.310   6.249
    2PC     H3C 5565   3.223   3.385   6.144
    2PC     C34 5566   3.366   3.078   6.119
    2PC     H4A 5567   3.395   3.007   6.042
    2PC     H4B 5568   3.457   3.113   6.168
    2PC     H4C 5569   3.297   3.036   6.193
    2PC     C35 5570   3.405   3.280   5.982
    2PC     H5A 5571   3.498   3.265   6.036
    2PC     H5B 5572   3.379   3.386   5.972
    2PC     H5C 5573   3.412   3.233   5.884
    2PC     O33 5574   2.841   2.933   6.180
    2PC     O34 5575   2.989   2.771   6.172
    2PC     O21 5576   3.046   2.813   5.647
    2PC     C21 5577   3.118   2.705   5.611
    2PC     O22 5578   3.094   2.589   5.639
    3OL     C12 5579   3.239   2.733   5.525
    3OL     H2R 5580   3.324   2.706   5.588
    3OL     H2S 5581   3.244   2.841   5.508
    3OL     C13 5582   3.252   2.651   5.396
    3OL     H3R 5583   3.232   2.546   5.419
    3OL     H3S 5584   3.353   2.662   5.356
    3OL     C14 5585   3.156   2.693   5.284
    3OL     H4R 5586   3.076   2.757   5.319
    3OL     H4S 5587   3.118   2.606   5.230
    3OL     C15 5588   3.233   2.793   5.196
    3OL     H5R 5589   3.317   2.744   5.147
    3OL     H5S 5590   3.287   2.862   5.261
    3OL     C16 5591   3.138   2.857   5.094
    3OL     H6R 5592   3.195   2.930   5.036
    3OL     H6S 5593   3.059   2.911   5.147
    3OL     C17 5594   3.083   2.761   4.987
    3OL     H7R 5595   3.014   2.688   5.030
    3OL     H7S 5596   3.161   2.706   4.935
    3OL     C18 5597   3.007   2.835   4.876
    3OL     H8R 5598   3.068   2.908   4.823
    3OL     H8S 5599   2.936   2.904   4.921
    3OL     C19 5600   2.938   2.733   4.787
    3OL     H9R 5601   2.877   2.660   4.839
    3OL    C110 5602   2.959   2.712   4.658
    3OL    H10R 5603   2.909   2.634   4.602
    3OL    C111 5604   3.053   2.791   4.570
    3OL    H11R 5605   3.129   2.728   4.523
    3OL    H11S 5606   3.109   2.860   4.632
    3OL    C112 5607   2.971   2.869   4.466
    3OL    H12R 5608   2.874   2.821   4.458
    3OL    H12S 5609   3.021   2.865   4.369
    3OL    C113 5610   2.965   3.014   4.519
    3OL    H13R 5611   3.069   3.046   4.519
    3OL    H13S 5612   2.932   3.018   4.623
    3OL    C114 5613   2.879   3.111   4.436
    3OL    H14R 5614   2.865   3.207   4.485
    3OL    H14S 5615   2.778   3.072   4.432
    3OL    C115 5616   2.941   3.150   4.301
    3OL    H15R 5617   2.939   3.064   4.233
    3OL    H15S 5618   3.045   3.178   4.320
    3OL    C116 5619   2.872   3.272   4.240
    3OL    H16R 5620   2.892   3.359   4.303
    3OL    H16S 5621   2.763   3.261   4.239
    3OL    C117 5622   2.913   3.312   4.098
    3OL    H17R 5623   2.898   3.224   4.034
    3OL    H17S 5624   3.016   3.348   4.094
    3OL    C118 5625   2.817   3.415   4.036
    3OL    H18R 5626   2.715   3.377   4.032
    3OL    H18S 5627   2.849   3.449   3.937
    3OL    H18T 5628   2.817   3.504   4.099
    1PA    C116 5629   2.231   0.157   3.717
    1PA    H16R 5630   2.279   0.068   3.676
    1PA    H16S 5631   2.270   0.244   3.665
    1PA    H16T 5632   2.123   0.144   3.711
    1PA    C115 5633   2.268   0.168   3.865
    1PA    H15R 5634   2.373   0.195   3.883
    1PA    H15S 5635   2.211   0.247   3.915
    1PA    C114 5636   2.224   0.042   3.940
    1PA    H14R 5637   2.117   0.033   3.932
    1PA    H14S 5638   2.272  -0.040   3.886
    1PA    C113 5639   2.256   0.040   4.090
    1PA    H13R 5640   2.254  -0.063   4.126
    1PA    H13S 5641   2.359   0.074   4.098
    1PA    C112 5642   2.157   0.133   4.161
    1PA    H12R 5643   2.177   0.237   4.132
    1PA    H12S 5644   2.058   0.114   4.119
    1PA    C111 5645   2.161   0.109   4.312
    1PA    H11R 5646   2.087   0.175   4.357
    1PA    H11S 5647   2.139   0.006   4.339
    1PA    C110 5648   2.302   0.129   4.370
    1PA    H10R 5649   2.377   0.076   4.311
    1PA    H10S 5650   2.337   0.232   4.365
    1PA     C19 5651   2.297   0.083   4.516
    1PA     H9R 5652   2.213   0.142   4.554
    1PA     H9S 5653   2.285  -0.024   4.533
    1PA     C18 5654   2.427   0.124   4.587
    1PA     H8R 5655   2.507   0.060   4.550
    1PA     H8S 5656   2.439   0.225   4.549
    1PA     C17 5657   2.421   0.113   4.740
    1PA     H7R 5658   2.344   0.171   4.792
    1PA     H7S 5659   2.392   0.013   4.774
    1PA     C16 5660   2.561   0.130   4.801
    1PA     H6R 5661   2.620   0.039   4.788
    1PA     H6S 5662   2.611   0.213   4.750
    1PA     C15 5663   2.553   0.170   4.949
    1PA     H5R 5664   2.487   0.257   4.958
    1PA     H5S 5665   2.494   0.094   5.001
    1PA     C14 5666   2.692   0.189   5.011
    1PA     H4R 5667   2.734   0.089   5.017
    1PA     H4S 5668   2.751   0.258   4.951
    1PA     C13 5669   2.680   0.241   5.155
    1PA     H3R 5670   2.623   0.334   5.160
    1PA     H3S 5671   2.627   0.168   5.218
    1PA     C12 5672   2.816   0.261   5.222
    1PA     H2R 5673   2.867   0.164   5.223
    1PA     H2S 5674   2.875   0.331   5.162
    2PC     C11 5675   2.795   0.300   5.366
    2PC     O12 5676   2.708   0.375   5.407
    2PC     O11 5677   2.893   0.246   5.440
    2PC      C1 5678   2.888   0.232   5.583
    2PC      HR 5679   2.785   0.219   5.616
    2PC      HS 5680   2.953   0.147   5.607
    2PC      C2 5681   2.948   0.360   5.642
    2PC      HX 5682   3.043   0.393   5.598
    2PC      C3 5683   2.953   0.353   5.795
    2PC      HA 5684   3.016   0.270   5.826
    2PC      HB 5685   2.999   0.442   5.838
    2PC     O31 5686   2.822   0.326   5.850
    2PC     P31 5687   2.804   0.313   6.008
    2PC     O32 5688   2.823   0.155   6.021
    2PC     C31 5689   2.710   0.067   6.029
    2PC     H1A 5690   2.631   0.111   6.090
    2PC     H1B 5691   2.661   0.071   5.931
    2PC     C32 5692   2.736  -0.080   6.065
    2PC     H2A 5693   2.650  -0.146   6.055
    2PC     H2B 5694   2.807  -0.115   5.989
    2PC     N31 5695   2.802  -0.119   6.194
    2PC     C33 5696   2.698  -0.109   6.301
    2PC     H3A 5697   2.737  -0.149   6.395
    2PC     H3B 5698   2.680  -0.002   6.311
    2PC     H3C 5699   2.610  -0.158   6.258
    2PC     C34 5700   2.844  -0.262   6.182
    2PC     H4A 5701   2.914  -0.274   6.099
    2PC     H4B 5702   2.899  -0.283   6.275
    2PC     H4C 5703   2.765  -0.335   6.165
    2PC     C35 5704   2.920  -0.032   6.224
    2PC     H5A 5705   2.980  -0.081   6.302
    2PC     H5B 5706   2.884   0.061   6.269
    2PC     H5C 5707   2.977  -0.013   6.133
    2PC     O33 5708   2.900   0.394   6.087
    2PC     O34 5709   2.672   0.372   6.041
    2PC     O21 5710   2.873   0.477   5.605
    2PC     C21 5711   2.927   0.599   5.615
    2PC     O22 5712   3.038   0.624   5.657
    3OL     C12 5713   2.827   0.711   5.601
    3OL     H2R 5714   2.878   0.807   5.585
    3OL     H2S 5715   2.771   0.713   5.695
    3OL     C13 5716   2.727   0.693   5.485
    3OL     H3R 5717   2.655   0.773   5.500
    3OL     H3S 5718   2.665   0.603   5.493
    3OL     C14 5719   2.808   0.695   5.355
    3OL     H4R 5720   2.881   0.614   5.351
    3OL     H4S 5721   2.863   0.789   5.349
    3OL     C15 5722   2.717   0.673   5.233
    3OL     H5R 5723   2.647   0.756   5.222
    3OL     H5S 5724   2.655   0.584   5.246
    3OL     C16 5725   2.807   0.657   5.109
    3OL     H6R 5726   2.871   0.572   5.135
    3OL     H6S 5727   2.857   0.749   5.079
    3OL     C17 5728   2.723   0.607   4.991
    3OL     H7R 5729   2.646   0.684   4.977
    3OL     H7S 5730   2.685   0.508   5.016
    3OL     C18 5731   2.797   0.585   4.859
    3OL     H8R 5732   2.877   0.514   4.880
    3OL     H8S 5733   2.850   0.675   4.825
    3OL     C19 5734   2.696   0.521   4.767
    3OL     H9R 5735   2.608   0.473   4.810
    3OL    C110 5736   2.709   0.519   4.636
    3OL    H10R 5737   2.632   0.472   4.575
    3OL    C111 5738   2.825   0.577   4.558
    3OL    H11R 5739   2.906   0.618   4.618
    3OL    H11S 5740   2.789   0.661   4.499
    3OL    C112 5741   2.890   0.476   4.462
    3OL    H12R 5742   2.818   0.399   4.434
    3OL    H12S 5743   2.966   0.415   4.511
    3OL    C113 5744   2.951   0.550   4.343
    3OL    H13R 5745   3.046   0.594   4.374
    3OL    H13S 5746   2.881   0.629   4.314
    3OL    C114 5747   2.985   0.463   4.221
    3OL    H14R 5748   2.899   0.400   4.199
    3OL    H14S 5749   3.071   0.405   4.256
    3OL    C115 5750   3.043   0.542   4.103
    3OL    H15R 5751   2.975   0.622   4.073
    3OL    H15S 5752   3.031   0.476   4.016
    3OL    C116 5753   3.186   0.596   4.117
    3OL    H16R 5754   3.253   0.510   4.128
    3OL    H16S 5755   3.186   0.668   4.199
    3OL    C117 5756   3.238   0.668   3.991
    3OL    H17R 5757   3.330   0.723   4.011
    3OL    H17S 5758   3.167   0.749   3.971
    3OL    C118 5759   3.251   0.578   3.868
    3OL    H18R 5760   3.166   0.512   3.853
    3OL    H18S 5761   3.340   0.519   3.895
    3OL    H18T 5762   3.275   0.645   3.786
    1PA    C116 5763   6.625   7.031   3.565
    1PA    H16R 5764   6.653   7.132   3.537
    1PA    H16S 5765   6.517   7.015   3.579
    1PA    H16T 5766   6.655   6.951   3.497
    1PA    C115 5767   6.692   7.003   3.700
    1PA    H15R 5768   6.800   7.004   3.691
    1PA    H15S 5769   6.661   7.077   3.775
    1PA    C114 5770   6.650   6.869   3.761
    1PA    H14R 5771   6.541   6.864   3.773
    1PA    H14S 5772   6.673   6.783   3.699
    1PA    C113 5773   6.722   6.854   3.896
    1PA    H13R 5774   6.829   6.856   3.872
    1PA    H13S 5775   6.689   6.942   3.950
    1PA    C112 5776   6.687   6.727   3.975
    1PA    H12R 5777   6.731   6.748   4.073
    1PA    H12S 5778   6.579   6.729   3.986
    1PA    C111 5779   6.736   6.594   3.916
    1PA    H11R 5780   6.661   6.515   3.925
    1PA    H11S 5781   6.749   6.606   3.809
    1PA    C110 5782   6.865   6.543   3.982
    1PA    H10R 5783   6.909   6.467   3.917
    1PA    H10S 5784   6.947   6.614   3.988
    1PA     C19 5785   6.842   6.490   4.124
    1PA     H9R 5786   6.802   6.571   4.185
    1PA     H9S 5787   6.765   6.412   4.126
    1PA     C18 5788   6.970   6.444   4.196
    1PA     H8R 5789   7.023   6.374   4.131
    1PA     H8S 5790   7.044   6.522   4.214
    1PA     C17 5791   6.936   6.379   4.331
    1PA     H7R 5792   6.877   6.446   4.394
    1PA     H7S 5793   6.868   6.304   4.291
    1PA     C16 5794   7.055   6.319   4.407
    1PA     H6R 5795   7.106   6.250   4.339
    1PA     H6S 5796   7.124   6.400   4.433
    1PA     C15 5797   6.992   6.253   4.530
    1PA     H5R 5798   6.954   6.335   4.591
    1PA     H5S 5799   6.921   6.174   4.504
    1PA     C14 5800   7.101   6.188   4.616
    1PA     H4R 5801   7.159   6.116   4.557
    1PA     H4S 5802   7.178   6.263   4.635
    1PA     C13 5803   7.059   6.108   4.741
    1PA     H3R 5804   7.155   6.078   4.783
    1PA     H3S 5805   7.008   6.179   4.807
    1PA     C12 5806   6.961   5.990   4.732
    1PA     H2R 5807   6.875   6.030   4.678
    1PA     H2S 5808   6.995   5.905   4.673
    2PC     C11 5809   6.923   5.945   4.871
    2PC     O12 5810   6.950   5.996   4.977
    2PC     O11 5811   6.866   5.824   4.860
    2PC      C1 5812   6.829   5.748   4.976
    2PC      HR 5813   6.809   5.643   4.953
    2PC      HS 5814   6.911   5.749   5.048
    2PC      C2 5815   6.696   5.795   5.038
    2PC      HX 5816   6.706   5.898   5.071
    2PC      C3 5817   6.661   5.719   5.167
    2PC      HA 5818   6.641   5.614   5.146
    2PC      HB 5819   6.751   5.721   5.228
    2PC     O31 5820   6.564   5.786   5.250
    2PC     P31 5821   6.548   5.761   5.407
    2PC     O32 5822   6.492   5.612   5.420
    2PC     C31 5823   6.389   5.592   5.518
    2PC     H1A 5824   6.396   5.489   5.554
    2PC     H1B 5825   6.414   5.649   5.608
    2PC     C32 5826   6.250   5.641   5.474
    2PC     H2A 5827   6.177   5.622   5.553
    2PC     H2B 5828   6.243   5.749   5.460
    2PC     N31 5829   6.186   5.584   5.351
    2PC     C33 5830   6.251   5.616   5.220
    2PC     H3A 5831   6.263   5.725   5.215
    2PC     H3B 5832   6.347   5.565   5.216
    2PC     H3C 5833   6.183   5.577   5.144
    2PC     C34 5834   6.182   5.435   5.358
    2PC     H4A 5835   6.280   5.391   5.377
    2PC     H4B 5836   6.123   5.410   5.446
    2PC     H4C 5837   6.123   5.395   5.275
    2PC     C35 5838   6.047   5.640   5.343
    2PC     H5A 5839   6.052   5.747   5.325
    2PC     H5B 5840   5.999   5.615   5.438
    2PC     H5C 5841   6.008   5.595   5.252
    2PC     O33 5842   6.664   5.777   5.497
    2PC     O34 5843   6.454   5.861   5.462
    2PC     O21 5844   6.585   5.771   4.950
    2PC     C21 5845   6.474   5.847   4.959
    2PC     O22 5846   6.466   5.952   5.018
    3OL     C12 5847   6.351   5.772   4.914
    3OL     H2R 5848   6.345   5.674   4.962
    3OL     H2S 5849   6.357   5.756   4.806
    3OL     C13 5850   6.222   5.854   4.931
    3OL     H3R 5851   6.224   5.902   5.029
    3OL     H3S 5852   6.133   5.792   4.920
    3OL     C14 5853   6.225   5.968   4.828
    3OL     H4R 5854   6.223   5.929   4.726
    3OL     H4S 5855   6.311   6.035   4.840
    3OL     C15 5856   6.098   6.053   4.844
    3OL     H5R 5857   6.119   6.099   4.941
    3OL     H5S 5858   6.007   5.998   4.866
    3OL     C16 5859   6.082   6.172   4.748
    3OL     H6R 5860   6.112   6.139   4.648
    3OL     H6S 5861   6.158   6.249   4.765
    3OL     C17 5862   5.941   6.231   4.758
    3OL     H7R 5863   5.928   6.275   4.857
    3OL     H7S 5864   5.872   6.152   4.728
    3OL     C18 5865   5.905   6.341   4.656
    3OL     H8R 5866   5.942   6.317   4.556
    3OL     H8S 5867   5.947   6.437   4.688
    3OL     C19 5868   5.756   6.361   4.654
    3OL     H9R 5869   5.706   6.313   4.570
    3OL    C110 5870   5.678   6.417   4.746
    3OL    H10R 5871   5.573   6.394   4.730
    3OL    C111 5872   5.721   6.494   4.868
    3OL    H11R 5873   5.820   6.464   4.904
    3OL    H11S 5874   5.655   6.474   4.953
    3OL    C112 5875   5.726   6.645   4.841
    3OL    H12R 5876   5.639   6.679   4.784
    3OL    H12S 5877   5.797   6.670   4.763
    3OL    C113 5878   5.750   6.724   4.971
    3OL    H13R 5879   5.846   6.702   5.018
    3OL    H13S 5880   5.666   6.709   5.039
    3OL    C114 5881   5.751   6.874   4.936
    3OL    H14R 5882   5.655   6.899   4.891
    3OL    H14S 5883   5.827   6.900   4.861
    3OL    C115 5884   5.776   6.962   5.059
    3OL    H15R 5885   5.867   6.921   5.103
    3OL    H15S 5886   5.693   6.946   5.127
    3OL    C116 5887   5.781   7.110   5.019
    3OL    H16R 5888   5.694   7.136   4.958
    3OL    H16S 5889   5.876   7.132   4.970
    3OL    C117 5890   5.782   7.191   5.150
    3OL    H17R 5891   5.865   7.158   5.214
    3OL    H17S 5892   5.690   7.167   5.203
    3OL    C118 5893   5.779   7.342   5.122
    3OL    H18R 5894   5.879   7.371   5.091
    3OL    H18S 5895   5.756   7.387   5.218
    3OL    H18T 5896   5.708   7.362   5.041
    1PA    C116 5897   3.465   1.880   3.611
    1PA    H16R 5898   3.542   1.841   3.678
    1PA    H16S 5899   3.511   1.931   3.526
    1PA    H16T 5900   3.414   1.796   3.563
    1PA    C115 5901   3.362   1.966   3.684
    1PA    H15R 5902   3.410   2.055   3.725
    1PA    H15S 5903   3.303   2.006   3.601
    1PA    C114 5904   3.289   1.894   3.798
    1PA    H14R 5905   3.247   1.801   3.759
    1PA    H14S 5906   3.364   1.866   3.872
    1PA    C113 5907   3.191   1.990   3.867
    1PA    H13R 5908   3.141   2.065   3.805
    1PA    H13S 5909   3.112   1.926   3.908
    1PA    C112 5910   3.261   2.072   3.976
    1PA    H12R 5911   3.271   2.014   4.068
    1PA    H12S 5912   3.358   2.091   3.929
    1PA    C111 5913   3.203   2.210   4.009
    1PA    H11R 5914   3.287   2.272   4.041
    1PA    H11S 5915   3.163   2.254   3.917
    1PA    C110 5916   3.086   2.205   4.108
    1PA    H10R 5917   3.038   2.303   4.111
    1PA    H10S 5918   3.016   2.136   4.060
    1PA     C19 5919   3.119   2.171   4.254
    1PA     H9R 5920   3.021   2.144   4.295
    1PA     H9S 5921   3.191   2.089   4.252
    1PA     C18 5922   3.181   2.286   4.334
    1PA     H8R 5923   3.280   2.320   4.304
    1PA     H8S 5924   3.112   2.367   4.308
    1PA     C17 5925   3.185   2.269   4.486
    1PA     H7R 5926   3.099   2.221   4.532
    1PA     H7S 5927   3.277   2.217   4.517
    1PA     C16 5928   3.180   2.406   4.555
    1PA     H6R 5929   3.261   2.474   4.531
    1PA     H6S 5930   3.098   2.471   4.523
    1PA     C15 5931   3.178   2.396   4.708
    1PA     H5R 5932   3.102   2.467   4.742
    1PA     H5S 5933   3.147   2.294   4.730
    1PA     C14 5934   3.308   2.415   4.788
    1PA     H4R 5935   3.381   2.342   4.750
    1PA     H4S 5936   3.356   2.508   4.757
    1PA     C13 5937   3.300   2.410   4.941
    1PA     H3R 5938   3.222   2.481   4.971
    1PA     H3S 5939   3.259   2.318   4.983
    1PA     C12 5940   3.435   2.446   5.004
    1PA     H2R 5941   3.518   2.389   4.962
    1PA     H2S 5942   3.454   2.549   4.976
    2PC     C11 5943   3.448   2.430   5.154
    2PC     O12 5944   3.370   2.360   5.216
    2PC     O11 5945   3.557   2.488   5.206
    2PC      C1 5946   3.592   2.457   5.342
    2PC      HR 5947   3.678   2.514   5.376
    2PC      HS 5948   3.509   2.497   5.400
    2PC      C2 5949   3.622   2.309   5.371
    2PC      HX 5950   3.540   2.239   5.354
    2PC      C3 5951   3.665   2.297   5.518
    2PC      HA 5952   3.579   2.321   5.581
    2PC      HB 5953   3.689   2.192   5.536
    2PC     O31 5954   3.770   2.387   5.560
    2PC     P31 5955   3.806   2.387   5.716
    2PC     O32 5956   3.962   2.422   5.722
    2PC     C31 5957   3.998   2.473   5.852
    2PC     H1A 5958   3.958   2.575   5.859
    2PC     H1B 5959   3.973   2.406   5.933
    2PC     C32 5960   4.150   2.493   5.851
    2PC     H2A 5961   4.188   2.393   5.875
    2PC     H2B 5962   4.192   2.523   5.755
    2PC     N31 5963   4.197   2.580   5.964
    2PC     C33 5964   4.143   2.526   6.093
    2PC     H3A 5965   4.207   2.566   6.172
    2PC     H3B 5966   4.037   2.553   6.103
    2PC     H3C 5967   4.161   2.419   6.097
    2PC     C34 5968   4.347   2.577   5.974
    2PC     H4A 5969   4.384   2.615   5.878
    2PC     H4B 5970   4.384   2.639   6.055
    2PC     H4C 5971   4.374   2.472   5.974
    2PC     C35 5972   4.156   2.723   5.945
    2PC     H5A 5973   4.047   2.728   5.941
    2PC     H5B 5974   4.215   2.760   5.861
    2PC     H5C 5975   4.185   2.777   6.036
    2PC     O33 5976   3.716   2.482   5.785
    2PC     O34 5977   3.770   2.260   5.785
    2PC     O21 5978   3.727   2.275   5.279
    2PC     C21 5979   3.781   2.153   5.269
    2PC     O22 5980   3.761   2.063   5.348
    3OL     C12 5981   3.881   2.137   5.157
    3OL     H2R 5982   3.964   2.086   5.205
    3OL     H2S 5983   3.909   2.241   5.141
    3OL     C13 5984   3.814   2.069   5.036
    3OL     H3R 5985   3.716   2.114   5.020
    3OL     H3S 5986   3.789   1.966   5.063
    3OL     C14 5987   3.888   2.076   4.902
    3OL     H4R 5988   3.911   2.179   4.872
    3OL     H4S 5989   3.814   2.031   4.835
    3OL     C15 5990   4.019   1.997   4.906
    3OL     H5R 5991   4.010   1.904   4.962
    3OL     H5S 5992   4.093   2.057   4.958
    3OL     C16 5993   4.053   1.971   4.758
    3OL     H6R 5994   4.153   1.927   4.761
    3OL     H6S 5995   4.056   2.064   4.700
    3OL     C17 5996   3.966   1.865   4.691
    3OL     H7R 5997   3.885   1.924   4.647
    3OL     H7S 5998   3.921   1.803   4.770
    3OL     C18 5999   4.033   1.797   4.571
    3OL     H8R 6000   4.086   1.711   4.613
    3OL     H8S 6001   4.102   1.864   4.519
    3OL     C19 6002   3.937   1.728   4.477
    3OL     H9R 6003   3.874   1.653   4.523
    3OL    C110 6004   3.925   1.740   4.346
    3OL    H10R 6005   3.856   1.682   4.285
    3OL    C111 6006   4.017   1.827   4.265
    3OL    H11R 6007   4.003   1.802   4.160
    3OL    H11S 6008   4.124   1.818   4.288
    3OL    C112 6009   3.971   1.972   4.283
    3OL    H12R 6010   3.969   1.990   4.391
    3OL    H12S 6011   3.869   1.979   4.244
    3OL    C113 6012   4.047   2.073   4.196
    3OL    H13R 6013   3.993   2.165   4.221
    3OL    H13S 6014   4.032   2.053   4.090
    3OL    C114 6015   4.198   2.080   4.224
    3OL    H14R 6016   4.251   1.990   4.194
    3OL    H14S 6017   4.218   2.091   4.331
    3OL    C115 6018   4.268   2.198   4.156
    3OL    H15R 6019   4.355   2.237   4.210
    3OL    H15S 6020   4.199   2.283   4.153
    3OL    C116 6021   4.319   2.168   4.014
    3OL    H16R 6022   4.360   2.261   3.974
    3OL    H16S 6023   4.235   2.148   3.947
    3OL    C117 6024   4.433   2.066   4.013
    3OL    H17R 6025   4.381   1.975   4.045
    3OL    H17S 6026   4.513   2.097   4.080
    3OL    C118 6027   4.490   2.047   3.871
    3OL    H18R 6028   4.572   1.976   3.864
    3OL    H18S 6029   4.530   2.137   3.824
    3OL    H18T 6030   4.420   2.000   3.801
    1PA    C116 6031   2.905   4.147   4.074
    1PA    H16R 6032   2.985   4.212   4.041
    1PA    H16S 6033   2.868   4.180   4.171
    1PA    H16T 6034   2.821   4.150   4.003
    1PA    C115 6035   2.957   4.003   4.079
    1PA    H15R 6036   2.959   3.961   3.978
    1PA    H15S 6037   3.062   3.998   4.110
    1PA    C114 6038   2.881   3.915   4.179
    1PA    H14R 6039   2.774   3.909   4.155
    1PA    H14S 6040   2.922   3.816   4.161
    1PA    C113 6041   2.911   3.968   4.319
    1PA    H13R 6042   3.016   3.953   4.344
    1PA    H13S 6043   2.899   4.076   4.312
    1PA    C112 6044   2.828   3.919   4.439
    1PA    H12R 6045   2.873   3.955   4.532
    1PA    H12S 6046   2.729   3.962   4.425
    1PA    C111 6047   2.812   3.766   4.449
    1PA    H11R 6048   2.770   3.726   4.356
    1PA    H11S 6049   2.910   3.718   4.460
    1PA    C110 6050   2.717   3.720   4.560
    1PA    H10R 6051   2.621   3.773   4.561
    1PA    H10S 6052   2.695   3.615   4.541
    1PA     C19 6053   2.792   3.735   4.693
    1PA     H9R 6054   2.894   3.697   4.682
    1PA     H9S 6055   2.797   3.843   4.708
    1PA     C18 6056   2.710   3.665   4.803
    1PA     H8R 6057   2.619   3.723   4.820
    1PA     H8S 6058   2.679   3.562   4.786
    1PA     C17 6059   2.785   3.656   4.937
    1PA     H7R 6060   2.706   3.631   5.008
    1PA     H7S 6061   2.864   3.582   4.922
    1PA     C16 6062   2.849   3.780   5.001
    1PA     H6R 6063   2.915   3.832   4.930
    1PA     H6S 6064   2.770   3.851   5.024
    1PA     C15 6065   2.935   3.731   5.118
    1PA     H5R 6066   2.874   3.681   5.193
    1PA     H5S 6067   3.003   3.661   5.068
    1PA     C14 6068   3.009   3.853   5.176
    1PA     H4R 6069   3.073   3.902   5.102
    1PA     H4S 6070   2.932   3.920   5.215
    1PA     C13 6071   3.103   3.809   5.289
    1PA     H3R 6072   3.043   3.743   5.352
    1PA     H3S 6073   3.188   3.754   5.249
    1PA     C12 6074   3.146   3.926   5.380
    1PA     H2R 6075   3.187   4.014   5.329
    1PA     H2S 6076   3.055   3.965   5.426
    2PC     C11 6077   3.245   3.882   5.484
    2PC     O12 6078   3.240   3.770   5.530
    2PC     O11 6079   3.336   3.975   5.521
    2PC      C1 6080   3.434   3.939   5.620
    2PC      HR 6081   3.375   3.913   5.709
    2PC      HS 6082   3.490   3.852   5.585
    2PC      C2 6083   3.524   4.057   5.656
    2PC      HX 6084   3.613   4.039   5.717
    2PC      C3 6085   3.440   4.166   5.724
    2PC      HA 6086   3.373   4.210   5.649
    2PC      HB 6087   3.379   4.125   5.805
    2PC     O31 6088   3.522   4.269   5.782
    2PC     P31 6089   3.469   4.378   5.886
    2PC     O32 6090   3.354   4.459   5.808
    2PC     C31 6091   3.348   4.600   5.835
    2PC     H1A 6092   3.443   4.652   5.823
    2PC     H1B 6093   3.281   4.645   5.761
    2PC     C32 6094   3.285   4.625   5.973
    2PC     H2A 6095   3.329   4.566   6.054
    2PC     H2B 6096   3.311   4.730   5.987
    2PC     N31 6097   3.136   4.605   5.977
    2PC     C33 6098   3.091   4.465   5.947
    2PC     H3A 6099   2.983   4.462   5.965
    2PC     H3B 6100   3.118   4.450   5.842
    2PC     H3C 6101   3.145   4.393   6.008
    2PC     C34 6102   3.098   4.631   6.120
    2PC     H4A 6103   2.999   4.591   6.140
    2PC     H4B 6104   3.179   4.593   6.183
    2PC     H4C 6105   3.098   4.740   6.126
    2PC     C35 6106   3.062   4.700   5.889
    2PC     H5A 6107   3.113   4.796   5.902
    2PC     H5B 6108   2.956   4.693   5.911
    2PC     H5C 6109   3.063   4.666   5.785
    2PC     O33 6110   3.406   4.322   6.008
    2PC     O34 6111   3.580   4.469   5.923
    2PC     O21 6112   3.559   4.112   5.527
    2PC     C21 6113   3.643   4.045   5.446
    2PC     O22 6114   3.688   3.934   5.464
    3OL     C12 6115   3.687   4.131   5.331
    3OL     H2R 6116   3.791   4.108   5.308
    3OL     H2S 6117   3.666   4.234   5.361
    3OL     C13 6118   3.594   4.098   5.214
    3OL     H3R 6119   3.499   4.135   5.254
    3OL     H3S 6120   3.574   3.991   5.212
    3OL     C14 6121   3.642   4.152   5.079
    3OL     H4R 6122   3.679   4.254   5.070
    3OL     H4S 6123   3.566   4.127   5.004
    3OL     C15 6124   3.766   4.081   5.022
    3OL     H5R 6125   3.741   3.976   5.041
    3OL     H5S 6126   3.849   4.109   5.088
    3OL     C16 6127   3.804   4.095   4.874
    3OL     H6R 6128   3.709   4.105   4.820
    3OL     H6S 6129   3.869   4.017   4.834
    3OL     C17 6130   3.885   4.223   4.852
    3OL     H7R 6131   3.983   4.194   4.889
    3OL     H7S 6132   3.840   4.301   4.914
    3OL     C18 6133   3.903   4.263   4.704
    3OL     H8R 6134   3.806   4.301   4.672
    3OL     H8S 6135   3.927   4.171   4.651
    3OL     C19 6136   4.017   4.360   4.682
    3OL     H9R 6137   4.023   4.433   4.763
    3OL    C110 6138   4.106   4.362   4.585
    3OL    H10R 6139   4.185   4.435   4.600
    3OL    C111 6140   4.116   4.273   4.463
    3OL    H11R 6141   4.116   4.334   4.372
    3OL    H11S 6142   4.034   4.205   4.441
    3OL    C112 6143   4.253   4.205   4.472
    3OL    H12R 6144   4.286   4.201   4.576
    3OL    H12S 6145   4.322   4.274   4.424
    3OL    C113 6146   4.249   4.066   4.406
    3OL    H13R 6147   4.164   4.012   4.449
    3OL    H13S 6148   4.339   4.011   4.432
    3OL    C114 6149   4.218   4.061   4.255
    3OL    H14R 6150   4.311   4.099   4.212
    3OL    H14S 6151   4.136   4.121   4.216
    3OL    C115 6152   4.185   3.914   4.225
    3OL    H15R 6153   4.092   3.893   4.277
    3OL    H15S 6154   4.264   3.848   4.264
    3OL    C116 6155   4.174   3.881   4.076
    3OL    H16R 6156   4.275   3.888   4.033
    3OL    H16S 6157   4.116   3.956   4.021
    3OL    C117 6158   4.136   3.735   4.051
    3OL    H17R 6159   4.041   3.721   4.104
    3OL    H17S 6160   4.214   3.665   4.083
    3OL    C118 6161   4.103   3.703   3.905
    3OL    H18R 6162   4.145   3.779   3.837
    3OL    H18S 6163   3.995   3.713   3.891
    3OL    H18T 6164   4.132   3.599   3.887
    1PA    C116 6165   5.833   0.538   4.006
    1PA    H16R 6166   5.728   0.565   3.991
    1PA    H16S 6167   5.893   0.597   3.937
    1PA    H16T 6168   5.848   0.583   4.104
    1PA    C115 6169   5.862   0.388   3.991
    1PA    H15R 6170   5.811   0.320   4.059
    1PA    H15S 6171   5.837   0.358   3.889
    1PA    C114 6172   6.013   0.366   4.012
    1PA    H14R 6173   6.063   0.419   3.932
    1PA    H14S 6174   6.044   0.410   4.107
    1PA    C113 6175   6.050   0.217   4.011
    1PA    H13R 6176   5.990   0.152   4.075
    1PA    H13S 6177   6.023   0.174   3.914
    1PA    C112 6178   6.199   0.190   4.038
    1PA    H12R 6179   6.225   0.089   4.006
    1PA    H12S 6180   6.249   0.270   3.983
    1PA    C111 6181   6.228   0.199   4.189
    1PA    H11R 6182   6.335   0.204   4.211
    1PA    H11S 6183   6.200   0.301   4.216
    1PA    C110 6184   6.156   0.089   4.267
    1PA    H10R 6185   6.047   0.089   4.259
    1PA    H10S 6186   6.184  -0.005   4.218
    1PA     C19 6187   6.208   0.084   4.411
    1PA     H9R 6188   6.180  -0.008   4.462
    1PA     H9S 6189   6.317   0.086   4.413
    1PA     C18 6190   6.154   0.203   4.491
    1PA     H8R 6191   6.196   0.299   4.460
    1PA     H8S 6192   6.047   0.207   4.468
    1PA     C17 6193   6.169   0.174   4.641
    1PA     H7R 6194   6.166   0.066   4.658
    1PA     H7S 6195   6.275   0.196   4.656
    1PA     C16 6196   6.096   0.255   4.750
    1PA     H6R 6197   6.099   0.362   4.732
    1PA     H6S 6198   5.990   0.238   4.728
    1PA     C15 6199   6.128   0.221   4.896
    1PA     H5R 6200   6.219   0.274   4.926
    1PA     H5S 6201   6.045   0.265   4.952
    1PA     C14 6202   6.126   0.070   4.926
    1PA     H4R 6203   6.027   0.028   4.905
    1PA     H4S 6204   6.199   0.014   4.868
    1PA     C13 6205   6.151   0.062   5.077
    1PA     H3R 6206   6.236   0.122   5.111
    1PA     H3S 6207   6.056   0.088   5.123
    1PA     C12 6208   6.185  -0.085   5.104
    1PA     H2R 6209   6.122  -0.152   5.045
    1PA     H2S 6210   6.289  -0.102   5.074
    2PC     C11 6211   6.160  -0.110   5.251
    2PC     O12 6212   6.065  -0.176   5.288
    2PC     O11 6213   6.249  -0.051   5.331
    2PC      C1 6214   6.232  -0.048   5.474
    2PC      HR 6215   6.141  -0.002   5.513
    2PC      HS 6216   6.225  -0.154   5.499
    2PC      C2 6217   6.353   0.028   5.531
    2PC      HX 6218   6.450  -0.012   5.502
    2PC      C3 6219   6.352   0.029   5.685
    2PC      HA 6220   6.254   0.060   5.722
    2PC      HB 6221   6.367  -0.074   5.717
    2PC     O31 6222   6.456   0.117   5.732
    2PC     P31 6223   6.454   0.171   5.883
    2PC     O32 6224   6.599   0.239   5.880
    2PC     C31 6225   6.650   0.288   6.006
    2PC     H1A 6226   6.627   0.213   6.082
    2PC     H1B 6227   6.758   0.292   5.998
    2PC     C32 6228   6.590   0.424   6.045
    2PC     H2A 6229   6.609   0.502   5.971
    2PC     H2B 6230   6.481   0.424   6.057
    2PC     N31 6231   6.641   0.475   6.177
    2PC     C33 6232   6.551   0.589   6.216
    2PC     H3A 6233   6.558   0.673   6.147
    2PC     H3B 6234   6.451   0.547   6.229
    2PC     H3C 6235   6.593   0.624   6.310
    2PC     C34 6236   6.629   0.371   6.284
    2PC     H4A 6237   6.617   0.417   6.382
    2PC     H4B 6238   6.545   0.302   6.270
    2PC     H4C 6239   6.724   0.318   6.297
    2PC     C35 6240   6.783   0.518   6.160
    2PC     H5A 6241   6.816   0.592   6.232
    2PC     H5B 6242   6.790   0.559   6.059
    2PC     H5C 6243   6.849   0.431   6.159
    2PC     O33 6244   6.350   0.267   5.923
    2PC     O34 6245   6.459   0.060   5.981
    2PC     O21 6246   6.349   0.160   5.475
    2PC     C21 6247   6.258   0.256   5.499
    2PC     O22 6248   6.162   0.256   5.572
    3OL     C12 6249   6.291   0.381   5.420
    3OL     H2R 6250   6.394   0.407   5.447
    3OL     H2S 6251   6.213   0.454   5.443
    3OL     C13 6252   6.285   0.344   5.271
    3OL     H3R 6253   6.189   0.294   5.256
    3OL     H3S 6254   6.370   0.279   5.248
    3OL     C14 6255   6.286   0.474   5.190
    3OL     H4R 6256   6.310   0.451   5.086
    3OL     H4S 6257   6.362   0.535   5.238
    3OL     C15 6258   6.153   0.551   5.190
    3OL     H5R 6259   6.126   0.564   5.295
    3OL     H5S 6260   6.077   0.487   5.145
    3OL     C16 6261   6.176   0.685   5.119
    3OL     H6R 6262   6.078   0.704   5.074
    3OL     H6S 6263   6.246   0.673   5.036
    3OL     C17 6264   6.213   0.802   5.212
    3OL     H7R 6265   6.310   0.772   5.253
    3OL     H7S 6266   6.149   0.812   5.300
    3OL     C18 6267   6.225   0.937   5.142
    3OL     H8R 6268   6.274   1.015   5.201
    3OL     H8S 6269   6.121   0.963   5.127
    3OL     C19 6270   6.305   0.934   5.014
    3OL     H9R 6271   6.411   0.908   5.022
    3OL    C110 6272   6.256   0.948   4.892
    3OL    H10R 6273   6.315   0.919   4.806
    3OL    C111 6274   6.119   0.995   4.849
    3OL    H11R 6275   6.043   1.016   4.924
    3OL    H11S 6276   6.077   0.918   4.783
    3OL    C112 6277   6.127   1.125   4.768
    3OL    H12R 6278   6.220   1.130   4.710
    3OL    H12S 6279   6.135   1.204   4.842
    3OL    C113 6280   6.007   1.159   4.678
    3OL    H13R 6281   5.913   1.142   4.731
    3OL    H13S 6282   6.016   1.109   4.581
    3OL    C114 6283   6.022   1.307   4.643
    3OL    H14R 6284   6.117   1.343   4.602
    3OL    H14S 6285   6.009   1.365   4.736
    3OL    C115 6286   5.908   1.343   4.548
    3OL    H15R 6287   5.817   1.292   4.577
    3OL    H15S 6288   5.934   1.301   4.451
    3OL    C116 6289   5.878   1.494   4.538
    3OL    H16R 6290   5.891   1.545   4.634
    3OL    H16S 6291   5.780   1.518   4.497
    3OL    C117 6292   5.985   1.564   4.453
    3OL    H17R 6293   6.086   1.525   4.469
    3OL    H17S 6294   6.004   1.667   4.485
    3OL    C118 6295   5.946   1.547   4.305
    3OL    H18R 6296   6.024   1.599   4.249
    3OL    H18S 6297   5.846   1.577   4.274
    3OL    H18T 6298   5.958   1.444   4.269
    1PA    C116 6299   0.146   1.593   4.017
    1PA    H16R 6300   0.114   1.495   4.053
    1PA    H16S 6301   0.130   1.588   3.909
    1PA    H16T 6302   0.087   1.668   4.071
    1PA    C115 6303   0.293   1.631   4.037
    1PA    H15R 6304   0.354   1.562   3.979
    1PA    H15S 6305   0.308   1.728   3.990
    1PA    C114 6306   0.342   1.638   4.183
    1PA    H14R 6307   0.409   1.724   4.191
    1PA    H14S 6308   0.262   1.677   4.246
    1PA    C113 6309   0.389   1.508   4.251
    1PA    H13R 6310   0.330   1.422   4.219
    1PA    H13S 6311   0.484   1.491   4.198
    1PA    C112 6312   0.398   1.522   4.403
    1PA    H12R 6313   0.473   1.599   4.419
    1PA    H12S 6314   0.300   1.551   4.441
    1PA    C111 6315   0.445   1.399   4.483
    1PA    H11R 6316   0.413   1.417   4.586
    1PA    H11S 6317   0.397   1.308   4.447
    1PA    C110 6318   0.596   1.380   4.466
    1PA    H10R 6319   0.623   1.368   4.361
    1PA    H10S 6320   0.645   1.465   4.515
    1PA     C19 6321   0.634   1.254   4.544
    1PA     H9R 6322   0.593   1.168   4.491
    1PA     H9S 6323   0.743   1.242   4.543
    1PA     C18 6324   0.609   1.274   4.694
    1PA     H8R 6325   0.674   1.357   4.722
    1PA     H8S 6326   0.503   1.301   4.704
    1PA     C17 6327   0.629   1.153   4.786
    1PA     H7R 6328   0.572   1.165   4.879
    1PA     H7S 6329   0.588   1.060   4.745
    1PA     C16 6330   0.775   1.119   4.817
    1PA     H6R 6331   0.822   1.110   4.719
    1PA     H6S 6332   0.819   1.205   4.868
    1PA     C15 6333   0.800   0.988   4.893
    1PA     H5R 6334   0.736   0.984   4.982
    1PA     H5S 6335   0.776   0.902   4.829
    1PA     C14 6336   0.949   0.975   4.926
    1PA     H4R 6337   1.001   0.948   4.834
    1PA     H4S 6338   0.995   1.065   4.967
    1PA     C13 6339   0.966   0.858   5.023
    1PA     H3R 6340   0.903   0.890   5.106
    1PA     H3S 6341   0.924   0.764   4.986
    1PA     C12 6342   1.113   0.831   5.060
    1PA     H2R 6343   1.176   0.807   4.974
    1PA     H2S 6344   1.147   0.918   5.116
    2PC     C11 6345   1.125   0.716   5.158
    2PC     O12 6346   1.068   0.716   5.265
    2PC     O11 6347   1.206   0.617   5.118
    2PC      C1 6348   1.212   0.498   5.198
    2PC      HR 6349   1.284   0.427   5.157
    2PC      HS 6350   1.251   0.524   5.297
    2PC      C2 6351   1.075   0.430   5.205
    2PC      HX 6352   1.002   0.502   5.242
    2PC      C3 6353   1.068   0.302   5.289
    2PC      HA 6354   1.170   0.263   5.297
    2PC      HB 6355   1.035   0.323   5.392
    2PC     O31 6356   0.974   0.208   5.233
    2PC     P31 6357   0.963   0.079   5.327
    2PC     O32 6358   0.829   0.013   5.269
    2PC     C31 6359   0.697   0.045   5.315
    2PC     H1A 6360   0.699   0.046   5.425
    2PC     H1B 6361   0.666   0.147   5.291
    2PC     C32 6362   0.592  -0.058   5.271
    2PC     H2A 6363   0.500  -0.037   5.325
    2PC     H2B 6364   0.576  -0.046   5.164
    2PC     N31 6365   0.613  -0.205   5.289
    2PC     C33 6366   0.680  -0.233   5.420
    2PC     H3A 6367   0.778  -0.187   5.412
    2PC     H3B 6368   0.619  -0.187   5.498
    2PC     H3C 6369   0.685  -0.342   5.422
    2PC     C34 6370   0.485  -0.281   5.273
    2PC     H4A 6371   0.434  -0.249   5.182
    2PC     H4B 6372   0.508  -0.388   5.266
    2PC     H4C 6373   0.422  -0.261   5.359
    2PC     C35 6374   0.698  -0.259   5.177
    2PC     H5A 6375   0.804  -0.270   5.201
    2PC     H5B 6376   0.691  -0.196   5.089
    2PC     H5C 6377   0.668  -0.363   5.160
    2PC     O33 6378   1.071  -0.021   5.313
    2PC     O34 6379   0.959   0.114   5.471
    2PC     O21 6380   1.020   0.403   5.075
    2PC     C21 6381   1.083   0.319   4.991
    2PC     O22 6382   1.191   0.266   5.006
    3OL     C12 6383   1.008   0.300   4.861
    3OL     H2R 6384   0.902   0.323   4.874
    3OL     H2S 6385   1.021   0.194   4.840
    3OL     C13 6386   1.068   0.390   4.751
    3OL     H3R 6387   1.029   0.343   4.661
    3OL     H3S 6388   1.177   0.386   4.752
    3OL     C14 6389   1.013   0.531   4.774
    3OL     H4R 6390   1.059   0.568   4.866
    3OL     H4S 6391   0.904   0.525   4.787
    3OL     C15 6392   1.043   0.616   4.650
    3OL     H5R 6393   1.148   0.635   4.630
    3OL     H5S 6394   0.998   0.711   4.678
    3OL     C16 6395   0.980   0.572   4.517
    3OL     H6R 6396   0.997   0.467   4.496
    3OL     H6S 6397   1.022   0.632   4.436
    3OL     C17 6398   0.829   0.597   4.506
    3OL     H7R 6399   0.797   0.702   4.512
    3OL     H7S 6400   0.776   0.535   4.578
    3OL     C18 6401   0.770   0.546   4.373
    3OL     H8R 6402   0.662   0.544   4.362
    3OL     H8S 6403   0.794   0.440   4.362
    3OL     C19 6404   0.820   0.626   4.256
    3OL     H9R 6405   0.926   0.650   4.255
    3OL    C110 6406   0.754   0.672   4.151
    3OL    H10R 6407   0.811   0.710   4.067
    3OL    C111 6408   0.610   0.646   4.115
    3OL    H11R 6409   0.542   0.717   4.164
    3OL    H11S 6410   0.577   0.544   4.136
    3OL    C112 6411   0.577   0.679   3.969
    3OL    H12R 6412   0.479   0.653   3.930
    3OL    H12S 6413   0.649   0.631   3.903
    3OL    C113 6414   0.589   0.833   3.965
    3OL    H13R 6415   0.691   0.870   3.975
    3OL    H13S 6416   0.527   0.878   4.043
    3OL    C114 6417   0.527   0.879   3.832
    3OL    H14R 6418   0.535   0.988   3.837
    3OL    H14S 6419   0.423   0.849   3.817
    3OL    C115 6420   0.612   0.852   3.707
    3OL    H15R 6421   0.626   0.748   3.678
    3OL    H15S 6422   0.713   0.888   3.731
    3OL    C116 6423   0.568   0.912   3.573
    3OL    H16R 6424   0.649   0.881   3.507
    3OL    H16S 6425   0.561   1.021   3.579
    3OL    C117 6426   0.438   0.844   3.526
    3OL    H17R 6427   0.358   0.862   3.598
    3OL    H17S 6428   0.466   0.739   3.523
    3OL    C118 6429   0.400   0.903   3.390
    3OL    H18R 6430   0.319   0.849   3.340
    3OL    H18S 6431   0.489   0.909   3.327
    3OL    H18T 6432   0.367   1.006   3.403
    1PA    C116 6433   5.298   0.244   3.782
    1PA    H16R 6434   5.197   0.283   3.792
    1PA    H16S 6435   5.286   0.135   3.786
    1PA    H16T 6436   5.333   0.281   3.686
    1PA    C115 6437   5.389   0.302   3.892
    1PA    H15R 6438   5.383   0.244   3.984
    1PA    H15S 6439   5.491   0.307   3.854
    1PA    C114 6440   5.331   0.426   3.962
    1PA    H14R 6441   5.320   0.509   3.893
    1PA    H14S 6442   5.230   0.410   4.001
    1PA    C113 6443   5.417   0.469   4.082
    1PA    H13R 6444   5.421   0.388   4.155
    1PA    H13S 6445   5.520   0.483   4.050
    1PA    C112 6446   5.362   0.594   4.151
    1PA    H12R 6447   5.344   0.680   4.087
    1PA    H12S 6448   5.264   0.568   4.194
    1PA    C111 6449   5.456   0.634   4.265
    1PA    H11R 6450   5.484   0.543   4.319
    1PA    H11S 6451   5.546   0.678   4.220
    1PA    C110 6452   5.395   0.727   4.371
    1PA    H10R 6453   5.330   0.799   4.320
    1PA    H10S 6454   5.330   0.673   4.439
    1PA     C19 6455   5.500   0.797   4.458
    1PA     H9R 6456   5.559   0.723   4.513
    1PA     H9S 6457   5.569   0.848   4.392
    1PA     C18 6458   5.429   0.882   4.565
    1PA     H8R 6459   5.501   0.952   4.610
    1PA     H8S 6460   5.354   0.947   4.520
    1PA     C17 6461   5.378   0.795   4.680
    1PA     H7R 6462   5.291   0.747   4.635
    1PA     H7S 6463   5.454   0.721   4.707
    1PA     C16 6464   5.326   0.890   4.789
    1PA     H6R 6465   5.413   0.919   4.849
    1PA     H6S 6466   5.299   0.986   4.744
    1PA     C15 6467   5.215   0.828   4.874
    1PA     H5R 6468   5.123   0.829   4.815
    1PA     H5S 6469   5.255   0.728   4.891
    1PA     C14 6470   5.187   0.908   5.002
    1PA     H4R 6471   5.171   1.013   4.978
    1PA     H4S 6472   5.099   0.873   5.057
    1PA     C13 6473   5.302   0.891   5.103
    1PA     H3R 6474   5.336   0.788   5.113
    1PA     H3S 6475   5.390   0.943   5.065
    1PA     C12 6476   5.268   0.929   5.248
    1PA     H2R 6477   5.249   1.036   5.258
    1PA     H2S 6478   5.178   0.879   5.282
    2PC     C11 6479   5.381   0.899   5.344
    2PC     O12 6480   5.452   0.800   5.337
    2PC     O11 6481   5.399   0.997   5.433
    2PC      C1 6482   5.519   1.003   5.513
    2PC      HR 6483   5.538   0.908   5.564
    2PC      HS 6484   5.610   1.019   5.455
    2PC      C2 6485   5.503   1.114   5.617
    2PC      HX 6486   5.598   1.158   5.648
    2PC      C3 6487   5.438   1.068   5.748
    2PC      HA 6488   5.336   1.029   5.740
    2PC      HB 6489   5.504   0.993   5.793
    2PC     O31 6490   5.434   1.175   5.844
    2PC     P31 6491   5.411   1.136   5.998
    2PC     O32 6492   5.452   1.272   6.072
    2PC     C31 6493   5.423   1.278   6.212
    2PC     H1A 6494   5.314   1.264   6.219
    2PC     H1B 6495   5.464   1.196   6.272
    2PC     C32 6496   5.453   1.411   6.284
    2PC     H2A 6497   5.410   1.494   6.227
    2PC     H2B 6498   5.415   1.410   6.386
    2PC     N31 6499   5.596   1.454   6.294
    2PC     C33 6500   5.591   1.603   6.306
    2PC     H3A 6501   5.581   1.626   6.412
    2PC     H3B 6502   5.683   1.636   6.257
    2PC     H3C 6503   5.503   1.644   6.254
    2PC     C34 6504   5.664   1.395   6.413
    2PC     H4A 6505   5.766   1.434   6.411
    2PC     H4B 6506   5.620   1.424   6.509
    2PC     H4C 6507   5.658   1.287   6.406
    2PC     C35 6508   5.678   1.416   6.174
    2PC     H5A 6509   5.624   1.444   6.084
    2PC     H5B 6510   5.694   1.308   6.168
    2PC     H5C 6511   5.774   1.468   6.176
    2PC     O33 6512   5.274   1.105   6.046
    2PC     O34 6513   5.499   1.023   6.038
    2PC     O21 6514   5.426   1.222   5.560
    2PC     C21 6515   5.491   1.293   5.466
    2PC     O22 6516   5.611   1.288   5.451
    3OL     C12 6517   5.398   1.389   5.396
    3OL     H2R 6518   5.318   1.408   5.467
    3OL     H2S 6519   5.363   1.319   5.320
    3OL     C13 6520   5.470   1.512   5.340
    3OL     H3R 6521   5.566   1.473   5.305
    3OL     H3S 6522   5.489   1.580   5.424
    3OL     C14 6523   5.402   1.572   5.216
    3OL     H4R 6524   5.305   1.610   5.251
    3OL     H4S 6525   5.395   1.496   5.138
    3OL     C15 6526   5.469   1.703   5.174
    3OL     H5R 6527   5.567   1.680   5.131
    3OL     H5S 6528   5.482   1.772   5.257
    3OL     C16 6529   5.402   1.788   5.065
    3OL     H6R 6530   5.430   1.892   5.082
    3OL     H6S 6531   5.295   1.796   5.083
    3OL     C17 6532   5.424   1.741   4.921
    3OL     H7R 6533   5.355   1.797   4.857
    3OL     H7S 6534   5.407   1.634   4.908
    3OL     C18 6535   5.561   1.771   4.858
    3OL     H8R 6536   5.633   1.707   4.910
    3OL     H8S 6537   5.588   1.870   4.895
    3OL     C19 6538   5.560   1.760   4.708
    3OL     H9R 6539   5.560   1.656   4.676
    3OL    C110 6540   5.547   1.861   4.622
    3OL    H10R 6541   5.545   1.849   4.514
    3OL    C111 6542   5.538   2.003   4.672
    3OL    H11R 6543   5.629   2.037   4.722
    3OL    H11S 6544   5.451   2.024   4.735
    3OL    C112 6545   5.533   2.097   4.551
    3OL    H12R 6546   5.446   2.073   4.489
    3OL    H12S 6547   5.623   2.075   4.494
    3OL    C113 6548   5.532   2.245   4.592
    3OL    H13R 6549   5.608   2.260   4.669
    3OL    H13S 6550   5.439   2.262   4.647
    3OL    C114 6551   5.562   2.333   4.470
    3OL    H14R 6552   5.499   2.304   4.386
    3OL    H14S 6553   5.668   2.326   4.446
    3OL    C115 6554   5.531   2.480   4.501
    3OL    H15R 6555   5.440   2.487   4.560
    3OL    H15S 6556   5.516   2.533   4.407
    3OL    C116 6557   5.649   2.533   4.585
    3OL    H16R 6558   5.739   2.552   4.526
    3OL    H16S 6559   5.670   2.474   4.674
    3OL    C117 6560   5.614   2.668   4.648
    3OL    H17R 6561   5.514   2.671   4.692
    3OL    H17S 6562   5.606   2.744   4.570
    3OL    C118 6563   5.724   2.712   4.745
    3OL    H18R 6564   5.695   2.809   4.785
    3OL    H18S 6565   5.817   2.725   4.690
    3OL    H18T 6566   5.745   2.638   4.822
    1PA    C116 6567   5.915   4.901   3.694
    1PA    H16R 6568   5.955   4.996   3.660
    1PA    H16S 6569   5.891   4.843   3.604
    1PA    H16T 6570   5.992   4.839   3.740
    1PA    C115 6571   5.797   4.901   3.792
    1PA    H15R 6572   5.752   4.802   3.800
    1PA    H15S 6573   5.841   4.925   3.889
    1PA    C114 6574   5.692   5.004   3.748
    1PA    H14R 6575   5.735   5.103   3.734
    1PA    H14S 6576   5.645   4.983   3.652
    1PA    C113 6577   5.569   5.005   3.840
    1PA    H13R 6578   5.492   5.053   3.780
    1PA    H13S 6579   5.528   4.906   3.860
    1PA    C112 6580   5.595   5.058   3.982
    1PA    H12R 6581   5.671   4.997   4.031
    1PA    H12S 6582   5.624   5.163   3.969
    1PA    C111 6583   5.463   5.050   4.060
    1PA    H11R 6584   5.385   5.098   4.002
    1PA    H11S 6585   5.434   4.946   4.071
    1PA    C110 6586   5.463   5.116   4.199
    1PA    H10R 6587   5.541   5.061   4.252
    1PA    H10S 6588   5.495   5.220   4.190
    1PA     C19 6589   5.325   5.118   4.267
    1PA     H9R 6590   5.275   5.180   4.192
    1PA     H9S 6591   5.274   5.022   4.271
    1PA     C18 6592   5.316   5.184   4.405
    1PA     H8R 6593   5.384   5.128   4.469
    1PA     H8S 6594   5.351   5.287   4.395
    1PA     C17 6595   5.178   5.167   4.471
    1PA     H7R 6596   5.158   5.250   4.538
    1PA     H7S 6597   5.109   5.170   4.386
    1PA     C16 6598   5.145   5.030   4.532
    1PA     H6R 6599   5.038   5.030   4.555
    1PA     H6S 6600   5.165   4.945   4.466
    1PA     C15 6601   5.215   5.006   4.667
    1PA     H5R 6602   5.321   4.998   4.645
    1PA     H5S 6603   5.189   5.087   4.735
    1PA     C14 6604   5.165   4.869   4.716
    1PA     H4R 6605   5.060   4.879   4.743
    1PA     H4S 6606   5.168   4.797   4.634
    1PA     C13 6607   5.247   4.825   4.837
    1PA     H3R 6608   5.210   4.725   4.861
    1PA     H3S 6609   5.350   4.815   4.803
    1PA     C12 6610   5.232   4.911   4.963
    1PA     H2R 6611   5.263   5.015   4.951
    1PA     H2S 6612   5.125   4.917   4.986
    2PC     C11 6613   5.300   4.857   5.087
    2PC     O12 6614   5.401   4.904   5.136
    2PC     O11 6615   5.236   4.751   5.137
    2PC      C1 6616   5.282   4.692   5.260
    2PC      HR 6617   5.391   4.694   5.247
    2PC      HS 6618   5.244   4.745   5.348
    2PC      C2 6619   5.236   4.546   5.269
    2PC      HX 6620   5.128   4.558   5.279
    2PC      C3 6621   5.311   4.475   5.383
    2PC      HA 6622   5.290   4.524   5.478
    2PC      HB 6623   5.277   4.372   5.400
    2PC     O31 6624   5.451   4.465   5.351
    2PC     P31 6625   5.558   4.394   5.448
    2PC     O32 6626   5.689   4.486   5.449
    2PC     C31 6627   5.752   4.542   5.566
    2PC     H1A 6628   5.683   4.599   5.628
    2PC     H1B 6629   5.804   4.469   5.629
    2PC     C32 6630   5.865   4.629   5.510
    2PC     H2A 6631   5.946   4.637   5.583
    2PC     H2B 6632   5.906   4.588   5.417
    2PC     N31 6633   5.825   4.770   5.477
    2PC     C33 6634   5.813   4.839   5.609
    2PC     H3A 6635   5.723   4.801   5.657
    2PC     H3B 6636   5.905   4.819   5.664
    2PC     H3C 6637   5.816   4.945   5.581
    2PC     C34 6638   5.936   4.842   5.407
    2PC     H4A 6639   5.901   4.938   5.369
    2PC     H4B 6640   6.019   4.864   5.475
    2PC     H4C 6641   5.978   4.781   5.326
    2PC     C35 6642   5.703   4.780   5.391
    2PC     H5A 6643   5.624   4.757   5.462
    2PC     H5B 6644   5.702   4.690   5.329
    2PC     H5C 6645   5.688   4.879   5.347
    2PC     O33 6646   5.504   4.400   5.585
    2PC     O34 6647   5.577   4.247   5.440
    2PC     O21 6648   5.274   4.481   5.146
    2PC     C21 6649   5.220   4.363   5.111
    2PC     O22 6650   5.143   4.301   5.180
    3OL     C12 6651   5.279   4.315   4.980
    3OL     H2R 6652   5.320   4.215   4.987
    3OL     H2S 6653   5.361   4.386   4.965
    3OL     C13 6654   5.185   4.338   4.861
    3OL     H3R 6655   5.121   4.426   4.872
    3OL     H3S 6656   5.122   4.250   4.868
    3OL     C14 6657   5.254   4.342   4.724
    3OL     H4R 6658   5.188   4.309   4.644
    3OL     H4S 6659   5.333   4.268   4.720
    3OL     C15 6660   5.314   4.482   4.702
    3OL     H5R 6661   5.367   4.521   4.789
    3OL     H5S 6662   5.231   4.552   4.689
    3OL     C16 6663   5.412   4.478   4.584
    3OL     H6R 6664   5.376   4.418   4.500
    3OL     H6S 6665   5.502   4.430   4.623
    3OL     C17 6666   5.446   4.614   4.520
    3OL     H7R 6667   5.487   4.681   4.596
    3OL     H7S 6668   5.361   4.659   4.469
    3OL     C18 6669   5.559   4.599   4.417
    3OL     H8R 6670   5.651   4.590   4.475
    3OL     H8S 6671   5.571   4.696   4.369
    3OL     C19 6672   5.545   4.489   4.315
    3OL     H9R 6673   5.540   4.394   4.368
    3OL    C110 6674   5.541   4.503   4.184
    3OL    H10R 6675   5.531   4.417   4.117
    3OL    C111 6676   5.544   4.633   4.108
    3OL    H11R 6677   5.609   4.626   4.020
    3OL    H11S 6678   5.589   4.714   4.167
    3OL    C112 6679   5.406   4.675   4.055
    3OL    H12R 6680   5.360   4.593   4.000
    3OL    H12S 6681   5.421   4.757   3.985
    3OL    C113 6682   5.314   4.719   4.169
    3OL    H13R 6683   5.350   4.807   4.223
    3OL    H13S 6684   5.314   4.630   4.234
    3OL    C114 6685   5.175   4.754   4.114
    3OL    H14R 6686   5.136   4.676   4.049
    3OL    H14S 6687   5.186   4.840   4.047
    3OL    C115 6688   5.071   4.787   4.222
    3OL    H15R 6689   5.095   4.878   4.278
    3OL    H15S 6690   5.057   4.712   4.300
    3OL    C116 6691   4.925   4.801   4.178
    3OL    H16R 6692   4.894   4.720   4.111
    3OL    H16S 6693   4.922   4.892   4.118
    3OL    C117 6694   4.822   4.821   4.289
    3OL    H17R 6695   4.835   4.911   4.350
    3OL    H17S 6696   4.828   4.746   4.368
    3OL    C118 6697   4.679   4.816   4.234
    3OL    H18R 6698   4.682   4.714   4.195
    3OL    H18S 6699   4.662   4.893   4.158
    3OL    H18T 6700   4.598   4.824   4.307
    1PA    C116 6701   3.586   5.275   4.054
    1PA    H16R 6702   3.483   5.280   4.019
    1PA    H16S 6703   3.640   5.362   4.016
    1PA    H16T 6704   3.574   5.279   4.162
    1PA    C115 6705   3.660   5.142   4.031
    1PA    H15R 6706   3.612   5.055   4.077
    1PA    H15S 6707   3.653   5.133   3.923
    1PA    C114 6708   3.807   5.131   4.074
    1PA    H14R 6709   3.855   5.063   4.004
    1PA    H14S 6710   3.868   5.218   4.049
    1PA    C113 6711   3.822   5.104   4.224
    1PA    H13R 6712   3.784   5.194   4.272
    1PA    H13S 6713   3.766   5.014   4.253
    1PA    C112 6714   3.966   5.080   4.270
    1PA    H12R 6715   4.041   5.140   4.216
    1PA    H12S 6716   3.974   5.105   4.376
    1PA    C111 6717   4.005   4.935   4.240
    1PA    H11R 6718   3.933   4.863   4.279
    1PA    H11S 6719   4.002   4.934   4.131
    1PA    C110 6720   4.144   4.896   4.294
    1PA    H10R 6721   4.177   4.804   4.247
    1PA    H10S 6722   4.216   4.977   4.278
    1PA     C19 6723   4.149   4.886   4.447
    1PA     H9R 6724   4.239   4.829   4.470
    1PA     H9S 6725   4.166   4.986   4.488
    1PA     C18 6726   4.027   4.819   4.512
    1PA     H8R 6727   3.932   4.860   4.478
    1PA     H8S 6728   4.024   4.712   4.489
    1PA     C17 6729   4.023   4.846   4.663
    1PA     H7R 6730   4.121   4.820   4.702
    1PA     H7S 6731   4.024   4.955   4.675
    1PA     C16 6732   3.914   4.768   4.737
    1PA     H6R 6733   3.817   4.806   4.702
    1PA     H6S 6734   3.910   4.662   4.712
    1PA     C15 6735   3.914   4.790   4.889
    1PA     H5R 6736   3.848   4.711   4.926
    1PA     H5S 6737   4.013   4.767   4.928
    1PA     C14 6738   3.849   4.922   4.932
    1PA     H4R 6739   3.902   5.011   4.898
    1PA     H4S 6740   3.746   4.931   4.899
    1PA     C13 6741   3.851   4.926   5.086
    1PA     H3R 6742   3.785   4.844   5.116
    1PA     H3S 6743   3.950   4.910   5.131
    1PA     C12 6744   3.804   5.061   5.140
    1PA     H2R 6745   3.881   5.135   5.117
    1PA     H2S 6746   3.707   5.091   5.099
    2PC     C11 6747   3.766   5.066   5.285
    2PC     O12 6748   3.765   4.970   5.359
    2PC     O11 6749   3.758   5.192   5.332
    2PC      C1 6750   3.746   5.222   5.472
    2PC      HR 6751   3.700   5.320   5.486
    2PC      HS 6752   3.686   5.141   5.515
    2PC      C2 6753   3.879   5.220   5.550
    2PC      HX 6754   3.921   5.119   5.540
    2PC      C3 6755   3.853   5.249   5.698
    2PC      HA 6756   3.794   5.161   5.726
    2PC      HB 6757   3.946   5.236   5.754
    2PC     O31 6758   3.795   5.377   5.727
    2PC     P31 6759   3.759   5.436   5.872
    2PC     O32 6760   3.908   5.476   5.915
    2PC     C31 6761   3.936   5.604   5.974
    2PC     H1A 6762   3.901   5.681   5.905
    2PC     H1B 6763   3.869   5.613   6.059
    2PC     C32 6764   4.087   5.610   6.005
    2PC     H2A 6765   4.131   5.593   5.906
    2PC     H2B 6766   4.109   5.710   6.040
    2PC     N31 6767   4.147   5.508   6.097
    2PC     C33 6768   4.087   5.512   6.234
    2PC     H3A 6769   4.093   5.617   6.263
    2PC     H3B 6770   3.982   5.486   6.223
    2PC     H3C 6771   4.130   5.437   6.300
    2PC     C34 6772   4.136   5.369   6.042
    2PC     H4A 6773   4.185   5.362   5.945
    2PC     H4B 6774   4.191   5.302   6.109
    2PC     H4C 6775   4.031   5.339   6.034
    2PC     C35 6776   4.296   5.530   6.102
    2PC     H5A 6777   4.307   5.615   6.169
    2PC     H5B 6778   4.336   5.564   6.006
    2PC     H5C 6779   4.352   5.448   6.147
    2PC     O33 6780   3.667   5.551   5.881
    2PC     O34 6781   3.715   5.333   5.969
    2PC     O21 6782   3.955   5.325   5.487
    2PC     C21 6783   4.036   5.299   5.384
    2PC     O22 6784   4.052   5.191   5.330
    3OL     C12 6785   4.096   5.429   5.337
    3OL     H2R 6786   4.179   5.403   5.272
    3OL     H2S 6787   4.135   5.475   5.428
    3OL     C13 6788   4.003   5.520   5.256
    3OL     H3R 6789   4.049   5.614   5.227
    3OL     H3S 6790   3.912   5.540   5.313
    3OL     C14 6791   3.969   5.445   5.126
    3OL     H4R 6792   3.917   5.354   5.155
    3OL     H4S 6793   4.067   5.426   5.080
    3OL     C15 6794   3.880   5.529   5.033
    3OL     H5R 6795   3.941   5.614   5.000
    3OL     H5S 6796   3.794   5.572   5.083
    3OL     C16 6797   3.828   5.446   4.914
    3OL     H6R 6798   3.747   5.377   4.938
    3OL     H6S 6799   3.913   5.380   4.898
    3OL     C17 6800   3.794   5.531   4.790
    3OL     H7R 6801   3.881   5.587   4.755
    3OL     H7S 6802   3.721   5.607   4.817
    3OL     C18 6803   3.725   5.442   4.686
    3OL     H8R 6804   3.630   5.411   4.728
    3OL     H8S 6805   3.792   5.359   4.661
    3OL     C19 6806   3.691   5.517   4.560
    3OL     H9R 6807   3.764   5.592   4.531
    3OL    C110 6808   3.579   5.502   4.491
    3OL    H10R 6809   3.561   5.568   4.407
    3OL    C111 6810   3.478   5.391   4.511
    3OL    H11R 6811   3.516   5.327   4.590
    3OL    H11S 6812   3.465   5.331   4.421
    3OL    C112 6813   3.343   5.453   4.550
    3OL    H12R 6814   3.277   5.366   4.544
    3OL    H12S 6815   3.301   5.525   4.479
    3OL    C113 6816   3.337   5.502   4.695
    3OL    H13R 6817   3.393   5.439   4.764
    3OL    H13S 6818   3.234   5.483   4.724
    3OL    C114 6819   3.373   5.651   4.710
    3OL    H14R 6820   3.295   5.704   4.654
    3OL    H14S 6821   3.474   5.670   4.674
    3OL    C115 6822   3.366   5.694   4.857
    3OL    H15R 6823   3.447   5.644   4.912
    3OL    H15S 6824   3.272   5.652   4.892
    3OL    C116 6825   3.370   5.847   4.876
    3OL    H16R 6826   3.300   5.900   4.811
    3OL    H16S 6827   3.467   5.883   4.843
    3OL    C117 6828   3.352   5.883   5.025
    3OL    H17R 6829   3.374   5.990   5.023
    3OL    H17S 6830   3.423   5.831   5.089
    3OL    C118 6831   3.207   5.866   5.073
    3OL    H18R 6832   3.133   5.928   5.024
    3OL    H18S 6833   3.203   5.876   5.182
    3OL    H18T 6834   3.171   5.763   5.063
    1PA    C116 6835   2.790   1.223   4.105
    1PA    H16R 6836   2.692   1.250   4.066
    1PA    H16S 6837   2.868   1.265   4.041
    1PA    H16T 6838   2.797   1.270   4.204
    1PA    C115 6839   2.802   1.070   4.106
    1PA    H15R 6840   2.722   1.031   4.169
    1PA    H15S 6841   2.782   1.029   4.007
    1PA    C114 6842   2.936   1.005   4.144
    1PA    H14R 6843   2.926   0.903   4.108
    1PA    H14S 6844   3.012   1.054   4.082
    1PA    C113 6845   2.971   1.021   4.292
    1PA    H13R 6846   3.005   1.124   4.298
    1PA    H13S 6847   2.879   1.014   4.351
    1PA    C112 6848   3.078   0.919   4.334
    1PA    H12R 6849   3.055   0.825   4.285
    1PA    H12S 6850   3.170   0.953   4.285
    1PA    C111 6851   3.094   0.909   4.486
    1PA    H11R 6852   3.113   1.007   4.530
    1PA    H11S 6853   3.005   0.860   4.527
    1PA    C110 6854   3.201   0.807   4.530
    1PA    H10R 6855   3.213   0.820   4.638
    1PA    H10S 6856   3.160   0.707   4.513
    1PA     C19 6857   3.335   0.811   4.455
    1PA     H9R 6858   3.325   0.768   4.355
    1PA     H9S 6859   3.372   0.913   4.445
    1PA     C18 6860   3.440   0.733   4.536
    1PA     H8R 6861   3.526   0.731   4.469
    1PA     H8S 6862   3.463   0.781   4.631
    1PA     C17 6863   3.400   0.586   4.558
    1PA     H7R 6864   3.310   0.584   4.620
    1PA     H7S 6865   3.377   0.540   4.462
    1PA     C16 6866   3.525   0.520   4.618
    1PA     H6R 6867   3.525   0.413   4.595
    1PA     H6S 6868   3.614   0.564   4.572
    1PA     C15 6869   3.532   0.541   4.769
    1PA     H5R 6870   3.528   0.650   4.776
    1PA     H5S 6871   3.440   0.510   4.819
    1PA     C14 6872   3.661   0.489   4.835
    1PA     H4R 6873   3.675   0.384   4.809
    1PA     H4S 6874   3.748   0.555   4.825
    1PA     C13 6875   3.636   0.496   4.987
    1PA     H3R 6876   3.604   0.596   5.018
    1PA     H3S 6877   3.557   0.421   4.992
    1PA     C12 6878   3.762   0.455   5.063
    1PA     H2R 6879   3.779   0.348   5.051
    1PA     H2S 6880   3.847   0.508   5.019
    2PC     C11 6881   3.758   0.484   5.211
    2PC     O12 6882   3.855   0.522   5.273
    2PC     O11 6883   3.641   0.445   5.266
    2PC      C1 6884   3.610   0.489   5.399
    2PC      HR 6885   3.534   0.427   5.447
    2PC      HS 6886   3.704   0.474   5.453
    2PC      C2 6887   3.576   0.639   5.394
    2PC      HX 6888   3.636   0.681   5.313
    2PC      C3 6889   3.603   0.703   5.531
    2PC      HA 6890   3.521   0.684   5.602
    2PC      HB 6891   3.695   0.678   5.585
    2PC     O31 6892   3.589   0.846   5.517
    2PC     P31 6893   3.555   0.925   5.652
    2PC     O32 6894   3.395   0.927   5.657
    2PC     C31 6895   3.329   1.048   5.699
    2PC     H1A 6896   3.366   1.087   5.794
    2PC     H1B 6897   3.334   1.124   5.621
    2PC     C32 6898   3.183   1.016   5.732
    2PC     H2A 6899   3.123   1.106   5.751
    2PC     H2B 6900   3.134   0.971   5.646
    2PC     N31 6901   3.163   0.938   5.859
    2PC     C33 6902   3.221   1.013   5.975
    2PC     H3A 6903   3.180   0.986   6.072
    2PC     H3B 6904   3.327   0.987   5.980
    2PC     H3C 6905   3.208   1.119   5.952
    2PC     C34 6906   3.016   0.930   5.891
    2PC     H4A 6907   3.002   0.844   5.957
    2PC     H4B 6908   2.988   1.024   5.940
    2PC     H4C 6909   2.947   0.912   5.809
    2PC     C35 6910   3.224   0.802   5.856
    2PC     H5A 6911   3.324   0.819   5.817
    2PC     H5B 6912   3.169   0.751   5.776
    2PC     H5C 6913   3.219   0.761   5.957
    2PC     O33 6914   3.625   0.866   5.768
    2PC     O34 6915   3.600   1.066   5.649
    2PC     O21 6916   3.439   0.660   5.358
    2PC     C21 6917   3.338   0.626   5.441
    2PC     O22 6918   3.344   0.574   5.550
    3OL     C12 6919   3.202   0.656   5.383
    3OL     H2R 6920   3.142   0.721   5.447
    3OL     H2S 6921   3.145   0.564   5.384
    3OL     C13 6922   3.204   0.722   5.245
    3OL     H3R 6923   3.289   0.780   5.209
    3OL     H3S 6924   3.121   0.791   5.230
    3OL     C14 6925   3.188   0.617   5.134
    3OL     H4R 6926   3.097   0.559   5.153
    3OL     H4S 6927   3.268   0.544   5.124
    3OL     C15 6928   3.165   0.673   4.993
    3OL     H5R 6929   3.079   0.739   4.987
    3OL     H5S 6930   3.130   0.593   4.927
    3OL     C16 6931   3.287   0.743   4.932
    3OL     H6R 6932   3.287   0.718   4.826
    3OL     H6S 6933   3.384   0.713   4.971
    3OL     C17 6934   3.274   0.896   4.941
    3OL     H7R 6935   3.283   0.926   5.045
    3OL     H7S 6936   3.179   0.931   4.900
    3OL     C18 6937   3.392   0.960   4.866
    3OL     H8R 6938   3.371   1.066   4.884
    3OL     H8S 6939   3.378   0.950   4.759
    3OL     C19 6940   3.534   0.922   4.899
    3OL     H9R 6941   3.548   0.837   4.966
    3OL    C110 6942   3.644   0.970   4.843
    3OL    H10R 6943   3.735   0.919   4.872
    3OL    C111 6944   3.658   1.089   4.751
    3OL    H11R 6945   3.704   1.165   4.813
    3OL    H11S 6946   3.559   1.127   4.722
    3OL    C112 6947   3.746   1.062   4.628
    3OL    H12R 6948   3.852   1.064   4.654
    3OL    H12S 6949   3.726   1.145   4.560
    3OL    C113 6950   3.703   0.931   4.560
    3OL    H13R 6951   3.594   0.928   4.553
    3OL    H13S 6952   3.734   0.846   4.621
    3OL    C114 6953   3.767   0.918   4.421
    3OL    H14R 6954   3.768   0.811   4.401
    3OL    H14S 6955   3.873   0.947   4.419
    3OL    C115 6956   3.685   0.995   4.317
    3OL    H15R 6957   3.724   1.097   4.310
    3OL    H15S 6958   3.580   0.998   4.347
    3OL    C116 6959   3.691   0.934   4.176
    3OL    H16R 6960   3.791   0.896   4.155
    3OL    H16S 6961   3.664   1.007   4.100
    3OL    C117 6962   3.599   0.815   4.142
    3OL    H17R 6963   3.498   0.845   4.169
    3OL    H17S 6964   3.625   0.725   4.198
    3OL    C118 6965   3.607   0.783   3.992
    3OL    H18R 6966   3.609   0.870   3.926
    3OL    H18S 6967   3.528   0.714   3.963
    3OL    H18T 6968   3.687   0.713   3.969
    1PA    C116 6969   4.390   3.158   3.751
    1PA    H16R 6970   4.477   3.141   3.687
    1PA    H16S 6971   4.329   3.241   3.715
    1PA    H16T 6972   4.325   3.071   3.742
    1PA    C115 6973   4.429   3.172   3.898
    1PA    H15R 6974   4.458   3.275   3.919
    1PA    H15S 6975   4.347   3.148   3.966
    1PA    C114 6976   4.543   3.075   3.934
    1PA    H14R 6977   4.503   2.978   3.904
    1PA    H14S 6978   4.631   3.098   3.874
    1PA    C113 6979   4.576   3.084   4.083
    1PA    H13R 6980   4.488   3.078   4.147
    1PA    H13S 6981   4.636   2.994   4.100
    1PA    C112 6982   4.668   3.204   4.109
    1PA    H12R 6983   4.760   3.203   4.049
    1PA    H12S 6984   4.622   3.296   4.072
    1PA    C111 6985   4.697   3.224   4.259
    1PA    H11R 6986   4.717   3.330   4.276
    1PA    H11S 6987   4.620   3.195   4.330
    1PA    C110 6988   4.832   3.162   4.295
    1PA    H10R 6989   4.840   3.065   4.246
    1PA    H10S 6990   4.912   3.223   4.252
    1PA     C19 6991   4.840   3.149   4.448
    1PA     H9R 6992   4.821   3.248   4.489
    1PA     H9S 6993   4.769   3.076   4.488
    1PA     C18 6994   4.980   3.115   4.500
    1PA     H8R 6995   5.048   3.200   4.484
    1PA     H8S 6996   4.977   3.114   4.609
    1PA     C17 6997   5.051   2.995   4.436
    1PA     H7R 6998   4.978   2.914   4.445
    1PA     H7S 6999   5.062   3.019   4.330
    1PA     C16 7000   5.183   2.950   4.501
    1PA     H6R 7001   5.215   2.864   4.441
    1PA     H6S 7002   5.258   3.030   4.492
    1PA     C15 7003   5.159   2.899   4.643
    1PA     H5R 7004   5.107   2.971   4.707
    1PA     H5S 7005   5.106   2.803   4.642
    1PA     C14 7006   5.298   2.870   4.701
    1PA     H4R 7007   5.346   2.780   4.662
    1PA     H4S 7008   5.352   2.957   4.665
    1PA     C13 7009   5.297   2.871   4.855
    1PA     H3R 7010   5.403   2.867   4.881
    1PA     H3S 7011   5.257   2.966   4.891
    1PA     C12 7012   5.226   2.751   4.919
    1PA     H2R 7013   5.119   2.749   4.896
    1PA     H2S 7014   5.262   2.657   4.876
    2PC     C11 7015   5.247   2.742   5.068
    2PC     O12 7016   5.245   2.841   5.139
    2PC     O11 7017   5.263   2.616   5.111
    2PC      C1 7018   5.231   2.583   5.248
    2PC      HR 7019   5.274   2.484   5.265
    2PC      HS 7020   5.282   2.656   5.312
    2PC      C2 7021   5.082   2.581   5.281
    2PC      HX 7022   5.032   2.673   5.248
    2PC      C3 7023   5.048   2.550   5.427
    2PC      HA 7024   5.051   2.644   5.485
    2PC      HB 7025   4.949   2.505   5.435
    2PC     O31 7026   5.150   2.462   5.476
    2PC     P31 7027   5.165   2.442   5.634
    2PC     O32 7028   5.248   2.573   5.674
    2PC     C31 7029   5.386   2.585   5.636
    2PC     H1A 7030   5.444   2.498   5.670
    2PC     H1B 7031   5.394   2.587   5.527
    2PC     C32 7032   5.447   2.714   5.691
    2PC     H2A 7033   5.554   2.712   5.668
    2PC     H2B 7034   5.405   2.802   5.642
    2PC     N31 7035   5.425   2.744   5.836
    2PC     C33 7036   5.291   2.812   5.847
    2PC     H3A 7037   5.224   2.741   5.798
    2PC     H3B 7038   5.269   2.834   5.951
    2PC     H3C 7039   5.291   2.906   5.791
    2PC     C34 7040   5.420   2.622   5.924
    2PC     H4A 7041   5.399   2.663   6.023
    2PC     H4B 7042   5.341   2.554   5.892
    2PC     H4C 7043   5.518   2.574   5.929
    2PC     C35 7044   5.519   2.851   5.881
    2PC     H5A 7045   5.614   2.798   5.878
    2PC     H5B 7046   5.495   2.868   5.986
    2PC     H5C 7047   5.510   2.943   5.822
    2PC     O33 7048   5.049   2.419   5.722
    2PC     O34 7049   5.259   2.332   5.667
    2PC     O21 7050   5.020   2.477   5.204
    2PC     C21 7051   4.970   2.506   5.083
    2PC     O22 7052   4.959   2.619   5.041
    3OL     C12 7053   4.928   2.380   5.010
    3OL     H2R 7054   4.947   2.296   5.076
    3OL     H2S 7055   4.995   2.359   4.925
    3OL     C13 7056   4.778   2.382   4.977
    3OL     H3R 7057   4.758   2.282   4.939
    3OL     H3S 7058   4.768   2.459   4.901
    3OL     C14 7059   4.677   2.422   5.085
    3OL     H4R 7060   4.699   2.523   5.122
    3OL     H4S 7061   4.678   2.363   5.177
    3OL     C15 7062   4.531   2.410   5.039
    3OL     H5R 7063   4.457   2.420   5.118
    3OL     H5S 7064   4.523   2.311   4.993
    3OL     C16 7065   4.489   2.523   4.944
    3OL     H6R 7066   4.550   2.526   4.853
    3OL     H6S 7067   4.499   2.616   5.001
    3OL     C17 7068   4.340   2.504   4.915
    3OL     H7R 7069   4.293   2.602   4.901
    3OL     H7S 7070   4.291   2.466   5.004
    3OL     C18 7071   4.306   2.432   4.783
    3OL     H8R 7072   4.384   2.457   4.711
    3OL     H8S 7073   4.209   2.470   4.753
    3OL     C19 7074   4.278   2.285   4.800
    3OL     H9R 7075   4.205   2.262   4.877
    3OL    C110 7076   4.324   2.194   4.715
    3OL    H10R 7077   4.305   2.091   4.742
    3OL    C111 7078   4.399   2.216   4.586
    3OL    H11R 7079   4.370   2.313   4.545
    3OL    H11S 7080   4.372   2.146   4.507
    3OL    C112 7081   4.550   2.202   4.614
    3OL    H12R 7082   4.576   2.120   4.682
    3OL    H12S 7083   4.587   2.285   4.674
    3OL    C113 7084   4.623   2.209   4.480
    3OL    H13R 7085   4.616   2.308   4.434
    3OL    H13S 7086   4.587   2.140   4.403
    3OL    C114 7087   4.770   2.176   4.510
    3OL    H14R 7088   4.771   2.076   4.553
    3OL    H14S 7089   4.794   2.238   4.597
    3OL    C115 7090   4.854   2.196   4.384
    3OL    H15R 7091   4.884   2.300   4.375
    3OL    H15S 7092   4.783   2.188   4.301
    3OL    C116 7093   4.983   2.113   4.373
    3OL    H16R 7094   4.951   2.014   4.341
    3OL    H16S 7095   5.035   2.108   4.469
    3OL    C117 7096   5.079   2.172   4.269
    3OL    H17R 7097   5.089   2.281   4.273
    3OL    H17S 7098   5.039   2.154   4.169
    3OL    C118 7099   5.223   2.119   4.270
    3OL    H18R 7100   5.289   2.192   4.222
    3OL    H18S 7101   5.228   2.024   4.215
    3OL    H18T 7102   5.259   2.098   4.371
    1PA    C116 7103   4.930   0.191   3.606
    1PA    H16R 7104   4.855   0.259   3.564
    1PA    H16S 7105   4.946   0.105   3.541
    1PA    H16T 7106   5.025   0.241   3.625
    1PA    C115 7107   4.882   0.128   3.738
    1PA    H15R 7108   4.782   0.086   3.722
    1PA    H15S 7109   4.944   0.043   3.766
    1PA    C114 7110   4.864   0.234   3.847
    1PA    H14R 7111   4.954   0.291   3.872
    1PA    H14S 7112   4.796   0.314   3.816
    1PA    C113 7113   4.815   0.169   3.978
    1PA    H13R 7114   4.723   0.116   3.953
    1PA    H13S 7115   4.892   0.096   4.005
    1PA    C112 7116   4.784   0.274   4.085
    1PA    H12R 7117   4.737   0.364   4.046
    1PA    H12S 7118   4.712   0.230   4.155
    1PA    C111 7119   4.914   0.318   4.153
    1PA    H11R 7120   4.972   0.230   4.181
    1PA    H11S 7121   4.970   0.378   4.081
    1PA    C110 7122   4.895   0.406   4.278
    1PA    H10R 7123   4.841   0.493   4.242
    1PA    H10S 7124   4.836   0.339   4.341
    1PA     C19 7125   5.029   0.451   4.338
    1PA     H9R 7126   5.075   0.359   4.376
    1PA     H9S 7127   5.094   0.496   4.262
    1PA     C18 7128   5.012   0.539   4.462
    1PA     H8R 7129   5.114   0.566   4.489
    1PA     H8S 7130   4.952   0.627   4.437
    1PA     C17 7131   4.945   0.477   4.585
    1PA     H7R 7132   4.841   0.450   4.567
    1PA     H7S 7133   5.005   0.388   4.605
    1PA     C16 7134   4.952   0.570   4.708
    1PA     H6R 7135   5.053   0.609   4.719
    1PA     H6S 7136   4.889   0.658   4.702
    1PA     C15 7137   4.906   0.497   4.835
    1PA     H5R 7138   4.814   0.444   4.811
    1PA     H5S 7139   4.980   0.422   4.861
    1PA     C14 7140   4.875   0.586   4.956
    1PA     H4R 7141   4.961   0.650   4.977
    1PA     H4S 7142   4.787   0.649   4.940
    1PA     C13 7143   4.847   0.496   5.077
    1PA     H3R 7144   4.779   0.422   5.034
    1PA     H3S 7145   4.940   0.451   5.113
    1PA     C12 7146   4.781   0.574   5.191
    1PA     H2R 7147   4.689   0.622   5.157
    1PA     H2S 7148   4.761   0.515   5.280
    2PC     C11 7149   4.876   0.680   5.240
    2PC     O12 7150   4.995   0.663   5.260
    2PC     O11 7151   4.811   0.792   5.274
    2PC      C1 7152   4.889   0.903   5.323
    2PC      HR 7153   4.941   0.873   5.414
    2PC      HS 7154   4.970   0.939   5.259
    2PC      C2 7155   4.804   1.022   5.371
    2PC      HX 7156   4.847   1.117   5.339
    2PC      C3 7157   4.794   1.026   5.525
    2PC      HA 7158   4.725   0.949   5.561
    2PC      HB 7159   4.894   1.009   5.564
    2PC     O31 7160   4.748   1.157   5.562
    2PC     P31 7161   4.755   1.187   5.719
    2PC     O32 7162   4.907   1.230   5.744
    2PC     C31 7163   4.949   1.343   5.667
    2PC     H1A 7164   4.944   1.310   5.563
    2PC     H1B 7165   4.876   1.423   5.682
    2PC     C32 7166   5.094   1.382   5.699
    2PC     H2A 7167   5.144   1.285   5.688
    2PC     H2B 7168   5.134   1.452   5.626
    2PC     N31 7169   5.128   1.423   5.840
    2PC     C33 7170   5.062   1.552   5.875
    2PC     H3A 7171   5.108   1.592   5.966
    2PC     H3B 7172   5.079   1.614   5.787
    2PC     H3C 7173   4.954   1.537   5.883
    2PC     C34 7174   5.101   1.310   5.935
    2PC     H4A 7175   5.161   1.226   5.899
    2PC     H4B 7176   5.135   1.345   6.033
    2PC     H4C 7177   4.995   1.286   5.933
    2PC     C35 7178   5.273   1.455   5.824
    2PC     H5A 7179   5.309   1.478   5.925
    2PC     H5B 7180   5.289   1.543   5.762
    2PC     H5C 7181   5.324   1.371   5.777
    2PC     O33 7182   4.662   1.292   5.769
    2PC     O34 7183   4.727   1.068   5.802
    2PC     O21 7184   4.674   1.004   5.313
    2PC     C21 7185   4.663   1.027   5.181
    2PC     O22 7186   4.759   1.048   5.110
    3OL     C12 7187   4.524   1.016   5.122
    3OL     H2R 7188   4.468   1.107   5.145
    3OL     H2S 7189   4.474   0.936   5.176
    3OL     C13 7190   4.533   1.009   4.969
    3OL     H3R 7191   4.605   1.077   4.922
    3OL     H3S 7192   4.438   1.039   4.925
    3OL     C14 7193   4.561   0.868   4.917
    3OL     H4R 7194   4.482   0.798   4.944
    3OL     H4S 7195   4.656   0.842   4.964
    3OL     C15 7196   4.565   0.855   4.764
    3OL     H5R 7197   4.474   0.906   4.733
    3OL     H5S 7198   4.551   0.749   4.741
    3OL     C16 7199   4.697   0.913   4.711
    3OL     H6R 7200   4.783   0.890   4.774
    3OL     H6S 7201   4.689   1.021   4.707
    3OL     C17 7202   4.721   0.858   4.570
    3OL     H7R 7203   4.733   0.750   4.572
    3OL     H7S 7204   4.817   0.897   4.535
    3OL     C18 7205   4.601   0.886   4.479
    3OL     H8R 7206   4.543   0.977   4.497
    3OL     H8S 7207   4.522   0.811   4.487
    3OL     C19 7208   4.650   0.865   4.338
    3OL     H9R 7209   4.685   0.766   4.310
    3OL    C110 7210   4.667   0.962   4.250
    3OL    H10R 7211   4.700   0.938   4.149
    3OL    C111 7212   4.619   1.104   4.263
    3OL    H11R 7213   4.692   1.163   4.319
    3OL    H11S 7214   4.529   1.105   4.324
    3OL    C112 7215   4.582   1.157   4.124
    3OL    H12R 7216   4.480   1.136   4.092
    3OL    H12S 7217   4.647   1.115   4.047
    3OL    C113 7218   4.609   1.308   4.128
    3OL    H13R 7219   4.715   1.334   4.119
    3OL    H13S 7220   4.559   1.352   4.215
    3OL    C114 7221   4.532   1.376   4.014
    3OL    H14R 7222   4.428   1.342   4.018
    3OL    H14S 7223   4.571   1.338   3.920
    3OL    C115 7224   4.532   1.529   3.999
    3OL    H15R 7225   4.633   1.566   3.982
    3OL    H15S 7226   4.505   1.563   4.099
    3OL    C116 7227   4.430   1.568   3.892
    3OL    H16R 7228   4.445   1.507   3.803
    3OL    H16S 7229   4.442   1.673   3.866
    3OL    C117 7230   4.284   1.555   3.938
    3OL    H17R 7231   4.253   1.464   3.989
    3OL    H17S 7232   4.215   1.560   3.854
    3OL    C118 7233   4.255   1.673   4.032
    3OL    H18R 7234   4.305   1.666   4.129
    3OL    H18S 7235   4.150   1.671   4.062
    3OL    H18T 7236   4.274   1.773   3.992
    1PA    C116 7237   2.929   2.602   4.273
    1PA    H16R 7238   2.944   2.598   4.381
    1PA    H16S 7239   2.932   2.703   4.230
    1PA    H16T 7240   3.007   2.546   4.221
    1PA    C115 7241   2.792   2.539   4.243
    1PA    H15R 7242   2.711   2.606   4.274
    1PA    H15S 7243   2.771   2.537   4.136
    1PA    C114 7244   2.764   2.402   4.306
    1PA    H14R 7245   2.691   2.347   4.246
    1PA    H14S 7246   2.861   2.351   4.301
    1PA    C113 7247   2.729   2.413   4.455
    1PA    H13R 7248   2.793   2.472   4.521
    1PA    H13S 7249   2.630   2.454   4.474
    1PA    C112 7250   2.712   2.280   4.530
    1PA    H12R 7251   2.646   2.219   4.468
    1PA    H12S 7252   2.806   2.226   4.535
    1PA    C111 7253   2.654   2.306   4.670
    1PA    H11R 7254   2.561   2.363   4.665
    1PA    H11S 7255   2.625   2.209   4.713
    1PA    C110 7256   2.766   2.373   4.751
    1PA    H10R 7257   2.862   2.319   4.751
    1PA    H10S 7258   2.783   2.475   4.716
    1PA     C19 7259   2.720   2.378   4.897
    1PA     H9R 7260   2.622   2.426   4.900
    1PA     H9S 7261   2.711   2.277   4.937
    1PA     C18 7262   2.821   2.449   4.989
    1PA     H8R 7263   2.921   2.459   4.946
    1PA     H8S 7264   2.792   2.551   5.017
    1PA     C17 7265   2.843   2.374   5.121
    1PA     H7R 7266   2.922   2.431   5.171
    1PA     H7S 7267   2.748   2.380   5.176
    1PA     C16 7268   2.896   2.230   5.113
    1PA     H6R 7269   2.833   2.155   5.067
    1PA     H6S 7270   3.001   2.232   5.082
    1PA     C15 7271   2.904   2.177   5.257
    1PA     H5R 7272   2.979   2.238   5.308
    1PA     H5S 7273   2.807   2.165   5.305
    1PA     C14 7274   2.954   2.032   5.252
    1PA     H4R 7275   2.874   1.978   5.202
    1PA     H4S 7276   3.052   2.023   5.204
    1PA     C13 7277   2.953   1.973   5.393
    1PA     H3R 7278   3.040   2.007   5.450
    1PA     H3S 7279   2.861   2.013   5.437
    1PA     C12 7280   2.949   1.819   5.388
    1PA     H2R 7281   2.851   1.779   5.361
    1PA     H2S 7282   3.018   1.788   5.309
    2PC     C11 7283   2.985   1.757   5.521
    2PC     O12 7284   2.905   1.733   5.609
    2PC     O11 7285   3.113   1.717   5.527
    2PC      C1 7286   3.174   1.669   5.649
    2PC      HR 7287   3.097   1.627   5.714
    2PC      HS 7288   3.245   1.589   5.627
    2PC      C2 7289   3.261   1.781   5.707
    2PC      HX 7290   3.341   1.757   5.777
    2PC      C3 7291   3.170   1.877   5.784
    2PC      HA 7292   3.090   1.913   5.719
    2PC      HB 7293   3.117   1.818   5.860
    2PC     O31 7294   3.243   1.983   5.849
    2PC     P31 7295   3.169   2.082   5.951
    2PC     O32 7296   3.288   2.127   6.048
    2PC     C31 7297   3.381   2.024   6.086
    2PC     H1A 7298   3.324   1.931   6.100
    2PC     H1B 7299   3.439   2.009   5.994
    2PC     C32 7300   3.475   2.067   6.199
    2PC     H2A 7301   3.528   2.158   6.169
    2PC     H2B 7302   3.424   2.094   6.292
    2PC     N31 7303   3.581   1.964   6.223
    2PC     C33 7304   3.527   1.826   6.241
    2PC     H3A 7305   3.515   1.787   6.140
    2PC     H3B 7306   3.608   1.768   6.286
    2PC     H3C 7307   3.434   1.813   6.298
    2PC     C34 7308   3.672   1.967   6.104
    2PC     H4A 7309   3.629   1.929   6.012
    2PC     H4B 7310   3.706   2.070   6.099
    2PC     H4C 7311   3.756   1.900   6.122
    2PC     C35 7312   3.656   2.008   6.345
    2PC     H5A 7313   3.714   1.920   6.374
    2PC     H5B 7314   3.587   2.027   6.428
    2PC     H5C 7315   3.719   2.092   6.314
    2PC     O33 7316   3.113   2.198   5.878
    2PC     O34 7317   3.054   2.011   6.012
    2PC     O21 7318   3.335   1.849   5.603
    2PC     C21 7319   3.429   1.784   5.532
    2PC     O22 7320   3.465   1.673   5.562
    3OL     C12 7321   3.507   1.871   5.436
    3OL     H2R 7322   3.574   1.813   5.371
    3OL     H2S 7323   3.566   1.923   5.512
    3OL     C13 7324   3.424   1.971   5.355
    3OL     H3R 7325   3.488   2.048   5.312
    3OL     H3S 7326   3.344   2.014   5.415
    3OL     C14 7327   3.371   1.896   5.232
    3OL     H4R 7328   3.278   1.843   5.256
    3OL     H4S 7329   3.446   1.821   5.206
    3OL     C15 7330   3.335   1.990   5.117
    3OL     H5R 7331   3.415   2.063   5.103
    3OL     H5S 7332   3.246   2.047   5.142
    3OL     C16 7333   3.310   1.912   4.987
    3OL     H6R 7334   3.213   1.864   4.995
    3OL     H6S 7335   3.386   1.836   4.964
    3OL     C17 7336   3.307   2.002   4.863
    3OL     H7R 7337   3.249   2.092   4.886
    3OL     H7S 7338   3.246   1.949   4.790
    3OL     C18 7339   3.439   2.048   4.801
    3OL     H8R 7340   3.494   2.089   4.887
    3OL     H8S 7341   3.419   2.133   4.735
    3OL     C19 7342   3.522   1.937   4.740
    3OL     H9R 7343   3.543   1.850   4.801
    3OL    C110 7344   3.569   1.934   4.616
    3OL    H10R 7345   3.629   1.850   4.583
    3OL    C111 7346   3.526   2.035   4.512
    3OL    H11R 7347   3.536   2.130   4.564
    3OL    H11S 7348   3.421   2.018   4.485
    3OL    C112 7349   3.609   2.037   4.383
    3OL    H12R 7350   3.588   1.938   4.341
    3OL    H12S 7351   3.711   2.047   4.420
    3OL    C113 7352   3.568   2.159   4.300
    3OL    H13R 7353   3.614   2.240   4.357
    3OL    H13S 7354   3.460   2.170   4.284
    3OL    C114 7355   3.636   2.145   4.163
    3OL    H14R 7356   3.602   2.049   4.124
    3OL    H14S 7357   3.745   2.153   4.175
    3OL    C115 7358   3.594   2.268   4.082
    3OL    H15R 7359   3.638   2.358   4.126
    3OL    H15S 7360   3.486   2.263   4.097
    3OL    C116 7361   3.638   2.253   3.935
    3OL    H16R 7362   3.618   2.152   3.899
    3OL    H16S 7363   3.746   2.272   3.938
    3OL    C117 7364   3.574   2.352   3.838
    3OL    H17R 7365   3.608   2.449   3.874
    3OL    H17S 7366   3.465   2.348   3.833
    3OL    C118 7367   3.637   2.332   3.699
    3OL    H18R 7368   3.626   2.414   3.627
    3OL    H18S 7369   3.602   2.238   3.657
    3OL    H18T 7370   3.745   2.324   3.710
    1PA    C116 7371   5.294  -0.057   4.136
    1PA    H16R 7372   5.186  -0.059   4.117
    1PA    H16S 7373   5.353  -0.019   4.052
    1PA    H16T 7374   5.327   0.017   4.209
    1PA    C115 7375   5.338  -0.193   4.191
    1PA    H15R 7376   5.324  -0.282   4.129
    1PA    H15S 7377   5.441  -0.185   4.226
    1PA    C114 7378   5.246  -0.225   4.310
    1PA    H14R 7379   5.271  -0.323   4.349
    1PA    H14S 7380   5.263  -0.149   4.388
    1PA    C113 7381   5.098  -0.228   4.271
    1PA    H13R 7382   5.050  -0.142   4.223
    1PA    H13S 7383   5.072  -0.303   4.197
    1PA    C112 7384   5.013  -0.269   4.393
    1PA    H12R 7385   5.027  -0.187   4.464
    1PA    H12S 7386   4.908  -0.255   4.365
    1PA    C111 7387   5.028  -0.413   4.444
    1PA    H11R 7388   4.989  -0.481   4.368
    1PA    H11S 7389   5.132  -0.440   4.463
    1PA    C110 7390   4.927  -0.440   4.557
    1PA    H10R 7391   4.830  -0.418   4.513
    1PA    H10S 7392   4.923  -0.546   4.580
    1PA     C19 7393   4.957  -0.355   4.681
    1PA     H9R 7394   4.988  -0.252   4.657
    1PA     H9S 7395   4.865  -0.349   4.739
    1PA     C18 7396   5.064  -0.420   4.770
    1PA     H8R 7397   5.039  -0.524   4.795
    1PA     H8S 7398   5.155  -0.429   4.710
    1PA     C17 7399   5.085  -0.347   4.903
    1PA     H7R 7400   4.990  -0.313   4.946
    1PA     H7S 7401   5.135  -0.413   4.974
    1PA     C16 7402   5.187  -0.235   4.877
    1PA     H6R 7403   5.272  -0.281   4.828
    1PA     H6S 7404   5.141  -0.155   4.819
    1PA     C15 7405   5.240  -0.175   5.008
    1PA     H5R 7406   5.158  -0.148   5.075
    1PA     H5S 7407   5.311  -0.248   5.046
    1PA     C14 7408   5.336  -0.057   4.984
    1PA     H4R 7409   5.407  -0.094   4.909
    1PA     H4S 7410   5.275   0.028   4.955
    1PA     C13 7411   5.424  -0.021   5.104
    1PA     H3R 7412   5.493  -0.105   5.115
    1PA     H3S 7413   5.486   0.064   5.078
    1PA     C12 7414   5.351  -0.006   5.239
    1PA     H2R 7415   5.262   0.057   5.237
    1PA     H2S 7416   5.321  -0.109   5.262
    2PC     C11 7417   5.437   0.034   5.356
    2PC     O12 7418   5.543   0.090   5.340
    2PC     O11 7419   5.395  -0.014   5.474
    2PC      C1 7420   5.473  -0.017   5.596
    2PC      HR 7421   5.411  -0.043   5.682
    2PC      HS 7422   5.563  -0.078   5.596
    2PC      C2 7423   5.508   0.130   5.622
    2PC      HX 7424   5.583   0.166   5.551
    2PC      C3 7425   5.557   0.143   5.767
    2PC      HA 7426   5.639   0.073   5.782
    2PC      HB 7427   5.580   0.249   5.784
    2PC     O31 7428   5.457   0.111   5.866
    2PC     P31 7429   5.512   0.096   6.015
    2PC     O32 7430   5.447   0.218   6.096
    2PC     C31 7431   5.540   0.325   6.121
    2PC     H1A 7432   5.611   0.284   6.192
    2PC     H1B 7433   5.581   0.348   6.022
    2PC     C32 7434   5.482   0.449   6.191
    2PC     H2A 7435   5.555   0.530   6.185
    2PC     H2B 7436   5.390   0.473   6.138
    2PC     N31 7437   5.454   0.436   6.337
    2PC     C33 7438   5.424   0.571   6.395
    2PC     H3A 7439   5.476   0.642   6.329
    2PC     H3B 7440   5.317   0.592   6.397
    2PC     H3C 7441   5.464   0.577   6.496
    2PC     C34 7442   5.333   0.350   6.361
    2PC     H4A 7443   5.355   0.247   6.334
    2PC     H4B 7444   5.313   0.356   6.468
    2PC     H4C 7445   5.256   0.382   6.291
    2PC     C35 7446   5.568   0.390   6.424
    2PC     H5A 7447   5.585   0.283   6.416
    2PC     H5B 7448   5.549   0.416   6.528
    2PC     H5C 7449   5.660   0.436   6.389
    2PC     O33 7450   5.464  -0.036   6.063
    2PC     O34 7451   5.659   0.084   6.016
    2PC     O21 7452   5.392   0.214   5.608
    2PC     C21 7453   5.403   0.342   5.571
    2PC     O22 7454   5.510   0.397   5.549
    3OL     C12 7455   5.276   0.419   5.547
    3OL     H2R 7456   5.258   0.490   5.628
    3OL     H2S 7457   5.197   0.343   5.544
    3OL     C13 7458   5.276   0.501   5.417
    3OL     H3R 7459   5.365   0.564   5.409
    3OL     H3S 7460   5.194   0.572   5.425
    3OL     C14 7461   5.261   0.415   5.291
    3OL     H4R 7462   5.159   0.378   5.279
    3OL     H4S 7463   5.330   0.332   5.307
    3OL     C15 7464   5.309   0.483   5.161
    3OL     H5R 7465   5.414   0.511   5.164
    3OL     H5S 7466   5.266   0.581   5.139
    3OL     C16 7467   5.286   0.388   5.042
    3OL     H6R 7468   5.180   0.363   5.042
    3OL     H6S 7469   5.351   0.304   5.067
    3OL     C17 7470   5.317   0.461   4.911
    3OL     H7R 7471   5.417   0.505   4.917
    3OL     H7S 7472   5.242   0.534   4.879
    3OL     C18 7473   5.316   0.359   4.796
    3OL     H8R 7474   5.229   0.295   4.806
    3OL     H8S 7475   5.406   0.298   4.805
    3OL     C19 7476   5.326   0.428   4.662
    3OL     H9R 7477   5.310   0.535   4.658
    3OL    C110 7478   5.350   0.362   4.549
    3OL    H10R 7479   5.367   0.421   4.459
    3OL    C111 7480   5.359   0.213   4.530
    3OL    H11R 7481   5.289   0.178   4.454
    3OL    H11S 7482   5.330   0.160   4.621
    3OL    C112 7483   5.501   0.165   4.497
    3OL    H12R 7484   5.499   0.056   4.502
    3OL    H12S 7485   5.580   0.199   4.563
    3OL    C113 7486   5.529   0.211   4.353
    3OL    H13R 7487   5.528   0.320   4.349
    3OL    H13S 7488   5.459   0.162   4.285
    3OL    C114 7489   5.667   0.164   4.306
    3OL    H14R 7490   5.674   0.181   4.198
    3OL    H14S 7491   5.667   0.055   4.318
    3OL    C115 7492   5.789   0.227   4.375
    3OL    H15R 7493   5.877   0.222   4.311
    3OL    H15S 7494   5.794   0.187   4.476
    3OL    C116 7495   5.765   0.377   4.397
    3OL    H16R 7496   5.688   0.374   4.474
    3OL    H16S 7497   5.724   0.422   4.307
    3OL    C117 7498   5.889   0.448   4.453
    3OL    H17R 7499   5.971   0.449   4.380
    3OL    H17S 7500   5.926   0.392   4.539
    3OL    C118 7501   5.851   0.590   4.497
    3OL    H18R 7502   5.927   0.641   4.557
    3OL    H18S 7503   5.763   0.577   4.560
    3OL    H18T 7504   5.821   0.652   4.412
    1PA    C116 7505  -1.176   2.219   5.007
    1PA    H16R 7506  -1.195   2.211   4.900
    1PA    H16S 7507  -1.265   2.268   5.046
    1PA    H16T 7508  -1.175   2.118   5.050
    1PA    C115 7509  -1.057   2.313   5.029
    1PA    H15R 7510  -1.087   2.401   4.971
    1PA    H15S 7511  -1.052   2.350   5.131
    1PA    C114 7512  -0.926   2.254   4.975
    1PA    H14R 7513  -0.893   2.160   5.020
    1PA    H14S 7514  -0.934   2.226   4.870
    1PA    C113 7515  -0.815   2.360   4.979
    1PA    H13R 7516  -0.833   2.438   4.904
    1PA    H13S 7517  -0.806   2.419   5.070
    1PA    C112 7518  -0.684   2.288   4.943
    1PA    H12R 7519  -0.654   2.219   5.022
    1PA    H12S 7520  -0.690   2.228   4.852
    1PA    C111 7521  -0.567   2.388   4.949
    1PA    H11R 7522  -0.584   2.475   4.885
    1PA    H11S 7523  -0.558   2.428   5.050
    1PA    C110 7524  -0.434   2.320   4.914
    1PA    H10R 7525  -0.414   2.226   4.965
    1PA    H10S 7526  -0.432   2.303   4.806
    1PA     C19 7527  -0.313   2.411   4.943
    1PA     H9R 7528  -0.340   2.466   5.034
    1PA     H9S 7529  -0.222   2.356   4.967
    1PA     C18 7530  -0.283   2.508   4.829
    1PA     H8R 7531  -0.269   2.447   4.739
    1PA     H8S 7532  -0.370   2.571   4.810
    1PA     C17 7533  -0.164   2.605   4.841
    1PA     H7R 7534  -0.077   2.548   4.875
    1PA     H7S 7535  -0.144   2.641   4.740
    1PA     C16 7536  -0.208   2.718   4.935
    1PA     H6R 7537  -0.262   2.680   5.022
    1PA     H6S 7538  -0.115   2.755   4.977
    1PA     C15 7539  -0.284   2.835   4.870
    1PA     H5R 7540  -0.215   2.892   4.808
    1PA     H5S 7541  -0.359   2.789   4.805
    1PA     C14 7542  -0.343   2.935   4.971
    1PA     H4R 7543  -0.405   3.006   4.917
    1PA     H4S 7544  -0.409   2.881   5.039
    1PA     C13 7545  -0.231   3.004   5.051
    1PA     H3R 7546  -0.195   2.928   5.121
    1PA     H3S 7547  -0.151   3.026   4.980
    1PA     C12 7548  -0.284   3.130   5.120
    1PA     H2R 7549  -0.316   3.196   5.039
    1PA     H2S 7550  -0.380   3.115   5.170
    2PC     C11 7551  -0.190   3.202   5.214
    2PC     O12 7552  -0.211   3.312   5.261
    2PC     O11 7553  -0.084   3.125   5.245
    2PC      C1 7554   0.004   3.182   5.343
    2PC      HR 7555   0.069   3.263   5.311
    2PC      HS 7556  -0.056   3.227   5.423
    2PC      C2 7557   0.089   3.067   5.399
    2PC      HX 7558   0.026   2.993   5.450
    2PC      C3 7559   0.186   3.108   5.511
    2PC      HA 7560   0.137   3.135   5.604
    2PC      HB 7561   0.248   3.022   5.537
    2PC     O31 7562   0.259   3.222   5.462
    2PC     P31 7563   0.326   3.324   5.566
    2PC     O32 7564   0.465   3.256   5.606
    2PC     C31 7565   0.585   3.335   5.588
    2PC     H1A 7566   0.667   3.262   5.585
    2PC     H1B 7567   0.565   3.373   5.487
    2PC     C32 7568   0.601   3.454   5.683
    2PC     H2A 7569   0.684   3.518   5.654
    2PC     H2B 7570   0.505   3.507   5.683
    2PC     N31 7571   0.635   3.422   5.825
    2PC     C33 7572   0.543   3.317   5.881
    2PC     H3A 7573   0.575   3.284   5.979
    2PC     H3B 7574   0.442   3.358   5.878
    2PC     H3C 7575   0.546   3.233   5.812
    2PC     C34 7576   0.773   3.365   5.841
    2PC     H4A 7577   0.786   3.275   5.780
    2PC     H4B 7578   0.849   3.433   5.800
    2PC     H4C 7579   0.800   3.334   5.942
    2PC     C35 7580   0.621   3.548   5.905
    2PC     H5A 7581   0.694   3.610   5.853
    2PC     H5B 7582   0.637   3.529   6.012
    2PC     H5C 7583   0.530   3.602   5.879
    2PC     O33 7584   0.329   3.463   5.515
    2PC     O34 7585   0.246   3.338   5.691
    2PC     O21 7586   0.173   3.003   5.301
    2PC     C21 7587   0.129   2.897   5.232
    2PC     O22 7588   0.021   2.841   5.244
    3OL     C12 7589   0.221   2.856   5.120
    3OL     H2R 7590   0.311   2.815   5.166
    3OL     H2S 7591   0.258   2.948   5.074
    3OL     C13 7592   0.154   2.764   5.017
    3OL     H3R 7593   0.101   2.818   4.938
    3OL     H3S 7594   0.081   2.701   5.067
    3OL     C14 7595   0.251   2.666   4.947
    3OL     H4R 7596   0.205   2.575   4.910
    3OL     H4S 7597   0.322   2.628   5.020
    3OL     C15 7598   0.306   2.729   4.819
    3OL     H5R 7599   0.375   2.811   4.842
    3OL     H5S 7600   0.221   2.773   4.766
    3OL     C16 7601   0.377   2.631   4.724
    3OL     H6R 7602   0.319   2.542   4.699
    3OL     H6S 7603   0.471   2.607   4.774
    3OL     C17 7604   0.409   2.705   4.594
    3OL     H7R 7605   0.418   2.811   4.619
    3OL     H7S 7606   0.326   2.710   4.523
    3OL     C18 7607   0.524   2.639   4.516
    3OL     H8R 7608   0.619   2.653   4.569
    3OL     H8S 7609   0.527   2.700   4.425
    3OL     C19 7610   0.508   2.493   4.482
    3OL     H9R 7611   0.453   2.441   4.560
    3OL    C110 7612   0.519   2.435   4.364
    3OL    H10R 7613   0.477   2.335   4.351
    3OL    C111 7614   0.593   2.490   4.245
    3OL    H11R 7615   0.679   2.423   4.248
    3OL    H11S 7616   0.621   2.593   4.268
    3OL    C112 7617   0.520   2.482   4.110
    3OL    H12R 7618   0.514   2.379   4.076
    3OL    H12S 7619   0.587   2.537   4.044
    3OL    C113 7620   0.380   2.545   4.116
    3OL    H13R 7621   0.389   2.636   4.176
    3OL    H13S 7622   0.309   2.477   4.164
    3OL    C114 7623   0.334   2.592   3.977
    3OL    H14R 7624   0.412   2.644   3.921
    3OL    H14S 7625   0.241   2.648   3.988
    3OL    C115 7626   0.290   2.471   3.894
    3OL    H15R 7627   0.203   2.422   3.939
    3OL    H15S 7628   0.364   2.391   3.880
    3OL    C116 7629   0.259   2.512   3.749
    3OL    H16R 7630   0.344   2.566   3.707
    3OL    H16S 7631   0.176   2.583   3.757
    3OL    C117 7632   0.218   2.395   3.658
    3OL    H17R 7633   0.125   2.352   3.696
    3OL    H17S 7634   0.296   2.319   3.665
    3OL    C118 7635   0.191   2.454   3.519
    3OL    H18R 7636   0.133   2.545   3.535
    3OL    H18S 7637   0.129   2.380   3.467
    3OL    H18T 7638   0.290   2.471   3.476
    1PA    C116 7639   0.222   2.145   4.244
    1PA    H16R 7640   0.255   2.237   4.196
    1PA    H16S 7641   0.119   2.156   4.277
    1PA    H16T 7642   0.223   2.062   4.173
    1PA    C115 7643   0.306   2.112   4.368
    1PA    H15R 7644   0.413   2.110   4.348
    1PA    H15S 7645   0.310   2.196   4.438
    1PA    C114 7646   0.264   1.979   4.433
    1PA    H14R 7647   0.163   1.985   4.476
    1PA    H14S 7648   0.267   1.895   4.364
    1PA    C113 7649   0.359   1.949   4.550
    1PA    H13R 7650   0.458   1.931   4.508
    1PA    H13S 7651   0.371   2.042   4.607
    1PA    C112 7652   0.325   1.826   4.634
    1PA    H12R 7653   0.225   1.829   4.678
    1PA    H12S 7654   0.313   1.739   4.569
    1PA    C111 7655   0.426   1.809   4.749
    1PA    H11R 7656   0.527   1.822   4.711
    1PA    H11S 7657   0.405   1.891   4.819
    1PA    C110 7658   0.408   1.671   4.813
    1PA    H10R 7659   0.331   1.675   4.891
    1PA    H10S 7660   0.369   1.600   4.740
    1PA     C19 7661   0.536   1.620   4.881
    1PA     H9R 7662   0.611   1.593   4.807
    1PA     H9S 7663   0.577   1.703   4.940
    1PA     C18 7664   0.518   1.504   4.980
    1PA     H8R 7665   0.448   1.546   5.053
    1PA     H8S 7666   0.475   1.419   4.926
    1PA     C17 7667   0.647   1.466   5.052
    1PA     H7R 7668   0.727   1.444   4.981
    1PA     H7S 7669   0.663   1.547   5.123
    1PA     C16 7670   0.618   1.337   5.131
    1PA     H6R 7671   0.548   1.358   5.212
    1PA     H6S 7672   0.581   1.265   5.058
    1PA     C15 7673   0.752   1.290   5.189
    1PA     H5R 7674   0.823   1.261   5.112
    1PA     H5S 7675   0.796   1.378   5.237
    1PA     C14 7676   0.735   1.165   5.277
    1PA     H4R 7677   0.662   1.173   5.357
    1PA     H4S 7678   0.717   1.081   5.210
    1PA     C13 7679   0.871   1.122   5.333
    1PA     H3R 7680   0.955   1.132   5.264
    1PA     H3S 7681   0.901   1.197   5.407
    1PA     C12 7682   0.870   0.985   5.402
    1PA     H2R 7683   0.781   0.991   5.464
    1PA     H2S 7684   0.867   0.905   5.328
    2PC     C11 7685   0.992   0.958   5.488
    2PC     O12 7686   0.981   0.895   5.591
    2PC     O11 7687   1.099   1.026   5.444
    2PC      C1 7688   1.220   1.007   5.521
    2PC      HR 7689   1.213   1.038   5.625
    2PC      HS 7690   1.239   0.900   5.519
    2PC      C2 7691   1.335   1.080   5.451
    2PC      HX 7692   1.421   1.051   5.513
    2PC      C3 7693   1.303   1.230   5.459
    2PC      HA 7694   1.298   1.259   5.354
    2PC      HB 7695   1.210   1.261   5.509
    2PC     O31 7696   1.413   1.304   5.515
    2PC     P31 7697   1.418   1.315   5.675
    2PC     O32 7698   1.470   1.466   5.659
    2PC     C31 7699   1.379   1.568   5.704
    2PC     H1A 7700   1.282   1.563   5.655
    2PC     H1B 7701   1.359   1.554   5.811
    2PC     C32 7702   1.445   1.703   5.669
    2PC     H2A 7703   1.551   1.701   5.690
    2PC     H2B 7704   1.434   1.721   5.562
    2PC     N31 7705   1.372   1.815   5.738
    2PC     C33 7706   1.369   1.789   5.885
    2PC     H3A 7707   1.327   1.873   5.941
    2PC     H3B 7708   1.306   1.704   5.911
    2PC     H3C 7709   1.470   1.763   5.919
    2PC     C34 7710   1.456   1.936   5.711
    2PC     H4A 7711   1.430   1.999   5.796
    2PC     H4B 7712   1.561   1.908   5.705
    2PC     H4C 7713   1.422   1.971   5.613
    2PC     C35 7714   1.233   1.825   5.682
    2PC     H5A 7715   1.227   1.807   5.575
    2PC     H5B 7716   1.197   1.923   5.713
    2PC     H5C 7717   1.170   1.755   5.737
    2PC     O33 7718   1.291   1.291   5.748
    2PC     O34 7719   1.521   1.230   5.737
    2PC     O21 7720   1.344   1.027   5.318
    2PC     C21 7721   1.418   0.915   5.308
    2PC     O22 7722   1.436   0.837   5.398
    3OL     C12 7723   1.465   0.880   5.169
    3OL     H2R 7724   1.546   0.950   5.146
    3OL     H2S 7725   1.383   0.894   5.098
    3OL     C13 7726   1.527   0.740   5.155
    3OL     H3R 7727   1.459   0.657   5.173
    3OL     H3S 7728   1.608   0.721   5.226
    3OL     C14 7729   1.585   0.720   5.014
    3OL     H4R 7730   1.646   0.630   5.026
    3OL     H4S 7731   1.615   0.813   4.965
    3OL     C15 7732   1.475   0.675   4.916
    3OL     H5R 7733   1.423   0.767   4.889
    3OL     H5S 7734   1.403   0.603   4.955
    3OL     C16 7735   1.539   0.623   4.786
    3OL     H6R 7736   1.607   0.539   4.804
    3OL     H6S 7737   1.594   0.707   4.743
    3OL     C17 7738   1.422   0.587   4.694
    3OL     H7R 7739   1.347   0.665   4.678
    3OL     H7S 7740   1.370   0.501   4.737
    3OL     C18 7741   1.473   0.532   4.560
    3OL     H8R 7742   1.523   0.440   4.590
    3OL     H8S 7743   1.541   0.609   4.524
    3OL     C19 7744   1.359   0.498   4.467
    3OL     H9R 7745   1.277   0.441   4.510
    3OL    C110 7746   1.356   0.531   4.339
    3OL    H10R 7747   1.269   0.496   4.283
    3OL    C111 7748   1.469   0.592   4.260
    3OL    H11R 7749   1.567   0.575   4.306
    3OL    H11S 7750   1.460   0.700   4.276
    3OL    C112 7751   1.460   0.566   4.109
    3OL    H12R 7752   1.477   0.460   4.088
    3OL    H12S 7753   1.540   0.626   4.067
    3OL    C113 7754   1.332   0.620   4.044
    3OL    H13R 7755   1.335   0.724   4.079
    3OL    H13S 7756   1.245   0.575   4.093
    3OL    C114 7757   1.346   0.603   3.892
    3OL    H14R 7758   1.367   0.498   3.868
    3OL    H14S 7759   1.425   0.672   3.864
    3OL    C115 7760   1.217   0.627   3.812
    3OL    H15R 7761   1.245   0.632   3.707
    3OL    H15S 7762   1.180   0.725   3.844
    3OL    C116 7763   1.106   0.526   3.845
    3OL    H16R 7764   1.090   0.510   3.952
    3OL    H16S 7765   1.140   0.434   3.797
    3OL    C117 7766   0.973   0.575   3.786
    3OL    H17R 7767   0.951   0.678   3.814
    3OL    H17S 7768   0.890   0.516   3.822
    3OL    C118 7769   0.968   0.569   3.632
    3OL    H18R 7770   0.881   0.619   3.590
    3OL    H18S 7771   0.985   0.466   3.601
    3OL    H18T 7772   1.049   0.620   3.580
    1PA    C116 7773   7.029   3.391   5.162
    1PA    H16R 7774   7.082   3.399   5.067
    1PA    H16S 7775   7.096   3.347   5.236
    1PA    H16T 7776   7.007   3.489   5.202
    1PA    C115 7777   6.897   3.311   5.160
    1PA    H15R 7778   6.924   3.205   5.164
    1PA    H15S 7779   6.839   3.339   5.248
    1PA    C114 7780   6.822   3.344   5.030
    1PA    H14R 7781   6.783   3.445   5.036
    1PA    H14S 7782   6.891   3.333   4.946
    1PA    C113 7783   6.705   3.246   5.018
    1PA    H13R 7784   6.749   3.147   5.006
    1PA    H13S 7785   6.630   3.247   5.098
    1PA    C112 7786   6.631   3.266   4.885
    1PA    H12R 7787   6.606   3.372   4.877
    1PA    H12S 7788   6.688   3.238   4.796
    1PA    C111 7789   6.496   3.193   4.874
    1PA    H11R 7790   6.522   3.087   4.880
    1PA    H11S 7791   6.428   3.229   4.952
    1PA    C110 7792   6.433   3.195   4.735
    1PA    H10R 7793   6.499   3.144   4.665
    1PA    H10S 7794   6.337   3.144   4.731
    1PA     C19 7795   6.393   3.332   4.677
    1PA     H9R 7796   6.488   3.386   4.673
    1PA     H9S 7797   6.361   3.316   4.574
    1PA     C18 7798   6.279   3.403   4.752
    1PA     H8R 7799   6.199   3.334   4.777
    1PA     H8S 7800   6.313   3.430   4.852
    1PA     C17 7801   6.230   3.525   4.674
    1PA     H7R 7802   6.317   3.591   4.674
    1PA     H7S 7803   6.195   3.502   4.573
    1PA     C16 7804   6.117   3.608   4.737
    1PA     H6R 7805   6.084   3.692   4.675
    1PA     H6S 7806   6.030   3.541   4.741
    1PA     C15 7807   6.149   3.658   4.878
    1PA     H5R 7808   6.139   3.574   4.947
    1PA     H5S 7809   6.254   3.686   4.870
    1PA     C14 7810   6.053   3.770   4.921
    1PA     H4R 7811   6.048   3.840   4.837
    1PA     H4S 7812   5.952   3.727   4.927
    1PA     C13 7813   6.093   3.827   5.058
    1PA     H3R 7814   6.108   3.742   5.125
    1PA     H3S 7815   6.188   3.880   5.054
    1PA     C12 7816   5.983   3.925   5.101
    1PA     H2R 7817   5.975   4.005   5.026
    1PA     H2S 7818   5.881   3.886   5.093
    2PC     C11 7819   6.006   3.980   5.239
    2PC     O12 7820   6.068   3.921   5.325
    2PC     O11 7821   5.945   4.098   5.262
    2PC      C1 7822   5.977   4.173   5.380
    2PC      HR 7823   5.903   4.252   5.390
    2PC      HS 7824   5.972   4.114   5.472
    2PC      C2 7825   6.109   4.250   5.363
    2PC      HX 7826   6.168   4.178   5.306
    2PC      C3 7827   6.181   4.292   5.492
    2PC      HA 7828   6.208   4.199   5.542
    2PC      HB 7829   6.269   4.348   5.461
    2PC     O31 7830   6.084   4.367   5.567
    2PC     P31 7831   6.139   4.448   5.694
    2PC     O32 7832   6.227   4.546   5.602
    2PC     C31 7833   6.347   4.596   5.664
    2PC     H1A 7834   6.414   4.515   5.692
    2PC     H1B 7835   6.395   4.643   5.578
    2PC     C32 7836   6.329   4.703   5.773
    2PC     H2A 7837   6.307   4.791   5.712
    2PC     H2B 7838   6.252   4.660   5.838
    2PC     N31 7839   6.438   4.759   5.858
    2PC     C33 7840   6.547   4.815   5.772
    2PC     H3A 7841   6.599   4.731   5.725
    2PC     H3B 7842   6.508   4.891   5.705
    2PC     H3C 7843   6.612   4.870   5.840
    2PC     C34 7844   6.376   4.864   5.945
    2PC     H4A 7845   6.283   4.829   5.990
    2PC     H4B 7846   6.454   4.885   6.018
    2PC     H4C 7847   6.348   4.941   5.874
    2PC     C35 7848   6.496   4.660   5.955
    2PC     H5A 7849   6.531   4.570   5.905
    2PC     H5B 7850   6.418   4.632   6.026
    2PC     H5C 7851   6.579   4.712   6.004
    2PC     O33 7852   6.026   4.516   5.761
    2PC     O34 7853   6.214   4.374   5.798
    2PC     O21 7854   6.083   4.359   5.272
    2PC     C21 7855   6.188   4.417   5.212
    2PC     O22 7856   6.296   4.362   5.206
    3OL     C12 7857   6.154   4.549   5.147
    3OL     H2R 7858   6.235   4.613   5.181
    3OL     H2S 7859   6.054   4.586   5.172
    3OL     C13 7860   6.178   4.544   4.995
    3OL     H3R 7861   6.269   4.486   4.977
    3OL     H3S 7862   6.196   4.643   4.952
    3OL     C14 7863   6.056   4.481   4.927
    3OL     H4R 7864   5.970   4.547   4.943
    3OL     H4S 7865   6.019   4.388   4.969
    3OL     C15 7866   6.074   4.437   4.781
    3OL     H5R 7867   5.984   4.401   4.731
    3OL     H5S 7868   6.141   4.352   4.788
    3OL     C16 7869   6.146   4.538   4.690
    3OL     H6R 7870   6.170   4.488   4.597
    3OL     H6S 7871   6.237   4.571   4.742
    3OL     C17 7872   6.054   4.655   4.653
    3OL     H7R 7873   6.036   4.713   4.744
    3OL     H7S 7874   5.957   4.622   4.613
    3OL     C18 7875   6.116   4.749   4.549
    3OL     H8R 7876   6.043   4.827   4.526
    3OL     H8S 7877   6.145   4.694   4.459
    3OL     C19 7878   6.232   4.821   4.614
    3OL     H9R 7879   6.318   4.756   4.625
    3OL    C110 7880   6.243   4.951   4.634
    3OL    H10R 7881   6.331   4.997   4.679
    3OL    C111 7882   6.138   5.059   4.620
    3OL    H11R 7883   6.137   5.117   4.712
    3OL    H11S 7884   6.040   5.011   4.614
    3OL    C112 7885   6.162   5.140   4.492
    3OL    H12R 7886   6.075   5.206   4.480
    3OL    H12S 7887   6.165   5.071   4.407
    3OL    C113 7888   6.288   5.226   4.508
    3OL    H13R 7889   6.362   5.183   4.576
    3OL    H13S 7890   6.263   5.321   4.556
    3OL    C114 7891   6.336   5.265   4.367
    3OL    H14R 7892   6.248   5.312   4.321
    3OL    H14S 7893   6.360   5.172   4.317
    3OL    C115 7894   6.449   5.369   4.370
    3OL    H15R 7895   6.525   5.341   4.443
    3OL    H15S 7896   6.402   5.463   4.397
    3OL    C116 7897   6.515   5.380   4.232
    3OL    H16R 7898   6.441   5.401   4.154
    3OL    H16S 7899   6.571   5.293   4.199
    3OL    C117 7900   6.602   5.507   4.237
    3OL    H17R 7901   6.699   5.490   4.282
    3OL    H17S 7902   6.548   5.581   4.296
    3OL    C118 7903   6.643   5.563   4.100
    3OL    H18R 7904   6.722   5.500   4.059
    3OL    H18S 7905   6.687   5.662   4.116
    3OL    H18T 7906   6.566   5.568   4.022
    1PA    C116 7907   4.854   1.066   3.684
    1PA    H16R 7908   4.753   1.023   3.685
    1PA    H16S 7909   4.928   0.986   3.689
    1PA    H16T 7910   4.857   1.098   3.580
    1PA    C115 7911   4.864   1.170   3.796
    1PA    H15R 7912   4.798   1.250   3.762
    1PA    H15S 7913   4.839   1.117   3.888
    1PA    C114 7914   5.008   1.222   3.812
    1PA    H14R 7915   5.073   1.135   3.822
    1PA    H14S 7916   5.044   1.270   3.721
    1PA    C113 7917   5.028   1.311   3.935
    1PA    H13R 7918   5.111   1.375   3.906
    1PA    H13S 7919   4.948   1.384   3.951
    1PA    C112 7920   5.073   1.233   4.059
    1PA    H12R 7921   4.993   1.163   4.085
    1PA    H12S 7922   5.158   1.169   4.033
    1PA    C111 7923   5.123   1.318   4.177
    1PA    H11R 7924   5.185   1.258   4.245
    1PA    H11S 7925   5.184   1.402   4.144
    1PA    C110 7926   5.011   1.373   4.266
    1PA    H10R 7927   4.941   1.427   4.202
    1PA    H10S 7928   4.956   1.284   4.298
    1PA     C19 7929   5.067   1.466   4.375
    1PA     H9R 7930   5.138   1.420   4.445
    1PA     H9S 7931   5.126   1.545   4.328
    1PA     C18 7932   4.958   1.535   4.458
    1PA     H8R 7933   4.881   1.578   4.394
    1PA     H8S 7934   4.909   1.462   4.524
    1PA     C17 7935   5.027   1.636   4.551
    1PA     H7R 7936   5.093   1.583   4.619
    1PA     H7S 7937   5.081   1.713   4.496
    1PA     C16 7938   4.923   1.702   4.643
    1PA     H6R 7939   4.843   1.753   4.588
    1PA     H6S 7940   4.868   1.630   4.703
    1PA     C15 7941   4.990   1.804   4.737
    1PA     H5R 7942   5.068   1.755   4.796
    1PA     H5S 7943   5.047   1.877   4.680
    1PA     C14 7944   4.886   1.877   4.823
    1PA     H4R 7945   4.816   1.934   4.762
    1PA     H4S 7946   4.832   1.801   4.880
    1PA     C13 7947   4.953   1.982   4.914
    1PA     H3R 7948   5.038   2.020   4.857
    1PA     H3S 7949   4.889   2.068   4.937
    1PA     C12 7950   5.025   1.928   5.038
    1PA     H2R 7951   5.084   1.842   5.005
    1PA     H2S 7952   5.080   2.003   5.095
    2PC     C11 7953   4.943   1.857   5.143
    2PC     O12 7954   4.822   1.854   5.142
    2PC     O11 7955   5.014   1.785   5.232
    2PC      C1 7956   4.940   1.727   5.341
    2PC      HR 7957   4.885   1.812   5.382
    2PC      HS 7958   4.867   1.662   5.293
    2PC      C2 7959   5.033   1.651   5.437
    2PC      HX 7960   4.979   1.640   5.531
    2PC      C3 7961   5.158   1.736   5.465
    2PC      HA 7962   5.230   1.752   5.384
    2PC      HB 7963   5.111   1.832   5.483
    2PC     O31 7964   5.227   1.682   5.579
    2PC     P31 7965   5.340   1.775   5.643
    2PC     O32 7966   5.252   1.860   5.747
    2PC     C31 7967   5.208   1.991   5.708
    2PC     H1A 7968   5.291   2.056   5.679
    2PC     H1B 7969   5.144   1.977   5.621
    2PC     C32 7970   5.146   2.062   5.830
    2PC     H2A 7971   5.214   2.065   5.915
    2PC     H2B 7972   5.129   2.165   5.797
    2PC     N31 7973   5.014   2.019   5.887
    2PC     C33 7974   4.958   2.114   5.989
    2PC     H3A 7975   5.024   2.140   6.072
    2PC     H3B 7976   4.938   2.208   5.939
    2PC     H3C 7977   4.867   2.069   6.029
    2PC     C34 7978   4.914   1.995   5.778
    2PC     H4A 7979   4.949   1.912   5.718
    2PC     H4B 7980   4.823   1.962   5.830
    2PC     H4C 7981   4.898   2.081   5.713
    2PC     C35 7982   5.019   1.882   5.947
    2PC     H5A 7983   4.930   1.851   6.002
    2PC     H5B 7984   5.097   1.895   6.022
    2PC     H5C 7985   5.039   1.800   5.877
    2PC     O33 7986   5.447   1.684   5.691
    2PC     O34 7987   5.405   1.869   5.547
    2PC     O21 7988   5.072   1.528   5.375
    2PC     C21 7989   4.980   1.436   5.343
    2PC     O22 7990   4.870   1.439   5.395
    3OL     C12 7991   5.014   1.338   5.233
    3OL     H2R 7992   4.919   1.291   5.205
    3OL     H2S 7993   5.084   1.262   5.267
    3OL     C13 7994   5.054   1.411   5.104
    3OL     H3R 7995   5.147   1.464   5.120
    3OL     H3S 7996   4.972   1.474   5.068
    3OL     C14 7997   5.077   1.303   4.997
    3OL     H4R 7998   4.986   1.244   4.981
    3OL     H4S 7999   5.153   1.232   5.028
    3OL     C15 8000   5.122   1.376   4.870
    3OL     H5R 8001   5.225   1.410   4.882
    3OL     H5S 8002   5.062   1.464   4.845
    3OL     C16 8003   5.130   1.275   4.755
    3OL     H6R 8004   5.193   1.195   4.793
    3OL     H6S 8005   5.173   1.313   4.662
    3OL     C17 8006   4.989   1.227   4.718
    3OL     H7R 8007   4.924   1.314   4.709
    3OL     H7S 8008   4.948   1.164   4.797
    3OL     C18 8009   4.989   1.153   4.583
    3OL     H8R 8010   5.027   1.229   4.515
    3OL     H8S 8011   4.884   1.134   4.559
    3OL     C19 8012   5.064   1.023   4.577
    3OL     H9R 8013   5.097   0.998   4.678
    3OL    C110 8014   5.099   0.943   4.477
    3OL    H10R 8015   5.166   0.858   4.489
    3OL    C111 8016   5.062   0.975   4.335
    3OL    H11R 8017   5.156   1.001   4.287
    3OL    H11S 8018   4.996   1.062   4.327
    3OL    C112 8019   5.007   0.857   4.253
    3OL    H12R 8020   4.905   0.834   4.286
    3OL    H12S 8021   5.072   0.776   4.287
    3OL    C113 8022   5.024   0.869   4.101
    3OL    H13R 8023   5.129   0.893   4.087
    3OL    H13S 8024   4.957   0.946   4.061
    3OL    C114 8025   5.010   0.735   4.028
    3OL    H14R 8026   4.919   0.676   4.038
    3OL    H14S 8027   5.095   0.679   4.068
    3OL    C115 8028   5.034   0.762   3.878
    3OL    H15R 8029   5.130   0.813   3.869
    3OL    H15S 8030   4.959   0.834   3.844
    3OL    C116 8031   5.012   0.642   3.785
    3OL    H16R 8032   4.909   0.606   3.798
    3OL    H16S 8033   5.070   0.560   3.827
    3OL    C117 8034   5.054   0.662   3.639
    3OL    H17R 8035   5.156   0.700   3.630
    3OL    H17S 8036   4.974   0.726   3.602
    3OL    C118 8037   5.043   0.526   3.569
    3OL    H18R 8038   5.107   0.454   3.620
    3OL    H18S 8039   5.074   0.541   3.466
    3OL    H18T 8040   4.940   0.488   3.565
    1PA    C116 8041   5.293   1.833   3.596
    1PA    H16R 8042   5.343   1.909   3.535
    1PA    H16S 8043   5.210   1.791   3.539
    1PA    H16T 8044   5.362   1.749   3.606
    1PA    C115 8045   5.260   1.897   3.731
    1PA    H15R 8046   5.353   1.908   3.788
    1PA    H15S 8047   5.224   1.999   3.718
    1PA    C114 8048   5.151   1.804   3.786
    1PA    H14R 8049   5.068   1.792   3.716
    1PA    H14S 8050   5.187   1.703   3.805
    1PA    C113 8051   5.101   1.857   3.921
    1PA    H13R 8052   5.184   1.846   3.991
    1PA    H13S 8053   5.069   1.962   3.920
    1PA    C112 8054   4.979   1.777   3.966
    1PA    H12R 8055   4.898   1.782   3.892
    1PA    H12S 8056   4.997   1.672   3.993
    1PA    C111 8057   4.927   1.833   4.099
    1PA    H11R 8058   4.994   1.803   4.180
    1PA    H11S 8059   4.935   1.941   4.088
    1PA    C110 8060   4.782   1.792   4.124
    1PA    H10R 8061   4.714   1.829   4.046
    1PA    H10S 8062   4.784   1.683   4.132
    1PA     C19 8063   4.735   1.845   4.260
    1PA     H9R 8064   4.809   1.820   4.337
    1PA     H9S 8065   4.738   1.954   4.267
    1PA     C18 8066   4.599   1.791   4.305
    1PA     H8R 8067   4.520   1.836   4.244
    1PA     H8S 8068   4.606   1.683   4.286
    1PA     C17 8069   4.582   1.814   4.455
    1PA     H7R 8070   4.664   1.773   4.515
    1PA     H7S 8071   4.589   1.923   4.462
    1PA     C16 8072   4.441   1.768   4.495
    1PA     H6R 8073   4.380   1.821   4.421
    1PA     H6S 8074   4.429   1.662   4.474
    1PA     C15 8075   4.392   1.795   4.638
    1PA     H5R 8076   4.362   1.900   4.640
    1PA     H5S 8077   4.313   1.722   4.659
    1PA     C14 8078   4.498   1.775   4.747
    1PA     H4R 8079   4.560   1.691   4.717
    1PA     H4S 8080   4.575   1.852   4.750
    1PA     C13 8081   4.433   1.757   4.885
    1PA     H3R 8082   4.342   1.700   4.865
    1PA     H3S 8083   4.506   1.705   4.947
    1PA     C12 8084   4.404   1.892   4.951
    1PA     H2R 8085   4.489   1.957   4.978
    1PA     H2S 8086   4.344   1.950   4.881
    2PC     C11 8087   4.326   1.874   5.079
    2PC     O12 8088   4.278   1.971   5.135
    2PC     O11 8089   4.316   1.748   5.123
    2PC      C1 8090   4.248   1.711   5.245
    2PC      HR 8091   4.294   1.756   5.334
    2PC      HS 8092   4.145   1.744   5.231
    2PC      C2 8093   4.256   1.558   5.255
    2PC      HX 8094   4.218   1.517   5.161
    2PC      C3 8095   4.178   1.509   5.377
    2PC      HA 8096   4.072   1.526   5.355
    2PC      HB 8097   4.199   1.403   5.394
    2PC     O31 8098   4.214   1.573   5.501
    2PC     P31 8099   4.144   1.510   5.631
    2PC     O32 8100   4.237   1.389   5.680
    2PC     C31 8101   4.184   1.274   5.748
    2PC     H1A 8102   4.152   1.314   5.844
    2PC     H1B 8103   4.106   1.238   5.680
    2PC     C32 8104   4.308   1.185   5.765
    2PC     H2A 8105   4.397   1.241   5.794
    2PC     H2B 8106   4.285   1.108   5.839
    2PC     N31 8107   4.348   1.108   5.643
    2PC     C33 8108   4.240   1.026   5.579
    2PC     H3A 8109   4.276   0.973   5.491
    2PC     H3B 8110   4.194   0.960   5.652
    2PC     H3C 8111   4.169   1.099   5.539
    2PC     C34 8112   4.405   1.194   5.534
    2PC     H4A 8113   4.484   1.144   5.478
    2PC     H4B 8114   4.322   1.223   5.469
    2PC     H4C 8115   4.445   1.285   5.577
    2PC     C35 8116   4.447   1.004   5.687
    2PC     H5A 8117   4.483   0.952   5.597
    2PC     H5B 8118   4.396   0.942   5.761
    2PC     H5C 8119   4.536   1.049   5.731
    2PC     O33 8120   4.140   1.613   5.737
    2PC     O34 8121   4.004   1.471   5.603
    2PC     O21 8122   4.394   1.525   5.281
    2PC     C21 8123   4.434   1.398   5.262
    2PC     O22 8124   4.358   1.308   5.233
    3OL     C12 8125   4.585   1.389   5.265
    3OL     H2R 8126   4.608   1.282   5.273
    3OL     H2S 8127   4.613   1.437   5.359
    3OL     C13 8128   4.663   1.452   5.150
    3OL     H3R 8129   4.767   1.472   5.177
    3OL     H3S 8130   4.624   1.553   5.137
    3OL     C14 8131   4.646   1.377   5.017
    3OL     H4R 8132   4.562   1.308   5.019
    3OL     H4S 8133   4.738   1.320   4.998
    3OL     C15 8134   4.620   1.461   4.892
    3OL     H5R 8135   4.701   1.535   4.895
    3OL     H5S 8136   4.526   1.516   4.887
    3OL     C16 8137   4.637   1.377   4.765
    3OL     H6R 8138   4.715   1.301   4.760
    3OL     H6S 8139   4.664   1.444   4.682
    3OL     C17 8140   4.504   1.312   4.724
    3OL     H7R 8141   4.430   1.393   4.719
    3OL     H7S 8142   4.473   1.243   4.802
    3OL     C18 8143   4.509   1.241   4.588
    3OL     H8R 8144   4.592   1.171   4.577
    3OL     H8S 8145   4.532   1.320   4.517
    3OL     C19 8146   4.382   1.168   4.554
    3OL     H9R 8147   4.366   1.070   4.598
    3OL    C110 8148   4.286   1.225   4.483
    3OL    H10R 8149   4.193   1.168   4.482
    3OL    C111 8150   4.293   1.358   4.411
    3OL    H11R 8151   4.389   1.373   4.362
    3OL    H11S 8152   4.284   1.431   4.491
    3OL    C112 8153   4.171   1.370   4.319
    3OL    H12R 8154   4.182   1.467   4.270
    3OL    H12S 8155   4.077   1.376   4.375
    3OL    C113 8156   4.165   1.254   4.218
    3OL    H13R 8157   4.129   1.164   4.269
    3OL    H13S 8158   4.259   1.233   4.165
    3OL    C114 8159   4.064   1.302   4.113
    3OL    H14R 8160   4.085   1.261   4.014
    3OL    H14S 8161   4.074   1.410   4.110
    3OL    C115 8162   3.922   1.256   4.149
    3OL    H15R 8163   3.880   1.312   4.233
    3OL    H15S 8164   3.930   1.151   4.181
    3OL    C116 8165   3.832   1.263   4.025
    3OL    H16R 8166   3.735   1.231   4.064
    3OL    H16S 8167   3.870   1.195   3.948
    3OL    C117 8168   3.820   1.403   3.965
    3OL    H17R 8169   3.848   1.470   4.047
    3OL    H17S 8170   3.716   1.434   3.953
    3OL    C118 8171   3.910   1.417   3.842
    3OL    H18R 8172   3.892   1.354   3.754
    3OL    H18S 8173   4.018   1.414   3.861
    3OL    H18T 8174   3.887   1.521   3.817
    1PA    C116 8175  -0.300   1.838   4.204
    1PA    H16R 8176  -0.359   1.816   4.293
    1PA    H16S 8177  -0.283   1.743   4.153
    1PA    H16T 8178  -0.354   1.905   4.136
    1PA    C115 8179  -0.173   1.912   4.250
    1PA    H15R 8180  -0.128   1.956   4.161
    1PA    H15S 8181  -0.202   1.989   4.322
    1PA    C114 8182  -0.071   1.819   4.316
    1PA    H14R 8183  -0.034   1.746   4.244
    1PA    H14S 8184   0.019   1.874   4.345
    1PA    C113 8185  -0.138   1.755   4.438
    1PA    H13R 8186  -0.197   1.830   4.492
    1PA    H13S 8187  -0.205   1.676   4.403
    1PA    C112 8188  -0.033   1.692   4.531
    1PA    H12R 8189   0.027   1.628   4.466
    1PA    H12S 8190   0.040   1.771   4.551
    1PA    C111 8191  -0.080   1.617   4.656
    1PA    H11R 8192  -0.162   1.681   4.692
    1PA    H11S 8193  -0.112   1.520   4.619
    1PA    C110 8194   0.032   1.614   4.761
    1PA    H10R 8195   0.116   1.561   4.717
    1PA    H10S 8196   0.062   1.715   4.789
    1PA     C19 8197   0.002   1.530   4.886
    1PA     H9R 8198  -0.077   1.584   4.938
    1PA     H9S 8199  -0.032   1.428   4.863
    1PA     C18 8200   0.126   1.515   4.976
    1PA     H8R 8201   0.205   1.461   4.923
    1PA     H8S 8202   0.162   1.618   4.987
    1PA     C17 8203   0.087   1.447   5.107
    1PA     H7R 8204   0.011   1.507   5.159
    1PA     H7S 8205   0.040   1.351   5.083
    1PA     C16 8206   0.208   1.416   5.197
    1PA     H6R 8207   0.267   1.332   5.159
    1PA     H6S 8208   0.273   1.503   5.203
    1PA     C15 8209   0.174   1.393   5.345
    1PA     H5R 8210   0.114   1.476   5.381
    1PA     H5S 8211   0.102   1.312   5.357
    1PA     C14 8212   0.304   1.369   5.424
    1PA     H4R 8213   0.288   1.297   5.504
    1PA     H4S 8214   0.376   1.323   5.356
    1PA     C13 8215   0.364   1.498   5.482
    1PA     H3R 8216   0.305   1.583   5.447
    1PA     H3S 8217   0.350   1.491   5.591
    1PA     C12 8218   0.511   1.523   5.449
    1PA     H2R 8219   0.575   1.435   5.465
    1PA     H2S 8220   0.526   1.546   5.343
    2PC     C11 8221   0.569   1.639   5.525
    2PC     O12 8222   0.524   1.675   5.633
    2PC     O11 8223   0.659   1.714   5.460
    2PC      C1 8224   0.730   1.816   5.533
    2PC      HR 8225   0.792   1.879   5.468
    2PC      HS 8226   0.652   1.875   5.582
    2PC      C2 8227   0.817   1.753   5.642
    2PC      HX 8228   0.751   1.688   5.699
    2PC      C3 8229   0.866   1.861   5.740
    2PC      HA 8230   0.940   1.923   5.688
    2PC      HB 8231   0.780   1.916   5.780
    2PC     O31 8232   0.923   1.782   5.846
    2PC     P31 8233   0.993   1.861   5.966
    2PC     O32 8234   0.862   1.886   6.054
    2PC     C31 8235   0.871   1.917   6.194
    2PC     H1A 8236   0.942   1.999   6.196
    2PC     H1B 8237   0.774   1.950   6.232
    2PC     C32 8238   0.934   1.798   6.268
    2PC     H2A 8239   1.027   1.777   6.215
    2PC     H2B 8240   0.964   1.822   6.370
    2PC     N31 8241   0.847   1.676   6.278
    2PC     C33 8242   0.713   1.722   6.326
    2PC     H3A 8243   0.722   1.805   6.395
    2PC     H3B 8244   0.659   1.764   6.240
    2PC     H3C 8245   0.652   1.638   6.360
    2PC     C34 8246   0.835   1.609   6.144
    2PC     H4A 8247   0.769   1.667   6.078
    2PC     H4B 8248   0.931   1.598   6.095
    2PC     H4C 8249   0.795   1.508   6.151
    2PC     C35 8250   0.903   1.578   6.377
    2PC     H5A 8251   1.012   1.576   6.377
    2PC     H5B 8252   0.859   1.478   6.369
    2PC     H5C 8253   0.879   1.622   6.474
    2PC     O33 8254   1.109   1.796   6.032
    2PC     O34 8255   1.068   1.981   5.922
    2PC     O21 8256   0.929   1.687   5.581
    2PC     C21 8257   0.908   1.567   5.525
    2PC     O22 8258   0.807   1.502   5.539
    3OL     C12 8259   1.028   1.517   5.448
    3OL     H2R 8260   1.020   1.410   5.431
    3OL     H2S 8261   1.118   1.536   5.507
    3OL     C13 8262   1.027   1.586   5.311
    3OL     H3R 8263   1.044   1.691   5.333
    3OL     H3S 8264   0.929   1.571   5.267
    3OL     C14 8265   1.149   1.537   5.231
    3OL     H4R 8266   1.240   1.530   5.292
    3OL     H4S 8267   1.161   1.604   5.146
    3OL     C15 8268   1.136   1.398   5.169
    3OL     H5R 8269   1.056   1.386   5.096
    3OL     H5S 8270   1.115   1.331   5.253
    3OL     C16 8271   1.266   1.367   5.093
    3OL     H6R 8272   1.351   1.364   5.163
    3OL     H6S 8273   1.285   1.448   5.022
    3OL     C17 8274   1.266   1.232   5.021
    3OL     H7R 8275   1.197   1.234   4.936
    3OL     H7S 8276   1.241   1.154   5.095
    3OL     C18 8277   1.399   1.196   4.953
    3OL     H8R 8278   1.465   1.194   5.040
    3OL     H8S 8279   1.429   1.280   4.890
    3OL     C19 8280   1.394   1.063   4.884
    3OL     H9R 8281   1.319   0.992   4.920
    3OL    C110 8282   1.488   1.019   4.802
    3OL    H10R 8283   1.481   0.916   4.768
    3OL    C111 8284   1.589   1.104   4.729
    3OL    H11R 8285   1.676   1.041   4.714
    3OL    H11S 8286   1.617   1.189   4.792
    3OL    C112 8287   1.532   1.146   4.592
    3OL    H12R 8288   1.597   1.214   4.537
    3OL    H12S 8289   1.439   1.198   4.615
    3OL    C113 8290   1.480   1.026   4.511
    3OL    H13R 8291   1.414   0.959   4.566
    3OL    H13S 8292   1.560   0.971   4.462
    3OL    C114 8293   1.405   1.087   4.392
    3OL    H14R 8294   1.470   1.150   4.330
    3OL    H14S 8295   1.318   1.142   4.427
    3OL    C115 8296   1.364   0.971   4.300
    3OL    H15R 8297   1.294   0.903   4.350
    3OL    H15S 8298   1.450   0.912   4.267
    3OL    C116 8299   1.290   1.020   4.174
    3OL    H16R 8300   1.230   1.108   4.195
    3OL    H16S 8301   1.213   0.944   4.159
    3OL    C117 8302   1.378   1.034   4.049
    3OL    H17R 8303   1.416   0.942   4.005
    3OL    H17S 8304   1.466   1.084   4.091
    3OL    C118 8305   1.297   1.113   3.946
    3OL    H18R 8306   1.234   1.042   3.891
    3OL    H18S 8307   1.361   1.161   3.873
    3OL    H18T 8308   1.230   1.187   3.990
    1PA    C116 8309   5.883   2.582   4.205
    1PA    H16R 8310   5.920   2.546   4.109
    1PA    H16S 8311   5.914   2.686   4.216
    1PA    H16T 8312   5.776   2.571   4.224
    1PA    C115 8313   5.947   2.498   4.316
    1PA    H15R 8314   6.055   2.514   4.313
    1PA    H15S 8315   5.910   2.525   4.415
    1PA    C114 8316   5.911   2.348   4.309
    1PA    H14R 8317   5.802   2.343   4.304
    1PA    H14S 8318   5.952   2.310   4.215
    1PA    C113 8319   5.963   2.270   4.430
    1PA    H13R 8320   6.065   2.303   4.447
    1PA    H13S 8321   5.909   2.313   4.515
    1PA    C112 8322   5.942   2.118   4.435
    1PA    H12R 8323   5.835   2.097   4.424
    1PA    H12S 8324   5.990   2.066   4.351
    1PA    C111 8325   6.007   2.069   4.565
    1PA    H11R 8326   6.099   2.016   4.538
    1PA    H11S 8327   6.037   2.150   4.632
    1PA    C110 8328   5.917   1.969   4.638
    1PA    H10R 8329   5.837   2.020   4.693
    1PA    H10S 8330   5.878   1.907   4.556
    1PA     C19 8331   5.996   1.890   4.743
    1PA     H9R 8332   6.064   1.828   4.684
    1PA     H9S 8333   6.052   1.959   4.807
    1PA     C18 8334   5.903   1.793   4.818
    1PA     H8R 8335   5.832   1.858   4.870
    1PA     H8S 8336   5.848   1.731   4.747
    1PA     C17 8337   5.976   1.704   4.919
    1PA     H7R 8338   5.917   1.614   4.938
    1PA     H7S 8339   6.072   1.679   4.872
    1PA     C16 8340   5.996   1.779   5.051
    1PA     H6R 8341   6.062   1.718   5.114
    1PA     H6S 8342   6.037   1.878   5.032
    1PA     C15 8343   5.863   1.800   5.123
    1PA     H5R 8344   5.800   1.875   5.073
    1PA     H5S 8345   5.807   1.708   5.107
    1PA     C14 8346   5.876   1.832   5.273
    1PA     H4R 8347   5.787   1.874   5.319
    1PA     H4S 8348   5.903   1.742   5.328
    1PA     C13 8349   5.979   1.942   5.302
    1PA     H3R 8350   5.993   1.948   5.410
    1PA     H3S 8351   6.079   1.920   5.264
    1PA     C12 8352   5.940   2.081   5.249
    1PA     H2R 8353   5.933   2.089   5.140
    1PA     H2S 8354   5.844   2.096   5.299
    2PC     C11 8355   6.045   2.181   5.289
    2PC     O12 8356   6.160   2.165   5.253
    2PC     O11 8357   6.007   2.280   5.371
    2PC      C1 8358   6.116   2.359   5.424
    2PC      HR 8359   6.180   2.292   5.482
    2PC      HS 8360   6.171   2.410   5.344
    2PC      C2 8361   6.069   2.467   5.522
    2PC      HX 8362   6.148   2.541   5.530
    2PC      C3 8363   6.040   2.405   5.659
    2PC      HA 8364   5.948   2.345   5.660
    2PC      HB 8365   6.125   2.342   5.686
    2PC     O31 8366   6.020   2.511   5.755
    2PC     P31 8367   6.144   2.591   5.819
    2PC     O32 8368   6.104   2.559   5.971
    2PC     C31 8369   6.106   2.424   6.021
    2PC     H1A 8370   6.029   2.414   6.098
    2PC     H1B 8371   6.091   2.346   5.946
    2PC     C32 8372   6.240   2.398   6.092
    2PC     H2A 8373   6.238   2.298   6.135
    2PC     H2B 8374   6.325   2.422   6.028
    2PC     N31 8375   6.286   2.482   6.208
    2PC     C33 8376   6.219   2.450   6.339
    2PC     H3A 8377   6.128   2.509   6.351
    2PC     H3B 8378   6.200   2.344   6.351
    2PC     H3C 8379   6.297   2.479   6.409
    2PC     C34 8380   6.432   2.452   6.220
    2PC     H4A 8381   6.478   2.516   6.296
    2PC     H4B 8382   6.451   2.348   6.248
    2PC     H4C 8383   6.474   2.468   6.121
    2PC     C35 8384   6.275   2.628   6.177
    2PC     H5A 8385   6.169   2.649   6.166
    2PC     H5B 8386   6.325   2.651   6.082
    2PC     H5C 8387   6.324   2.682   6.258
    2PC     O33 8388   6.278   2.537   5.785
    2PC     O34 8389   6.128   2.734   5.784
    2PC     O21 8390   5.949   2.535   5.478
    2PC     C21 8391   5.952   2.598   5.360
    2PC     O22 8392   6.055   2.627   5.302
    3OL     C12 8393   5.821   2.626   5.291
    3OL     H2R 8394   5.799   2.539   5.228
    3OL     H2S 8395   5.837   2.706   5.219
    3OL     C13 8396   5.705   2.661   5.386
    3OL     H3R 8397   5.724   2.759   5.431
    3OL     H3S 8398   5.689   2.582   5.460
    3OL     C14 8399   5.576   2.670   5.304
    3OL     H4R 8400   5.493   2.691   5.372
    3OL     H4S 8401   5.552   2.581   5.245
    3OL     C15 8402   5.579   2.781   5.198
    3OL     H5R 8403   5.484   2.776   5.145
    3OL     H5S 8404   5.658   2.759   5.125
    3OL     C16 8405   5.583   2.925   5.250
    3OL     H6R 8406   5.689   2.946   5.267
    3OL     H6S 8407   5.527   2.926   5.344
    3OL     C17 8408   5.529   3.028   5.150
    3OL     H7R 8409   5.423   3.010   5.131
    3OL     H7S 8410   5.580   3.016   5.054
    3OL     C18 8411   5.546   3.173   5.197
    3OL     H8R 8412   5.468   3.187   5.273
    3OL     H8S 8413   5.517   3.243   5.118
    3OL     C19 8414   5.681   3.204   5.256
    3OL     H9R 8415   5.692   3.159   5.355
    3OL    C110 8416   5.776   3.283   5.209
    3OL    H10R 8417   5.867   3.305   5.264
    3OL    C111 8418   5.767   3.357   5.078
    3OL    H11R 8419   5.827   3.448   5.067
    3OL    H11S 8420   5.666   3.398   5.066
    3OL    C112 8421   5.805   3.271   4.957
    3OL    H12R 8422   5.744   3.180   4.967
    3OL    H12S 8423   5.909   3.237   4.963
    3OL    C113 8424   5.780   3.337   4.821
    3OL    H13R 8425   5.843   3.425   4.808
    3OL    H13S 8426   5.675   3.368   4.823
    3OL    C114 8427   5.792   3.241   4.702
    3OL    H14R 8428   5.755   3.305   4.621
    3OL    H14S 8429   5.716   3.163   4.708
    3OL    C115 8430   5.930   3.200   4.649
    3OL    H15R 8431   5.995   3.148   4.721
    3OL    H15S 8432   5.978   3.291   4.613
    3OL    C116 8433   5.916   3.107   4.528
    3OL    H16R 8434   6.015   3.098   4.481
    3OL    H16S 8435   5.857   3.155   4.450
    3OL    C117 8436   5.867   2.966   4.565
    3OL    H17R 8437   5.768   2.960   4.610
    3OL    H17S 8438   5.929   2.918   4.641
    3OL    C118 8439   5.883   2.868   4.448
    3OL    H18R 8440   5.809   2.891   4.371
    3OL    H18S 8441   5.859   2.767   4.480
    3OL    H18T 8442   5.987   2.871   4.417
    1PA    C116 8443   5.480   0.993   4.078
    1PA    H16R 8444   5.547   1.023   3.997
    1PA    H16S 8445   5.380   0.972   4.038
    1PA    H16T 8446   5.519   0.902   4.123
    1PA    C115 8447   5.463   1.099   4.188
    1PA    H15R 8448   5.425   1.190   4.141
    1PA    H15S 8449   5.384   1.073   4.259
    1PA    C114 8450   5.590   1.145   4.261
    1PA    H14R 8451   5.649   1.067   4.308
    1PA    H14S 8452   5.652   1.180   4.179
    1PA    C113 8453   5.568   1.270   4.348
    1PA    H13R 8454   5.658   1.332   4.346
    1PA    H13S 8455   5.483   1.335   4.325
    1PA    C112 8456   5.535   1.230   4.492
    1PA    H12R 8457   5.462   1.149   4.486
    1PA    H12S 8458   5.629   1.195   4.535
    1PA    C111 8459   5.485   1.354   4.569
    1PA    H11R 8460   5.551   1.439   4.550
    1PA    H11S 8461   5.386   1.378   4.530
    1PA    C110 8462   5.468   1.330   4.719
    1PA    H10R 8463   5.424   1.421   4.760
    1PA    H10S 8464   5.395   1.253   4.744
    1PA     C19 8465   5.598   1.310   4.798
    1PA     H9R 8466   5.652   1.222   4.762
    1PA     H9S 8467   5.658   1.400   4.782
    1PA     C18 8468   5.575   1.291   4.948
    1PA     H8R 8469   5.545   1.384   4.997
    1PA     H8S 8470   5.493   1.223   4.974
    1PA     C17 8471   5.706   1.240   5.011
    1PA     H7R 8472   5.677   1.212   5.112
    1PA     H7S 8473   5.751   1.159   4.954
    1PA     C16 8474   5.809   1.351   5.039
    1PA     H6R 8475   5.822   1.418   4.954
    1PA     H6S 8476   5.762   1.414   5.115
    1PA     C15 8477   5.937   1.275   5.074
    1PA     H5R 8478   5.924   1.220   5.167
    1PA     H5S 8479   5.957   1.201   4.996
    1PA     C14 8480   6.058   1.367   5.099
    1PA     H4R 8481   6.079   1.419   5.006
    1PA     H4S 8482   6.034   1.440   5.176
    1PA     C13 8483   6.184   1.289   5.138
    1PA     H3R 8484   6.186   1.201   5.074
    1PA     H3S 8485   6.270   1.345   5.100
    1PA     C12 8486   6.195   1.255   5.288
    1PA     H2R 8487   6.121   1.179   5.314
    1PA     H2S 8488   6.289   1.203   5.308
    2PC     C11 8489   6.189   1.371   5.384
    2PC     O12 8490   6.123   1.354   5.484
    2PC     O11 8491   6.256   1.481   5.346
    2PC      C1 8492   6.238   1.601   5.422
    2PC      HR 8493   6.138   1.645   5.423
    2PC      HS 8494   6.255   1.568   5.525
    2PC      C2 8495   6.334   1.710   5.372
    2PC      HX 8496   6.431   1.662   5.356
    2PC      C3 8497   6.347   1.815   5.483
    2PC      HA 8498   6.385   1.780   5.579
    2PC      HB 8499   6.410   1.903   5.463
    2PC     O31 8500   6.216   1.868   5.510
    2PC     P31 8501   6.177   1.907   5.660
    2PC     O32 8502   6.150   1.759   5.713
    2PC     C31 8503   6.017   1.718   5.677
    2PC     H1A 8504   5.940   1.780   5.723
    2PC     H1B 8505   5.997   1.733   5.570
    2PC     C32 8506   6.010   1.570   5.716
    2PC     H2A 8507   5.932   1.517   5.661
    2PC     H2B 8508   6.102   1.526   5.680
    2PC     N31 8509   5.988   1.538   5.861
    2PC     C33 8510   6.114   1.578   5.932
    2PC     H3A 8511   6.129   1.686   5.919
    2PC     H3B 8512   6.095   1.551   6.036
    2PC     H3C 8513   6.198   1.524   5.888
    2PC     C34 8514   5.875   1.619   5.918
    2PC     H4A 8515   5.791   1.593   5.854
    2PC     H4B 8516   5.845   1.584   6.017
    2PC     H4C 8517   5.901   1.725   5.921
    2PC     C35 8518   5.966   1.390   5.867
    2PC     H5A 8519   5.992   1.336   5.776
    2PC     H5B 8520   5.859   1.378   5.888
    2PC     H5C 8521   6.027   1.350   5.947
    2PC     O33 8522   6.294   1.971   5.726
    2PC     O34 8523   6.056   1.991   5.678
    2PC     O21 8524   6.290   1.772   5.250
    2PC     C21 8525   6.365   1.858   5.180
    2PC     O22 8526   6.476   1.882   5.225
    3OL     C12 8527   6.306   1.912   5.053
    3OL     H2R 8528   6.249   2.001   5.079
    3OL     H2S 8529   6.255   1.835   4.995
    3OL     C13 8530   6.415   1.966   4.960
    3OL     H3R 8531   6.485   1.883   4.945
    3OL     H3S 8532   6.462   2.048   5.015
    3OL     C14 8533   6.353   2.022   4.832
    3OL     H4R 8534   6.298   2.113   4.857
    3OL     H4S 8535   6.283   1.953   4.784
    3OL     C15 8536   6.459   2.069   4.731
    3OL     H5R 8537   6.509   1.983   4.686
    3OL     H5S 8538   6.536   2.123   4.787
    3OL     C16 8539   6.396   2.142   4.611
    3OL     H6R 8540   6.295   2.109   4.587
    3OL     H6S 8541   6.457   2.128   4.522
    3OL     C17 8542   6.392   2.292   4.643
    3OL     H7R 8543   6.362   2.313   4.746
    3OL     H7S 8544   6.318   2.347   4.585
    3OL     C18 8545   6.521   2.367   4.605
    3OL     H8R 8546   6.560   2.334   4.509
    3OL     H8S 8547   6.590   2.333   4.683
    3OL     C19 8548   6.498   2.516   4.616
    3OL     H9R 8549   6.481   2.555   4.716
    3OL    C110 8550   6.495   2.600   4.514
    3OL    H10R 8551   6.496   2.707   4.529
    3OL    C111 8552   6.524   2.559   4.371
    3OL    H11R 8553   6.575   2.463   4.356
    3OL    H11S 8554   6.596   2.631   4.332
    3OL    C112 8555   6.399   2.568   4.284
    3OL    H12R 8556   6.342   2.653   4.321
    3OL    H12S 8557   6.340   2.476   4.288
    3OL    C113 8558   6.434   2.583   4.135
    3OL    H13R 8559   6.508   2.507   4.107
    3OL    H13S 8560   6.489   2.677   4.121
    3OL    C114 8561   6.306   2.565   4.052
    3OL    H14R 8562   6.227   2.621   4.102
    3OL    H14S 8563   6.278   2.460   4.062
    3OL    C115 8564   6.327   2.607   3.906
    3OL    H15R 8565   6.235   2.582   3.853
    3OL    H15S 8566   6.409   2.546   3.866
    3OL    C116 8567   6.347   2.758   3.886
    3OL    H16R 8568   6.342   2.776   3.779
    3OL    H16S 8569   6.438   2.802   3.928
    3OL    C117 8570   6.235   2.836   3.957
    3OL    H17R 8571   6.280   2.864   4.052
    3OL    H17S 8572   6.146   2.773   3.954
    3OL    C118 8573   6.192   2.963   3.881
    3OL    H18R 8574   6.273   3.034   3.899
    3OL    H18S 8575   6.099   3.009   3.913
    3OL    H18T 8576   6.181   2.954   3.773
    1PA    C116 8577   1.407   6.019   3.715
    1PA    H16R 8578   1.378   6.095   3.788
    1PA    H16S 8579   1.355   6.051   3.624
    1PA    H16T 8580   1.513   6.030   3.689
    1PA    C115 8581   1.393   5.876   3.768
    1PA    H15R 8582   1.455   5.869   3.858
    1PA    H15S 8583   1.292   5.862   3.805
    1PA    C114 8584   1.419   5.765   3.664
    1PA    H14R 8585   1.394   5.665   3.699
    1PA    H14S 8586   1.376   5.782   3.565
    1PA    C113 8587   1.569   5.760   3.636
    1PA    H13R 8588   1.594   5.861   3.601
    1PA    H13S 8589   1.627   5.741   3.727
    1PA    C112 8590   1.614   5.653   3.535
    1PA    H12R 8591   1.722   5.638   3.546
    1PA    H12S 8592   1.580   5.551   3.555
    1PA    C111 8593   1.577   5.691   3.391
    1PA    H11R 8594   1.468   5.694   3.400
    1PA    H11S 8595   1.611   5.790   3.358
    1PA    C110 8596   1.622   5.588   3.286
    1PA    H10R 8597   1.729   5.584   3.264
    1PA    H10S 8598   1.587   5.492   3.323
    1PA     C19 8599   1.550   5.625   3.155
    1PA     H9R 8600   1.443   5.637   3.173
    1PA     H9S 8601   1.584   5.723   3.121
    1PA     C18 8602   1.582   5.523   3.045
    1PA     H8R 8603   1.683   5.534   3.006
    1PA     H8S 8604   1.578   5.421   3.084
    1PA     C17 8605   1.489   5.547   2.925
    1PA     H7R 8606   1.528   5.478   2.850
    1PA     H7S 8607   1.385   5.517   2.941
    1PA     C16 8608   1.500   5.694   2.880
    1PA     H6R 8609   1.443   5.750   2.954
    1PA     H6S 8610   1.602   5.730   2.889
    1PA     C15 8611   1.440   5.723   2.741
    1PA     H5R 8612   1.332   5.717   2.750
    1PA     H5S 8613   1.470   5.827   2.725
    1PA     C14 8614   1.493   5.632   2.629
    1PA     H4R 8615   1.601   5.638   2.649
    1PA     H4S 8616   1.467   5.527   2.646
    1PA     C13 8617   1.457   5.692   2.493
    1PA     H3R 8618   1.455   5.801   2.506
    1PA     H3S 8619   1.518   5.653   2.411
    1PA     C12 8620   1.317   5.645   2.451
    1PA     H2R 8621   1.311   5.536   2.454
    1PA     H2S 8622   1.251   5.693   2.524
    2PC     C11 8623   1.283   5.687   2.310
    2PC     O12 8624   1.355   5.743   2.231
    2PC     O11 8625   1.156   5.653   2.283
    2PC      C1 8626   1.103   5.702   2.158
    2PC      HR 8627   1.138   5.800   2.126
    2PC      HS 8628   1.141   5.636   2.081
    2PC      C2 8629   0.950   5.703   2.170
    2PC      HX 8630   0.915   5.600   2.168
    2PC      C3 8631   0.884   5.780   2.054
    2PC      HA 8632   0.788   5.733   2.034
    2PC      HB 8633   0.944   5.768   1.964
    2PC     O31 8634   0.857   5.919   2.082
    2PC     P31 8635   0.782   5.999   1.965
    2PC     O32 8636   0.701   5.883   1.889
    2PC     C31 8637   0.580   5.928   1.826
    2PC     H1A 8638   0.512   5.960   1.905
    2PC     H1B 8639   0.603   6.011   1.759
    2PC     C32 8640   0.507   5.819   1.746
    2PC     H2A 8641   0.418   5.861   1.698
    2PC     H2B 8642   0.576   5.799   1.664
    2PC     N31 8643   0.470   5.691   1.814
    2PC     C33 8644   0.380   5.600   1.738
    2PC     H3A 8645   0.277   5.633   1.726
    2PC     H3B 8646   0.422   5.593   1.637
    2PC     H3C 8647   0.379   5.509   1.799
    2PC     C34 8648   0.594   5.610   1.839
    2PC     H4A 8649   0.638   5.600   1.740
    2PC     H4B 8650   0.652   5.662   1.916
    2PC     H4C 8651   0.560   5.509   1.862
    2PC     C35 8652   0.414   5.710   1.952
    2PC     H5A 8653   0.330   5.779   1.943
    2PC     H5B 8654   0.487   5.762   2.013
    2PC     H5C 8655   0.384   5.613   1.992
    2PC     O33 8656   0.689   6.099   2.020
    2PC     O34 8657   0.876   6.063   1.871
    2PC     O21 8658   0.907   5.767   2.292
    2PC     C21 8659   0.789   5.730   2.345
    2PC     O22 8660   0.715   5.650   2.292
    3OL     C12 8661   0.760   5.792   2.479
    3OL     H2R 8662   0.704   5.886   2.471
    3OL     H2S 8663   0.856   5.807   2.528
    3OL     C13 8664   0.663   5.703   2.558
    3OL     H3R 8665   0.698   5.600   2.574
    3OL     H3S 8666   0.568   5.697   2.505
    3OL     C14 8667   0.640   5.759   2.699
    3OL     H4R 8668   0.607   5.863   2.688
    3OL     H4S 8669   0.732   5.753   2.757
    3OL     C15 8670   0.532   5.676   2.770
    3OL     H5R 8671   0.585   5.584   2.794
    3OL     H5S 8672   0.459   5.658   2.691
    3OL     C16 8673   0.463   5.747   2.887
    3OL     H6R 8674   0.411   5.836   2.851
    3OL     H6S 8675   0.539   5.789   2.955
    3OL     C17 8676   0.357   5.659   2.954
    3OL     H7R 8677   0.405   5.564   2.979
    3OL     H7S 8678   0.272   5.647   2.887
    3OL     C18 8679   0.314   5.728   3.085
    3OL     H8R 8680   0.240   5.807   3.067
    3OL     H8S 8681   0.401   5.772   3.134
    3OL     C19 8682   0.252   5.617   3.165
    3OL     H9R 8683   0.156   5.571   3.142
    3OL    C110 8684   0.319   5.576   3.271
    3OL    H10R 8685   0.277   5.494   3.329
    3OL    C111 8686   0.454   5.624   3.318
    3OL    H11R 8687   0.461   5.591   3.422
    3OL    H11S 8688   0.456   5.732   3.333
    3OL    C112 8689   0.576   5.569   3.242
    3OL    H12R 8690   0.563   5.602   3.139
    3OL    H12S 8691   0.585   5.461   3.230
    3OL    C113 8692   0.708   5.612   3.307
    3OL    H13R 8693   0.706   5.719   3.328
    3OL    H13S 8694   0.793   5.586   3.244
    3OL    C114 8695   0.735   5.544   3.442
    3OL    H14R 8696   0.635   5.546   3.485
    3OL    H14S 8697   0.805   5.598   3.506
    3OL    C115 8698   0.787   5.400   3.431
    3OL    H15R 8699   0.865   5.394   3.355
    3OL    H15S 8700   0.707   5.339   3.388
    3OL    C116 8701   0.820   5.345   3.570
    3OL    H16R 8702   0.742   5.338   3.646
    3OL    H16S 8703   0.888   5.424   3.604
    3OL    C117 8704   0.895   5.211   3.566
    3OL    H17R 8705   0.980   5.220   3.498
    3OL    H17S 8706   0.838   5.127   3.526
    3OL    C118 8707   0.948   5.176   3.706
    3OL    H18R 8708   1.026   5.101   3.688
    3OL    H18S 8709   0.865   5.152   3.773
    3OL    H18T 8710   1.003   5.262   3.745
    1PA    C116 8711   1.308   3.962   3.287
    1PA    H16R 8712   1.371   4.025   3.351
    1PA    H16S 8713   1.290   3.860   3.321
    1PA    H16T 8714   1.216   4.020   3.274
    1PA    C115 8715   1.382   3.954   3.154
    1PA    H15R 8716   1.479   3.909   3.178
    1PA    H15S 8717   1.329   3.883   3.091
    1PA    C114 8718   1.382   4.092   3.088
    1PA    H14R 8719   1.279   4.121   3.063
    1PA    H14S 8720   1.432   4.170   3.146
    1PA    C113 8721   1.447   4.083   2.949
    1PA    H13R 8722   1.402   4.008   2.885
    1PA    H13S 8723   1.431   4.178   2.896
    1PA    C112 8724   1.598   4.062   2.966
    1PA    H12R 8725   1.634   4.149   3.021
    1PA    H12S 8726   1.619   3.968   3.017
    1PA    C111 8727   1.665   4.051   2.828
    1PA    H11R 8728   1.766   4.009   2.825
    1PA    H11S 8729   1.602   3.990   2.763
    1PA    C110 8730   1.661   4.187   2.756
    1PA    H10R 8731   1.557   4.221   2.751
    1PA    H10S 8732   1.710   4.258   2.822
    1PA     C19 8733   1.697   4.192   2.607
    1PA     H9R 8734   1.805   4.180   2.593
    1PA     H9S 8735   1.651   4.108   2.555
    1PA     C18 8736   1.666   4.329   2.545
    1PA     H8R 8737   1.558   4.339   2.545
    1PA     H8S 8738   1.708   4.404   2.613
    1PA     C17 8739   1.732   4.340   2.407
    1PA     H7R 8740   1.836   4.305   2.400
    1PA     H7S 8741   1.681   4.284   2.329
    1PA     C16 8742   1.729   4.483   2.352
    1PA     H6R 8743   1.624   4.512   2.363
    1PA     H6S 8744   1.780   4.556   2.415
    1PA     C15 8745   1.762   4.492   2.203
    1PA     H5R 8746   1.861   4.449   2.186
    1PA     H5S 8747   1.691   4.429   2.148
    1PA     C14 8748   1.772   4.633   2.143
    1PA     H4R 8749   1.869   4.668   2.177
    1PA     H4S 8750   1.789   4.641   2.035
    1PA     C13 8751   1.658   4.727   2.185
    1PA     H3R 8752   1.560   4.682   2.167
    1PA     H3S 8753   1.657   4.754   2.290
    1PA     C12 8754   1.664   4.861   2.110
    1PA     H2R 8755   1.616   4.946   2.159
    1PA     H2S 8756   1.770   4.887   2.111
    2PC     C11 8757   1.617   4.859   1.966
    2PC     O12 8758   1.576   4.761   1.908
    2PC     O11 8759   1.615   4.984   1.916
    2PC      C1 8760   1.550   4.995   1.788
    2PC      HR 8761   1.580   5.092   1.747
    2PC      HS 8762   1.588   4.918   1.722
    2PC      C2 8763   1.399   4.982   1.813
    2PC      HX 8764   1.375   4.875   1.820
    2PC      C3 8765   1.329   5.050   1.694
    2PC      HA 8766   1.379   5.033   1.599
    2PC      HB 8767   1.222   5.031   1.686
    2PC     O31 8768   1.348   5.192   1.715
    2PC     P31 8769   1.304   5.295   1.601
    2PC     O32 8770   1.351   5.438   1.656
    2PC     C31 8771   1.484   5.446   1.711
    2PC     H1A 8772   1.472   5.403   1.811
    2PC     H1B 8773   1.548   5.388   1.645
    2PC     C32 8774   1.527   5.592   1.729
    2PC     H2A 8775   1.632   5.590   1.757
    2PC     H2B 8776   1.516   5.635   1.630
    2PC     N31 8777   1.451   5.680   1.824
    2PC     C33 8778   1.442   5.618   1.960
    2PC     H3A 8779   1.545   5.589   1.984
    2PC     H3B 8780   1.405   5.696   2.026
    2PC     H3C 8781   1.379   5.530   1.952
    2PC     C34 8782   1.517   5.814   1.818
    2PC     H4A 8783   1.517   5.865   1.722
    2PC     H4B 8784   1.472   5.882   1.891
    2PC     H4C 8785   1.624   5.812   1.841
    2PC     C35 8786   1.312   5.706   1.774
    2PC     H5A 8787   1.261   5.611   1.791
    2PC     H5B 8788   1.312   5.729   1.667
    2PC     H5C 8789   1.260   5.779   1.836
    2PC     O33 8790   1.356   5.260   1.466
    2PC     O34 8791   1.157   5.296   1.589
    2PC     O21 8792   1.361   5.046   1.936
    2PC     C21 8793   1.233   5.051   1.977
    2PC     O22 8794   1.144   5.010   1.906
    3OL     C12 8795   1.212   5.127   2.105
    3OL     H2R 8796   1.105   5.125   2.130
    3OL     H2S 8797   1.217   5.232   2.076
    3OL     C13 8798   1.315   5.110   2.218
    3OL     H3R 8799   1.410   5.155   2.188
    3OL     H3S 8800   1.343   5.009   2.248
    3OL     C14 8801   1.255   5.173   2.344
    3OL     H4R 8802   1.172   5.113   2.381
    3OL     H4S 8803   1.209   5.272   2.333
    3OL     C15 8804   1.363   5.199   2.449
    3OL     H5R 8805   1.443   5.271   2.430
    3OL     H5S 8806   1.417   5.104   2.460
    3OL     C16 8807   1.301   5.230   2.586
    3OL     H6R 8808   1.224   5.306   2.570
    3OL     H6S 8809   1.385   5.275   2.638
    3OL     C17 8810   1.241   5.104   2.649
    3OL     H7R 8811   1.304   5.016   2.631
    3OL     H7S 8812   1.153   5.067   2.596
    3OL     C18 8813   1.205   5.114   2.798
    3OL     H8R 8814   1.188   5.014   2.837
    3OL     H8S 8815   1.109   5.168   2.804
    3OL     C19 8816   1.312   5.172   2.887
    3OL     H9R 8817   1.350   5.270   2.858
    3OL    C110 8818   1.357   5.117   2.998
    3OL    H10R 8819   1.431   5.168   3.060
    3OL    C111 8820   1.329   4.983   3.062
    3OL    H11R 8821   1.426   4.934   3.061
    3OL    H11S 8822   1.252   4.923   3.013
    3OL    C112 8823   1.288   5.003   3.209
    3OL    H12R 8824   1.180   5.021   3.209
    3OL    H12S 8825   1.338   5.087   3.257
    3OL    C113 8826   1.327   4.875   3.284
    3OL    H13R 8827   1.436   4.881   3.286
    3OL    H13S 8828   1.291   4.784   3.235
    3OL    C114 8829   1.263   4.893   3.422
    3OL    H14R 8830   1.159   4.922   3.412
    3OL    H14S 8831   1.309   4.977   3.475
    3OL    C115 8832   1.275   4.772   3.516
    3OL    H15R 8833   1.380   4.764   3.546
    3OL    H15S 8834   1.248   4.683   3.459
    3OL    C116 8835   1.198   4.773   3.648
    3OL    H16R 8836   1.201   4.669   3.683
    3OL    H16S 8837   1.097   4.809   3.628
    3OL    C117 8838   1.267   4.864   3.750
    3OL    H17R 8839   1.195   4.884   3.830
    3OL    H17S 8840   1.291   4.959   3.703
    3OL    C118 8841   1.395   4.803   3.809
    3OL    H18R 8842   1.442   4.861   3.889
    3OL    H18S 8843   1.471   4.782   3.733
    3OL    H18T 8844   1.349   4.718   3.860
    1PA    C116 8845   3.055   5.959   3.846
    1PA    H16R 8846   3.122   5.919   3.770
    1PA    H16S 8847   3.062   5.880   3.921
    1PA    H16T 8848   3.110   6.045   3.886
    1PA    C115 8849   2.910   5.993   3.810
    1PA    H15R 8850   2.864   5.907   3.762
    1PA    H15S 8851   2.855   6.005   3.904
    1PA    C114 8852   2.899   6.121   3.726
    1PA    H14R 8853   2.794   6.152   3.723
    1PA    H14S 8854   2.950   6.211   3.762
    1PA    C113 8855   2.931   6.102   3.577
    1PA    H13R 8856   3.036   6.075   3.570
    1PA    H13S 8857   2.876   6.023   3.525
    1PA    C112 8858   2.911   6.230   3.495
    1PA    H12R 8859   2.803   6.242   3.490
    1PA    H12S 8860   2.958   6.318   3.540
    1PA    C111 8861   2.972   6.231   3.354
    1PA    H11R 8862   2.934   6.142   3.303
    1PA    H11S 8863   2.935   6.312   3.291
    1PA    C110 8864   3.124   6.247   3.345
    1PA    H10R 8865   3.145   6.318   3.426
    1PA    H10S 8866   3.179   6.155   3.365
    1PA     C19 8867   3.181   6.287   3.208
    1PA     H9R 8868   3.142   6.382   3.172
    1PA     H9S 8869   3.287   6.308   3.222
    1PA     C18 8870   3.163   6.176   3.103
    1PA     H8R 8871   3.219   6.092   3.146
    1PA     H8S 8872   3.059   6.148   3.091
    1PA     C17 8873   3.228   6.221   2.972
    1PA     H7R 8874   3.166   6.299   2.927
    1PA     H7S 8875   3.328   6.261   2.990
    1PA     C16 8876   3.247   6.102   2.877
    1PA     H6R 8877   3.316   6.032   2.924
    1PA     H6S 8878   3.150   6.058   2.854
    1PA     C15 8879   3.309   6.162   2.750
    1PA     H5R 8880   3.244   6.235   2.702
    1PA     H5S 8881   3.410   6.202   2.761
    1PA     C14 8882   3.318   6.044   2.653
    1PA     H4R 8883   3.403   5.985   2.689
    1PA     H4S 8884   3.225   5.987   2.663
    1PA     C13 8885   3.340   6.095   2.509
    1PA     H3R 8886   3.395   6.189   2.510
    1PA     H3S 8887   3.410   6.020   2.472
    1PA     C12 8888   3.209   6.097   2.429
    1PA     H2R 8889   3.149   6.015   2.467
    1PA     H2S 8890   3.159   6.193   2.449
    2PC     C11 8891   3.227   6.082   2.280
    2PC     O12 8892   3.258   6.171   2.204
    2PC     O11 8893   3.226   5.956   2.234
    2PC      C1 8894   3.204   5.926   2.095
    2PC      HR 8895   3.101   5.957   2.074
    2PC      HS 8896   3.271   5.976   2.025
    2PC      C2 8897   3.221   5.773   2.089
    2PC      HX 8898   3.310   5.731   2.135
    2PC      C3 8899   3.194   5.716   1.950
    2PC      HA 8900   3.278   5.648   1.936
    2PC      HB 8901   3.105   5.653   1.946
    2PC     O31 8902   3.185   5.809   1.841
    2PC     P31 8903   3.171   5.762   1.689
    2PC     O32 8904   3.321   5.750   1.635
    2PC     C31 8905   3.381   5.620   1.636
    2PC     H1A 8906   3.357   5.567   1.728
    2PC     H1B 8907   3.362   5.567   1.542
    2PC     C32 8908   3.534   5.637   1.641
    2PC     H2A 8909   3.567   5.671   1.739
    2PC     H2B 8910   3.583   5.541   1.625
    2PC     N31 8911   3.588   5.728   1.535
    2PC     C33 8912   3.529   5.711   1.398
    2PC     H3A 8913   3.522   5.604   1.377
    2PC     H3B 8914   3.431   5.755   1.413
    2PC     H3C 8915   3.577   5.778   1.326
    2PC     C34 8916   3.580   5.874   1.569
    2PC     H4A 8917   3.475   5.904   1.580
    2PC     H4B 8918   3.629   5.888   1.665
    2PC     H4C 8919   3.624   5.935   1.491
    2PC     C35 8920   3.731   5.693   1.511
    2PC     H5A 8921   3.741   5.584   1.506
    2PC     H5B 8922   3.789   5.727   1.596
    2PC     H5C 8923   3.769   5.752   1.427
    2PC     O33 8924   3.093   5.637   1.678
    2PC     O34 8925   3.098   5.855   1.598
    2PC     O21 8926   3.116   5.726   2.175
    2PC     C21 8927   3.115   5.597   2.214
    2PC     O22 8928   3.201   5.517   2.185
    3OL     C12 8929   3.003   5.570   2.312
    3OL     H2R 8930   2.989   5.462   2.317
    3OL     H2S 8931   2.911   5.611   2.271
    3OL     C13 8932   3.043   5.639   2.444
    3OL     H3R 8933   3.084   5.739   2.432
    3OL     H3S 8934   3.120   5.574   2.487
    3OL     C14 8935   2.923   5.642   2.539
    3OL     H4R 8936   2.901   5.537   2.556
    3OL     H4S 8937   2.833   5.684   2.492
    3OL     C15 8938   2.952   5.693   2.681
    3OL     H5R 8939   2.996   5.793   2.675
    3OL     H5S 8940   3.025   5.630   2.732
    3OL     C16 8941   2.820   5.702   2.758
    3OL     H6R 8942   2.771   5.605   2.769
    3OL     H6S 8943   2.741   5.758   2.707
    3OL     C17 8944   2.816   5.776   2.892
    3OL     H7R 8945   2.712   5.806   2.903
    3OL     H7S 8946   2.876   5.867   2.887
    3OL     C18 8947   2.863   5.695   3.014
    3OL     H8R 8948   2.969   5.670   3.020
    3OL     H8S 8949   2.811   5.599   3.003
    3OL     C19 8950   2.812   5.756   3.142
    3OL     H9R 8951   2.705   5.744   3.152
    3OL    C110 8952   2.878   5.831   3.230
    3OL    H10R 8953   2.824   5.874   3.314
    3OL    C111 8954   3.023   5.868   3.217
    3OL    H11R 8955   3.053   5.960   3.267
    3OL    H11S 8956   3.051   5.882   3.112
    3OL    C112 8957   3.112   5.761   3.283
    3OL    H12R 8958   3.094   5.666   3.231
    3OL    H12S 8959   3.086   5.746   3.388
    3OL    C113 8960   3.257   5.808   3.273
    3OL    H13R 8961   3.278   5.897   3.334
    3OL    H13S 8962   3.278   5.834   3.169
    3OL    C114 8963   3.356   5.701   3.321
    3OL    H14R 8964   3.455   5.744   3.303
    3OL    H14S 8965   3.343   5.619   3.250
    3OL    C115 8966   3.353   5.660   3.469
    3OL    H15R 8967   3.247   5.645   3.492
    3OL    H15S 8968   3.392   5.743   3.528
    3OL    C116 8969   3.434   5.534   3.502
    3OL    H16R 8970   3.538   5.556   3.478
    3OL    H16S 8971   3.398   5.452   3.440
    3OL    C117 8972   3.432   5.499   3.652
    3OL    H17R 8973   3.331   5.474   3.684
    3OL    H17S 8974   3.453   5.587   3.713
    3OL    C118 8975   3.523   5.378   3.677
    3OL    H18R 8976   3.546   5.355   3.781
    3OL    H18S 8977   3.619   5.385   3.626
    3OL    H18T 8978   3.473   5.293   3.629
    1PA    C116 8979   2.613   4.950   3.692
    1PA    H16R 8980   2.675   4.979   3.607
    1PA    H16S 8981   2.528   4.890   3.661
    1PA    H16T 8982   2.667   4.896   3.771
    1PA    C115 8983   2.558   5.082   3.748
    1PA    H15R 8984   2.492   5.056   3.831
    1PA    H15S 8985   2.637   5.144   3.791
    1PA    C114 8986   2.487   5.158   3.635
    1PA    H14R 8987   2.469   5.257   3.679
    1PA    H14S 8988   2.550   5.178   3.548
    1PA    C113 8989   2.350   5.094   3.613
    1PA    H13R 8990   2.360   4.990   3.582
    1PA    H13S 8991   2.299   5.084   3.709
    1PA    C112 8992   2.260   5.177   3.521
    1PA    H12R 8993   2.281   5.283   3.539
    1PA    H12S 8994   2.278   5.154   3.416
    1PA    C111 8995   2.110   5.151   3.534
    1PA    H11R 8996   2.094   5.061   3.474
    1PA    H11S 8997   2.082   5.133   3.638
    1PA    C110 8998   2.022   5.264   3.480
    1PA    H10R 8999   1.918   5.239   3.497
    1PA    H10S 9000   2.024   5.363   3.527
    1PA     C19 9001   2.042   5.278   3.328
    1PA     H9R 9002   2.142   5.321   3.321
    1PA     H9S 9003   2.038   5.186   3.270
    1PA     C18 9004   1.937   5.367   3.261
    1PA     H8R 9005   1.832   5.348   3.284
    1PA     H8S 9006   1.950   5.469   3.299
    1PA     C17 9007   1.961   5.371   3.109
    1PA     H7R 9008   2.046   5.307   3.084
    1PA     H7S 9009   1.871   5.336   3.060
    1PA     C16 9010   1.993   5.515   3.067
    1PA     H6R 9011   1.905   5.577   3.086
    1PA     H6S 9012   2.085   5.551   3.114
    1PA     C15 9013   2.004   5.514   2.914
    1PA     H5R 9014   2.085   5.449   2.878
    1PA     H5S 9015   1.915   5.475   2.865
    1PA     C14 9016   2.019   5.660   2.871
    1PA     H4R 9017   1.934   5.720   2.907
    1PA     H4S 9018   2.112   5.703   2.908
    1PA     C13 9019   2.023   5.685   2.719
    1PA     H3R 9020   2.074   5.778   2.695
    1PA     H3S 9021   2.075   5.601   2.674
    1PA     C12 9022   1.884   5.687   2.654
    1PA     H2R 9023   1.853   5.582   2.651
    1PA     H2S 9024   1.819   5.745   2.720
    2PC     C11 9025   1.888   5.748   2.516
    2PC     O12 9026   1.837   5.853   2.485
    2PC     O11 9027   1.962   5.677   2.430
    2PC      C1 9028   2.001   5.723   2.299
    2PC      HR 9029   2.060   5.644   2.252
    2PC      HS 9030   1.908   5.740   2.245
    2PC      C2 9031   2.096   5.844   2.300
    2PC      HX 9032   2.078   5.907   2.387
    2PC      C3 9033   2.075   5.925   2.171
    2PC      HA 9034   1.981   5.978   2.189
    2PC      HB 9035   2.156   5.995   2.152
    2PC     O31 9036   2.063   5.840   2.055
    2PC     P31 9037   2.037   5.911   1.914
    2PC     O32 9038   2.110   5.802   1.822
    2PC     C31 9039   2.252   5.795   1.836
    2PC     H1A 9040   2.297   5.881   1.785
    2PC     H1B 9041   2.294   5.801   1.936
    2PC     C32 9042   2.310   5.676   1.758
    2PC     H2A 9043   2.293   5.697   1.652
    2PC     H2B 9044   2.416   5.656   1.771
    2PC     N31 9045   2.253   5.539   1.779
    2PC     C33 9046   2.345   5.442   1.711
    2PC     H3A 9047   2.302   5.342   1.701
    2PC     H3B 9048   2.377   5.488   1.618
    2PC     H3C 9049   2.435   5.424   1.770
    2PC     C34 9050   2.237   5.513   1.926
    2PC     H4A 9051   2.162   5.586   1.955
    2PC     H4B 9052   2.196   5.412   1.935
    2PC     H4C 9053   2.338   5.520   1.968
    2PC     C35 9054   2.126   5.520   1.703
    2PC     H5A 9055   2.043   5.579   1.742
    2PC     H5B 9056   2.095   5.416   1.711
    2PC     H5C 9057   2.130   5.553   1.599
    2PC     O33 9058   1.891   5.924   1.893
    2PC     O34 9059   2.089   6.049   1.898
    2PC     O21 9060   2.227   5.787   2.295
    2PC     C21 9061   2.334   5.862   2.323
    2PC     O22 9062   2.324   5.980   2.352
    3OL     C12 9063   2.466   5.790   2.316
    3OL     H2R 9064   2.542   5.868   2.324
    3OL     H2S 9065   2.464   5.736   2.221
    3OL     C13 9066   2.481   5.679   2.421
    3OL     H3R 9067   2.580   5.633   2.419
    3OL     H3S 9068   2.412   5.598   2.398
    3OL     C14 9069   2.453   5.726   2.565
    3OL     H4R 9070   2.354   5.770   2.561
    3OL     H4S 9071   2.523   5.807   2.585
    3OL     C15 9072   2.469   5.614   2.669
    3OL     H5R 9073   2.572   5.578   2.675
    3OL     H5S 9074   2.410   5.528   2.637
    3OL     C16 9075   2.413   5.665   2.803
    3OL     H6R 9076   2.318   5.716   2.785
    3OL     H6S 9077   2.481   5.741   2.842
    3OL     C17 9078   2.401   5.544   2.896
    3OL     H7R 9079   2.499   5.497   2.904
    3OL     H7S 9080   2.333   5.468   2.858
    3OL     C18 9081   2.354   5.594   3.034
    3OL     H8R 9082   2.255   5.641   3.029
    3OL     H8S 9083   2.418   5.671   3.077
    3OL     C19 9084   2.346   5.477   3.129
    3OL     H9R 9085   2.318   5.379   3.091
    3OL    C110 9086   2.373   5.475   3.259
    3OL    H10R 9087   2.373   5.382   3.315
    3OL    C111 9088   2.381   5.595   3.350
    3OL    H11R 9089   2.309   5.584   3.431
    3OL    H11S 9090   2.366   5.695   3.308
    3OL    C112 9091   2.518   5.594   3.420
    3OL    H12R 9092   2.598   5.631   3.355
    3OL    H12S 9093   2.545   5.489   3.434
    3OL    C113 9094   2.528   5.678   3.548
    3OL    H13R 9095   2.460   5.630   3.618
    3OL    H13S 9096   2.477   5.774   3.532
    3OL    C114 9097   2.669   5.709   3.599
    3OL    H14R 9098   2.661   5.770   3.689
    3OL    H14S 9099   2.719   5.763   3.518
    3OL    C115 9100   2.762   5.590   3.625
    3OL    H15R 9101   2.697   5.503   3.622
    3OL    H15S 9102   2.788   5.606   3.730
    3OL    C116 9103   2.880   5.578   3.527
    3OL    H16R 9104   2.934   5.671   3.543
    3OL    H16S 9105   2.847   5.581   3.422
    3OL    C117 9106   2.965   5.454   3.553
    3OL    H17R 9107   2.999   5.440   3.656
    3OL    H17S 9108   3.061   5.471   3.504
    3OL    C118 9109   2.890   5.333   3.495
    3OL    H18R 9110   2.846   5.349   3.396
    3OL    H18S 9111   2.805   5.304   3.557
    3OL    H18T 9112   2.953   5.245   3.487
    1PA    C116 9113   0.860   4.368   3.763
    1PA    H16R 9114   0.781   4.303   3.725
    1PA    H16S 9115   0.825   4.425   3.850
    1PA    H16T 9116   0.943   4.317   3.812
    1PA    C115 9117   0.911   4.468   3.658
    1PA    H15R 9118   0.830   4.531   3.623
    1PA    H15S 9119   0.984   4.537   3.701
    1PA    C114 9120   0.967   4.391   3.538
    1PA    H14R 9121   1.041   4.315   3.565
    1PA    H14S 9122   0.887   4.333   3.492
    1PA    C113 9123   1.024   4.487   3.432
    1PA    H13R 9124   0.968   4.579   3.414
    1PA    H13S 9125   1.107   4.529   3.489
    1PA    C112 9126   1.055   4.430   3.293
    1PA    H12R 9127   1.112   4.338   3.309
    1PA    H12S 9128   0.955   4.402   3.258
    1PA    C111 9129   1.113   4.537   3.200
    1PA    H11R 9130   1.036   4.613   3.187
    1PA    H11S 9131   1.205   4.577   3.244
    1PA    C110 9132   1.164   4.509   3.058
    1PA    H10R 9133   1.223   4.418   3.046
    1PA    H10S 9134   1.076   4.483   2.998
    1PA     C19 9135   1.234   4.627   2.989
    1PA     H9R 9136   1.164   4.711   2.983
    1PA     H9S 9137   1.316   4.652   3.056
    1PA     C18 9138   1.284   4.595   2.848
    1PA     H8R 9139   1.358   4.514   2.849
    1PA     H8S 9140   1.191   4.568   2.799
    1PA     C17 9141   1.350   4.709   2.770
    1PA     H7R 9142   1.275   4.789   2.776
    1PA     H7S 9143   1.443   4.735   2.820
    1PA     C16 9144   1.375   4.677   2.622
    1PA     H6R 9145   1.445   4.753   2.584
    1PA     H6S 9146   1.428   4.583   2.604
    1PA     C15 9147   1.250   4.698   2.536
    1PA     H5R 9148   1.163   4.642   2.570
    1PA     H5S 9149   1.228   4.805   2.537
    1PA     C14 9150   1.280   4.654   2.392
    1PA     H4R 9151   1.361   4.712   2.346
    1PA     H4S 9152   1.316   4.551   2.392
    1PA     C13 9153   1.158   4.655   2.299
    1PA     H3R 9154   1.177   4.595   2.210
    1PA     H3S 9155   1.076   4.621   2.361
    1PA     C12 9156   1.130   4.794   2.241
    1PA     H2R 9157   1.077   4.857   2.313
    1PA     H2S 9158   1.224   4.835   2.204
    2PC     C11 9159   1.041   4.786   2.119
    2PC     O12 9160   1.078   4.749   2.010
    2PC     O11 9161   0.916   4.829   2.142
    2PC      C1 9162   0.824   4.823   2.032
    2PC      HR 9163   0.872   4.870   1.946
    2PC      HS 9164   0.786   4.722   2.015
    2PC      C2 9165   0.695   4.904   2.054
    2PC      HX 9166   0.648   4.864   2.144
    2PC      C3 9167   0.603   4.904   1.931
    2PC      HA 9168   0.561   4.805   1.913
    2PC      HB 9169   0.522   4.974   1.954
    2PC     O31 9170   0.672   4.956   1.817
    2PC     P31 9171   0.637   4.893   1.674
    2PC     O32 9172   0.736   4.980   1.582
    2PC     C31 9173   0.878   4.960   1.588
    2PC     H1A 9174   0.906   4.954   1.694
    2PC     H1B 9175   0.908   4.867   1.538
    2PC     C32 9176   0.945   5.077   1.515
    2PC     H2A 9177   0.896   5.170   1.544
    2PC     H2B 9178   1.049   5.098   1.544
    2PC     N31 9179   0.937   5.091   1.366
    2PC     C33 9180   0.995   4.967   1.305
    2PC     H3A 9181   1.019   4.987   1.201
    2PC     H3B 9182   1.088   4.937   1.355
    2PC     H3C 9183   0.919   4.889   1.315
    2PC     C34 9184   0.795   5.111   1.320
    2PC     H4A 9185   0.749   5.207   1.344
    2PC     H4B 9186   0.788   5.087   1.214
    2PC     H4C 9187   0.737   5.039   1.378
    2PC     C35 9188   1.022   5.203   1.317
    2PC     H5A 9189   1.124   5.169   1.338
    2PC     H5B 9190   0.995   5.288   1.379
    2PC     H5C 9191   0.998   5.216   1.211
    2PC     O33 9192   0.666   4.748   1.665
    2PC     O34 9193   0.493   4.913   1.645
    2PC     O21 9194   0.733   5.042   2.068
    2PC     C21 9195   0.726   5.096   2.191
    2PC     O22 9196   0.684   5.037   2.288
    3OL     C12 9197   0.781   5.236   2.195
    3OL     H2R 9198   0.706   5.309   2.164
    3OL     H2S 9199   0.858   5.230   2.117
    3OL     C13 9200   0.845   5.259   2.333
    3OL     H3R 9201   0.882   5.167   2.377
    3OL     H3S 9202   0.924   5.333   2.337
    3OL     C14 9203   0.745   5.328   2.427
    3OL     H4R 9204   0.651   5.271   2.432
    3OL     H4S 9205   0.719   5.428   2.394
    3OL     C15 9206   0.802   5.332   2.569
    3OL     H5R 9207   0.821   5.234   2.613
    3OL     H5S 9208   0.719   5.362   2.634
    3OL     C16 9209   0.923   5.425   2.589
    3OL     H6R 9210   0.915   5.515   2.528
    3OL     H6S 9211   1.009   5.378   2.541
    3OL     C17 9212   0.953   5.459   2.735
    3OL     H7R 9213   0.977   5.370   2.793
    3OL     H7S 9214   0.870   5.502   2.793
    3OL     C18 9215   1.071   5.557   2.737
    3OL     H8R 9216   1.157   5.520   2.681
    3OL     H8S 9217   1.102   5.569   2.841
    3OL     C19 9218   1.044   5.694   2.678
    3OL     H9R 9219   1.050   5.704   2.570
    3OL    C110 9220   1.010   5.804   2.742
    3OL    H10R 9221   0.992   5.897   2.688
    3OL    C111 9222   0.985   5.808   2.891
    3OL    H11R 9223   0.954   5.716   2.941
    3OL    H11S 9224   0.898   5.867   2.919
    3OL    C112 9225   1.094   5.875   2.976
    3OL    H12R 9226   1.100   5.984   2.965
    3OL    H12S 9227   1.189   5.828   2.950
    3OL    C113 9228   1.067   5.858   3.126
    3OL    H13R 9229   0.961   5.875   3.144
    3OL    H13S 9230   1.114   5.943   3.177
    3OL    C114 9231   1.123   5.730   3.190
    3OL    H14R 9232   1.227   5.706   3.169
    3OL    H14S 9233   1.063   5.648   3.152
    3OL    C115 9234   1.096   5.735   3.341
    3OL    H15R 9235   0.989   5.733   3.359
    3OL    H15S 9236   1.149   5.825   3.375
    3OL    C116 9237   1.167   5.612   3.400
    3OL    H16R 9238   1.272   5.620   3.371
    3OL    H16S 9239   1.128   5.521   3.355
    3OL    C117 9240   1.136   5.589   3.549
    3OL    H17R 9241   1.029   5.569   3.556
    3OL    H17S 9242   1.163   5.677   3.608
    3OL    C118 9243   1.220   5.465   3.581
    3OL    H18R 9244   1.208   5.434   3.685
    3OL    H18S 9245   1.325   5.494   3.573
    3OL    H18T 9246   1.194   5.376   3.523
    1PA    C116 9247   1.290   2.959   3.550
    1PA    H16R 9248   1.354   3.043   3.578
    1PA    H16S 9249   1.286   2.874   3.618
    1PA    H16T 9250   1.188   2.995   3.538
    1PA    C115 9251   1.326   2.909   3.409
    1PA    H15R 9252   1.305   2.988   3.336
    1PA    H15S 9253   1.432   2.886   3.395
    1PA    C114 9254   1.240   2.788   3.372
    1PA    H14R 9255   1.251   2.708   3.446
    1PA    H14S 9256   1.134   2.812   3.368
    1PA    C113 9257   1.283   2.739   3.233
    1PA    H13R 9258   1.381   2.689   3.231
    1PA    H13S 9259   1.218   2.652   3.217
    1PA    C112 9260   1.272   2.843   3.121
    1PA    H12R 9261   1.173   2.890   3.131
    1PA    H12S 9262   1.343   2.925   3.129
    1PA    C111 9263   1.281   2.783   2.980
    1PA    H11R 9264   1.207   2.703   2.973
    1PA    H11S 9265   1.234   2.862   2.920
    1PA    C110 9266   1.427   2.754   2.940
    1PA    H10R 9267   1.503   2.813   2.990
    1PA    H10S 9268   1.449   2.657   2.985
    1PA     C19 9269   1.452   2.749   2.788
    1PA     H9R 9270   1.549   2.704   2.769
    1PA     H9S 9271   1.362   2.701   2.750
    1PA     C18 9272   1.457   2.893   2.735
    1PA     H8R 9273   1.374   2.955   2.771
    1PA     H8S 9274   1.548   2.937   2.775
    1PA     C17 9275   1.475   2.893   2.583
    1PA     H7R 9276   1.573   2.852   2.556
    1PA     H7S 9277   1.391   2.834   2.543
    1PA     C16 9278   1.460   3.037   2.532
    1PA     H6R 9279   1.376   3.094   2.573
    1PA     H6S 9280   1.553   3.087   2.560
    1PA     C15 9281   1.440   3.031   2.380
    1PA     H5R 9282   1.528   2.980   2.342
    1PA     H5S 9283   1.350   2.972   2.362
    1PA     C14 9284   1.443   3.164   2.305
    1PA     H4R 9285   1.529   3.228   2.327
    1PA     H4S 9286   1.446   3.136   2.199
    1PA     C13 9287   1.310   3.237   2.325
    1PA     H3R 9288   1.227   3.178   2.364
    1PA     H3S 9289   1.330   3.318   2.396
    1PA     C12 9290   1.273   3.306   2.192
    1PA     H2R 9291   1.282   3.239   2.107
    1PA     H2S 9292   1.177   3.358   2.201
    2PC     C11 9293   1.365   3.423   2.167
    2PC     O12 9294   1.452   3.458   2.243
    2PC     O11 9295   1.337   3.471   2.045
    2PC      C1 9296   1.424   3.569   1.985
    2PC      HR 9297   1.476   3.631   2.058
    2PC      HS 9298   1.502   3.537   1.916
    2PC      C2 9299   1.325   3.662   1.914
    2PC      HX 9300   1.254   3.602   1.857
    2PC      C3 9301   1.390   3.775   1.833
    2PC      HA 9302   1.431   3.857   1.891
    2PC      HB 9303   1.469   3.726   1.775
    2PC     O31 9304   1.294   3.837   1.745
    2PC     P31 9305   1.355   3.915   1.619
    2PC     O32 9306   1.441   3.808   1.538
    2PC     C31 9307   1.369   3.715   1.455
    2PC     H1A 9308   1.280   3.765   1.417
    2PC     H1B 9309   1.437   3.689   1.372
    2PC     C32 9310   1.335   3.597   1.547
    2PC     H2A 9311   1.415   3.576   1.618
    2PC     H2B 9312   1.247   3.627   1.605
    2PC     N31 9313   1.305   3.466   1.480
    2PC     C33 9314   1.248   3.366   1.575
    2PC     H3A 9315   1.245   3.263   1.539
    2PC     H3B 9316   1.298   3.372   1.671
    2PC     H3C 9317   1.147   3.404   1.593
    2PC     C34 9318   1.210   3.487   1.366
    2PC     H4A 9319   1.245   3.569   1.302
    2PC     H4B 9320   1.197   3.393   1.313
    2PC     H4C 9321   1.108   3.511   1.396
    2PC     C35 9322   1.437   3.419   1.428
    2PC     H5A 9323   1.464   3.476   1.339
    2PC     H5B 9324   1.428   3.317   1.391
    2PC     H5C 9325   1.507   3.420   1.512
    2PC     O33 9326   1.247   3.968   1.533
    2PC     O34 9327   1.415   4.044   1.661
    2PC     O21 9328   1.267   3.740   2.021
    2PC     C21 9329   1.141   3.785   2.007
    2PC     O22 9330   1.066   3.763   1.914
    3OL     C12 9331   1.110   3.877   2.122
    3OL     H2R 9332   1.003   3.891   2.139
    3OL     H2S 9333   1.155   3.975   2.105
    3OL     C13 9334   1.173   3.824   2.252
    3OL     H3R 9335   1.173   3.910   2.320
    3OL     H3S 9336   1.278   3.802   2.234
    3OL     C14 9337   1.107   3.697   2.308
    3OL     H4R 9338   1.104   3.619   2.232
    3OL     H4S 9339   1.005   3.719   2.338
    3OL     C15 9340   1.178   3.629   2.425
    3OL     H5R 9341   1.284   3.613   2.404
    3OL     H5S 9342   1.139   3.527   2.437
    3OL     C16 9343   1.138   3.702   2.554
    3OL     H6R 9344   1.029   3.713   2.557
    3OL     H6S 9345   1.190   3.798   2.545
    3OL     C17 9346   1.194   3.639   2.682
    3OL     H7R 9347   1.303   3.645   2.670
    3OL     H7S 9348   1.170   3.533   2.691
    3OL     C18 9349   1.166   3.713   2.813
    3OL     H8R 9350   1.194   3.817   2.795
    3OL     H8S 9351   1.232   3.675   2.891
    3OL     C19 9352   1.018   3.695   2.836
    3OL     H9R 9353   0.950   3.720   2.755
    3OL    C110 9354   0.961   3.660   2.951
    3OL    H10R 9355   0.855   3.641   2.965
    3OL    C111 9356   1.034   3.634   3.081
    3OL    H11R 9357   1.057   3.733   3.122
    3OL    H11S 9358   1.123   3.575   3.057
    3OL    C112 9359   0.942   3.566   3.182
    3OL    H12R 9360   0.911   3.468   3.145
    3OL    H12S 9361   0.850   3.621   3.201
    3OL    C113 9362   1.024   3.535   3.308
    3OL    H13R 9363   1.038   3.628   3.364
    3OL    H13S 9364   1.122   3.500   3.273
    3OL    C114 9365   0.962   3.428   3.399
    3OL    H14R 9366   0.853   3.437   3.394
    3OL    H14S 9367   0.992   3.429   3.504
    3OL    C115 9368   0.994   3.290   3.342
    3OL    H15R 9369   1.100   3.266   3.345
    3OL    H15S 9370   0.955   3.285   3.239
    3OL    C116 9371   0.916   3.182   3.419
    3OL    H16R 9372   0.809   3.198   3.430
    3OL    H16S 9373   0.953   3.180   3.522
    3OL    C117 9374   0.934   3.041   3.360
    3OL    H17R 9375   0.913   2.979   3.448
    3OL    H17S 9376   1.036   3.029   3.325
    3OL    C118 9377   0.829   3.004   3.254
    3OL    H18R 9378   0.854   3.060   3.164
    3OL    H18S 9379   0.728   3.033   3.282
    3OL    H18T 9380   0.820   2.899   3.226
    1PA    C116 9381   3.864   4.771   3.888
    1PA    H16R 9382   3.904   4.682   3.936
    1PA    H16S 9383   3.759   4.773   3.917
    1PA    H16T 9384   3.921   4.858   3.922
    1PA    C115 9385   3.866   4.772   3.734
    1PA    H15R 9386   3.972   4.771   3.706
    1PA    H15S 9387   3.824   4.682   3.689
    1PA    C114 9388   3.794   4.895   3.678
    1PA    H14R 9389   3.807   4.981   3.745
    1PA    H14S 9390   3.820   4.929   3.578
    1PA    C113 9391   3.643   4.869   3.660
    1PA    H13R 9392   3.638   4.782   3.594
    1PA    H13S 9393   3.604   4.838   3.757
    1PA    C112 9394   3.573   4.987   3.591
    1PA    H12R 9395   3.591   5.076   3.653
    1PA    H12S 9396   3.613   4.986   3.490
    1PA    C111 9397   3.425   4.947   3.579
    1PA    H11R 9398   3.405   4.872   3.503
    1PA    H11S 9399   3.393   4.911   3.677
    1PA    C110 9400   3.319   5.053   3.551
    1PA    H10R 9401   3.218   5.013   3.563
    1PA    H10S 9402   3.327   5.139   3.618
    1PA     C19 9403   3.348   5.117   3.414
    1PA     H9R 9404   3.443   5.170   3.415
    1PA     H9S 9405   3.346   5.050   3.328
    1PA     C18 9406   3.240   5.222   3.382
    1PA     H8R 9407   3.142   5.174   3.386
    1PA     H8S 9408   3.239   5.297   3.461
    1PA     C17 9409   3.264   5.286   3.245
    1PA     H7R 9410   3.357   5.344   3.249
    1PA     H7S 9411   3.264   5.200   3.177
    1PA     C16 9412   3.141   5.365   3.200
    1PA     H6R 9413   3.048   5.314   3.226
    1PA     H6S 9414   3.139   5.462   3.251
    1PA     C15 9415   3.154   5.400   3.051
    1PA     H5R 9416   3.076   5.471   3.023
    1PA     H5S 9417   3.249   5.450   3.031
    1PA     C14 9418   3.137   5.277   2.960
    1PA     H4R 9419   3.202   5.194   2.987
    1PA     H4S 9420   3.032   5.251   2.970
    1PA     C13 9421   3.178   5.315   2.817
    1PA     H3R 9422   3.093   5.377   2.785
    1PA     H3S 9423   3.274   5.365   2.801
    1PA     C12 9424   3.180   5.184   2.739
    1PA     H2R 9425   3.246   5.116   2.793
    1PA     H2S 9426   3.084   5.132   2.749
    2PC     C11 9427   3.217   5.188   2.593
    2PC     O12 9428   3.254   5.285   2.530
    2PC     O11 9429   3.195   5.069   2.535
    2PC      C1 9430   3.221   5.046   2.395
    2PC      HR 9431   3.153   4.971   2.353
    2PC      HS 9432   3.195   5.134   2.335
    2PC      C2 9433   3.364   5.003   2.360
    2PC      HX 9434   3.427   5.088   2.386
    2PC      C3 9435   3.373   4.957   2.214
    2PC      HA 9436   3.288   4.890   2.197
    2PC      HB 9437   3.349   5.033   2.138
    2PC     O31 9438   3.498   4.895   2.181
    2PC     P31 9439   3.517   4.862   2.026
    2PC     O32 9440   3.583   4.995   1.966
    2PC     C31 9441   3.721   5.034   1.987
    2PC     H1A 9442   3.754   5.035   2.091
    2PC     H1B 9443   3.785   4.966   1.929
    2PC     C32 9444   3.744   5.173   1.927
    2PC     H2A 9445   3.850   5.196   1.937
    2PC     H2B 9446   3.728   5.191   1.820
    2PC     N31 9447   3.679   5.286   2.000
    2PC     C33 9448   3.678   5.270   2.149
    2PC     H3A 9449   3.777   5.241   2.183
    2PC     H3B 9450   3.652   5.368   2.191
    2PC     H3C 9451   3.614   5.185   2.174
    2PC     C34 9452   3.744   5.417   1.965
    2PC     H4A 9453   3.698   5.500   2.019
    2PC     H4B 9454   3.849   5.401   1.993
    2PC     H4C 9455   3.747   5.435   1.858
    2PC     C35 9456   3.535   5.298   1.960
    2PC     H5A 9457   3.489   5.200   1.971
    2PC     H5B 9458   3.528   5.340   1.859
    2PC     H5C 9459   3.478   5.369   2.020
    2PC     O33 9460   3.614   4.752   2.005
    2PC     O34 9461   3.389   4.827   1.960
    2PC     O21 9462   3.406   4.891   2.439
    2PC     C21 9463   3.334   4.778   2.450
    2PC     O22 9464   3.248   4.739   2.373
    3OL     C12 9465   3.377   4.697   2.570
    3OL     H2R 9466   3.339   4.740   2.663
    3OL     H2S 9467   3.485   4.712   2.574
    3OL     C13 9468   3.336   4.550   2.557
    3OL     H3R 9469   3.389   4.504   2.473
    3OL     H3S 9470   3.228   4.548   2.544
    3OL     C14 9471   3.375   4.467   2.681
    3OL     H4R 9472   3.339   4.367   2.656
    3OL     H4S 9473   3.309   4.498   2.762
    3OL     C15 9474   3.524   4.470   2.717
    3OL     H5R 9475   3.552   4.575   2.728
    3OL     H5S 9476   3.582   4.434   2.632
    3OL     C16 9477   3.568   4.402   2.847
    3OL     H6R 9478   3.507   4.437   2.931
    3OL     H6S 9479   3.672   4.424   2.869
    3OL     C17 9480   3.543   4.251   2.838
    3OL     H7R 9481   3.619   4.220   2.766
    3OL     H7S 9482   3.443   4.234   2.798
    3OL     C18 9483   3.557   4.174   2.970
    3OL     H8R 9484   3.526   4.070   2.963
    3OL     H8S 9485   3.495   4.224   3.045
    3OL     C19 9486   3.705   4.179   2.997
    3OL     H9R 9487   3.758   4.240   2.923
    3OL    C110 9488   3.760   4.120   3.102
    3OL    H10R 9489   3.869   4.115   3.108
    3OL    C111 9490   3.687   4.048   3.212
    3OL    H11R 9491   3.727   3.949   3.236
    3OL    H11S 9492   3.586   4.017   3.187
    3OL    C112 9493   3.701   4.128   3.342
    3OL    H12R 9494   3.634   4.214   3.335
    3OL    H12S 9495   3.805   4.159   3.350
    3OL    C113 9496   3.670   4.032   3.458
    3OL    H13R 9497   3.741   3.948   3.455
    3OL    H13S 9498   3.564   4.009   3.450
    3OL    C114 9499   3.674   4.114   3.587
    3OL    H14R 9500   3.622   4.210   3.584
    3OL    H14S 9501   3.781   4.135   3.593
    3OL    C115 9502   3.619   4.032   3.705
    3OL    H15R 9503   3.522   3.985   3.692
    3OL    H15S 9504   3.611   4.104   3.787
    3OL    C116 9505   3.713   3.919   3.747
    3OL    H16R 9506   3.814   3.960   3.752
    3OL    H16S 9507   3.707   3.843   3.669
    3OL    C117 9508   3.683   3.858   3.885
    3OL    H17R 9509   3.666   3.940   3.955
    3OL    H17S 9510   3.768   3.799   3.919
    3OL    C118 9511   3.552   3.778   3.883
    3OL    H18R 9512   3.573   3.700   3.810
    3OL    H18S 9513   3.467   3.844   3.862
    3OL    H18T 9514   3.534   3.730   3.980
    1PA    C116 9515   4.343   4.223   3.499
    1PA    H16R 9516   4.249   4.276   3.483
    1PA    H16S 9517   4.379   4.187   3.403
    1PA    H16T 9518   4.407   4.300   3.544
    1PA    C115 9519   4.330   4.113   3.606
    1PA    H15R 9520   4.428   4.088   3.647
    1PA    H15S 9521   4.280   4.163   3.689
    1PA    C114 9522   4.250   3.988   3.569
    1PA    H14R 9523   4.288   3.938   3.480
    1PA    H14S 9524   4.262   3.913   3.647
    1PA    C113 9525   4.101   4.024   3.561
    1PA    H13R 9526   4.070   4.054   3.661
    1PA    H13S 9527   4.072   4.115   3.508
    1PA    C112 9528   4.021   3.897   3.528
    1PA    H12R 9529   4.066   3.805   3.566
    1PA    H12S 9530   3.924   3.898   3.580
    1PA    C111 9531   4.013   3.867   3.378
    1PA    H11R 9532   3.958   3.943   3.323
    1PA    H11S 9533   4.116   3.874   3.340
    1PA    C110 9534   3.964   3.723   3.354
    1PA    H10R 9535   4.041   3.662   3.402
    1PA    H10S 9536   3.869   3.719   3.409
    1PA     C19 9537   3.967   3.676   3.208
    1PA     H9R 9538   4.068   3.646   3.180
    1PA     H9S 9539   3.914   3.581   3.202
    1PA     C18 9540   3.900   3.775   3.111
    1PA     H8R 9541   3.792   3.770   3.125
    1PA     H8S 9542   3.942   3.875   3.129
    1PA     C17 9543   3.944   3.733   2.971
    1PA     H7R 9544   4.052   3.728   2.952
    1PA     H7S 9545   3.905   3.634   2.944
    1PA     C16 9546   3.879   3.826   2.867
    1PA     H6R 9547   3.777   3.792   2.848
    1PA     H6S 9548   3.873   3.925   2.912
    1PA     C15 9549   3.960   3.836   2.737
    1PA     H5R 9550   4.057   3.885   2.749
    1PA     H5S 9551   3.986   3.736   2.702
    1PA     C14 9552   3.885   3.915   2.629
    1PA     H4R 9553   3.926   3.887   2.532
    1PA     H4S 9554   3.784   3.876   2.613
    1PA     C13 9555   3.867   4.063   2.664
    1PA     H3R 9556   3.817   4.079   2.759
    1PA     H3S 9557   3.960   4.121   2.665
    1PA     C12 9558   3.786   4.131   2.552
    1PA     H2R 9559   3.699   4.066   2.538
    1PA     H2S 9560   3.748   4.227   2.587
    2PC     C11 9561   3.854   4.133   2.417
    2PC     O12 9562   3.842   4.039   2.341
    2PC     O11 9563   3.937   4.235   2.395
    2PC      C1 9564   4.005   4.247   2.268
    2PC      HR 9565   4.105   4.282   2.295
    2PC      HS 9566   4.024   4.152   2.218
    2PC      C2 9567   3.935   4.342   2.170
    2PC      HX 9568   3.846   4.284   2.146
    2PC      C3 9569   4.006   4.359   2.035
    2PC      HA 9570   4.089   4.429   2.049
    2PC      HB 9571   4.042   4.263   1.997
    2PC     O31 9572   3.910   4.411   1.942
    2PC     P31 9573   3.962   4.473   1.804
    2PC     O32 9574   4.055   4.360   1.739
    2PC     C31 9575   3.994   4.239   1.691
    2PC     H1A 9576   3.953   4.179   1.772
    2PC     H1B 9577   3.914   4.266   1.621
    2PC     C32 9578   4.088   4.155   1.602
    2PC     H2A 9579   4.045   4.061   1.568
    2PC     H2B 9580   4.105   4.213   1.511
    2PC     N31 9581   4.223   4.119   1.654
    2PC     C33 9582   4.202   4.015   1.760
    2PC     H3A 9583   4.151   4.058   1.846
    2PC     H3B 9584   4.136   3.941   1.714
    2PC     H3C 9585   4.297   3.979   1.798
    2PC     C34 9586   4.302   4.058   1.542
    2PC     H4A 9587   4.327   4.142   1.476
    2PC     H4B 9588   4.392   4.014   1.583
    2PC     H4C 9589   4.240   3.981   1.496
    2PC     C35 9590   4.297   4.234   1.716
    2PC     H5A 9591   4.399   4.198   1.731
    2PC     H5B 9592   4.246   4.260   1.809
    2PC     H5C 9593   4.308   4.318   1.647
    2PC     O33 9594   3.851   4.518   1.716
    2PC     O34 9595   4.043   4.590   1.846
    2PC     O21 9596   3.909   4.472   2.226
    2PC     C21 9597   3.785   4.514   2.255
    2PC     O22 9598   3.686   4.444   2.253
    3OL     C12 9599   3.788   4.660   2.295
    3OL     H2R 9600   3.702   4.709   2.250
    3OL     H2S 9601   3.882   4.704   2.261
    3OL     C13 9602   3.772   4.678   2.447
    3OL     H3R 9603   3.682   4.622   2.473
    3OL     H3S 9604   3.749   4.785   2.459
    3OL     C14 9605   3.891   4.643   2.536
    3OL     H4R 9606   3.976   4.711   2.522
    3OL     H4S 9607   3.932   4.546   2.508
    3OL     C15 9608   3.857   4.643   2.686
    3OL     H5R 9609   3.932   4.579   2.733
    3OL     H5S 9610   3.755   4.608   2.701
    3OL     C16 9611   3.873   4.779   2.757
    3OL     H6R 9612   3.804   4.846   2.706
    3OL     H6S 9613   3.975   4.818   2.749
    3OL     C17 9614   3.855   4.780   2.909
    3OL     H7R 9615   3.778   4.709   2.940
    3OL     H7S 9616   3.835   4.882   2.943
    3OL     C18 9617   3.979   4.728   2.982
    3OL     H8R 9618   4.070   4.767   2.936
    3OL     H8S 9619   3.992   4.619   2.975
    3OL     C19 9620   3.956   4.753   3.129
    3OL     H9R 9621   3.965   4.857   3.158
    3OL    C110 9622   3.920   4.666   3.222
    3OL    H10R 9623   3.895   4.719   3.314
    3OL    C111 9624   3.890   4.519   3.214
    3OL    H11R 9625   3.917   4.481   3.115
    3OL    H11S 9626   3.784   4.496   3.222
    3OL    C112 9627   3.960   4.433   3.320
    3OL    H12R 9628   4.069   4.442   3.326
    3OL    H12S 9629   3.943   4.330   3.291
    3OL    C113 9630   3.902   4.466   3.459
    3OL    H13R 9631   3.794   4.455   3.455
    3OL    H13S 9632   3.929   4.570   3.479
    3OL    C114 9633   3.967   4.378   3.567
    3OL    H14R 9634   4.076   4.384   3.573
    3OL    H14S 9635   3.952   4.273   3.541
    3OL    C115 9636   3.922   4.400   3.712
    3OL    H15R 9637   3.815   4.379   3.710
    3OL    H15S 9638   3.932   4.505   3.740
    3OL    C116 9639   3.973   4.298   3.815
    3OL    H16R 9640   3.957   4.196   3.778
    3OL    H16S 9641   3.910   4.302   3.903
    3OL    C117 9642   4.121   4.327   3.844
    3OL    H17R 9643   4.132   4.426   3.889
    3OL    H17S 9644   4.183   4.317   3.755
    3OL    C118 9645   4.175   4.222   3.943
    3OL    H18R 9646   4.109   4.194   4.025
    3OL    H18S 9647   4.267   4.262   3.986
    3OL    H18T 9648   4.191   4.137   3.877
    1PA    C116 9649   1.900   5.857   3.985
    1PA    H16R 9650   1.839   5.925   4.044
    1PA    H16S 9651   2.006   5.855   4.013
    1PA    H16T 9652   1.869   5.753   3.999
    1PA    C115 9653   1.901   5.910   3.841
    1PA    H15R 9654   1.805   5.949   3.808
    1PA    H15S 9655   1.965   5.998   3.829
    1PA    C114 9656   1.949   5.800   3.746
    1PA    H14R 9657   2.048   5.761   3.772
    1PA    H14S 9658   1.885   5.711   3.750
    1PA    C113 9659   1.947   5.843   3.599
    1PA    H13R 9660   1.843   5.865   3.577
    1PA    H13S 9661   2.007   5.935   3.592
    1PA    C112 9662   2.003   5.741   3.499
    1PA    H12R 9663   2.102   5.718   3.539
    1PA    H12S 9664   1.933   5.659   3.518
    1PA    C111 9665   2.000   5.784   3.352
    1PA    H11R 9666   2.036   5.703   3.288
    1PA    H11S 9667   1.896   5.808   3.326
    1PA    C110 9668   2.090   5.906   3.329
    1PA    H10R 9669   2.055   5.993   3.385
    1PA    H10S 9670   2.190   5.886   3.366
    1PA     C19 9671   2.093   5.952   3.182
    1PA     H9R 9672   2.133   5.870   3.123
    1PA     H9S 9673   1.995   5.984   3.146
    1PA     C18 9674   2.196   6.061   3.151
    1PA     H8R 9675   2.189   6.146   3.219
    1PA     H8S 9676   2.293   6.023   3.184
    1PA     C17 9677   2.200   6.112   3.007
    1PA     H7R 9678   2.110   6.166   2.980
    1PA     H7S 9679   2.286   6.179   2.997
    1PA     C16 9680   2.208   6.001   2.901
    1PA     H6R 9681   2.301   5.950   2.925
    1PA     H6S 9682   2.121   5.936   2.902
    1PA     C15 9683   2.219   6.064   2.761
    1PA     H5R 9684   2.294   6.142   2.775
    1PA     H5S 9685   2.267   5.991   2.695
    1PA     C14 9686   2.087   6.124   2.714
    1PA     H4R 9687   2.013   6.044   2.717
    1PA     H4S 9688   2.048   6.203   2.778
    1PA     C13 9689   2.095   6.181   2.572
    1PA     H3R 9690   2.163   6.265   2.569
    1PA     H3S 9691   2.129   6.106   2.500
    1PA     C12 9692   1.961   6.244   2.531
    1PA     H2R 9693   1.889   6.164   2.549
    1PA     H2S 9694   1.927   6.317   2.605
    2PC     C11 9695   1.947   6.285   2.386
    2PC     O12 9696   2.035   6.285   2.302
    2PC     O11 9697   1.820   6.319   2.359
    2PC      C1 9698   1.786   6.369   2.228
    2PC      HR 9699   1.813   6.474   2.220
    2PC      HS 9700   1.825   6.308   2.146
    2PC      C2 9701   1.635   6.351   2.207
    2PC      HX 9702   1.611   6.246   2.226
    2PC      C3 9703   1.589   6.394   2.067
    2PC      HA 9704   1.650   6.340   1.994
    2PC      HB 9705   1.484   6.367   2.053
    2PC     O31 9706   1.619   6.532   2.042
    2PC     P31 9707   1.572   6.597   1.903
    2PC     O32 9708   1.652   6.735   1.897
    2PC     C31 9709   1.721   6.762   1.774
    2PC     H1A 9710   1.807   6.695   1.780
    2PC     H1B 9711   1.666   6.743   1.682
    2PC     C32 9712   1.770   6.908   1.769
    2PC     H2A 9713   1.685   6.975   1.784
    2PC     H2B 9714   1.824   6.929   1.862
    2PC     N31 9715   1.844   6.956   1.649
    2PC     C33 9716   1.907   7.087   1.684
    2PC     H3A 9717   1.825   7.159   1.698
    2PC     H3B 9718   1.952   7.075   1.782
    2PC     H3C 9719   1.977   7.118   1.607
    2PC     C34 9720   1.959   6.862   1.632
    2PC     H4A 9721   2.024   6.853   1.720
    2PC     H4B 9722   1.925   6.762   1.603
    2PC     H4C 9723   2.018   6.919   1.560
    2PC     C35 9724   1.770   6.963   1.518
    2PC     H5A 9725   1.696   6.882   1.516
    2PC     H5B 9726   1.846   6.956   1.440
    2PC     H5C 9727   1.713   7.056   1.518
    2PC     O33 9728   1.601   6.503   1.792
    2PC     O34 9729   1.431   6.644   1.900
    2PC     O21 9730   1.566   6.439   2.298
    2PC     C21 9731   1.435   6.414   2.310
    2PC     O22 9732   1.372   6.328   2.251
    3OL     C12 9733   1.377   6.505   2.415
    3OL     H2R 9734   1.269   6.495   2.422
    3OL     H2S 9735   1.395   6.605   2.376
    3OL     C13 9736   1.451   6.497   2.550
    3OL     H3R 9737   1.554   6.533   2.550
    3OL     H3S 9738   1.446   6.391   2.576
    3OL     C14 9739   1.377   6.587   2.650
    3OL     H4R 9740   1.280   6.541   2.670
    3OL     H4S 9741   1.357   6.685   2.606
    3OL     C15 9742   1.446   6.601   2.786
    3OL     H5R 9743   1.555   6.594   2.789
    3OL     H5S 9744   1.405   6.513   2.836
    3OL     C16 9745   1.396   6.719   2.870
    3OL     H6R 9746   1.287   6.721   2.864
    3OL     H6S 9747   1.439   6.807   2.822
    3OL     C17 9748   1.454   6.711   3.012
    3OL     H7R 9749   1.561   6.693   3.007
    3OL     H7S 9750   1.404   6.629   3.065
    3OL     C18 9751   1.412   6.841   3.081
    3OL     H8R 9752   1.307   6.860   3.062
    3OL     H8S 9753   1.460   6.921   3.023
    3OL     C19 9754   1.450   6.845   3.227
    3OL     H9R 9755   1.550   6.887   3.232
    3OL    C110 9756   1.381   6.830   3.339
    3OL    H10R 9757   1.424   6.839   3.439
    3OL    C111 9758   1.235   6.794   3.342
    3OL    H11R 9759   1.182   6.833   3.256
    3OL    H11S 9760   1.190   6.839   3.430
    3OL    C112 9761   1.226   6.641   3.356
    3OL    H12R 9762   1.291   6.611   3.437
    3OL    H12S 9763   1.246   6.593   3.259
    3OL    C113 9764   1.091   6.607   3.420
    3OL    H13R 9765   1.073   6.652   3.518
    3OL    H13S 9766   1.096   6.505   3.459
    3OL    C114 9767   0.979   6.639   3.320
    3OL    H14R 9768   0.990   6.737   3.272
    3OL    H14S 9769   0.884   6.643   3.374
    3OL    C115 9770   0.962   6.537   3.207
    3OL    H15R 9771   0.931   6.438   3.242
    3OL    H15S 9772   1.057   6.509   3.159
    3OL    C116 9773   0.851   6.566   3.106
    3OL    H16R 9774   0.758   6.593   3.157
    3OL    H16S 9775   0.822   6.480   3.046
    3OL    C117 9776   0.894   6.673   3.005
    3OL    H17R 9777   0.899   6.775   3.044
    3OL    H17S 9778   0.808   6.668   2.937
    3OL    C118 9779   1.017   6.625   2.928
    3OL    H18R 9780   1.107   6.639   2.989
    3OL    H18S 9781   1.023   6.694   2.843
    3OL    H18T 9782   1.003   6.523   2.892
    1PA    C116 9783   7.328   0.806   3.059
    1PA    H16R 9784   7.276   0.871   2.989
    1PA    H16S 9785   7.412   0.758   3.009
    1PA    H16T 9786   7.363   0.866   3.143
    1PA    C115 9787   7.241   0.693   3.117
    1PA    H15R 9788   7.145   0.735   3.150
    1PA    H15S 9789   7.229   0.615   3.041
    1PA    C114 9790   7.302   0.624   3.239
    1PA    H14R 9791   7.401   0.587   3.211
    1PA    H14S 9792   7.309   0.697   3.319
    1PA    C113 9793   7.215   0.510   3.294
    1PA    H13R 9794   7.187   0.461   3.201
    1PA    H13S 9795   7.271   0.436   3.350
    1PA    C112 9796   7.101   0.560   3.384
    1PA    H12R 9797   7.137   0.607   3.476
    1PA    H12S 9798   7.045   0.637   3.330
    1PA    C111 9799   7.004   0.445   3.417
    1PA    H11R 9800   6.910   0.484   3.457
    1PA    H11S 9801   6.980   0.391   3.326
    1PA    C110 9802   7.075   0.356   3.520
    1PA    H10R 9803   7.171   0.314   3.487
    1PA    H10S 9804   7.092   0.418   3.608
    1PA     C19 9805   6.986   0.245   3.577
    1PA     H9R 9806   7.039   0.202   3.662
    1PA     H9S 9807   6.890   0.275   3.618
    1PA     C18 9808   6.961   0.136   3.471
    1PA     H8R 9809   6.926   0.180   3.377
    1PA     H8S 9810   7.055   0.088   3.445
    1PA     C17 9811   6.866   0.029   3.527
    1PA     H7R 9812   6.882  -0.070   3.486
    1PA     H7S 9813   6.882   0.015   3.634
    1PA     C16 9814   6.716   0.054   3.500
    1PA     H6R 9815   6.662  -0.013   3.568
    1PA     H6S 9816   6.695   0.157   3.528
    1PA     C15 9817   6.684   0.026   3.353
    1PA     H5R 9818   6.756   0.084   3.294
    1PA     H5S 9819   6.702  -0.079   3.333
    1PA     C14 9820   6.540   0.069   3.323
    1PA     H4R 9821   6.464   0.010   3.376
    1PA     H4S 9822   6.528   0.174   3.348
    1PA     C13 9823   6.512   0.045   3.174
    1PA     H3R 9824   6.589   0.094   3.114
    1PA     H3S 9825   6.521  -0.061   3.151
    1PA     C12 9826   6.368   0.091   3.144
    1PA     H2R 9827   6.294   0.063   3.219
    1PA     H2S 9828   6.364   0.199   3.156
    2PC     C11 9829   6.318   0.053   3.007
    2PC     O12 9830   6.357  -0.032   2.929
    2PC     O11 9831   6.203   0.116   2.976
    2PC      C1 9832   6.141   0.110   2.846
    2PC      HR 9833   6.066   0.188   2.830
    2PC      HS 9834   6.225   0.124   2.778
    2PC      C2 9835   6.071  -0.026   2.831
    2PC      HX 9836   6.133  -0.106   2.871
    2PC      C3 9837   6.050  -0.060   2.682
    2PC      HA 9838   6.149  -0.057   2.635
    2PC      HB 9839   6.019  -0.164   2.672
    2PC     O31 9840   5.956   0.027   2.617
    2PC     P31 9841   5.921   0.006   2.462
    2PC     O32 9842   6.019   0.107   2.385
    2PC     C31 9843   5.977   0.149   2.254
    2PC     H1A 9844   5.955   0.062   2.192
    2PC     H1B 9845   5.884   0.206   2.263
    2PC     C32 9846   6.074   0.247   2.186
    2PC     H2A 9847   6.067   0.253   2.077
    2PC     H2B 9848   6.059   0.350   2.219
    2PC     N31 9849   6.220   0.242   2.217
    2PC     C33 9850   6.254   0.290   2.355
    2PC     H3A 9851   6.207   0.218   2.423
    2PC     H3B 9852   6.361   0.281   2.371
    2PC     H3C 9853   6.214   0.391   2.368
    2PC     C34 9854   6.270   0.102   2.198
    2PC     H4A 9855   6.249   0.048   2.290
    2PC     H4B 9856   6.218   0.057   2.114
    2PC     H4C 9857   6.378   0.105   2.181
    2PC     C35 9858   6.281   0.339   2.120
    2PC     H5A 9859   6.275   0.292   2.021
    2PC     H5B 9860   6.381   0.350   2.163
    2PC     H5C 9861   6.229   0.434   2.113
    2PC     O33 9862   5.932  -0.134   2.417
    2PC     O34 9863   5.776   0.020   2.435
    2PC     O21 9864   5.947  -0.016   2.903
    2PC     C21 9865   5.867  -0.124   2.904
    2PC     O22 9866   5.904  -0.232   2.862
    3OL     C12 9867   5.727  -0.099   2.952
    3OL     H2R 9868   5.658  -0.147   2.882
    3OL     H2S 9869   5.706   0.008   2.954
    3OL     C13 9870   5.716  -0.139   3.100
    3OL     H3R 9871   5.771  -0.072   3.168
    3OL     H3S 9872   5.754  -0.241   3.108
    3OL     C14 9873   5.569  -0.138   3.142
    3OL     H4R 9874   5.516  -0.058   3.090
    3OL     H4S 9875   5.569  -0.121   3.250
    3OL     C15 9876   5.497  -0.272   3.116
    3OL     H5R 9877   5.537  -0.362   3.162
    3OL     H5S 9878   5.513  -0.290   3.010
    3OL     C16 9879   5.349  -0.260   3.155
    3OL     H6R 9880   5.296  -0.194   3.087
    3OL     H6S 9881   5.339  -0.213   3.253
    3OL     C17 9882   5.288  -0.400   3.140
    3OL     H7R 9883   5.344  -0.461   3.211
    3OL     H7S 9884   5.299  -0.437   3.037
    3OL     C18 9885   5.143  -0.403   3.191
    3OL     H8R 9886   5.142  -0.358   3.291
    3OL     H8S 9887   5.108  -0.504   3.209
    3OL     C19 9888   5.051  -0.316   3.109
    3OL     H9R 9889   5.091  -0.215   3.112
    3OL    C110 9890   4.932  -0.357   3.068
    3OL    H10R 9891   4.870  -0.279   3.024
    3OL    C111 9892   4.859  -0.487   3.086
    3OL    H11R 9893   4.921  -0.562   3.135
    3OL    H11S 9894   4.837  -0.534   2.989
    3OL    C112 9895   4.735  -0.472   3.176
    3OL    H12R 9896   4.670  -0.559   3.187
    3OL    H12S 9897   4.673  -0.387   3.147
    3OL    C113 9898   4.784  -0.427   3.314
    3OL    H13R 9899   4.839  -0.334   3.301
    3OL    H13S 9900   4.854  -0.500   3.357
    3OL    C114 9901   4.660  -0.410   3.403
    3OL    H14R 9902   4.609  -0.506   3.416
    3OL    H14S 9903   4.594  -0.338   3.354
    3OL    C115 9904   4.696  -0.363   3.544
    3OL    H15R 9905   4.735  -0.261   3.546
    3OL    H15S 9906   4.773  -0.433   3.578
    3OL    C116 9907   4.572  -0.373   3.634
    3OL    H16R 9908   4.610  -0.371   3.736
    3OL    H16S 9909   4.530  -0.473   3.621
    3OL    C117 9910   4.459  -0.270   3.619
    3OL    H17R 9911   4.417  -0.275   3.518
    3OL    H17S 9912   4.514  -0.177   3.636
    3OL    C118 9913   4.348  -0.270   3.725
    3OL    H18R 9914   4.265  -0.334   3.693
    3OL    H18S 9915   4.314  -0.169   3.747
    3OL    H18T 9916   4.395  -0.308   3.816
    1PA    C116 9917   2.792   0.522   3.745
    1PA    H16R 9918   2.699   0.511   3.801
    1PA    H16S 9919   2.873   0.542   3.815
    1PA    H16T 9920   2.809   0.429   3.690
    1PA    C115 9921   2.779   0.640   3.648
    1PA    H15R 9922   2.875   0.655   3.597
    1PA    H15S 9923   2.711   0.616   3.566
    1PA    C114 9924   2.732   0.771   3.712
    1PA    H14R 9925   2.632   0.761   3.754
    1PA    H14S 9926   2.798   0.798   3.794
    1PA    C113 9927   2.726   0.888   3.612
    1PA    H13R 9928   2.678   0.973   3.661
    1PA    H13S 9929   2.823   0.911   3.568
    1PA    C112 9930   2.620   0.855   3.507
    1PA    H12R 9931   2.648   0.775   3.438
    1PA    H12S 9932   2.528   0.816   3.552
    1PA    C111 9933   2.585   0.978   3.423
    1PA    H11R 9934   2.676   1.035   3.404
    1PA    H11S 9935   2.532   0.950   3.331
    1PA    C110 9936   2.477   1.064   3.490
    1PA    H10R 9937   2.388   1.005   3.509
    1PA    H10S 9938   2.517   1.098   3.586
    1PA     C19 9939   2.456   1.195   3.412
    1PA     H9R 9940   2.414   1.268   3.481
    1PA     H9S 9941   2.545   1.241   3.370
    1PA     C18 9942   2.352   1.168   3.302
    1PA     H8R 9943   2.372   1.073   3.251
    1PA     H8S 9944   2.269   1.152   3.370
    1PA     C17 9945   2.343   1.301   3.227
    1PA     H7R 9946   2.247   1.292   3.177
    1PA     H7S 9947   2.348   1.396   3.281
    1PA     C16 9948   2.451   1.306   3.117
    1PA     H6R 9949   2.456   1.408   3.078
    1PA     H6S 9950   2.554   1.296   3.151
    1PA     C15 9951   2.426   1.213   2.998
    1PA     H5R 9952   2.463   1.114   3.025
    1PA     H5S 9953   2.321   1.206   2.968
    1PA     C14 9954   2.510   1.259   2.878
    1PA     H4R 9955   2.486   1.361   2.844
    1PA     H4S 9956   2.613   1.260   2.914
    1PA     C13 9957   2.489   1.151   2.771
    1PA     H3R 9958   2.579   1.136   2.711
    1PA     H3S 9959   2.466   1.056   2.819
    1PA     C12 9960   2.372   1.185   2.677
    1PA     H2R 9961   2.287   1.169   2.743
    1PA     H2S 9962   2.376   1.283   2.630
    2PC     C11 9963   2.354   1.089   2.562
    2PC     O12 9964   2.454   1.061   2.500
    2PC     O11 9965   2.226   1.057   2.540
    2PC      C1 9966   2.184   0.977   2.427
    2PC      HR 9967   2.078   0.956   2.426
    2PC      HS 9968   2.199   1.033   2.335
    2PC      C2 9969   2.259   0.845   2.405
    2PC      HX 9970   2.367   0.862   2.404
    2PC      C3 9971   2.230   0.756   2.284
    2PC      HA 9972   2.264   0.806   2.193
    2PC      HB 9973   2.279   0.660   2.300
    2PC     O31 9974   2.089   0.749   2.264
    2PC     P31 9975   2.032   0.690   2.126
    2PC     O32 9976   1.929   0.602   2.212
    2PC     C31 9977   1.790   0.638   2.204
    2PC     H1A 9978   1.782   0.744   2.231
    2PC     H1B 9979   1.751   0.617   2.104
    2PC     C32 9980   1.723   0.542   2.303
    2PC     H2A 9981   1.793   0.509   2.380
    2PC     H2B 9982   1.629   0.584   2.338
    2PC     N31 9983   1.685   0.404   2.257
    2PC     C33 9984   1.795   0.332   2.184
    2PC     H3A 9985   1.753   0.233   2.162
    2PC     H3B 9986   1.812   0.373   2.085
    2PC     H3C 9987   1.880   0.333   2.252
    2PC     C34 9988   1.656   0.317   2.375
    2PC     H4A 9989   1.573   0.370   2.421
    2PC     H4B 9990   1.626   0.214   2.354
    2PC     H4C 9991   1.747   0.323   2.434
    2PC     C35 9992   1.576   0.407   2.154
    2PC     H5A 9993   1.495   0.472   2.190
    2PC     H5B 9994   1.548   0.303   2.142
    2PC     H5C 9995   1.615   0.442   2.058
    2PC     O33 9996   1.984   0.783   2.021
    2PC     O34 9997   2.119   0.593   2.056
    2PC     O21 9998   2.224   0.774   2.525
    2PC     C21 9999   2.316   0.694   2.583
    2PC     O2210000   2.420   0.663   2.529
    3OL     C1210001   2.277   0.651   2.722
    3OL     H2R10002   2.330   0.563   2.760
    3OL     H2S10003   2.171   0.626   2.713
    3OL     C1310004   2.285   0.772   2.817
    3OL     H3R10005   2.215   0.849   2.784
    3OL     H3S10006   2.388   0.806   2.823
    3OL     C1410007   2.254   0.723   2.959
    3OL     H4R10008   2.313   0.635   2.984
    3OL     H4S10009   2.151   0.689   2.960
    3OL     C1510010   2.271   0.830   3.069
    3OL     H5R10011   2.262   0.932   3.034
    3OL     H5S10012   2.376   0.814   3.095
    3OL     C1610013   2.181   0.800   3.189
    3OL     H6R10014   2.075   0.808   3.167
    3OL     H6S10015   2.199   0.877   3.264
    3OL     C1710016   2.215   0.669   3.261
    3OL     H7R10017   2.227   0.585   3.193
    3OL     H7S10018   2.137   0.637   3.329
    3OL     C1810019   2.347   0.676   3.340
    3OL     H8R10020   2.343   0.754   3.417
    3OL     H8S10021   2.428   0.704   3.272
    3OL     C1910022   2.378   0.540   3.397
    3OL     H9R10023   2.447   0.482   3.336
    3OL    C11010024   2.329   0.493   3.511
    3OL    H10R10025   2.363   0.399   3.555
    3OL    C11110026   2.230   0.564   3.599
    3OL    H11R10027   2.144   0.502   3.619
    3OL    H11S10028   2.183   0.656   3.563
    3OL    C11210029   2.293   0.587   3.737
    3OL    H12R10030   2.381   0.652   3.727
    3OL    H12S10031   2.330   0.491   3.773
    3OL    C11310032   2.197   0.659   3.832
    3OL    H13R10033   2.108   0.599   3.849
    3OL    H13S10034   2.165   0.749   3.779
    3OL    C11410035   2.253   0.701   3.969
    3OL    H14R10036   2.182   0.763   4.024
    3OL    H14S10037   2.342   0.757   3.939
    3OL    C11510038   2.296   0.576   4.046
    3OL    H15R10039   2.356   0.513   3.980
    3OL    H15S10040   2.208   0.514   4.066
    3OL    C11610041   2.359   0.617   4.180
    3OL    H16R10042   2.288   0.664   4.248
    3OL    H16S10043   2.436   0.693   4.173
    3OL    C11710044   2.416   0.492   4.249
    3OL    H17R10045   2.348   0.407   4.243
    3OL    H17S10046   2.426   0.522   4.354
    3OL    C11810047   2.549   0.444   4.190
    3OL    H18R10048   2.525   0.375   4.110
    3OL    H18S10049   2.593   0.529   4.137
    3OL    H18T10050   2.614   0.395   4.263
    1PA    C11610051   3.289   3.068   4.165
    1PA    H16R10052   3.375   3.006   4.190
    1PA    H16S10053   3.282   3.158   4.226
    1PA    H16T10054   3.190   3.025   4.184
    1PA    C11510055   3.287   3.121   4.021
    1PA    H15R10056   3.277   3.037   3.952
    1PA    H15S10057   3.205   3.193   4.007
    1PA    C11410058   3.421   3.184   3.983
    1PA    H14R10059   3.440   3.266   4.054
    1PA    H14S10060   3.485   3.097   4.002
    1PA    C11310061   3.425   3.235   3.838
    1PA    H13R10062   3.531   3.250   3.818
    1PA    H13S10063   3.388   3.156   3.772
    1PA    C11210064   3.341   3.362   3.824
    1PA    H12R10065   3.237   3.339   3.847
    1PA    H12S10066   3.372   3.446   3.887
    1PA    C11110067   3.357   3.414   3.680
    1PA    H11R10068   3.456   3.453   3.656
    1PA    H11S10069   3.316   3.333   3.621
    1PA    C11010070   3.270   3.540   3.672
    1PA    H10R10071   3.178   3.523   3.728
    1PA    H10S10072   3.327   3.629   3.699
    1PA     C1910073   3.233   3.565   3.526
    1PA     H9R10074   3.190   3.476   3.478
    1PA     H9S10075   3.155   3.641   3.524
    1PA     C1810076   3.355   3.602   3.441
    1PA     H8R10077   3.417   3.673   3.496
    1PA     H8S10078   3.419   3.516   3.420
    1PA     C1710079   3.308   3.653   3.304
    1PA     H7R10080   3.260   3.571   3.250
    1PA     H7S10081   3.234   3.733   3.310
    1PA     C1610082   3.423   3.708   3.218
    1PA     H6R10083   3.463   3.801   3.260
    1PA     H6S10084   3.506   3.639   3.203
    1PA     C1510085   3.372   3.744   3.078
    1PA     H5R10086   3.322   3.650   3.053
    1PA     H5S10087   3.297   3.823   3.085
    1PA     C1410088   3.486   3.783   2.983
    1PA     H4R10089   3.533   3.869   3.030
    1PA     H4S10090   3.566   3.709   2.971
    1PA     C1310091   3.433   3.820   2.844
    1PA     H3R10092   3.356   3.749   2.813
    1PA     H3S10093   3.392   3.921   2.847
    1PA     C1210094   3.542   3.828   2.736
    1PA     H2R10095   3.618   3.899   2.771
    1PA     H2S10096   3.578   3.725   2.731
    2PC     C1110097   3.496   3.873   2.600
    2PC     O1210098   3.552   3.832   2.500
    2PC     O1110099   3.416   3.981   2.602
    2PC      C110100   3.370   4.039   2.479
    2PC      HR10101   3.316   4.130   2.506
    2PC      HS10102   3.458   4.056   2.415
    2PC      C210103   3.266   3.951   2.409
    2PC      HX10104   3.322   3.861   2.380
    2PC      C310105   3.215   4.027   2.286
    2PC      HA10106   3.178   4.125   2.318
    2PC      HB10107   3.299   4.051   2.220
    2PC     O3110108   3.106   3.973   2.210
    2PC     P3110109   3.094   4.009   2.055
    2PC     O3210110   2.969   3.911   2.031
    2PC     C3110111   2.933   3.898   1.893
    2PC     H1A10112   2.913   3.989   1.837
    2PC     H1B10113   3.015   3.834   1.858
    2PC     C3210114   2.807   3.811   1.881
    2PC     H2A10115   2.818   3.759   1.786
    2PC     H2B10116   2.795   3.737   1.960
    2PC     N3110117   2.672   3.874   1.890
    2PC     C3310118   2.637   3.916   2.030
    2PC     H3A10119   2.634   3.827   2.094
    2PC     H3B10120   2.709   3.990   2.063
    2PC     H3C10121   2.536   3.958   2.028
    2PC     C3410122   2.666   3.996   1.803
    2PC     H4A10123   2.700   3.967   1.703
    2PC     H4B10124   2.567   4.040   1.786
    2PC     H4C10125   2.725   4.077   1.847
    2PC     C3510126   2.571   3.779   1.833
    2PC     H5A10127   2.481   3.841   1.825
    2PC     H5B10128   2.556   3.707   1.914
    2PC     H5C10129   2.608   3.743   1.737
    2PC     O3310130   3.060   4.150   2.025
    2PC     O3410131   3.222   3.967   1.993
    2PC     O2110132   3.147   3.928   2.487
    2PC     C2110133   3.136   3.812   2.552
    2PC     O2210134   3.207   3.715   2.536
    3OL     C1210135   3.025   3.812   2.654
    3OL     H2R10136   2.985   3.710   2.647
    3OL     H2S10137   2.940   3.873   2.623
    3OL     C1310138   3.058   3.856   2.798
    3OL     H3R10139   3.115   3.949   2.801
    3OL     H3S10140   3.124   3.775   2.831
    3OL     C1410141   2.937   3.864   2.891
    3OL     H4R10142   2.878   3.772   2.892
    3OL     H4S10143   2.876   3.947   2.855
    3OL     C1510144   2.978   3.891   3.037
    3OL     H5R10145   3.032   3.985   3.027
    3OL     H5S10146   3.054   3.821   3.073
    3OL     C1610147   2.854   3.913   3.125
    3OL     H6R10148   2.809   3.815   3.146
    3OL     H6S10149   2.782   3.971   3.068
    3OL     C1710150   2.888   3.982   3.257
    3OL     H7R10151   2.918   4.086   3.249
    3OL     H7S10152   2.981   3.933   3.288
    3OL     C1810153   2.780   3.972   3.366
    3OL     H8R10154   2.740   3.870   3.371
    3OL     H8S10155   2.695   4.032   3.332
    3OL     C1910156   2.841   4.011   3.498
    3OL     H9R10157   2.891   3.931   3.552
    3OL    C11010158   2.831   4.130   3.554
    3OL    H10R10159   2.884   4.150   3.647
    3OL    C11110160   2.783   4.249   3.476
    3OL    H11R10161   2.799   4.244   3.368
    3OL    H11S10162   2.831   4.339   3.515
    3OL    C11210163   2.631   4.272   3.480
    3OL    H12R10164   2.578   4.205   3.413
    3OL    H12S10165   2.608   4.368   3.435
    3OL    C11310166   2.567   4.247   3.618
    3OL    H13R10167   2.587   4.144   3.648
    3OL    H13S10168   2.458   4.256   3.620
    3OL    C11410169   2.627   4.333   3.729
    3OL    H14R10170   2.604   4.439   3.718
    3OL    H14S10171   2.734   4.314   3.741
    3OL    C11510172   2.573   4.286   3.865
    3OL    H15R10173   2.603   4.182   3.876
    3OL    H15S10174   2.466   4.288   3.843
    3OL    C11610175   2.619   4.364   3.988
    3OL    H16R10176   2.579   4.465   3.972
    3OL    H16S10177   2.728   4.375   3.994
    3OL    C11710178   2.567   4.300   4.118
    3OL    H17R10179   2.593   4.194   4.111
    3OL    H17S10180   2.458   4.303   4.121
    3OL    C11810181   2.646   4.366   4.232
    3OL    H18R10182   2.637   4.475   4.232
    3OL    H18S10183   2.752   4.342   4.233
    3OL    H18T10184   2.612   4.329   4.329
    1PA    C11610185   0.199   2.279   2.746
    1PA    H16R10186   0.253   2.202   2.801
    1PA    H16S10187   0.273   2.335   2.689
    1PA    H16T10188   0.129   2.231   2.676
    1PA    C11510189   0.124   2.366   2.848
    1PA    H15R10190   0.079   2.447   2.790
    1PA    H15S10191   0.046   2.309   2.897
    1PA    C11410192   0.222   2.433   2.945
    1PA    H14R10193   0.273   2.360   3.007
    1PA    H14S10194   0.299   2.480   2.883
    1PA    C11310195   0.142   2.530   3.032
    1PA    H13R10196   0.041   2.490   3.046
    1PA    H13S10197   0.198   2.541   3.126
    1PA    C11210198   0.126   2.668   2.966
    1PA    H12R10199   0.131   2.657   2.857
    1PA    H12S10200   0.032   2.713   3.000
    1PA    C11110201   0.243   2.758   3.009
    1PA    H11R10202   0.245   2.758   3.118
    1PA    H11S10203   0.331   2.716   2.961
    1PA    C11010204   0.234   2.899   2.951
    1PA    H10R10205   0.205   2.900   2.846
    1PA    H10S10206   0.151   2.950   3.002
    1PA     C1910207   0.362   2.981   2.973
    1PA     H9R10208   0.343   3.084   2.944
    1PA     H9S10209   0.395   2.983   3.077
    1PA     C1810210   0.482   2.928   2.894
    1PA     H8R10211   0.502   2.821   2.904
    1PA     H8S10212   0.454   2.937   2.789
    1PA     C1710213   0.601   3.017   2.934
    1PA     H7R10214   0.572   3.122   2.929
    1PA     H7S10215   0.644   2.985   3.029
    1PA     C1610216   0.701   3.011   2.818
    1PA     H6R10217   0.646   3.018   2.724
    1PA     H6S10218   0.761   3.101   2.801
    1PA     C1510219   0.788   2.887   2.841
    1PA     H5R10220   0.843   2.902   2.935
    1PA     H5S10221   0.738   2.790   2.851
    1PA     C1410222   0.892   2.891   2.728
    1PA     H4R10223   0.848   2.902   2.628
    1PA     H4S10224   0.947   2.984   2.741
    1PA     C1310225   0.994   2.778   2.741
    1PA     H3R10226   1.042   2.789   2.839
    1PA     H3S10227   0.948   2.680   2.728
    1PA     C1210228   1.101   2.802   2.633
    1PA     H2R10229   1.145   2.901   2.627
    1PA     H2S10230   1.190   2.741   2.652
    2PC     C1110231   1.045   2.759   2.500
    2PC     O1210232   0.953   2.681   2.488
    2PC     O1110233   1.123   2.799   2.399
    2PC      C110234   1.114   2.749   2.264
    2PC      HR10235   1.216   2.752   2.225
    2PC      HS10236   1.081   2.645   2.258
    2PC      C210237   1.024   2.841   2.180
    2PC      HX10238   1.037   2.791   2.084
    2PC      C310239   1.069   2.988   2.182
    2PC      HA10240   1.024   3.034   2.270
    2PC      HB10241   1.177   3.005   2.192
    2PC     O3110242   1.006   3.060   2.074
    2PC     P3110243   1.036   3.022   1.922
    2PC     O3210244   0.914   2.920   1.905
    2PC     C3110245   0.939   2.820   1.805
    2PC     H1A10246   0.954   2.869   1.709
    2PC     H1B10247   1.034   2.767   1.821
    2PC     C3210248   0.826   2.717   1.792
    2PC     H2A10249   0.846   2.642   1.716
    2PC     H2B10250   0.820   2.661   1.886
    2PC     N3110251   0.691   2.772   1.760
    2PC     C3310252   0.618   2.825   1.879
    2PC     H3A10253   0.595   2.744   1.948
    2PC     H3B10254   0.686   2.896   1.926
    2PC     H3C10255   0.524   2.872   1.852
    2PC     C3410256   0.688   2.873   1.649
    2PC     H4A10257   0.740   2.960   1.688
    2PC     H4B10258   0.741   2.840   1.560
    2PC     H4C10259   0.583   2.889   1.621
    2PC     C3510260   0.613   2.655   1.708
    2PC     H5A10261   0.623   2.577   1.784
    2PC     H5B10262   0.667   2.626   1.617
    2PC     H5C10263   0.508   2.685   1.700
    2PC     O3310264   1.025   3.140   1.833
    2PC     O3410265   1.168   2.956   1.907
    2PC     O2110266   0.892   2.832   2.237
    2PC     C2110267   0.823   2.721   2.205
    2PC     O2210268   0.857   2.647   2.115
    3OL     C1210269   0.698   2.695   2.285
    3OL     H2R10270   0.715   2.605   2.345
    3OL     H2S10271   0.618   2.669   2.216
    3OL     C1310272   0.658   2.808   2.381
    3OL     H3R10273   0.648   2.903   2.328
    3OL     H3S10274   0.733   2.819   2.459
    3OL     C1410275   0.518   2.774   2.433
    3OL     H4R10276   0.522   2.672   2.473
    3OL     H4S10277   0.438   2.764   2.359
    3OL     C1510278   0.476   2.866   2.548
    3OL     H5R10279   0.554   2.849   2.623
    3OL     H5S10280   0.384   2.823   2.589
    3OL     C1610281   0.471   3.016   2.515
    3OL     H6R10282   0.575   3.050   2.515
    3OL     H6S10283   0.416   3.059   2.598
    3OL     C1710284   0.394   3.069   2.393
    3OL     H7R10285   0.294   3.025   2.394
    3OL     H7S10286   0.447   3.042   2.302
    3OL     C1810287   0.371   3.220   2.402
    3OL     H8R10288   0.299   3.239   2.482
    3OL     H8S10289   0.317   3.252   2.312
    3OL     C1910290   0.496   3.304   2.413
    3OL     H9R10291   0.570   3.301   2.333
    3OL    C11010292   0.525   3.377   2.519
    3OL    H10R10293   0.614   3.438   2.504
    3OL    C11110294   0.438   3.399   2.640
    3OL    H11R10295   0.362   3.321   2.646
    3OL    H11S10296   0.386   3.495   2.629
    3OL    C11210297   0.521   3.397   2.769
    3OL    H12R10298   0.584   3.486   2.771
    3OL    H12S10299   0.583   3.307   2.760
    3OL    C11310300   0.430   3.382   2.891
    3OL    H13R10301   0.394   3.279   2.890
    3OL    H13S10302   0.339   3.442   2.895
    3OL    C11410303   0.505   3.392   3.024
    3OL    H14R10304   0.583   3.469   3.019
    3OL    H14S10305   0.547   3.297   3.057
    3OL    C11510306   0.416   3.435   3.142
    3OL    H15R10307   0.327   3.372   3.139
    3OL    H15S10308   0.381   3.537   3.128
    3OL    C11610309   0.490   3.427   3.276
    3OL    H16R10310   0.573   3.498   3.275
    3OL    H16S10311   0.520   3.323   3.291
    3OL    C11710312   0.397   3.461   3.393
    3OL    H17R10313   0.302   3.411   3.370
    3OL    H17S10314   0.373   3.567   3.405
    3OL    C11810315   0.462   3.418   3.525
    3OL    H18R10316   0.397   3.455   3.605
    3OL    H18S10317   0.561   3.463   3.532
    3OL    H18T10318   0.463   3.310   3.543
    1PA    C11610319   1.838   4.200   3.468
    1PA    H16R10320   1.935   4.249   3.473
    1PA    H16S10321   1.802   4.192   3.570
    1PA    H16T10322   1.779   4.253   3.392
    1PA    C11510323   1.855   4.055   3.418
    1PA    H15R10324   1.895   4.066   3.317
    1PA    H15S10325   1.925   4.003   3.484
    1PA    C11410326   1.726   3.976   3.395
    1PA    H14R10327   1.652   3.995   3.474
    1PA    H14S10328   1.680   4.024   3.309
    1PA    C11310329   1.748   3.825   3.379
    1PA    H13R10330   1.805   3.791   3.466
    1PA    H13S10331   1.656   3.767   3.364
    1PA    C11210332   1.836   3.804   3.256
    1PA    H12R10333   1.802   3.861   3.169
    1PA    H12S10334   1.935   3.843   3.276
    1PA    C11110335   1.860   3.655   3.225
    1PA    H11R10336   1.960   3.653   3.181
    1PA    H11S10337   1.880   3.599   3.317
    1PA    C11010338   1.753   3.575   3.150
    1PA    H10R10339   1.779   3.470   3.158
    1PA    H10S10340   1.652   3.594   3.188
    1PA     C1910341   1.754   3.622   3.003
    1PA     H9R10342   1.719   3.726   3.001
    1PA     H9S10343   1.854   3.607   2.964
    1PA     C1810344   1.649   3.533   2.936
    1PA     H8R10345   1.685   3.430   2.933
    1PA     H8S10346   1.565   3.539   3.006
    1PA     C1710347   1.639   3.587   2.793
    1PA     H7R10348   1.614   3.694   2.795
    1PA     H7S10349   1.739   3.587   2.749
    1PA     C1610350   1.551   3.499   2.704
    1PA     H6R10351   1.469   3.450   2.757
    1PA     H6S10352   1.518   3.560   2.620
    1PA     C1510353   1.617   3.380   2.636
    1PA     H5R10354   1.656   3.306   2.706
    1PA     H5S10355   1.541   3.339   2.570
    1PA     C1410356   1.742   3.415   2.553
    1PA     H4R10357   1.739   3.509   2.497
    1PA     H4S10358   1.829   3.426   2.617
    1PA     C1310359   1.772   3.320   2.436
    1PA     H3R10360   1.761   3.215   2.466
    1PA     H3S10361   1.693   3.339   2.363
    1PA     C1210362   1.907   3.338   2.367
    1PA     H2R10363   1.916   3.443   2.336
    1PA     H2S10364   1.988   3.314   2.436
    2PC     C1110365   1.913   3.266   2.235
    2PC     O1210366   1.823   3.198   2.189
    2PC     O1110367   2.033   3.282   2.176
    2PC      C110368   2.054   3.244   2.039
    2PC      HR10369   2.057   3.135   2.033
    2PC      HS10370   1.977   3.295   1.980
    2PC      C210371   2.196   3.287   2.005
    2PC      HX10372   2.215   3.394   2.013
    2PC      C310373   2.238   3.256   1.860
    2PC      HA10374   2.206   3.338   1.794
    2PC      HB10375   2.345   3.248   1.843
    2PC     O3110376   2.171   3.135   1.819
    2PC     P3110377   2.181   3.082   1.668
    2PC     O3210378   2.044   3.000   1.674
    2PC     C3110379   1.987   2.949   1.553
    2PC     H1A10380   1.980   3.027   1.476
    2PC     H1B10381   2.051   2.868   1.518
    2PC     C3210382   1.853   2.888   1.595
    2PC     H2A10383   1.826   2.811   1.522
    2PC     H2B10384   1.857   2.845   1.695
    2PC     N3110385   1.732   2.976   1.598
    2PC     C3310386   1.688   3.027   1.463
    2PC     H3A10387   1.659   2.939   1.406
    2PC     H3B10388   1.614   3.107   1.468
    2PC     H3C10389   1.780   3.066   1.421
    2PC     C3410390   1.619   2.895   1.654
    2PC     H4A10391   1.637   2.896   1.762
    2PC     H4B10392   1.516   2.926   1.635
    2PC     H4C10393   1.629   2.796   1.610
    2PC     C3510394   1.755   3.096   1.685
    2PC     H5A10395   1.795   3.076   1.784
    2PC     H5B10396   1.665   3.154   1.704
    2PC     H5C10397   1.828   3.160   1.634
    2PC     O3310398   2.192   3.200   1.579
    2PC     O3410399   2.307   3.005   1.661
    2PC     O2110400   2.293   3.221   2.087
    2PC     C2110401   2.349   3.285   2.191
    2PC     O2210402   2.326   3.400   2.221
    3OL     C1210403   2.446   3.192   2.259
    3OL     H2R10404   2.539   3.242   2.288
    3OL     H2S10405   2.476   3.115   2.187
    3OL     C1310406   2.379   3.120   2.376
    3OL     H3R10407   2.446   3.057   2.434
    3OL     H3S10408   2.300   3.055   2.336
    3OL     C1410409   2.323   3.223   2.475
    3OL     H4R10410   2.253   3.293   2.429
    3OL     H4S10411   2.401   3.288   2.515
    3OL     C1510412   2.266   3.144   2.594
    3OL     H5R10413   2.208   3.053   2.574
    3OL     H5S10414   2.191   3.213   2.633
    3OL     C1610415   2.367   3.105   2.702
    3OL     H6R10416   2.429   3.193   2.724
    3OL     H6S10417   2.427   3.024   2.660
    3OL     C1710418   2.288   3.047   2.821
    3OL     H7R10419   2.195   3.103   2.830
    3OL     H7S10420   2.353   3.071   2.905
    3OL     C1810421   2.270   2.895   2.828
    3OL     H8R10422   2.356   2.837   2.795
    3OL     H8S10423   2.193   2.864   2.757
    3OL     C1910424   2.221   2.849   2.963
    3OL     H9R10425   2.134   2.898   3.005
    3OL    C11010426   2.279   2.756   3.037
    3OL    H10R10427   2.239   2.724   3.133
    3OL    C11110428   2.393   2.664   3.002
    3OL    H11R10429   2.491   2.711   3.004
    3OL    H11S10430   2.380   2.625   2.900
    3OL    C11210431   2.401   2.540   3.093
    3OL    H12R10432   2.305   2.488   3.092
    3OL    H12S10433   2.420   2.581   3.192
    3OL    C11310434   2.509   2.443   3.044
    3OL    H13R10435   2.612   2.480   3.040
    3OL    H13S10436   2.472   2.409   2.948
    3OL    C11410437   2.499   2.314   3.127
    3OL    H14R10438   2.397   2.278   3.137
    3OL    H14S10439   2.539   2.336   3.227
    3OL    C11510440   2.589   2.204   3.069
    3OL    H15R10441   2.578   2.121   3.139
    3OL    H15S10442   2.688   2.251   3.075
    3OL    C11610443   2.560   2.171   2.922
    3OL    H16R10444   2.604   2.252   2.864
    3OL    H16S10445   2.452   2.157   2.907
    3OL    C11710446   2.622   2.039   2.873
    3OL    H17R10447   2.584   1.957   2.934
    3OL    H17S10448   2.730   2.037   2.888
    3OL    C11810449   2.603   2.036   2.720
    3OL    H18R10450   2.672   2.114   2.688
    3OL    H18S10451   2.504   2.061   2.682
    3OL    H18T10452   2.634   1.943   2.672
    1PA    C11610453   6.309   4.213   3.743
    1PA    H16R10454   6.315   4.321   3.737
    1PA    H16S10455   6.298   4.195   3.850
    1PA    H16T10456   6.233   4.176   3.674
    1PA    C11510457   6.440   4.142   3.706
    1PA    H15R10458   6.479   4.182   3.612
    1PA    H15S10459   6.518   4.173   3.776
    1PA    C11410460   6.430   3.990   3.687
    1PA    H14R10461   6.397   3.949   3.782
    1PA    H14S10462   6.356   3.964   3.610
    1PA    C11310463   6.565   3.923   3.658
    1PA    H13R10464   6.607   3.983   3.578
    1PA    H13S10465   6.630   3.925   3.746
    1PA    C11210466   6.549   3.774   3.624
    1PA    H12R10467   6.649   3.728   3.622
    1PA    H12S10468   6.509   3.720   3.710
    1PA    C11110469   6.470   3.733   3.499
    1PA    H11R10470   6.445   3.626   3.496
    1PA    H11S10471   6.374   3.785   3.494
    1PA    C11010472   6.545   3.754   3.367
    1PA    H10R10473   6.579   3.858   3.371
    1PA    H10S10474   6.630   3.686   3.366
    1PA     C1910475   6.465   3.740   3.237
    1PA     H9R10476   6.428   3.637   3.231
    1PA     H9S10477   6.385   3.813   3.226
    1PA     C1810478   6.545   3.757   3.107
    1PA     H8R10479   6.565   3.864   3.097
    1PA     H8S10480   6.642   3.706   3.110
    1PA     C1710481   6.484   3.718   2.972
    1PA     H7R10482   6.450   3.614   2.970
    1PA     H7S10483   6.391   3.773   2.954
    1PA     C1610484   6.590   3.739   2.863
    1PA     H6R10485   6.626   3.841   2.860
    1PA     H6S10486   6.670   3.670   2.893
    1PA     C1510487   6.536   3.697   2.726
    1PA     H5R10488   6.524   3.589   2.735
    1PA     H5S10489   6.447   3.752   2.694
    1PA     C1410490   6.634   3.726   2.611
    1PA     H4R10491   6.654   3.833   2.602
    1PA     H4S10492   6.730   3.680   2.633
    1PA     C1310493   6.565   3.672   2.485
    1PA     H3R10494   6.526   3.572   2.505
    1PA     H3S10495   6.472   3.726   2.470
    1PA     C1210496   6.657   3.667   2.362
    1PA     H2R10497   6.696   3.762   2.327
    1PA     H2S10498   6.741   3.605   2.395
    2PC     C1110499   6.590   3.616   2.237
    2PC     O1210500   6.648   3.559   2.148
    2PC     O1110501   6.464   3.658   2.216
    2PC      C110502   6.405   3.634   2.087
    2PC      HR10503   6.465   3.696   2.020
    2PC      HS10504   6.391   3.527   2.069
    2PC      C210505   6.263   3.693   2.086
    2PC      HX10506   6.214   3.666   1.992
    2PC      C310507   6.269   3.845   2.100
    2PC      HA10508   6.251   3.873   2.204
    2PC      HB10509   6.367   3.887   2.076
    2PC     O3110510   6.170   3.911   2.018
    2PC     P3110511   6.164   3.909   1.858
    2PC     O3210512   6.059   3.791   1.829
    2PC     C3110513   6.035   3.751   1.693
    2PC     H1A10514   5.986   3.833   1.641
    2PC     H1B10515   6.130   3.726   1.647
    2PC     C3210516   5.945   3.626   1.702
    2PC     H2A10517   5.900   3.619   1.801
    2PC     H2B10518   5.867   3.622   1.626
    2PC     N3110519   6.004   3.490   1.684
    2PC     C3310520   5.892   3.393   1.696
    2PC     H3A10521   5.931   3.293   1.714
    2PC     H3B10522   5.842   3.425   1.787
    2PC     H3C10523   5.810   3.399   1.624
    2PC     C3410524   6.052   3.489   1.541
    2PC     H4A10525   6.119   3.405   1.528
    2PC     H4B10526   5.964   3.473   1.479
    2PC     H4C10527   6.097   3.585   1.514
    2PC     C3510528   6.114   3.457   1.780
    2PC     H5A10529   6.090   3.462   1.886
    2PC     H5B10530   6.196   3.523   1.755
    2PC     H5C10531   6.140   3.354   1.754
    2PC     O3310532   6.115   4.043   1.818
    2PC     O3410533   6.288   3.892   1.779
    2PC     O2110534   6.178   3.641   2.190
    2PC     C2110535   6.138   3.513   2.190
    2PC     O2210536   6.161   3.434   2.101
    3OL     C1210537   6.066   3.479   2.318
    3OL     H2R10538   6.060   3.373   2.339
    3OL     H2S10539   5.968   3.526   2.318
    3OL     C1310540   6.132   3.545   2.440
    3OL     H3R10541   6.165   3.647   2.419
    3OL     H3S10542   6.225   3.501   2.476
    3OL     C1410543   6.043   3.548   2.565
    3OL     H4R10544   6.004   3.450   2.588
    3OL     H4S10545   5.955   3.608   2.540
    3OL     C1510546   6.120   3.600   2.687
    3OL     H5R10547   6.165   3.696   2.660
    3OL     H5S10548   6.197   3.528   2.716
    3OL     C1610549   6.029   3.620   2.809
    3OL     H6R10550   5.987   3.522   2.836
    3OL     H6S10551   5.954   3.697   2.791
    3OL     C1710552   6.118   3.664   2.925
    3OL     H7R10553   6.163   3.760   2.899
    3OL     H7S10554   6.201   3.596   2.943
    3OL     C1810555   6.042   3.683   3.056
    3OL     H8R10556   5.961   3.610   3.052
    3OL     H8S10557   5.996   3.782   3.054
    3OL     C1910558   6.126   3.672   3.181
    3OL     H9R10559   6.219   3.616   3.171
    3OL    C11010560   6.113   3.731   3.299
    3OL    H10R10561   6.197   3.712   3.365
    3OL    C11110562   5.999   3.817   3.348
    3OL    H11R10563   5.925   3.811   3.268
    3OL    H11S10564   6.032   3.920   3.357
    3OL    C11210565   5.976   3.784   3.496
    3OL    H12R10566   6.069   3.780   3.554
    3OL    H12S10567   5.934   3.684   3.507
    3OL    C11310568   5.879   3.884   3.560
    3OL    H13R10569   5.776   3.865   3.527
    3OL    H13S10570   5.909   3.984   3.528
    3OL    C11410571   5.889   3.875   3.713
    3OL    H14R10572   5.861   3.775   3.746
    3OL    H14S10573   5.810   3.933   3.761
    3OL    C11510574   6.018   3.933   3.774
    3OL    H15R10575   6.031   4.037   3.744
    3OL    H15S10576   6.103   3.872   3.743
    3OL    C11610577   6.021   3.910   3.926
    3OL    H16R10578   6.124   3.913   3.961
    3OL    H16S10579   5.968   3.817   3.950
    3OL    C11710580   5.958   4.025   4.006
    3OL    H17R10581   5.853   4.033   3.979
    3OL    H17S10582   5.995   4.124   3.978
    3OL    C11810583   5.963   4.003   4.157
    3OL    H18R10584   5.948   3.897   4.180
    3OL    H18S10585   5.884   4.060   4.208
    3OL    H18T10586   6.060   4.044   4.185
    1PA    C11610587   1.673   4.551   3.809
    1PA    H16R10588   1.655   4.465   3.874
    1PA    H16S10589   1.654   4.522   3.706
    1PA    H16T10590   1.600   4.629   3.831
    1PA    C11510591   1.815   4.605   3.835
    1PA    H15R10592   1.834   4.618   3.942
    1PA    H15S10593   1.877   4.524   3.797
    1PA    C11410594   1.839   4.745   3.777
    1PA    H14R10595   1.766   4.816   3.817
    1PA    H14S10596   1.942   4.778   3.790
    1PA    C11310597   1.815   4.742   3.626
    1PA    H13R10598   1.903   4.704   3.574
    1PA    H13S10599   1.733   4.674   3.603
    1PA    C11210600   1.772   4.874   3.561
    1PA    H12R10601   1.668   4.887   3.595
    1PA    H12S10602   1.837   4.957   3.591
    1PA    C11110603   1.767   4.854   3.409
    1PA    H11R10604   1.867   4.827   3.374
    1PA    H11S10605   1.693   4.777   3.386
    1PA    C11010606   1.720   4.986   3.345
    1PA    H10R10607   1.624   5.017   3.387
    1PA    H10S10608   1.785   5.070   3.369
    1PA     C1910609   1.705   4.960   3.194
    1PA     H9R10610   1.804   4.931   3.158
    1PA     H9S10611   1.631   4.881   3.185
    1PA     C1810612   1.671   5.086   3.113
    1PA     H8R10613   1.572   5.122   3.144
    1PA     H8S10614   1.745   5.157   3.150
    1PA     C1710615   1.672   5.061   2.962
    1PA     H7R10616   1.756   4.997   2.933
    1PA     H7S10617   1.581   5.006   2.938
    1PA     C1610618   1.665   5.187   2.873
    1PA     H6R10619   1.582   5.256   2.888
    1PA     H6S10620   1.761   5.235   2.889
    1PA     C1510621   1.681   5.144   2.727
    1PA     H5R10622   1.766   5.076   2.717
    1PA     H5S10623   1.591   5.087   2.699
    1PA     C1410624   1.707   5.264   2.634
    1PA     H4R10625   1.628   5.339   2.626
    1PA     H4S10626   1.785   5.327   2.677
    1PA     C1310627   1.732   5.217   2.490
    1PA     H3R10628   1.830   5.168   2.499
    1PA     H3S10629   1.664   5.136   2.465
    1PA     C1210630   1.744   5.330   2.387
    1PA     H2R10631   1.653   5.390   2.391
    1PA     H2S10632   1.818   5.404   2.417
    2PC     C1110633   1.772   5.269   2.252
    2PC     O1210634   1.710   5.311   2.157
    2PC     O1110635   1.863   5.170   2.260
    2PC      C110636   1.897   5.106   2.135
    2PC      HR10637   1.947   5.011   2.155
    2PC      HS10638   1.808   5.089   2.074
    2PC      C210639   1.998   5.195   2.062
    2PC      HX10640   1.955   5.289   2.025
    2PC      C310641   2.043   5.104   1.948
    2PC      HA10642   2.097   5.015   1.980
    2PC      HB10643   1.951   5.063   1.904
    2PC     O3110644   2.106   5.186   1.848
    2PC     P3110645   2.157   5.119   1.712
    2PC     O3210646   2.104   4.968   1.711
    2PC     C3110647   1.980   4.937   1.645
    2PC     H1A10648   1.888   4.971   1.694
    2PC     H1B10649   1.981   4.991   1.550
    2PC     C3210650   1.962   4.785   1.637
    2PC     H2A10651   1.947   4.747   1.738
    2PC     H2B10652   1.876   4.775   1.571
    2PC     N3110653   2.074   4.706   1.578
    2PC     C3310654   2.113   4.751   1.440
    2PC     H3A10655   2.030   4.757   1.369
    2PC     H3B10656   2.159   4.849   1.451
    2PC     H3C10657   2.182   4.676   1.402
    2PC     C3410658   2.191   4.692   1.670
    2PC     H4A10659   2.274   4.643   1.618
    2PC     H4B10660   2.217   4.792   1.704
    2PC     H4C10661   2.163   4.627   1.752
    2PC     C3510662   2.014   4.569   1.570
    2PC     H5A10663   1.921   4.579   1.514
    2PC     H5B10664   2.004   4.525   1.669
    2PC     H5C10665   2.082   4.503   1.517
    2PC     O3310666   2.130   5.192   1.587
    2PC     O3410667   2.304   5.111   1.708
    2PC     O2110668   2.110   5.221   2.149
    2PC     C2110669   2.108   5.334   2.221
    2PC     O2210670   2.021   5.418   2.216
    3OL     C1210671   2.228   5.344   2.310
    3OL     H2R10672   2.309   5.397   2.260
    3OL     H2S10673   2.268   5.244   2.326
    3OL     C1310674   2.194   5.411   2.445
    3OL     H3R10675   2.132   5.496   2.419
    3OL     H3S10676   2.279   5.448   2.503
    3OL     C1410677   2.109   5.320   2.534
    3OL     H4R10678   2.044   5.264   2.466
    3OL     H4S10679   2.040   5.376   2.598
    3OL     C1510680   2.181   5.241   2.643
    3OL     H5R10681   2.239   5.311   2.704
    3OL     H5S10682   2.257   5.179   2.596
    3OL     C1610683   2.077   5.168   2.728
    3OL     H6R10684   2.026   5.105   2.654
    3OL     H6S10685   2.006   5.240   2.770
    3OL     C1710686   2.144   5.090   2.842
    3OL     H7R10687   2.203   5.166   2.893
    3OL     H7S10688   2.213   5.022   2.793
    3OL     C1810689   2.055   5.002   2.932
    3OL     H8R10690   2.031   4.900   2.903
    3OL     H8S10691   1.958   5.049   2.950
    3OL     C1910692   2.116   4.990   3.069
    3OL     H9R10693   2.129   5.088   3.115
    3OL    C11010694   2.181   4.889   3.123
    3OL    H10R10695   2.237   4.902   3.216
    3OL    C11110696   2.186   4.749   3.066
    3OL    H11R10697   2.285   4.710   3.092
    3OL    H11S10698   2.191   4.756   2.957
    3OL    C11210699   2.083   4.653   3.126
    3OL    H12R10700   1.985   4.697   3.106
    3OL    H12S10701   2.098   4.642   3.234
    3OL    C11310702   2.093   4.513   3.063
    3OL    H13R10703   2.197   4.483   3.069
    3OL    H13S10704   2.079   4.521   2.955
    3OL    C11410705   2.005   4.408   3.131
    3OL    H14R10706   1.906   4.455   3.126
    3OL    H14S10707   2.036   4.402   3.236
    3OL    C11510708   2.006   4.271   3.061
    3OL    H15R10709   1.964   4.270   2.960
    3OL    H15S10710   1.945   4.202   3.119
    3OL    C11610711   2.147   4.211   3.062
    3OL    H16R10712   2.174   4.180   3.162
    3OL    H16S10713   2.220   4.280   3.021
    3OL    C11710714   2.153   4.085   2.974
    3OL    H17R10715   2.253   4.045   2.984
    3OL    H17S10716   2.160   4.106   2.867
    3OL    C11810717   2.054   3.972   3.005
    3OL    H18R10718   2.074   3.879   2.950
    3OL    H18S10719   1.951   4.001   2.983
    3OL    H18T10720   2.055   3.963   3.113
    1PA    C11610721   1.905   0.436   4.477
    1PA    H16R10722   1.986   0.367   4.501
    1PA    H16S10723   1.875   0.491   4.567
    1PA    H16T10724   1.950   0.511   4.410
    1PA    C11510725   1.787   0.362   4.414
    1PA    H15R10726   1.759   0.283   4.484
    1PA    H15S10727   1.698   0.421   4.388
    1PA    C11410728   1.811   0.298   4.277
    1PA    H14R10729   1.885   0.218   4.278
    1PA    H14S10730   1.724   0.241   4.243
    1PA    C11310731   1.834   0.400   4.165
    1PA    H13R10732   1.761   0.482   4.164
    1PA    H13S10733   1.929   0.453   4.175
    1PA    C11210734   1.844   0.328   4.030
    1PA    H12R10735   1.932   0.263   4.022
    1PA    H12S10736   1.758   0.264   4.009
    1PA    C11110737   1.842   0.435   3.920
    1PA    H11R10738   1.756   0.502   3.931
    1PA    H11S10739   1.934   0.492   3.929
    1PA    C11010740   1.844   0.372   3.780
    1PA    H10R10741   1.934   0.312   3.768
    1PA    H10S10742   1.757   0.309   3.760
    1PA     C1910743   1.834   0.473   3.664
    1PA     H9R10744   1.758   0.544   3.696
    1PA     H9S10745   1.922   0.538   3.674
    1PA     C1810746   1.834   0.409   3.525
    1PA     H8R10747   1.925   0.349   3.516
    1PA     H8S10748   1.744   0.352   3.505
    1PA     C1710749   1.844   0.515   3.414
    1PA     H7R10750   1.746   0.562   3.416
    1PA     H7S10751   1.917   0.595   3.431
    1PA     C1610752   1.859   0.458   3.272
    1PA     H6R10753   1.956   0.408   3.281
    1PA     H6S10754   1.788   0.378   3.250
    1PA     C1510755   1.866   0.568   3.166
    1PA     H5R10756   1.885   0.670   3.201
    1PA     H5S10757   1.944   0.543   3.093
    1PA     C1410758   1.735   0.584   3.088
    1PA     H4R10759   1.706   0.488   3.044
    1PA     H4S10760   1.655   0.622   3.152
    1PA     C1310761   1.757   0.677   2.968
    1PA     H3R10762   1.656   0.710   2.942
    1PA     H3S10763   1.822   0.759   2.998
    1PA     C1210764   1.804   0.595   2.847
    1PA     H2R10765   1.902   0.549   2.860
    1PA     H2S10766   1.733   0.512   2.838
    2PC     C1110767   1.804   0.681   2.724
    2PC     O1210768   1.830   0.639   2.613
    2PC     O1110769   1.756   0.805   2.743
    2PC      C110770   1.735   0.894   2.632
    2PC      HR10771   1.722   0.998   2.663
    2PC      HS10772   1.827   0.889   2.574
    2PC      C210773   1.613   0.857   2.547
    2PC      HX10774   1.621   0.750   2.527
    2PC      C310775   1.599   0.940   2.419
    2PC      HA10776   1.556   1.038   2.441
    2PC      HB10777   1.689   0.933   2.357
    2PC     O3110778   1.502   0.864   2.344
    2PC     P3110779   1.489   0.902   2.189
    2PC     O3210780   1.406   1.038   2.205
    2PC     C3110781   1.483   1.159   2.188
    2PC     H1A10782   1.449   1.246   2.244
    2PC     H1B10783   1.587   1.139   2.216
    2PC     C3210784   1.462   1.191   2.039
    2PC     H2A10785   1.490   1.103   1.981
    2PC     H2B10786   1.358   1.220   2.021
    2PC     N3110787   1.538   1.307   1.981
    2PC     C3310788   1.688   1.298   1.991
    2PC     H3A10789   1.723   1.199   1.960
    2PC     H3B10790   1.742   1.367   1.926
    2PC     H3C10791   1.706   1.304   2.098
    2PC     C3410792   1.500   1.321   1.837
    2PC     H4A10793   1.528   1.422   1.810
    2PC     H4B10794   1.541   1.249   1.766
    2PC     H4C10795   1.392   1.307   1.829
    2PC     C3510796   1.494   1.432   2.050
    2PC     H5A10797   1.392   1.442   2.015
    2PC     H5B10798   1.556   1.514   2.012
    2PC     H5C10799   1.499   1.418   2.158
    2PC     O3310800   1.614   0.926   2.113
    2PC     O3410801   1.412   0.814   2.099
    2PC     O2110802   1.494   0.895   2.619
    2PC     C2110803   1.428   0.797   2.683
    2PC     O2210804   1.430   0.679   2.657
    3OL     C1210805   1.352   0.857   2.799
    3OL     H2R10806   1.255   0.896   2.768
    3OL     H2S10807   1.403   0.944   2.841
    3OL     C1310808   1.334   0.755   2.913
    3OL     H3R10809   1.434   0.718   2.939
    3OL     H3S10810   1.271   0.672   2.882
    3OL     C1410811   1.277   0.820   3.040
    3OL     H4R10812   1.181   0.869   3.023
    3OL     H4S10813   1.342   0.903   3.067
    3OL     C1510814   1.259   0.726   3.160
    3OL     H5R10815   1.350   0.666   3.165
    3OL     H5S10816   1.176   0.659   3.138
    3OL     C1610817   1.233   0.802   3.291
    3OL     H6R10818   1.124   0.817   3.295
    3OL     H6S10819   1.282   0.900   3.285
    3OL     C1710820   1.273   0.710   3.406
    3OL     H7R10821   1.230   0.611   3.388
    3OL     H7S10822   1.234   0.753   3.499
    3OL     C1810823   1.425   0.707   3.425
    3OL     H8R10824   1.462   0.807   3.400
    3OL     H8S10825   1.477   0.640   3.356
    3OL     C1910826   1.465   0.661   3.563
    3OL     H9R10827   1.408   0.576   3.599
    3OL    C11010828   1.563   0.717   3.632
    3OL    H10R10829   1.573   0.670   3.730
    3OL    C11110830   1.638   0.842   3.596
    3OL    H11R10831   1.570   0.928   3.604
    3OL    H11S10832   1.674   0.840   3.493
    3OL    C11210833   1.753   0.865   3.694
    3OL    H12R10834   1.793   0.966   3.688
    3OL    H12S10835   1.828   0.790   3.667
    3OL    C11310836   1.710   0.851   3.841
    3OL    H13R10837   1.703   0.748   3.875
    3OL    H13S10838   1.614   0.895   3.867
    3OL    C11410839   1.811   0.927   3.928
    3OL    H14R10840   1.809   1.032   3.897
    3OL    H14S10841   1.912   0.886   3.914
    3OL    C11510842   1.768   0.924   4.075
    3OL    H15R10843   1.732   0.825   4.104
    3OL    H15S10844   1.681   0.988   4.089
    3OL    C11610845   1.887   0.964   4.164
    3OL    H16R10846   1.919   1.063   4.133
    3OL    H16S10847   1.971   0.900   4.135
    3OL    C11710848   1.854   0.953   4.313
    3OL    H17R10849   1.796   0.863   4.336
    3OL    H17S10850   1.797   1.042   4.340
    3OL    C11810851   1.982   0.965   4.397
    3OL    H18R10852   1.953   0.943   4.500
    3OL    H18S10853   2.029   1.063   4.388
    3OL    H18T10854   2.061   0.897   4.364
    1PA    C11610855   0.732   3.723   3.724
    1PA    H16R10856   0.636   3.678   3.699
    1PA    H16S10857   0.719   3.831   3.722
    1PA    H16T10858   0.762   3.705   3.827
    1PA    C11510859   0.843   3.674   3.629
    1PA    H15R10860   0.910   3.608   3.685
    1PA    H15S10861   0.801   3.626   3.541
    1PA    C11410862   0.911   3.801   3.575
    1PA    H14R10863   0.943   3.869   3.654
    1PA    H14S10864   1.012   3.770   3.546
    1PA    C11310865   0.851   3.875   3.456
    1PA    H13R10866   0.841   3.810   3.368
    1PA    H13S10867   0.753   3.915   3.483
    1PA    C11210868   0.952   3.985   3.418
    1PA    H12R10869   0.971   4.036   3.513
    1PA    H12S10870   1.048   3.944   3.387
    1PA    C11110871   0.908   4.079   3.305
    1PA    H11R10872   0.802   4.099   3.323
    1PA    H11S10873   0.970   4.166   3.324
    1PA    C11010874   0.937   4.027   3.164
    1PA    H10R10875   1.041   3.995   3.167
    1PA    H10S10876   0.879   3.938   3.139
    1PA     C1910877   0.905   4.129   3.054
    1PA     H9R10878   0.798   4.152   3.061
    1PA     H9S10879   0.963   4.220   3.071
    1PA     C1810880   0.938   4.066   2.918
    1PA     H8R10881   1.044   4.039   2.911
    1PA     H8S10882   0.884   3.972   2.916
    1PA     C1710883   0.903   4.151   2.795
    1PA     H7R10884   0.903   4.081   2.711
    1PA     H7S10885   0.802   4.192   2.796
    1PA     C1610886   0.997   4.271   2.778
    1PA     H6R10887   0.940   4.362   2.802
    1PA     H6S10888   1.081   4.263   2.848
    1PA     C1510889   1.058   4.284   2.638
    1PA     H5R10890   0.982   4.263   2.563
    1PA     H5S10891   1.088   4.386   2.615
    1PA     C1410892   1.175   4.186   2.619
    1PA     H4R10893   1.256   4.205   2.689
    1PA     H4S10894   1.135   4.084   2.618
    1PA     C1310895   1.232   4.215   2.479
    1PA     H3R10896   1.159   4.184   2.404
    1PA     H3S10897   1.260   4.320   2.474
    1PA     C1210898   1.352   4.120   2.467
    1PA     H2R10899   1.434   4.152   2.532
    1PA     H2S10900   1.317   4.019   2.490
    2PC     C1110901   1.413   4.111   2.329
    2PC     O1210902   1.417   4.207   2.255
    2PC     O1110903   1.455   3.987   2.300
    2PC      C110904   1.504   3.959   2.167
    2PC      HR10905   1.494   3.850   2.158
    2PC      HS10906   1.436   3.994   2.089
    2PC      C210907   1.647   4.010   2.148
    2PC      HX10908   1.646   4.119   2.162
    2PC      C310909   1.706   3.967   2.013
    2PC      HA10910   1.656   4.019   1.931
    2PC      HB10911   1.812   3.993   2.015
    2PC     O3110912   1.681   3.828   1.984
    2PC     P3110913   1.770   3.772   1.863
    2PC     O3210914   1.721   3.857   1.736
    2PC     C3110915   1.813   3.911   1.639
    2PC     H1A10916   1.849   4.008   1.675
    2PC     H1B10917   1.902   3.848   1.632
    2PC     C3210918   1.739   3.930   1.506
    2PC     H2A10919   1.716   3.835   1.457
    2PC     H2B10920   1.646   3.980   1.532
    2PC     N3110921   1.808   4.014   1.403
    2PC     C3310922   1.724   3.999   1.280
    2PC     H3A10923   1.746   3.900   1.240
    2PC     H3B10924   1.617   3.991   1.298
    2PC     H3C10925   1.746   4.080   1.210
    2PC     C3410926   1.805   4.160   1.441
    2PC     H4A10927   1.882   4.194   1.510
    2PC     H4B10928   1.822   4.213   1.347
    2PC     H4C10929   1.700   4.177   1.467
    2PC     C3510930   1.949   3.974   1.373
    2PC     H5A10931   1.999   3.979   1.470
    2PC     H5B10932   1.998   4.030   1.294
    2PC     H5C10933   1.938   3.872   1.334
    2PC     O3310934   1.912   3.796   1.896
    2PC     O3410935   1.757   3.625   1.853
    2PC     O2110936   1.717   3.942   2.254
    2PC     C2110937   1.839   3.978   2.294
    2PC     O2210938   1.895   4.078   2.254
    3OL     C1210939   1.899   3.888   2.400
    3OL     H2R10940   1.947   3.812   2.338
    3OL     H2S10941   1.821   3.833   2.453
    3OL     C1310942   2.016   3.952   2.477
    3OL     H3R10943   1.977   4.049   2.511
    3OL     H3S10944   2.101   3.969   2.412
    3OL     C1410945   2.050   3.873   2.604
    3OL     H4R10946   1.966   3.845   2.668
    3OL     H4S10947   2.120   3.926   2.668
    3OL     C1510948   2.120   3.742   2.564
    3OL     H5R10949   2.204   3.757   2.496
    3OL     H5S10950   2.048   3.692   2.499
    3OL     C1610951   2.161   3.657   2.685
    3OL     H6R10952   2.178   3.719   2.774
    3OL     H6S10953   2.249   3.599   2.659
    3OL     C1710954   2.047   3.557   2.702
    3OL     H7R10955   2.037   3.499   2.611
    3OL     H7S10956   1.953   3.608   2.725
    3OL     C1810957   2.065   3.463   2.823
    3OL     H8R10958   2.109   3.513   2.909
    3OL     H8S10959   2.135   3.384   2.796
    3OL     C1910960   1.944   3.384   2.862
    3OL     H9R10961   1.863   3.376   2.789
    3OL    C11010962   1.923   3.329   2.980
    3OL    H10R10963   1.834   3.270   3.004
    3OL    C11110964   2.013   3.350   3.099
    3OL    H11R10965   1.948   3.331   3.184
    3OL    H11S10966   2.052   3.452   3.098
    3OL    C11210967   2.134   3.256   3.108
    3OL    H12R10968   2.207   3.275   3.029
    3OL    H12S10969   2.092   3.155   3.105
    3OL    C11310970   2.203   3.259   3.244
    3OL    H13R10971   2.284   3.185   3.243
    3OL    H13S10972   2.141   3.232   3.329
    3OL    C11410973   2.256   3.400   3.275
    3OL    H14R10974   2.184   3.476   3.248
    3OL    H14S10975   2.338   3.415   3.204
    3OL    C11510976   2.315   3.409   3.417
    3OL    H15R10977   2.369   3.502   3.427
    3OL    H15S10978   2.383   3.325   3.434
    3OL    C11610979   2.204   3.419   3.522
    3OL    H16R10980   2.242   3.397   3.622
    3OL    H16S10981   2.121   3.350   3.509
    3OL    C11710982   2.154   3.562   3.534
    3OL    H17R10983   2.115   3.601   3.439
    3OL    H17S10984   2.226   3.632   3.577
    3OL    C11810985   2.032   3.569   3.626
    3OL    H18R10986   1.951   3.515   3.578
    3OL    H18S10987   2.011   3.675   3.644
    3OL    H18T10988   2.045   3.536   3.730
    1PA    C11610989   2.413   6.105   3.868
    1PA    H16R10990   2.492   6.082   3.941
    1PA    H16S10991   2.338   6.030   3.893
    1PA    H16T10992   2.379   6.205   3.895
    1PA    C11510993   2.461   6.093   3.723
    1PA    H15R10994   2.552   6.153   3.715
    1PA    H15S10995   2.499   5.996   3.688
    1PA    C11410996   2.352   6.141   3.626
    1PA    H14R10997   2.261   6.081   3.631
    1PA    H14S10998   2.332   6.246   3.649
    1PA    C11310999   2.396   6.146   3.479
    1PA    H13R11000   2.412   6.046   3.439
    1PA    H13S11001   2.317   6.201   3.428
    1PA    C11211002   2.525   6.230   3.474
    1PA    H12R11003   2.509   6.320   3.532
    1PA    H12S11004   2.609   6.180   3.522
    1PA    C11111005   2.555   6.262   3.327
    1PA    H11R11006   2.485   6.331   3.280
    1PA    H11S11007   2.649   6.316   3.345
    1PA    C11011008   2.564   6.141   3.233
    1PA    H10R11009   2.626   6.063   3.275
    1PA    H10S11010   2.465   6.096   3.220
    1PA     C1911011   2.615   6.195   3.098
    1PA     H9R11012   2.543   6.264   3.054
    1PA     H9S11013   2.709   6.243   3.125
    1PA     C1811014   2.668   6.087   3.003
    1PA     H8R11015   2.758   6.049   3.053
    1PA     H8S11016   2.604   6.000   2.988
    1PA     C1711017   2.709   6.150   2.870
    1PA     H7R11018   2.755   6.249   2.877
    1PA     H7S11019   2.780   6.082   2.824
    1PA     C1611020   2.588   6.156   2.775
    1PA     H6R11021   2.547   6.055   2.769
    1PA     H6S11022   2.512   6.226   2.810
    1PA     C1511023   2.631   6.187   2.631
    1PA     H5R11024   2.544   6.203   2.567
    1PA     H5S11025   2.692   6.277   2.641
    1PA     C1411026   2.719   6.077   2.569
    1PA     H4R11027   2.819   6.069   2.613
    1PA     H4S11028   2.680   5.976   2.578
    1PA     C1311029   2.732   6.108   2.419
    1PA     H3R11030   2.633   6.116   2.374
    1PA     H3S11031   2.780   6.205   2.412
    1PA     C1211032   2.807   5.996   2.346
    1PA     H2R11033   2.911   5.994   2.379
    1PA     H2S11034   2.756   5.902   2.368
    2PC     C1111035   2.804   6.011   2.196
    2PC     O1211036   2.892   6.058   2.127
    2PC     O1111037   2.689   5.959   2.151
    2PC      C111038   2.664   5.943   2.010
    2PC      HR11039   2.565   5.899   2.000
    2PC      HS11040   2.657   6.041   1.962
    2PC      C211041   2.767   5.854   1.938
    2PC      HX11042   2.872   5.882   1.947
    2PC      C311043   2.754   5.858   1.785
    2PC      HA11044   2.798   5.954   1.756
    2PC      HB11045   2.812   5.778   1.738
    2PC     O3111046   2.619   5.870   1.736
    2PC     P3111047   2.584   5.918   1.587
    2PC     O3211048   2.435   5.974   1.606
    2PC     C3111049   2.421   6.113   1.641
    2PC     H1A11050   2.474   6.121   1.736
    2PC     H1B11051   2.460   6.176   1.560
    2PC     C3211052   2.274   6.148   1.668
    2PC     H2A11053   2.230   6.084   1.745
    2PC     H2B11054   2.266   6.254   1.693
    2PC     N3111055   2.173   6.146   1.557
    2PC     C3311056   2.042   6.200   1.603
    2PC     H3A11057   1.969   6.185   1.523
    2PC     H3B11058   2.013   6.143   1.691
    2PC     H3C11059   2.055   6.304   1.631
    2PC     C3411060   2.225   6.226   1.441
    2PC     H4A11061   2.320   6.178   1.418
    2PC     H4B11062   2.150   6.226   1.363
    2PC     H4C11063   2.245   6.326   1.478
    2PC     C3511064   2.142   6.005   1.517
    2PC     H5A11065   2.224   5.978   1.451
    2PC     H5B11066   2.047   5.993   1.465
    2PC     H5C11067   2.133   5.947   1.609
    2PC     O3311068   2.684   6.018   1.541
    2PC     O3411069   2.597   5.805   1.492
    2PC     O2111070   2.760   5.715   1.974
    2PC     C2111071   2.649   5.639   1.978
    2PC     O2211072   2.533   5.669   1.963
    3OL     C1211073   2.684   5.497   2.015
    3OL     H2R11074   2.786   5.469   1.987
    3OL     H2S11075   2.620   5.425   1.964
    3OL     C1311076   2.665   5.482   2.166
    3OL     H3R11077   2.558   5.487   2.186
    3OL     H3S11078   2.722   5.567   2.206
    3OL     C1411079   2.713   5.350   2.229
    3OL     H4R11080   2.820   5.338   2.213
    3OL     H4S11081   2.666   5.263   2.184
    3OL     C1511082   2.693   5.356   2.381
    3OL     H5R11083   2.585   5.362   2.393
    3OL     H5S11084   2.738   5.451   2.413
    3OL     C1611085   2.750   5.231   2.448
    3OL     H6R11086   2.856   5.215   2.428
    3OL     H6S11087   2.703   5.144   2.402
    3OL     C1711088   2.730   5.221   2.600
    3OL     H7R11089   2.777   5.306   2.649
    3OL     H7S11090   2.786   5.135   2.636
    3OL     C1811091   2.582   5.215   2.640
    3OL     H8R11092   2.528   5.127   2.603
    3OL     H8S11093   2.531   5.303   2.600
    3OL     C1911094   2.581   5.198   2.790
    3OL     H9R11095   2.562   5.285   2.852
    3OL    C11011096   2.572   5.082   2.852
    3OL    H10R11097   2.546   5.087   2.957
    3OL    C11111098   2.587   4.944   2.791
    3OL    H11R11099   2.643   4.891   2.868
    3OL    H11S11100   2.657   4.945   2.707
    3OL    C11211101   2.459   4.862   2.768
    3OL    H12R11102   2.398   4.907   2.689
    3OL    H12S11103   2.407   4.870   2.863
    3OL    C11311104   2.499   4.719   2.731
    3OL    H13R11105   2.565   4.683   2.811
    3OL    H13S11106   2.570   4.729   2.648
    3OL    C11411107   2.388   4.614   2.716
    3OL    H14R11108   2.316   4.626   2.798
    3OL    H14S11109   2.431   4.514   2.726
    3OL    C11511110   2.319   4.624   2.579
    3OL    H15R11111   2.387   4.634   2.494
    3OL    H15S11112   2.264   4.718   2.571
    3OL    C11611113   2.214   4.513   2.567
    3OL    H16R11114   2.138   4.539   2.494
    3OL    H16S11115   2.165   4.513   2.664
    3OL    C11711116   2.256   4.366   2.555
    3OL    H17R11117   2.333   4.349   2.632
    3OL    H17S11118   2.316   4.341   2.468
    3OL    C11811119   2.137   4.270   2.565
    3OL    H18R11120   2.081   4.280   2.657
    3OL    H18S11121   2.167   4.166   2.552
    3OL    H18T11122   2.066   4.294   2.486
    1PA    C11611123   1.355   4.368   3.662
    1PA    H16R11124   1.309   4.467   3.661
    1PA    H16S11125   1.435   4.384   3.735
    1PA    H16T11126   1.284   4.297   3.705
    1PA    C11511127   1.402   4.323   3.523
    1PA    H15R11128   1.448   4.226   3.538
    1PA    H15S11129   1.310   4.318   3.464
    1PA    C11411130   1.491   4.431   3.459
    1PA    H14R11131   1.445   4.529   3.472
    1PA    H14S11132   1.586   4.438   3.513
    1PA    C11311133   1.512   4.398   3.311
    1PA    H13R11134   1.547   4.295   3.301
    1PA    H13S11135   1.415   4.400   3.262
    1PA    C11211136   1.591   4.514   3.247
    1PA    H12R11137   1.531   4.604   3.264
    1PA    H12S11138   1.683   4.532   3.303
    1PA    C11111139   1.611   4.491   3.097
    1PA    H11R11140   1.668   4.400   3.077
    1PA    H11S11141   1.514   4.478   3.048
    1PA    C11011142   1.676   4.614   3.032
    1PA    H10R11143   1.607   4.696   3.053
    1PA    H10S11144   1.769   4.634   3.084
    1PA     C1911145   1.703   4.582   2.884
    1PA     H9R11146   1.783   4.508   2.875
    1PA     H9S11147   1.617   4.541   2.831
    1PA     C1811148   1.757   4.710   2.818
    1PA     H8R11149   1.683   4.790   2.821
    1PA     H8S11150   1.830   4.747   2.890
    1PA     C1711151   1.808   4.699   2.674
    1PA     H7R11152   1.845   4.597   2.664
    1PA     H7S11153   1.731   4.700   2.597
    1PA     C1611154   1.918   4.801   2.642
    1PA     H6R11155   1.882   4.888   2.698
    1PA     H6S11156   2.016   4.776   2.684
    1PA     C1511157   1.959   4.806   2.494
    1PA     H5R11158   1.986   4.703   2.473
    1PA     H5S11159   1.869   4.819   2.433
    1PA     C1411160   2.066   4.911   2.460
    1PA     H4R11161   2.010   5.005   2.460
    1PA     H4S11162   2.135   4.911   2.544
    1PA     C1311163   2.120   4.871   2.322
    1PA     H3R11164   2.147   4.765   2.326
    1PA     H3S11165   2.040   4.867   2.247
    1PA     C1211166   2.241   4.955   2.284
    1PA     H2R11167   2.203   5.057   2.278
    1PA     H2S11168   2.323   4.966   2.355
    2PC     C1111169   2.313   4.904   2.161
    2PC     O1211170   2.270   4.825   2.080
    2PC     O1111171   2.437   4.956   2.151
    2PC      C111172   2.511   4.890   2.047
    2PC      HR11173   2.492   4.782   2.046
    2PC      HS11174   2.481   4.928   1.949
    2PC      C211175   2.661   4.913   2.071
    2PC      HX11176   2.692   5.017   2.083
    2PC      C311177   2.743   4.858   1.953
    2PC      HA11178   2.700   4.893   1.859
    2PC      HB11179   2.845   4.895   1.964
    2PC     O3111180   2.739   4.715   1.944
    2PC     P3111181   2.853   4.624   1.879
    2PC     O3211182   2.961   4.599   1.995
    2PC     C3111183   3.078   4.683   1.991
    2PC     H1A11184   3.125   4.662   1.894
    2PC     H1B11185   3.050   4.789   1.996
    2PC     C3211186   3.175   4.632   2.098
    2PC     H2A11187   3.259   4.701   2.084
    2PC     H2B11188   3.130   4.652   2.196
    2PC     N3111189   3.238   4.497   2.105
    2PC     C3311190   3.276   4.440   1.971
    2PC     H3A11191   3.358   4.505   1.939
    2PC     H3B11192   3.300   4.333   1.974
    2PC     H3C11193   3.190   4.443   1.904
    2PC     C3411194   3.352   4.495   2.202
    2PC     H4A11195   3.310   4.540   2.293
    2PC     H4B11196   3.376   4.390   2.215
    2PC     H4C11197   3.433   4.553   2.160
    2PC     C3511198   3.140   4.400   2.164
    2PC     H5A11199   3.165   4.298   2.137
    2PC     H5B11200   3.046   4.431   2.119
    2PC     H5C11201   3.138   4.421   2.271
    2PC     O3311202   2.781   4.497   1.855
    2PC     O3411203   2.909   4.665   1.748
    2PC     O2111204   2.696   4.839   2.189
    2PC     C2111205   2.815   4.854   2.250
    2PC     O2211206   2.899   4.929   2.205
    3OL     C1211207   2.826   4.761   2.368
    3OL     H2R11208   2.876   4.670   2.334
    3OL     H2S11209   2.723   4.741   2.398
    3OL     C1311210   2.902   4.822   2.486
    3OL     H3R11211   2.850   4.907   2.531
    3OL     H3S11212   2.999   4.863   2.461
    3OL     C1411213   2.926   4.710   2.589
    3OL     H4R11214   2.976   4.631   2.533
    3OL     H4S11215   2.833   4.668   2.628
    3OL     C1511216   3.013   4.749   2.709
    3OL     H5R11217   3.101   4.806   2.676
    3OL     H5S11218   3.046   4.653   2.749
    3OL     C1611219   2.938   4.826   2.818
    3OL     H6R11220   2.848   4.772   2.847
    3OL     H6S11221   2.903   4.926   2.791
    3OL     C1711222   3.032   4.862   2.934
    3OL     H7R11223   3.107   4.937   2.910
    3OL     H7S11224   3.076   4.768   2.968
    3OL     C1811225   2.954   4.919   3.054
    3OL     H8R11226   2.881   4.844   3.086
    3OL     H8S11227   2.892   5.004   3.024
    3OL     C1911228   3.046   4.965   3.164
    3OL     H9R11229   3.097   5.057   3.138
    3OL    C11011230   3.083   4.886   3.263
    3OL    H10R11231   3.160   4.911   3.336
    3OL    C11111232   3.021   4.754   3.303
    3OL    H11R11233   3.046   4.687   3.221
    3OL    H11S11234   2.915   4.744   3.282
    3OL    C11211235   3.063   4.700   3.441
    3OL    H12R11236   3.170   4.721   3.442
    3OL    H12S11237   3.048   4.592   3.443
    3OL    C11311238   2.988   4.759   3.561
    3OL    H13R11239   2.885   4.722   3.568
    3OL    H13S11240   2.983   4.868   3.557
    3OL    C11411241   3.059   4.727   3.694
    3OL    H14R11242   3.047   4.807   3.767
    3OL    H14S11243   3.166   4.716   3.677
    3OL    C11511244   3.008   4.596   3.756
    3OL    H15R11245   3.035   4.504   3.705
    3OL    H15S11246   2.899   4.604   3.765
    3OL    C11611247   3.051   4.580   3.903
    3OL    H16R11248   3.151   4.620   3.919
    3OL    H16S11249   3.053   4.474   3.927
    3OL    C11711250   2.947   4.637   4.000
    3OL    H17R11251   2.851   4.590   3.978
    3OL    H17S11252   2.935   4.744   3.985
    3OL    C11811253   2.999   4.605   4.141
    3OL    H18R11254   3.048   4.508   4.140
    3OL    H18S11255   2.927   4.607   4.224
    3OL    H18T11256   3.069   4.682   4.175
    1PA    C11611257   4.398   3.649   3.477
    1PA    H16R11258   4.343   3.661   3.571
    1PA    H16S11259   4.332   3.692   3.403
    1PA    H16T11260   4.493   3.700   3.496
    1PA    C11511261   4.425   3.499   3.459
    1PA    H15R11262   4.488   3.479   3.547
    1PA    H15S11263   4.329   3.450   3.470
    1PA    C11411264   4.511   3.461   3.337
    1PA    H14R11265   4.596   3.529   3.334
    1PA    H14S11266   4.535   3.358   3.359
    1PA    C11311267   4.430   3.472   3.207
    1PA    H13R11268   4.358   3.393   3.187
    1PA    H13S11269   4.368   3.562   3.212
    1PA    C11211270   4.528   3.475   3.088
    1PA    H12R11271   4.588   3.565   3.087
    1PA    H12S11272   4.602   3.397   3.104
    1PA    C11111273   4.449   3.460   2.957
    1PA    H11R11274   4.398   3.365   2.957
    1PA    H11S11275   4.371   3.534   2.941
    1PA    C11011276   4.546   3.473   2.838
    1PA    H10R11277   4.636   3.419   2.864
    1PA    H10S11278   4.505   3.423   2.751
    1PA     C1911279   4.590   3.616   2.804
    1PA     H9R11280   4.578   3.674   2.896
    1PA     H9S11281   4.697   3.616   2.779
    1PA     C1811282   4.500   3.674   2.694
    1PA     H8R11283   4.511   3.613   2.604
    1PA     H8S11284   4.400   3.683   2.735
    1PA     C1711285   4.559   3.814   2.670
    1PA     H7R11286   4.542   3.870   2.762
    1PA     H7S11287   4.666   3.810   2.649
    1PA     C1611288   4.504   3.888   2.547
    1PA     H6R11289   4.556   3.982   2.529
    1PA     H6S11290   4.512   3.832   2.453
    1PA     C1511291   4.359   3.936   2.562
    1PA     H5R11292   4.285   3.861   2.533
    1PA     H5S11293   4.334   3.964   2.664
    1PA     C1411294   4.330   4.064   2.481
    1PA     H4R11295   4.237   4.107   2.517
    1PA     H4S11296   4.407   4.141   2.485
    1PA     C1311297   4.309   4.033   2.332
    1PA     H3R11298   4.282   4.122   2.275
    1PA     H3S11299   4.408   4.011   2.290
    1PA     C1211300   4.208   3.923   2.297
    1PA     H2R11301   4.250   3.824   2.318
    1PA     H2S11302   4.122   3.932   2.365
    2PC     C1111303   4.166   3.921   2.152
    2PC     O1211304   4.205   3.996   2.065
    2PC     O1111305   4.083   3.820   2.126
    2PC      C111306   4.024   3.816   1.994
    2PC      HR11307   3.979   3.912   1.969
    2PC      HS11308   4.105   3.794   1.925
    2PC      C211309   3.917   3.706   1.996
    2PC      HX11310   3.966   3.608   2.002
    2PC      C311311   3.829   3.700   1.871
    2PC      HA11312   3.887   3.652   1.791
    2PC      HB11313   3.747   3.633   1.898
    2PC     O3111314   3.778   3.829   1.833
    2PC     P3111315   3.682   3.831   1.704
    2PC     O3211316   3.584   3.957   1.720
    2PC     C3111317   3.557   4.020   1.594
    2PC     H1A11318   3.634   4.097   1.581
    2PC     H1B11319   3.553   3.941   1.519
    2PC     C3211320   3.422   4.092   1.606
    2PC     H2A11321   3.418   4.143   1.702
    2PC     H2B11322   3.405   4.172   1.533
    2PC     N3111323   3.302   4.002   1.612
    2PC     C3311324   3.176   4.079   1.636
    2PC     H3A11325   3.089   4.025   1.599
    2PC     H3B11326   3.170   4.085   1.745
    2PC     H3C11327   3.175   4.174   1.582
    2PC     C3411328   3.280   3.949   1.473
    2PC     H4A11329   3.194   3.882   1.476
    2PC     H4B11330   3.254   4.027   1.401
    2PC     H4C11331   3.365   3.885   1.451
    2PC     C3511332   3.320   3.881   1.698
    2PC     H5A11333   3.240   3.808   1.689
    2PC     H5B11334   3.327   3.921   1.800
    2PC     H5C11335   3.415   3.837   1.670
    2PC     O3311336   3.757   3.827   1.576
    2PC     O3411337   3.604   3.706   1.694
    2PC     O2111338   3.832   3.720   2.112
    2PC     C2111339   3.778   3.614   2.174
    2PC     O2211340   3.785   3.500   2.133
    3OL     C1211341   3.710   3.648   2.305
    3OL     H2R11342   3.601   3.656   2.305
    3OL     H2S11343   3.737   3.748   2.340
    3OL     C1311344   3.764   3.547   2.407
    3OL     H3R11345   3.867   3.572   2.432
    3OL     H3S11346   3.752   3.444   2.375
    3OL     C1411347   3.692   3.560   2.543
    3OL     H4R11348   3.583   3.555   2.546
    3OL     H4S11349   3.720   3.657   2.585
    3OL     C1511350   3.753   3.456   2.637
    3OL     H5R11351   3.862   3.464   2.638
    3OL     H5S11352   3.730   3.354   2.606
    3OL     C1611353   3.718   3.484   2.784
    3OL     H6R11354   3.614   3.519   2.787
    3OL     H6S11355   3.779   3.572   2.806
    3OL     C1711356   3.759   3.364   2.869
    3OL     H7R11357   3.864   3.345   2.848
    3OL     H7S11358   3.701   3.276   2.842
    3OL     C1811359   3.734   3.400   3.016
    3OL     H8R11360   3.782   3.493   3.046
    3OL     H8S11361   3.795   3.326   3.067
    3OL     C1911362   3.587   3.401   3.049
    3OL     H9R11363   3.546   3.500   3.035
    3OL    C11011364   3.507   3.304   3.091
    3OL    H10R11365   3.400   3.321   3.102
    3OL    C11111366   3.560   3.174   3.146
    3OL    H11R11367   3.667   3.171   3.127
    3OL    H11S11368   3.516   3.093   3.088
    3OL    C11211369   3.534   3.153   3.296
    3OL    H12R11370   3.433   3.112   3.298
    3OL    H12S11371   3.536   3.251   3.345
    3OL    C11311372   3.637   3.060   3.361
    3OL    H13R11373   3.736   3.108   3.363
    3OL    H13S11374   3.652   2.972   3.298
    3OL    C11411375   3.590   3.032   3.504
    3OL    H14R11376   3.499   2.972   3.503
    3OL    H14S11377   3.581   3.131   3.550
    3OL    C11511378   3.698   2.958   3.583
    3OL    H15R11379   3.795   3.007   3.580
    3OL    H15S11380   3.719   2.862   3.534
    3OL    C11611381   3.659   2.926   3.728
    3OL    H16R11382   3.577   2.854   3.734
    3OL    H16S11383   3.642   3.021   3.780
    3OL    C11711384   3.779   2.859   3.797
    3OL    H17R11385   3.853   2.938   3.807
    3OL    H17S11386   3.815   2.778   3.733
    3OL    C11811387   3.741   2.802   3.934
    3OL    H18R11388   3.702   2.700   3.934
    3OL    H18S11389   3.667   2.864   3.985
    3OL    H18T11390   3.827   2.803   4.002
    1PA    C11611391   4.023   0.791   3.741
    1PA    H16R11392   3.929   0.753   3.701
    1PA    H16S11393   4.028   0.899   3.725
    1PA    H16T11394   4.025   0.765   3.847
    1PA    C11511395   4.149   0.729   3.679
    1PA    H15R11396   4.161   0.754   3.573
    1PA    H15S11397   4.240   0.764   3.727
    1PA    C11411398   4.143   0.577   3.700
    1PA    H14R11399   4.245   0.537   3.707
    1PA    H14S11400   4.109   0.547   3.799
    1PA    C11311401   4.081   0.496   3.585
    1PA    H13R11402   3.973   0.507   3.585
    1PA    H13S11403   4.127   0.520   3.489
    1PA    C11211404   4.105   0.345   3.603
    1PA    H12R11405   4.212   0.335   3.623
    1PA    H12S11406   4.054   0.304   3.689
    1PA    C11111407   4.078   0.259   3.479
    1PA    H11R11408   3.973   0.269   3.448
    1PA    H11S11409   4.142   0.302   3.401
    1PA    C11011410   4.110   0.110   3.495
    1PA    H10R11411   4.207   0.089   3.541
    1PA    H10S11412   4.036   0.063   3.559
    1PA     C1911413   4.104   0.031   3.364
    1PA     H9R11414   4.021   0.065   3.302
    1PA     H9S11415   4.190   0.055   3.301
    1PA     C1811416   4.093  -0.121   3.383
    1PA     H8R11417   4.172  -0.144   3.455
    1PA     H8S11418   4.011  -0.152   3.448
    1PA     C1711419   4.087  -0.205   3.255
    1PA     H7R11420   4.064  -0.308   3.281
    1PA     H7S11421   4.005  -0.173   3.189
    1PA     C1611422   4.227  -0.208   3.193
    1PA     H6R11423   4.249  -0.105   3.164
    1PA     H6S11424   4.305  -0.243   3.261
    1PA     C1511425   4.225  -0.292   3.064
    1PA     H5R11426   4.201  -0.393   3.099
    1PA     H5S11427   4.150  -0.260   2.992
    1PA     C1411428   4.360  -0.298   2.993
    1PA     H4R11429   4.437  -0.321   3.067
    1PA     H4S11430   4.359  -0.378   2.918
    1PA     C1311431   4.407  -0.174   2.916
    1PA     H3R11432   4.339  -0.147   2.835
    1PA     H3S11433   4.395  -0.090   2.985
    1PA     C1211434   4.550  -0.200   2.869
    1PA     H2R11435   4.615  -0.224   2.954
    1PA     H2S11436   4.550  -0.294   2.813
    2PC     C1111437   4.597  -0.093   2.773
    2PC     O1211438   4.513  -0.028   2.715
    2PC     O1111439   4.730  -0.080   2.770
    2PC      C111440   4.788   0.006   2.670
    2PC      HR11441   4.896  -0.013   2.677
    2PC      HS11442   4.753  -0.020   2.570
    2PC      C211443   4.756   0.155   2.687
    2PC      HX11444   4.650   0.171   2.709
    2PC      C311445   4.802   0.241   2.568
    2PC      HA11446   4.729   0.213   2.492
    2PC      HB11447   4.806   0.349   2.586
    2PC     O3111448   4.927   0.184   2.525
    2PC     P3111449   4.957   0.211   2.370
    2PC     O3211450   5.096   0.134   2.351
    2PC     C3111451   5.165   0.149   2.226
    2PC     H1A11452   5.124   0.070   2.163
    2PC     H1B11453   5.139   0.245   2.180
    2PC     C3211454   5.317   0.126   2.232
    2PC     H2A11455   5.342   0.051   2.307
    2PC     H2B11456   5.348   0.107   2.129
    2PC     N3111457   5.402   0.241   2.276
    2PC     C3311458   5.345   0.287   2.406
    2PC     H3A11459   5.415   0.360   2.447
    2PC     H3B11460   5.243   0.328   2.405
    2PC     H3C11461   5.344   0.198   2.469
    2PC     C3411462   5.539   0.182   2.290
    2PC     H4A11463   5.585   0.180   2.191
    2PC     H4B11464   5.595   0.244   2.361
    2PC     H4C11465   5.536   0.087   2.342
    2PC     C3511466   5.396   0.354   2.178
    2PC     H5A11467   5.482   0.344   2.111
    2PC     H5B11468   5.403   0.443   2.241
    2PC     H5C11469   5.302   0.370   2.126
    2PC     O3311470   4.855   0.148   2.283
    2PC     O3411471   4.969   0.355   2.338
    2PC     O2111472   4.817   0.208   2.805
    2PC     C2111473   4.767   0.320   2.860
    2PC     O2211474   4.677   0.378   2.803
    3OL     C1211475   4.836   0.361   2.988
    3OL     H2R11476   4.930   0.308   2.975
    3OL     H2S11477   4.787   0.308   3.070
    3OL     C1311478   4.848   0.514   2.991
    3OL     H3R11479   4.753   0.563   2.972
    3OL     H3S11480   4.924   0.545   2.920
    3OL     C1411481   4.891   0.558   3.132
    3OL     H4R11482   4.979   0.504   3.169
    3OL     H4S11483   4.804   0.538   3.194
    3OL     C1511484   4.922   0.708   3.129
    3OL     H5R11485   4.835   0.773   3.118
    3OL     H5S11486   4.985   0.716   3.040
    3OL     C1611487   4.999   0.748   3.256
    3OL     H6R11488   5.101   0.710   3.265
    3OL     H6S11489   4.941   0.714   3.342
    3OL     C1711490   5.008   0.901   3.273
    3OL     H7R11491   4.908   0.942   3.283
    3OL     H7S11492   5.058   0.945   3.186
    3OL     C1811493   5.094   0.940   3.394
    3OL     H8R11494   5.074   0.861   3.467
    3OL     H8S11495   5.056   1.033   3.436
    3OL     C1911496   5.238   0.960   3.357
    3OL     H9R11497   5.269   0.913   3.264
    3OL    C11011498   5.336   1.008   3.432
    3OL    H10R11499   5.430   1.011   3.377
    3OL    C11111500   5.322   1.067   3.570
    3OL    H11R11501   5.221   1.105   3.582
    3OL    H11S11502   5.381   1.158   3.586
    3OL    C11211503   5.341   0.966   3.684
    3OL    H12R11504   5.244   0.916   3.686
    3OL    H12S11505   5.356   1.010   3.783
    3OL    C11311506   5.452   0.862   3.669
    3OL    H13R11507   5.545   0.907   3.706
    3OL    H13S11508   5.465   0.832   3.565
    3OL    C11411509   5.429   0.743   3.763
    3OL    H14R11510   5.341   0.686   3.735
    3OL    H14S11511   5.413   0.781   3.864
    3OL    C11511512   5.551   0.649   3.759
    3OL    H15R11513   5.559   0.586   3.848
    3OL    H15S11514   5.643   0.708   3.751
    3OL    C11611515   5.537   0.558   3.637
    3OL    H16R11516   5.552   0.623   3.550
    3OL    H16S11517   5.433   0.529   3.624
    3OL    C11711518   5.644   0.448   3.631
    3OL    H17R11519   5.601   0.379   3.558
    3OL    H17S11520   5.654   0.403   3.730
    3OL    C11811521   5.780   0.499   3.583
    3OL    H18R11522   5.810   0.590   3.633
    3OL    H18S11523   5.761   0.522   3.478
    3OL    H18T11524   5.855   0.419   3.590
    1PA    C11611525   5.159   3.964   3.856
    1PA    H16R11526   5.137   3.983   3.961
    1PA    H16S11527   5.250   4.017   3.825
    1PA    H16T11528   5.167   3.856   3.850
    1PA    C11511529   5.035   4.011   3.779
    1PA    H15R11530   4.951   3.991   3.846
    1PA    H15S11531   5.041   4.120   3.766
    1PA    C11411532   5.018   3.947   3.640
    1PA    H14R11533   5.109   3.961   3.582
    1PA    H14S11534   5.006   3.839   3.646
    1PA    C11311535   4.902   4.006   3.559
    1PA    H13R11536   4.818   4.029   3.625
    1PA    H13S11537   4.938   4.101   3.520
    1PA    C11211538   4.849   3.923   3.442
    1PA    H12R11539   4.926   3.910   3.365
    1PA    H12S11540   4.811   3.829   3.484
    1PA    C11111541   4.728   3.991   3.377
    1PA    H11R11542   4.642   3.980   3.443
    1PA    H11S11543   4.731   4.100   3.370
    1PA    C11011544   4.685   3.915   3.251
    1PA    H10R11545   4.738   3.945   3.161
    1PA    H10S11546   4.695   3.807   3.264
    1PA     C1911547   4.539   3.953   3.223
    1PA     H9R11548   4.477   3.939   3.312
    1PA     H9S11549   4.535   4.059   3.196
    1PA     C1811550   4.494   3.873   3.100
    1PA     H8R11551   4.553   3.900   3.012
    1PA     H8S11552   4.514   3.766   3.116
    1PA     C1711553   4.342   3.887   3.083
    1PA     H7R11554   4.322   3.819   3.000
    1PA     H7S11555   4.305   3.859   3.182
    1PA     C1611556   4.310   4.033   3.049
    1PA     H6R11557   4.327   4.097   3.136
    1PA     H6S11558   4.378   4.066   2.970
    1PA     C1511559   4.163   4.045   3.008
    1PA     H5R11560   4.142   3.990   2.916
    1PA     H5S11561   4.109   4.005   3.094
    1PA     C1411562   4.105   4.185   2.981
    1PA     H4R11563   4.006   4.173   2.937
    1PA     H4S11564   4.099   4.238   3.076
    1PA     C1311565   4.187   4.259   2.875
    1PA     H3R11566   4.292   4.266   2.905
    1PA     H3S11567   4.182   4.198   2.785
    1PA     C1211568   4.129   4.398   2.843
    1PA     H2R11569   4.022   4.397   2.823
    1PA     H2S11570   4.142   4.462   2.931
    2PC     C1111571   4.198   4.459   2.724
    2PC     O1211572   4.212   4.580   2.725
    2PC     O1111573   4.225   4.367   2.631
    2PC      C111574   4.300   4.414   2.517
    2PC      HR11575   4.296   4.342   2.435
    2PC      HS11576   4.255   4.506   2.479
    2PC      C211577   4.447   4.443   2.551
    2PC      HX11578   4.451   4.527   2.621
    2PC      C311579   4.525   4.466   2.421
    2PC      HA11580   4.471   4.536   2.357
    2PC      HB11581   4.625   4.505   2.443
    2PC     O3111582   4.525   4.338   2.356
    2PC     P3111583   4.585   4.344   2.207
    2PC     O3211584   4.745   4.341   2.214
    2PC     C3111585   4.822   4.359   2.094
    2PC     H1A11586   4.787   4.450   2.045
    2PC     H1B11587   4.926   4.372   2.128
    2PC     C3211588   4.821   4.229   2.014
    2PC     H2A11589   4.847   4.148   2.082
    2PC     H2B11590   4.727   4.195   1.970
    2PC     N3111591   4.919   4.215   1.901
    2PC     C3311592   5.058   4.235   1.951
    2PC     H3A11593   5.078   4.341   1.965
    2PC     H3B11594   5.073   4.170   2.038
    2PC     H3C11595   5.124   4.214   1.867
    2PC     C3411596   4.919   4.076   1.844
    2PC     H4A11597   5.007   4.078   1.778
    2PC     H4B11598   4.929   4.005   1.926
    2PC     H4C11599   4.823   4.061   1.794
    2PC     C3511600   4.911   4.314   1.789
    2PC     H5A11601   4.909   4.410   1.843
    2PC     H5B11602   4.822   4.299   1.729
    2PC     H5C11603   5.002   4.305   1.729
    2PC     O3311604   4.539   4.231   2.123
    2PC     O3411605   4.520   4.454   2.132
    2PC     O2111606   4.505   4.341   2.635
    2PC     C2111607   4.632   4.350   2.676
    2PC     O2211608   4.699   4.450   2.661
    3OL     C1211609   4.677   4.229   2.755
    3OL     H2R11610   4.784   4.227   2.777
    3OL     H2S11611   4.652   4.148   2.687
    3OL     C1311612   4.591   4.211   2.881
    3OL     H3R11613   4.609   4.113   2.924
    3OL     H3S11614   4.488   4.221   2.845
    3OL     C1411615   4.627   4.308   2.995
    3OL     H4R11616   4.545   4.304   3.067
    3OL     H4S11617   4.620   4.411   2.961
    3OL     C1511618   4.749   4.265   3.076
    3OL     H5R11619   4.840   4.284   3.019
    3OL     H5S11620   4.746   4.157   3.092
    3OL     C1611621   4.767   4.337   3.210
    3OL     H6R11622   4.841   4.280   3.267
    3OL     H6S11623   4.673   4.334   3.266
    3OL     C1711624   4.825   4.477   3.185
    3OL     H7R11625   4.755   4.534   3.124
    3OL     H7S11626   4.912   4.475   3.120
    3OL     C1811627   4.851   4.535   3.325
    3OL     H8R11628   4.886   4.636   3.303
    3OL     H8S11629   4.928   4.470   3.367
    3OL     C1911630   4.726   4.553   3.406
    3OL     H9R11631   4.652   4.615   3.356
    3OL    C11011632   4.706   4.500   3.526
    3OL    H10R11633   4.620   4.522   3.588
    3OL    C11111634   4.804   4.415   3.604
    3OL    H11R11635   4.891   4.388   3.544
    3OL    H11S11636   4.758   4.321   3.636
    3OL    C11211637   4.865   4.499   3.717
    3OL    H12R11638   4.778   4.549   3.761
    3OL    H12S11639   4.930   4.578   3.680
    3OL    C11311640   4.933   4.410   3.822
    3OL    H13R11641   5.032   4.378   3.790
    3OL    H13S11642   4.886   4.312   3.826
    3OL    C11411643   4.937   4.477   3.960
    3OL    H14R11644   4.834   4.496   3.991
    3OL    H14S11645   4.988   4.573   3.951
    3OL    C11511646   5.011   4.388   4.060
    3OL    H15R11647   4.939   4.309   4.084
    3OL    H15S11648   5.023   4.452   4.148
    3OL    C11611649   5.141   4.317   4.017
    3OL    H16R11650   5.195   4.396   3.963
    3OL    H16S11651   5.104   4.235   3.955
    3OL    C11711652   5.230   4.273   4.134
    3OL    H17R11653   5.265   4.366   4.180
    3OL    H17S11654   5.322   4.222   4.104
    3OL    C11811655   5.165   4.165   4.222
    3OL    H18R11656   5.067   4.204   4.248
    3OL    H18S11657   5.215   4.147   4.318
    3OL    H18T11658   5.150   4.077   4.160
    1PA    C11611659   6.215   6.120   3.887
    1PA    H16R11660   6.244   6.016   3.900
    1PA    H16S11661   6.108   6.144   3.895
    1PA    H16T11662   6.259   6.177   3.969
    1PA    C11511663   6.262   6.173   3.751
    1PA    H15R11664   6.210   6.107   3.682
    1PA    H15S11665   6.219   6.273   3.738
    1PA    C11411666   6.414   6.167   3.728
    1PA    H14R11667   6.470   6.229   3.798
    1PA    H14S11668   6.442   6.063   3.749
    1PA    C11311669   6.462   6.207   3.588
    1PA    H13R11670   6.411   6.300   3.563
    1PA    H13S11671   6.568   6.235   3.580
    1PA    C11211672   6.431   6.100   3.483
    1PA    H12R11673   6.339   6.060   3.526
    1PA    H12S11674   6.414   6.144   3.384
    1PA    C11111675   6.541   5.994   3.468
    1PA    H11R11676   6.572   5.960   3.567
    1PA    H11S11677   6.506   5.906   3.414
    1PA    C11011678   6.665   6.041   3.391
    1PA    H10R11679   6.709   6.129   3.439
    1PA    H10S11680   6.735   5.957   3.398
    1PA     C1911681   6.647   6.060   3.240
    1PA     H9R11682   6.625   5.963   3.194
    1PA     H9S11683   6.557   6.119   3.221
    1PA     C1811684   6.774   6.122   3.180
    1PA     H8R11685   6.807   6.206   3.243
    1PA     H8S11686   6.847   6.041   3.176
    1PA     C1711687   6.749   6.170   3.036
    1PA     H7R11688   6.685   6.258   3.040
    1PA     H7S11689   6.852   6.198   3.012
    1PA     C1611690   6.694   6.059   2.946
    1PA     H6R11691   6.753   5.969   2.962
    1PA     H6S11692   6.593   6.041   2.982
    1PA     C1511693   6.700   6.103   2.799
    1PA     H5R11694   6.640   6.192   2.779
    1PA     H5S11695   6.801   6.128   2.767
    1PA     C1411696   6.645   5.993   2.706
    1PA     H4R11697   6.708   5.904   2.709
    1PA     H4S11698   6.544   5.972   2.740
    1PA     C1311699   6.633   6.030   2.558
    1PA     H3R11700   6.546   6.095   2.546
    1PA     H3S11701   6.722   6.083   2.525
    1PA     C1211702   6.595   5.909   2.471
    1PA     H2R11703   6.680   5.853   2.433
    1PA     H2S11704   6.540   5.835   2.529
    2PC     C1111705   6.508   5.937   2.351
    2PC     O1211706   6.538   6.020   2.268
    2PC     O1111707   6.392   5.869   2.356
    2PC      C111708   6.292   5.895   2.256
    2PC      HR11709   6.259   5.999   2.258
    2PC      HS11710   6.329   5.874   2.155
    2PC      C211711   6.175   5.798   2.274
    2PC      HX11712   6.217   5.697   2.268
    2PC      C311713   6.062   5.813   2.171
    2PC      HA11714   6.101   5.790   2.072
    2PC      HB11715   5.979   5.743   2.185
    2PC     O3111716   6.028   5.953   2.174
    2PC     P3111717   5.893   6.003   2.104
    2PC     O3211718   5.779   5.916   2.176
    2PC     C3111719   5.653   5.901   2.108
    2PC     H1A11720   5.619   5.996   2.067
    2PC     H1B11721   5.680   5.833   2.027
    2PC     C3211722   5.553   5.835   2.204
    2PC     H2A11723   5.455   5.832   2.156
    2PC     H2B11724   5.578   5.731   2.224
    2PC     N3111725   5.516   5.891   2.338
    2PC     C3311726   5.478   6.035   2.317
    2PC     H3A11727   5.449   6.087   2.408
    2PC     H3B11728   5.562   6.087   2.269
    2PC     H3C11729   5.394   6.035   2.248
    2PC     C3411730   5.400   5.823   2.404
    2PC     H4A11731   5.314   5.859   2.347
    2PC     H4B11732   5.414   5.715   2.396
    2PC     H4C11733   5.398   5.841   2.512
    2PC     C3511734   5.624   5.881   2.442
    2PC     H5A11735   5.627   5.776   2.471
    2PC     H5B11736   5.594   5.943   2.527
    2PC     H5C11737   5.719   5.909   2.397
    2PC     O3311738   5.894   6.150   2.121
    2PC     O3411739   5.891   5.993   1.956
    2PC     O2111740   6.124   5.816   2.407
    2PC     C2111741   6.058   5.713   2.463
    2PC     O2211742   6.016   5.623   2.393
    3OL     C1211743   6.032   5.729   2.611
    3OL     H2R11744   6.079   5.817   2.656
    3OL     H2S11745   6.078   5.637   2.647
    3OL     C1311746   5.885   5.725   2.653
    3OL     H3R11747   5.837   5.639   2.606
    3OL     H3S11748   5.836   5.814   2.613
    3OL     C1411749   5.857   5.725   2.804
    3OL     H4R11750   5.918   5.645   2.845
    3OL     H4S11751   5.751   5.706   2.826
    3OL     C1511752   5.900   5.856   2.873
    3OL     H5R11753   5.848   5.936   2.820
    3OL     H5S11754   6.007   5.867   2.851
    3OL     C1611755   5.871   5.843   3.023
    3OL     H6R11756   5.776   5.793   3.043
    3OL     H6S11757   5.867   5.944   3.064
    3OL     C1711758   5.973   5.763   3.105
    3OL     H7R11759   6.071   5.796   3.071
    3OL     H7S11760   5.976   5.656   3.083
    3OL     C1811761   5.975   5.786   3.256
    3OL     H8R11762   5.999   5.890   3.280
    3OL     H8S11763   6.053   5.723   3.298
    3OL     C1911764   5.841   5.739   3.307
    3OL     H9R11765   5.764   5.809   3.275
    3OL    C11011766   5.815   5.626   3.370
    3OL    H10R11767   5.715   5.590   3.392
    3OL    C11111768   5.914   5.523   3.420
    3OL    H11R11769   5.995   5.581   3.465
    3OL    H11S11770   5.949   5.474   3.329
    3OL    C11211771   5.840   5.433   3.520
    3OL    H12R11772   5.900   5.349   3.554
    3OL    H12S11773   5.751   5.390   3.474
    3OL    C11311774   5.802   5.517   3.642
    3OL    H13R11775   5.720   5.585   3.621
    3OL    H13S11776   5.887   5.577   3.674
    3OL    C11411777   5.774   5.431   3.766
    3OL    H14R11778   5.869   5.393   3.803
    3OL    H14S11779   5.708   5.347   3.741
    3OL    C11511780   5.714   5.528   3.869
    3OL    H15R11781   5.634   5.585   3.822
    3OL    H15S11782   5.793   5.601   3.891
    3OL    C11611783   5.665   5.458   3.997
    3OL    H16R11784   5.583   5.393   3.967
    3OL    H16S11785   5.619   5.529   4.066
    3OL    C11711786   5.779   5.382   4.067
    3OL    H17R11787   5.874   5.428   4.039
    3OL    H17S11788   5.781   5.277   4.036
    3OL    C11811789   5.764   5.396   4.219
    3OL    H18R11790   5.684   5.335   4.260
    3OL    H18S11791   5.737   5.498   4.248
    3OL    H18T11792   5.854   5.364   4.271
    1PA    C11611793   4.569   0.098   3.560
    1PA    H16R11794   4.567   0.183   3.629
    1PA    H16S11795   4.671   0.077   3.528
    1PA    H16T11796   4.521   0.009   3.601
    1PA    C11511797   4.495   0.126   3.428
    1PA    H15R11798   4.398   0.168   3.453
    1PA    H15S11799   4.551   0.210   3.387
    1PA    C11411800   4.481   0.010   3.329
    1PA    H14R11801   4.428  -0.059   3.394
    1PA    H14S11802   4.414   0.032   3.246
    1PA    C11311803   4.606  -0.067   3.285
    1PA    H13R11804   4.653  -0.111   3.373
    1PA    H13S11805   4.581  -0.139   3.207
    1PA    C11211806   4.715   0.030   3.238
    1PA    H12R11807   4.671   0.103   3.169
    1PA    H12S11808   4.761   0.087   3.319
    1PA    C11111809   4.836  -0.040   3.173
    1PA    H11R11810   4.872  -0.115   3.243
    1PA    H11S11811   4.796  -0.094   3.087
    1PA    C11011812   4.953   0.047   3.126
    1PA    H10R11813   5.029  -0.019   3.085
    1PA    H10S11814   4.920   0.114   3.047
    1PA     C1911815   5.019   0.115   3.248
    1PA     H9R11816   4.967   0.209   3.268
    1PA     H9S11817   5.018   0.053   3.338
    1PA     C1811818   5.162   0.163   3.221
    1PA     H8R11819   5.220   0.070   3.210
    1PA     H8S11820   5.180   0.213   3.126
    1PA     C1711821   5.200   0.252   3.340
    1PA     H7R11822   5.126   0.331   3.354
    1PA     H7S11823   5.202   0.202   3.437
    1PA     C1611824   5.336   0.319   3.315
    1PA     H6R11825   5.399   0.300   3.402
    1PA     H6S11826   5.379   0.261   3.233
    1PA     C1511827   5.335   0.466   3.270
    1PA     H5R11828   5.272   0.475   3.180
    1PA     H5S11829   5.293   0.528   3.349
    1PA     C1411830   5.478   0.512   3.240
    1PA     H4R11831   5.535   0.514   3.333
    1PA     H4S11832   5.524   0.434   3.178
    1PA     C1311833   5.475   0.653   3.180
    1PA     H3R11834   5.412   0.657   3.091
    1PA     H3S11835   5.433   0.722   3.254
    1PA     C1211836   5.618   0.701   3.149
    1PA     H2R11837   5.628   0.809   3.154
    1PA     H2S11838   5.677   0.657   3.229
    2PC     C1111839   5.671   0.652   3.016
    2PC     O1211840   5.627   0.561   2.949
    2PC     O1111841   5.781   0.725   2.991
    2PC      C111842   5.839   0.711   2.860
    2PC      HR11843   5.939   0.755   2.854
    2PC      HS11844   5.843   0.609   2.820
    2PC      C211845   5.756   0.802   2.768
    2PC      HX11846   5.651   0.773   2.775
    2PC      C311847   5.797   0.790   2.621
    2PC      HA11848   5.880   0.861   2.609
    2PC      HB11849   5.835   0.690   2.597
    2PC     O3111850   5.685   0.825   2.538
    2PC     P3111851   5.709   0.881   2.390
    2PC     O3211852   5.778   1.022   2.422
    2PC     C3111853   5.814   1.099   2.306
    2PC     H1A11854   5.749   1.072   2.223
    2PC     H1B11855   5.797   1.205   2.326
    2PC     C3211856   5.960   1.061   2.277
    2PC     H2A11857   6.000   1.053   2.378
    2PC     H2B11858   5.970   0.960   2.237
    2PC     N3111859   6.049   1.151   2.198
    2PC     C3311860   6.190   1.102   2.212
    2PC     H3A11861   6.176   0.994   2.216
    2PC     H3B11862   6.250   1.124   2.124
    2PC     H3C11863   6.229   1.137   2.308
    2PC     C3411864   6.003   1.136   2.056
    2PC     H4A11865   6.077   1.166   1.983
    2PC     H4B11866   5.971   1.034   2.033
    2PC     H4C11867   5.918   1.203   2.041
    2PC     C3511868   6.054   1.298   2.229
    2PC     H5A11869   5.955   1.342   2.233
    2PC     H5B11870   6.108   1.340   2.144
    2PC     H5C11871   6.118   1.310   2.317
    2PC     O3311872   5.807   0.791   2.325
    2PC     O3411873   5.585   0.916   2.316
    2PC     O2111874   5.769   0.937   2.814
    2PC     C2111875   5.684   1.033   2.773
    2PC     O2211876   5.578   1.008   2.720
    3OL     C1211877   5.745   1.164   2.815
    3OL     H2R11878   5.810   1.205   2.737
    3OL     H2S11879   5.820   1.149   2.893
    3OL     C1311880   5.642   1.269   2.859
    3OL     H3R11881   5.558   1.269   2.789
    3OL     H3S11882   5.688   1.367   2.845
    3OL     C1411883   5.602   1.251   3.006
    3OL     H4R11884   5.688   1.264   3.072
    3OL     H4S11885   5.576   1.146   3.023
    3OL     C1511886   5.484   1.342   3.041
    3OL     H5R11887   5.408   1.336   2.963
    3OL     H5S11888   5.516   1.446   3.050
    3OL     C1611889   5.420   1.299   3.174
    3OL     H6R11890   5.496   1.268   3.246
    3OL     H6S11891   5.362   1.208   3.155
    3OL     C1711892   5.334   1.409   3.237
    3OL     H7R11893   5.249   1.434   3.174
    3OL     H7S11894   5.388   1.502   3.254
    3OL     C1811895   5.266   1.373   3.370
    3OL     H8R11896   5.345   1.357   3.444
    3OL     H8S11897   5.210   1.280   3.356
    3OL     C1911898   5.171   1.482   3.411
    3OL     H9R11899   5.217   1.581   3.419
    3OL    C11011900   5.040   1.470   3.425
    3OL    H10R11901   4.982   1.556   3.457
    3OL    C11111902   4.956   1.345   3.412
    3OL    H11R11903   4.896   1.332   3.502
    3OL    H11S11904   5.016   1.254   3.405
    3OL    C11211905   4.859   1.356   3.294
    3OL    H12R11906   4.918   1.354   3.202
    3OL    H12S11907   4.806   1.451   3.307
    3OL    C11311908   4.758   1.241   3.306
    3OL    H13R11909   4.816   1.148   3.312
    3OL    H13S11910   4.694   1.234   3.218
    3OL    C11411911   4.659   1.252   3.422
    3OL    H14R11912   4.586   1.333   3.417
    3OL    H14S11913   4.709   1.257   3.520
    3OL    C11511914   4.567   1.129   3.419
    3OL    H15R11915   4.626   1.040   3.444
    3OL    H15S11916   4.515   1.118   3.324
    3OL    C11611917   4.440   1.133   3.505
    3OL    H16R11918   4.378   1.044   3.501
    3OL    H16S11919   4.376   1.212   3.464
    3OL    C11711920   4.476   1.176   3.648
    3OL    H17R11921   4.518   1.277   3.652
    3OL    H17S11922   4.545   1.103   3.688
    3OL    C11811923   4.345   1.185   3.728
    3OL    H18R11924   4.286   1.095   3.710
    3OL    H18S11925   4.286   1.272   3.698
    3OL    H18T11926   4.364   1.197   3.834
    1PA    C11611927   4.084   5.254   3.700
    1PA    H16R11928   4.043   5.314   3.782
    1PA    H16S11929   4.168   5.299   3.647
    1PA    H16T11930   4.126   5.160   3.737
    1PA    C11511931   3.975   5.216   3.599
    1PA    H15R11932   4.010   5.128   3.544
    1PA    H15S11933   3.885   5.185   3.651
    1PA    C11411934   3.946   5.333   3.504
    1PA    H14R11935   3.930   5.429   3.553
    1PA    H14S11936   4.043   5.348   3.455
    1PA    C11311937   3.833   5.300   3.406
    1PA    H13R11938   3.833   5.198   3.366
    1PA    H13S11939   3.740   5.291   3.462
    1PA    C11211940   3.816   5.402   3.293
    1PA    H12R11941   3.818   5.504   3.334
    1PA    H12S11942   3.903   5.407   3.228
    1PA    C11111943   3.684   5.377   3.218
    1PA    H11R11944   3.683   5.298   3.143
    1PA    H11S11945   3.604   5.359   3.289
    1PA    C11011946   3.639   5.506   3.146
    1PA    H10R11947   3.532   5.517   3.130
    1PA    H10S11948   3.659   5.590   3.213
    1PA     C1911949   3.703   5.519   3.007
    1PA     H9R11950   3.812   5.519   3.016
    1PA     H9S11951   3.678   5.432   2.946
    1PA     C1811952   3.646   5.641   2.933
    1PA     H8R11953   3.632   5.728   2.997
    1PA     H8S11954   3.733   5.677   2.878
    1PA     C1711955   3.525   5.606   2.846
    1PA     H7R11956   3.543   5.521   2.779
    1PA     H7S11957   3.447   5.580   2.917
    1PA     C1611958   3.481   5.723   2.757
    1PA     H6R11959   3.425   5.786   2.826
    1PA     H6S11960   3.562   5.777   2.708
    1PA     C1511961   3.378   5.681   2.651
    1PA     H5R11962   3.302   5.616   2.695
    1PA     H5S11963   3.327   5.763   2.600
    1PA     C1411964   3.440   5.588   2.546
    1PA     H4R11965   3.457   5.491   2.592
    1PA     H4S11966   3.354   5.579   2.479
    1PA     C1311967   3.571   5.637   2.482
    1PA     H3R11968   3.550   5.737   2.442
    1PA     H3S11969   3.650   5.639   2.557
    1PA     C1211970   3.607   5.541   2.368
    1PA     H2R11971   3.591   5.439   2.402
    1PA     H2S11972   3.551   5.561   2.276
    2PC     C1111973   3.752   5.566   2.333
    2PC     O1211974   3.796   5.623   2.236
    2PC     O1111975   3.831   5.516   2.430
    2PC      C111976   3.972   5.543   2.437
    2PC      HR11977   4.002   5.519   2.539
    2PC      HS11978   4.031   5.481   2.369
    2PC      C211979   4.011   5.690   2.416
    2PC      HX11980   3.995   5.723   2.313
    2PC      C311981   4.160   5.715   2.440
    2PC      HA11982   4.184   5.741   2.544
    2PC      HB11983   4.228   5.639   2.400
    2PC     O3111984   4.200   5.839   2.379
    2PC     P3111985   4.242   5.848   2.225
    2PC     O3211986   4.160   5.977   2.178
    2PC     C3111987   4.140   5.992   2.036
    2PC     H1A11988   4.236   6.012   1.989
    2PC     H1B11989   4.088   5.907   1.990
    2PC     C3211990   4.067   6.126   2.018
    2PC     H2A11991   4.115   6.205   2.076
    2PC     H2B11992   4.053   6.148   1.912
    2PC     N3111993   3.934   6.150   2.084
    2PC     C3311994   3.839   6.045   2.036
    2PC     H3A11995   3.889   5.952   2.064
    2PC     H3B11996   3.743   6.067   2.083
    2PC     H3C11997   3.837   6.051   1.927
    2PC     C3411998   3.941   6.163   2.233
    2PC     H4A11999   3.839   6.188   2.264
    2PC     H4B12000   3.974   6.062   2.259
    2PC     H4C12001   4.008   6.246   2.252
    2PC     C3512002   3.884   6.284   2.038
    2PC     H5A12003   3.873   6.269   1.930
    2PC     H5B12004   3.948   6.362   2.078
    2PC     H5C12005   3.787   6.315   2.076
    2PC     O3312006   4.386   5.875   2.201
    2PC     O3412007   4.202   5.729   2.147
    2PC     O2112008   3.949   5.774   2.515
    2PC     C2112009   3.881   5.882   2.474
    2PC     O2212010   3.857   5.907   2.357
    3OL     C1212011   3.847   5.973   2.589
    3OL     H2R12012   3.931   5.982   2.657
    3OL     H2S12013   3.773   5.912   2.642
    3OL     C1312014   3.781   6.108   2.559
    3OL     H3R12015   3.709   6.101   2.476
    3OL     H3S12016   3.856   6.181   2.529
    3OL     C1412017   3.702   6.165   2.678
    3OL     H4R12018   3.631   6.089   2.712
    3OL     H4S12019   3.641   6.253   2.654
    3OL     C1512020   3.802   6.204   2.787
    3OL     H5R12021   3.875   6.279   2.756
    3OL     H5S12022   3.859   6.113   2.806
    3OL     C1612023   3.729   6.251   2.914
    3OL     H6R12024   3.661   6.333   2.891
    3OL     H6S12025   3.808   6.291   2.978
    3OL     C1712026   3.678   6.134   2.999
    3OL     H7R12027   3.760   6.062   2.993
    3OL     H7S12028   3.592   6.086   2.951
    3OL     C1812029   3.635   6.191   3.135
    3OL     H8R12030   3.589   6.289   3.122
    3OL     H8S12031   3.732   6.208   3.182
    3OL     C1912032   3.554   6.097   3.220
    3OL     H9R12033   3.560   5.993   3.191
    3OL    C11012034   3.483   6.126   3.328
    3OL    H10R12035   3.436   6.046   3.384
    3OL    C11112036   3.470   6.266   3.383
    3OL    H11R12037   3.369   6.283   3.419
    3OL    H11S12038   3.501   6.338   3.306
    3OL    C11212039   3.563   6.275   3.505
    3OL    H12R12040   3.667   6.249   3.486
    3OL    H12S12041   3.521   6.205   3.577
    3OL    C11312042   3.545   6.412   3.570
    3OL    H13R12043   3.445   6.412   3.614
    3OL    H13S12044   3.545   6.494   3.498
    3OL    C11412045   3.669   6.454   3.651
    3OL    H14R12046   3.762   6.457   3.593
    3OL    H14S12047   3.678   6.381   3.732
    3OL    C11512048   3.664   6.590   3.722
    3OL    H15R12049   3.746   6.585   3.795
    3OL    H15S12050   3.565   6.594   3.768
    3OL    C11612051   3.700   6.711   3.634
    3OL    H16R12052   3.619   6.733   3.565
    3OL    H16S12053   3.791   6.682   3.581
    3OL    C11712054   3.708   6.836   3.723
    3OL    H17R12055   3.774   6.906   3.670
    3OL    H17S12056   3.760   6.809   3.815
    3OL    C11812057   3.573   6.906   3.739
    3OL    H18R12058   3.535   6.916   3.638
    3OL    H18S12059   3.588   7.005   3.784
    3OL    H18T12060   3.518   6.845   3.812
    1PA    C11612061   4.716   7.710   2.908
    1PA    H16R12062   4.638   7.705   2.984
    1PA    H16S12063   4.679   7.671   2.813
    1PA    H16T12064   4.740   7.815   2.890
    1PA    C11512065   4.846   7.638   2.947
    1PA    H15R12066   4.869   7.644   3.053
    1PA    H15S12067   4.837   7.529   2.936
    1PA    C11412068   4.972   7.681   2.871
    1PA    H14R12069   4.969   7.647   2.767
    1PA    H14S12070   4.967   7.789   2.857
    1PA    C11312071   5.107   7.637   2.929
    1PA    H13R12072   5.184   7.712   2.914
    1PA    H13S12073   5.093   7.621   3.036
    1PA    C11212074   5.154   7.506   2.864
    1PA    H12R12075   5.067   7.443   2.843
    1PA    H12S12076   5.184   7.529   2.761
    1PA    C11112077   5.256   7.425   2.944
    1PA    H11R12078   5.343   7.491   2.957
    1PA    H11S12079   5.215   7.398   3.041
    1PA    C11012080   5.312   7.300   2.875
    1PA    H10R12081   5.332   7.335   2.773
    1PA    H10S12082   5.402   7.256   2.918
    1PA     C1912083   5.227   7.172   2.885
    1PA     H9R12084   5.207   7.150   2.989
    1PA     H9S12085   5.132   7.193   2.835
    1PA     C1812086   5.292   7.054   2.811
    1PA     H8R12087   5.299   7.074   2.704
    1PA     H8S12088   5.391   7.022   2.844
    1PA     C1712089   5.211   6.927   2.838
    1PA     H7R12090   5.226   6.890   2.940
    1PA     H7S12091   5.103   6.934   2.835
    1PA     C1612092   5.242   6.808   2.745
    1PA     H6R12093   5.195   6.814   2.647
    1PA     H6S12094   5.348   6.822   2.722
    1PA     C1512095   5.196   6.675   2.807
    1PA     H5R12096   5.245   6.664   2.904
    1PA     H5S12097   5.087   6.673   2.811
    1PA     C1412098   5.248   6.569   2.709
    1PA     H4R12099   5.205   6.586   2.609
    1PA     H4S12100   5.357   6.574   2.703
    1PA     C1312101   5.206   6.432   2.762
    1PA     H3R12102   5.229   6.432   2.869
    1PA     H3S12103   5.100   6.411   2.747
    1PA     C1212104   5.288   6.318   2.699
    1PA     H2R12105   5.394   6.334   2.718
    1PA     H2S12106   5.264   6.224   2.747
    2PC     C1112107   5.265   6.305   2.550
    2PC     O1212108   5.347   6.324   2.462
    2PC     O1112109   5.135   6.277   2.538
    2PC      C112110   5.073   6.243   2.413
    2PC      HR12111   4.969   6.216   2.435
    2PC      HS12112   5.084   6.322   2.338
    2PC      C212113   5.134   6.112   2.361
    2PC      HX12114   5.243   6.117   2.361
    2PC      C312115   5.078   6.088   2.220
    2PC      HA12116   4.974   6.054   2.217
    2PC      HB12117   5.081   6.178   2.157
    2PC     O3112118   5.166   5.993   2.156
    2PC     P3112119   5.142   5.936   2.009
    2PC     O3212120   5.181   6.060   1.915
    2PC     C3112121   5.208   6.035   1.775
    2PC     H1A12122   5.277   5.952   1.761
    2PC     H1B12123   5.115   6.002   1.727
    2PC     C3212124   5.262   6.171   1.729
    2PC     H2A12125   5.190   6.252   1.729
    2PC     H2B12126   5.340   6.203   1.799
    2PC     N3112127   5.324   6.186   1.593
    2PC     C3312128   5.424   6.080   1.560
    2PC     H3A12129   5.373   5.990   1.527
    2PC     H3B12130   5.490   6.113   1.479
    2PC     H3C12131   5.480   6.055   1.650
    2PC     C3412132   5.212   6.180   1.493
    2PC     H4A12133   5.161   6.083   1.495
    2PC     H4B12134   5.131   6.251   1.503
    2PC     H4C12135   5.260   6.203   1.397
    2PC     C3512136   5.386   6.322   1.592
    2PC     H5A12137   5.441   6.332   1.498
    2PC     H5B12138   5.440   6.325   1.687
    2PC     H5C12139   5.298   6.386   1.581
    2PC     O3312140   5.234   5.820   1.998
    2PC     O3412141   5.008   5.878   1.985
    2PC     O2112142   5.083   6.003   2.440
    2PC     C2112143   5.128   5.977   2.564
    2PC     O2212144   5.231   6.026   2.606
    3OL     C1212145   5.046   5.875   2.638
    3OL     H2R12146   5.005   5.798   2.572
    3OL     H2S12147   4.957   5.931   2.667
    3OL     C1312148   5.111   5.808   2.760
    3OL     H3R12149   5.130   5.889   2.831
    3OL     H3S12150   5.204   5.757   2.733
    3OL     C1412151   5.004   5.708   2.804
    3OL     H4R12152   4.992   5.630   2.729
    3OL     H4S12153   4.914   5.769   2.815
    3OL     C1512154   5.051   5.645   2.936
    3OL     H5R12155   5.107   5.721   2.990
    3OL     H5S12156   5.118   5.562   2.914
    3OL     C1612157   4.929   5.588   3.009
    3OL     H6R12158   4.871   5.524   2.941
    3OL     H6S12159   4.851   5.656   3.043
    3OL     C1712160   4.960   5.506   3.135
    3OL     H7R12161   5.051   5.447   3.124
    3OL     H7S12162   4.880   5.435   3.152
    3OL     C1812163   4.975   5.593   3.261
    3OL     H8R12164   4.881   5.642   3.287
    3OL     H8S12165   5.034   5.677   3.222
    3OL     C1912166   5.045   5.514   3.369
    3OL     H9R12167   5.144   5.476   3.346
    3OL    C11012168   5.005   5.493   3.494
    3OL    H10R12169   5.063   5.433   3.563
    3OL    C11112170   4.887   5.564   3.555
    3OL    H11R12171   4.857   5.516   3.649
    3OL    H11S12172   4.795   5.554   3.498
    3OL    C11212173   4.894   5.713   3.593
    3OL    H12R12174   4.808   5.753   3.647
    3OL    H12S12175   4.890   5.772   3.502
    3OL    C11312176   5.026   5.742   3.667
    3OL    H13R12177   5.107   5.687   3.619
    3OL    H13S12178   5.029   5.702   3.768
    3OL    C11412179   5.042   5.892   3.699
    3OL    H14R12180   5.107   5.891   3.787
    3OL    H14S12181   4.946   5.926   3.739
    3OL    C11512182   5.084   5.982   3.583
    3OL    H15R12183   5.017   5.966   3.498
    3OL    H15S12184   5.183   5.946   3.556
    3OL    C11612185   5.089   6.128   3.631
    3OL    H16R12186   5.134   6.145   3.729
    3OL    H16S12187   4.995   6.182   3.637
    3OL    C11712188   5.162   6.215   3.527
    3OL    H17R12189   5.093   6.226   3.443
    3OL    H17S12190   5.258   6.169   3.503
    3OL    C11812191   5.191   6.355   3.583
    3OL    H18R12192   5.096   6.401   3.613
    3OL    H18S12193   5.245   6.413   3.508
    3OL    H18T12194   5.257   6.351   3.670
    1PA    C11612195   5.239   5.414   4.011
    1PA    H16R12196   5.144   5.361   4.003
    1PA    H16S12197   5.247   5.491   4.088
    1PA    H16T12198   5.311   5.338   4.040
    1PA    C11512199   5.277   5.456   3.868
    1PA    H15R12200   5.205   5.531   3.835
    1PA    H15S12201   5.373   5.508   3.872
    1PA    C11412202   5.283   5.339   3.769
    1PA    H14R12203   5.336   5.251   3.807
    1PA    H14S12204   5.181   5.308   3.746
    1PA    C11312205   5.351   5.376   3.637
    1PA    H13R12206   5.312   5.476   3.613
    1PA    H13S12207   5.459   5.388   3.643
    1PA    C11212208   5.327   5.287   3.515
    1PA    H12R12209   5.318   5.190   3.564
    1PA    H12S12210   5.232   5.303   3.462
    1PA    C11112211   5.442   5.290   3.413
    1PA    H11R12212   5.390   5.263   3.321
    1PA    H11S12213   5.479   5.393   3.403
    1PA    C11012214   5.555   5.188   3.429
    1PA    H10R12215   5.602   5.218   3.523
    1PA    H10S12216   5.527   5.084   3.447
    1PA     C1912217   5.652   5.176   3.311
    1PA     H9R12218   5.587   5.149   3.227
    1PA     H9S12219   5.682   5.273   3.269
    1PA     C1812220   5.772   5.082   3.325
    1PA     H8R12221   5.832   5.115   3.410
    1PA     H8S12222   5.739   4.980   3.345
    1PA     C1712223   5.858   5.085   3.198
    1PA     H7R12224   5.802   5.045   3.112
    1PA     H7S12225   5.892   5.185   3.172
    1PA     C1612226   5.991   5.011   3.219
    1PA     H6R12227   6.046   5.015   3.125
    1PA     H6S12228   6.050   5.067   3.291
    1PA     C1512229   5.983   4.863   3.258
    1PA     H5R12230   6.084   4.821   3.256
    1PA     H5S12231   5.951   4.853   3.362
    1PA     C1412232   5.883   4.781   3.175
    1PA     H4R12233   5.783   4.825   3.177
    1PA     H4S12234   5.911   4.763   3.071
    1PA     C1312235   5.852   4.640   3.228
    1PA     H3R12236   5.835   4.631   3.336
    1PA     H3S12237   5.764   4.608   3.173
    1PA     C1212238   5.968   4.546   3.191
    1PA     H2R12239   6.065   4.578   3.230
    1PA     H2S12240   5.940   4.445   3.219
    2PC     C1112241   6.006   4.527   3.046
    2PC     O1212242   5.935   4.475   2.963
    2PC     O1112243   6.133   4.565   3.024
    2PC      C112244   6.189   4.536   2.894
    2PC      HR12245   6.298   4.542   2.894
    2PC      HS12246   6.155   4.440   2.857
    2PC      C212247   6.153   4.652   2.800
    2PC      HX12248   6.056   4.693   2.831
    2PC      C312249   6.162   4.617   2.651
    2PC      HA12250   6.097   4.536   2.619
    2PC      HB12251   6.126   4.700   2.590
    2PC     O3112252   6.294   4.574   2.614
    2PC     P3112253   6.339   4.520   2.470
    2PC     O3212254   6.484   4.452   2.482
    2PC     C3112255   6.531   4.360   2.381
    2PC     H1A12256   6.607   4.294   2.422
    2PC     H1B12257   6.447   4.295   2.354
    2PC     C3212258   6.592   4.430   2.259
    2PC     H2A12259   6.519   4.492   2.208
    2PC     H2B12260   6.674   4.492   2.296
    2PC     N3112261   6.651   4.343   2.151
    2PC     C3312262   6.710   4.433   2.047
    2PC     H3A12263   6.764   4.375   1.972
    2PC     H3B12264   6.629   4.490   2.002
    2PC     H3C12265   6.778   4.497   2.103
    2PC     C3412266   6.756   4.244   2.193
    2PC     H4A12267   6.804   4.201   2.106
    2PC     H4B12268   6.831   4.297   2.252
    2PC     H4C12269   6.708   4.178   2.266
    2PC     C3512270   6.542   4.270   2.079
    2PC     H5A12271   6.486   4.211   2.151
    2PC     H5B12272   6.581   4.201   2.003
    2PC     H5C12273   6.484   4.339   2.018
    2PC     O3312274   6.242   4.425   2.412
    2PC     O3412275   6.342   4.633   2.374
    2PC     O2112276   6.247   4.754   2.838
    2PC     C2112277   6.221   4.881   2.804
    2PC     O2212278   6.110   4.915   2.769
    3OL     C1212279   6.338   4.976   2.814
    3OL     H2R12280   6.317   5.073   2.768
    3OL     H2S12281   6.413   4.934   2.747
    3OL     C1312282   6.382   4.985   2.961
    3OL     H3R12283   6.468   4.918   2.960
    3OL     H3S12284   6.304   4.948   3.028
    3OL     C1412285   6.427   5.122   3.015
    3OL     H4R12286   6.343   5.193   3.016
    3OL     H4S12287   6.504   5.162   2.949
    3OL     C1512288   6.478   5.113   3.159
    3OL     H5R12289   6.510   5.210   3.198
    3OL     H5S12290   6.572   5.059   3.154
    3OL     C1612291   6.381   5.035   3.249
    3OL     H6R12292   6.367   4.934   3.210
    3OL     H6S12293   6.286   5.088   3.245
    3OL     C1712294   6.443   5.036   3.390
    3OL     H7R12295   6.466   5.136   3.429
    3OL     H7S12296   6.544   4.994   3.392
    3OL     C1812297   6.343   4.965   3.482
    3OL     H8R12298   6.257   5.030   3.501
    3OL     H8S12299   6.389   4.961   3.581
    3OL     C1912300   6.316   4.823   3.441
    3OL     H9R12301   6.309   4.810   3.333
    3OL    C11012302   6.326   4.712   3.513
    3OL    H10R12303   6.319   4.619   3.457
    3OL    C11112304   6.323   4.701   3.663
    3OL    H11R12305   6.229   4.656   3.698
    3OL    H11S12306   6.309   4.800   3.708
    3OL    C11212307   6.443   4.622   3.714
    3OL    H12R12308   6.532   4.680   3.689
    3OL    H12S12309   6.433   4.528   3.658
    3OL    C11312310   6.437   4.577   3.861
    3OL    H13R12311   6.504   4.491   3.875
    3OL    H13S12312   6.339   4.535   3.886
    3OL    C11412313   6.483   4.681   3.963
    3OL    H14R12314   6.419   4.770   3.958
    3OL    H14S12315   6.584   4.714   3.938
    3OL    C11512316   6.477   4.623   4.105
    3OL    H15R12317   6.565   4.561   4.121
    3OL    H15S12318   6.392   4.554   4.109
    3OL    C11612319   6.453   4.724   4.219
    3OL    H16R12320   6.348   4.753   4.218
    3OL    H16S12321   6.506   4.818   4.204
    3OL    C11712322   6.484   4.674   4.360
    3OL    H17R12323   6.461   4.745   4.440
    3OL    H17S12324   6.590   4.653   4.375
    3OL    C11812325   6.404   4.549   4.400
    3OL    H18R12326   6.297   4.562   4.418
    3OL    H18S12327   6.452   4.503   4.486
    3OL    H18T12328   6.408   4.480   4.316
    1PA    C11612329  -0.467   2.310   3.903
    1PA    H16R12330  -0.516   2.294   3.806
    1PA    H16S12331  -0.466   2.414   3.937
    1PA    H16T12332  -0.524   2.244   3.968
    1PA    C11512333  -0.320   2.265   3.897
    1PA    H15R12334  -0.258   2.354   3.900
    1PA    H15S12335  -0.294   2.219   3.992
    1PA    C11412336  -0.280   2.170   3.782
    1PA    H14R12337  -0.175   2.145   3.794
    1PA    H14S12338  -0.337   2.079   3.801
    1PA    C11312339  -0.304   2.228   3.642
    1PA    H13R12340  -0.411   2.235   3.622
    1PA    H13S12341  -0.265   2.330   3.643
    1PA    C11212342  -0.250   2.145   3.525
    1PA    H12R12343  -0.141   2.143   3.531
    1PA    H12S12344  -0.292   2.044   3.528
    1PA    C11112345  -0.291   2.209   3.391
    1PA    H11R12346  -0.289   2.133   3.313
    1PA    H11S12347  -0.398   2.226   3.396
    1PA    C11012348  -0.210   2.334   3.355
    1PA    H10R12349  -0.242   2.424   3.409
    1PA    H10S12350  -0.115   2.303   3.401
    1PA     C1912351  -0.193   2.359   3.205
    1PA     H9R12352  -0.127   2.445   3.191
    1PA     H9S12353  -0.142   2.271   3.165
    1PA     C1812354  -0.319   2.401   3.129
    1PA     H8R12355  -0.393   2.320   3.133
    1PA     H8S12356  -0.354   2.494   3.174
    1PA     C1712357  -0.284   2.436   2.983
    1PA     H7R12358  -0.237   2.535   2.984
    1PA     H7S12359  -0.222   2.364   2.930
    1PA     C1612360  -0.413   2.458   2.904
    1PA     H6R12361  -0.476   2.370   2.920
    1PA     H6S12362  -0.465   2.549   2.935
    1PA     C1512363  -0.383   2.465   2.754
    1PA     H5R12364  -0.457   2.536   2.716
    1PA     H5S12365  -0.281   2.500   2.737
    1PA     C1412366  -0.399   2.330   2.683
    1PA     H4R12367  -0.335   2.256   2.733
    1PA     H4S12368  -0.499   2.289   2.695
    1PA     C1312369  -0.365   2.337   2.534
    1PA     H3R12370  -0.413   2.256   2.477
    1PA     H3S12371  -0.402   2.429   2.490
    1PA     C1212372  -0.215   2.328   2.501
    1PA     H2R12373  -0.164   2.417   2.538
    1PA     H2S12374  -0.167   2.248   2.557
    2PC     C1112375  -0.195   2.302   2.353
    2PC     O1212376  -0.184   2.394   2.275
    2PC     O1112377  -0.181   2.172   2.322
    2PC      C112378  -0.142   2.138   2.188
    2PC      HR12379  -0.142   2.029   2.181
    2PC      HS12380  -0.221   2.170   2.120
    2PC      C212381  -0.003   2.187   2.145
    2PC      HX12382   0.009   2.289   2.182
    2PC      C312383   0.017   2.183   1.993
    2PC      HA12384  -0.028   2.273   1.952
    2PC      HB12385   0.123   2.180   1.966
    2PC     O3112386  -0.055   2.065   1.952
    2PC     P3112387  -0.118   2.060   1.805
    2PC     O3212388  -0.240   1.959   1.828
    2PC     C3112389  -0.365   2.020   1.866
    2PC     H1A12390  -0.349   2.074   1.960
    2PC     H1B12391  -0.410   2.079   1.786
    2PC     C3212392  -0.466   1.905   1.881
    2PC     H2A12393  -0.442   1.824   1.949
    2PC     H2B12394  -0.565   1.944   1.903
    2PC     N3112395  -0.503   1.833   1.755
    2PC     C3312396  -0.625   1.752   1.789
    2PC     H3A12397  -0.606   1.699   1.883
    2PC     H3B12398  -0.714   1.814   1.799
    2PC     H3C12399  -0.641   1.687   1.703
    2PC     C3412400  -0.533   1.927   1.642
    2PC     H4A12401  -0.616   1.988   1.679
    2PC     H4B12402  -0.441   1.986   1.629
    2PC     H4C12403  -0.555   1.871   1.552
    2PC     C3512404  -0.394   1.741   1.711
    2PC     H5A12405  -0.438   1.665   1.646
    2PC     H5B12406  -0.343   1.700   1.798
    2PC     H5C12407  -0.323   1.807   1.660
    2PC     O3312408  -0.179   2.185   1.753
    2PC     O3412409  -0.022   2.017   1.701
    2PC     O2112410   0.090   2.093   2.202
    2PC     C2112411   0.132   2.109   2.328
    2PC     O2212412   0.086   2.196   2.400
    3OL     C1212413   0.235   2.007   2.368
    3OL     H2R12414   0.321   2.013   2.302
    3OL     H2S12415   0.195   1.906   2.362
    3OL     C1312416   0.273   2.040   2.514
    3OL     H3R12417   0.190   2.018   2.582
    3OL     H3S12418   0.299   2.143   2.535
    3OL     C1412419   0.390   1.955   2.563
    3OL     H4R12420   0.473   1.968   2.492
    3OL     H4S12421   0.379   1.847   2.554
    3OL     C1512422   0.438   2.007   2.699
    3OL     H5R12423   0.427   2.116   2.703
    3OL     H5S12424   0.545   1.981   2.702
    3OL     C1612425   0.364   1.932   2.810
    3OL     H6R12426   0.377   1.824   2.801
    3OL     H6S12427   0.256   1.949   2.804
    3OL     C1712428   0.392   1.976   2.954
    3OL     H7R12429   0.313   1.932   3.016
    3OL     H7S12430   0.386   2.085   2.967
    3OL     C1812431   0.536   1.940   2.993
    3OL     H8R12432   0.605   2.007   2.941
    3OL     H8S12433   0.556   1.837   2.966
    3OL     C1912434   0.555   1.957   3.142
    3OL     H9R12435   0.490   1.887   3.194
    3OL    C11012436   0.629   2.046   3.207
    3OL    H10R12437   0.628   2.054   3.315
    3OL    C11112438   0.729   2.133   3.136
    3OL    H11R12439   0.668   2.221   3.112
    3OL    H11S12440   0.765   2.083   3.046
    3OL    C11212441   0.847   2.153   3.233
    3OL    H12R12442   0.877   2.054   3.270
    3OL    H12S12443   0.811   2.204   3.322
    3OL    C11312444   0.970   2.224   3.175
    3OL    H13R12445   0.922   2.318   3.147
    3OL    H13S12446   1.029   2.171   3.101
    3OL    C11412447   1.082   2.254   3.276
    3OL    H14R12448   1.113   2.166   3.332
    3OL    H14S12449   1.054   2.333   3.346
    3OL    C11512450   1.210   2.310   3.213
    3OL    H15R12451   1.193   2.413   3.179
    3OL    H15S12452   1.238   2.247   3.128
    3OL    C11612453   1.320   2.323   3.318
    3OL    H16R12454   1.330   2.220   3.353
    3OL    H16S12455   1.302   2.384   3.407
    3OL    C11712456   1.451   2.378   3.260
    3OL    H17R12457   1.431   2.476   3.215
    3OL    H17S12458   1.494   2.308   3.187
    3OL    C11812459   1.554   2.389   3.373
    3OL    H18R12460   1.640   2.434   3.322
    3OL    H18S12461   1.593   2.295   3.414
    3OL    H18T12462   1.514   2.445   3.458
    1PA    C11612463   3.261   2.296   3.594
    1PA    H16R12464   3.340   2.279   3.669
    1PA    H16S12465   3.302   2.321   3.496
    1PA    H16T12466   3.211   2.199   3.593
    1PA    C11512467   3.166   2.409   3.636
    1PA    H15R12468   3.074   2.398   3.578
    1PA    H15S12469   3.133   2.410   3.740
    1PA    C11412470   3.226   2.544   3.595
    1PA    H14R12471   3.330   2.550   3.627
    1PA    H14S12472   3.230   2.558   3.486
    1PA    C11312473   3.146   2.659   3.657
    1PA    H13R12474   3.043   2.639   3.626
    1PA    H13S12475   3.146   2.652   3.765
    1PA    C11212476   3.184   2.796   3.599
    1PA    H12R12477   3.290   2.815   3.615
    1PA    H12S12478   3.178   2.783   3.491
    1PA    C11112479   3.090   2.908   3.645
    1PA    H11R12480   2.991   2.899   3.602
    1PA    H11S12481   3.079   2.913   3.754
    1PA    C11012482   3.130   3.053   3.612
    1PA    H10R12483   3.043   3.104   3.654
    1PA    H10S12484   3.210   3.085   3.679
    1PA     C1912485   3.162   3.091   3.467
    1PA     H9R12486   3.211   3.188   3.465
    1PA     H9S12487   3.236   3.016   3.438
    1PA     C1812488   3.040   3.091   3.375
    1PA     H8R12489   2.984   2.997   3.371
    1PA     H8S12490   2.969   3.162   3.417
    1PA     C1712491   3.094   3.122   3.234
    1PA     H7R12492   3.018   3.161   3.165
    1PA     H7S12493   3.158   3.210   3.236
    1PA     C1612494   3.163   3.003   3.167
    1PA     H6R12495   3.263   2.990   3.207
    1PA     H6S12496   3.102   2.915   3.187
    1PA     C1512497   3.168   3.019   3.014
    1PA     H5R12498   3.066   3.003   2.980
    1PA     H5S12499   3.200   3.119   2.985
    1PA     C1412500   3.240   2.907   2.937
    1PA     H4R12501   3.335   2.884   2.985
    1PA     H4S12502   3.186   2.812   2.943
    1PA     C1312503   3.269   2.940   2.790
    1PA     H3R12504   3.320   3.037   2.789
    1PA     H3S12505   3.339   2.865   2.752
    1PA     C1212506   3.140   2.945   2.707
    1PA     H2R12507   3.086   2.851   2.713
    1PA     H2S12508   3.076   3.016   2.760
    2PC     C1112509   3.157   2.992   2.565
    2PC     O1212510   3.259   2.983   2.499
    2PC     O1112511   3.041   3.027   2.508
    2PC      C112512   3.038   3.066   2.369
    2PC      HR12513   3.095   3.159   2.369
    2PC      HS12514   3.080   2.989   2.304
    2PC      C212515   2.893   3.098   2.330
    2PC      HX12516   2.838   3.006   2.308
    2PC      C312517   2.882   3.164   2.192
    2PC      HA12518   2.890   3.273   2.195
    2PC      HB12519   2.972   3.138   2.136
    2PC     O3112520   2.770   3.115   2.116
    2PC     P3112521   2.735   3.197   1.982
    2PC     O3212522   2.595   3.135   1.937
    2PC     C3112523   2.595   3.037   1.832
    2PC     H1A12524   2.685   2.976   1.838
    2PC     H1B12525   2.513   2.970   1.858
    2PC     C3212526   2.580   3.108   1.696
    2PC     H2A12527   2.477   3.127   1.666
    2PC     H2B12528   2.646   3.195   1.695
    2PC     N3112529   2.640   3.035   1.579
    2PC     C3312530   2.789   3.049   1.585
    2PC     H3A12531   2.826   3.135   1.530
    2PC     H3B12532   2.811   3.050   1.692
    2PC     H3C12533   2.841   2.961   1.546
    2PC     C3412534   2.604   2.890   1.568
    2PC     H4A12535   2.627   2.840   1.662
    2PC     H4B12536   2.495   2.899   1.562
    2PC     H4C12537   2.648   2.846   1.479
    2PC     C3512538   2.600   3.107   1.454
    2PC     H5A12539   2.492   3.121   1.466
    2PC     H5B12540   2.625   3.040   1.372
    2PC     H5C12541   2.643   3.207   1.460
    2PC     O3312542   2.699   3.341   1.991
    2PC     O3412543   2.842   3.182   1.880
    2PC     O2112544   2.831   3.174   2.435
    2PC     C2112545   2.880   3.296   2.459
    2PC     O2212546   2.965   3.356   2.395
    3OL     C1212547   2.808   3.366   2.571
    3OL     H2R12548   2.874   3.441   2.617
    3OL     H2S12549   2.784   3.300   2.654
    3OL     C1312550   2.694   3.457   2.524
    3OL     H3R12551   2.607   3.393   2.510
    3OL     H3S12552   2.711   3.504   2.427
    3OL     C1412553   2.665   3.574   2.618
    3OL     H4R12554   2.578   3.622   2.572
    3OL     H4S12555   2.755   3.635   2.622
    3OL     C1512556   2.622   3.526   2.758
    3OL     H5R12557   2.703   3.488   2.821
    3OL     H5S12558   2.537   3.458   2.754
    3OL     C1612559   2.581   3.658   2.825
    3OL     H6R12560   2.510   3.721   2.771
    3OL     H6S12561   2.676   3.712   2.832
    3OL     C1712562   2.531   3.634   2.968
    3OL     H7R12563   2.614   3.590   3.022
    3OL     H7S12564   2.468   3.545   2.977
    3OL     C1812565   2.463   3.757   3.031
    3OL     H8R12566   2.415   3.819   2.955
    3OL     H8S12567   2.539   3.823   3.072
    3OL     C1912568   2.361   3.718   3.134
    3OL     H9R12569   2.279   3.663   3.088
    3OL    C11012570   2.373   3.720   3.266
    3OL    H10R12571   2.294   3.680   3.329
    3OL    C11112572   2.482   3.791   3.342
    3OL    H11R12573   2.570   3.808   3.278
    3OL    H11S12574   2.521   3.731   3.424
    3OL    C11212575   2.423   3.922   3.396
    3OL    H12R12576   2.391   3.978   3.308
    3OL    H12S12577   2.509   3.966   3.446
    3OL    C11312578   2.305   3.901   3.492
    3OL    H13R12579   2.340   3.828   3.565
    3OL    H13S12580   2.224   3.864   3.429
    3OL    C11412581   2.263   4.029   3.566
    3OL    H14R12582   2.225   4.097   3.490
    3OL    H14S12583   2.349   4.083   3.605
    3OL    C11512584   2.158   3.993   3.672
    3OL    H15R12585   2.201   3.945   3.758
    3OL    H15S12586   2.094   3.917   3.626
    3OL    C11612587   2.099   4.125   3.724
    3OL    H16R12588   2.032   4.092   3.804
    3OL    H16S12589   2.021   4.167   3.660
    3OL    C11712590   2.195   4.234   3.770
    3OL    H17R12591   2.239   4.283   3.683
    3OL    H17S12592   2.271   4.187   3.833
    3OL    C11812593   2.113   4.334   3.852
    3OL    H18R12594   2.030   4.273   3.890
    3OL    H18S12595   2.066   4.405   3.783
    3OL    H18T12596   2.159   4.385   3.937
    1PA    C11612597   1.869   1.894   3.607
    1PA    H16R12598   1.783   1.925   3.667
    1PA    H16S12599   1.925   1.832   3.679
    1PA    H16T12600   1.844   1.815   3.536
    1PA    C11512601   1.958   2.000   3.540
    1PA    H15R12602   1.996   2.068   3.616
    1PA    H15S12603   2.042   1.952   3.490
    1PA    C11412604   1.880   2.091   3.444
    1PA    H14R12605   1.782   2.114   3.486
    1PA    H14S12606   1.946   2.178   3.447
    1PA    C11312607   1.861   2.024   3.308
    1PA    H13R12608   1.954   1.987   3.263
    1PA    H13S12609   1.799   1.936   3.325
    1PA    C11212610   1.788   2.112   3.205
    1PA    H12R12611   1.769   2.046   3.120
    1PA    H12S12612   1.689   2.141   3.242
    1PA    C11112613   1.866   2.232   3.150
    1PA    H11R12614   1.790   2.304   3.119
    1PA    H11S12615   1.931   2.265   3.231
    1PA    C11012616   1.951   2.199   3.026
    1PA    H10R12617   2.030   2.127   3.049
    1PA    H10S12618   1.881   2.149   2.959
    1PA     C1912619   2.004   2.333   2.974
    1PA     H9R12620   1.922   2.404   2.966
    1PA     H9S12621   2.076   2.372   3.047
    1PA     C1812622   2.065   2.311   2.835
    1PA     H8R12623   2.153   2.246   2.843
    1PA     H8S12624   1.998   2.255   2.768
    1PA     C1712625   2.132   2.444   2.799
    1PA     H7R12626   2.071   2.534   2.809
    1PA     H7S12627   2.220   2.451   2.861
    1PA     C1612628   2.190   2.446   2.657
    1PA     H6R12629   2.265   2.367   2.643
    1PA     H6S12630   2.113   2.429   2.583
    1PA     C1512631   2.243   2.583   2.611
    1PA     H5R12632   2.161   2.653   2.620
    1PA     H5S12633   2.314   2.626   2.682
    1PA     C1412634   2.306   2.593   2.471
    1PA     H4R12635   2.394   2.528   2.478
    1PA     H4S12636   2.238   2.553   2.396
    1PA     C1312637   2.349   2.739   2.448
    1PA     H3R12638   2.264   2.808   2.451
    1PA     H3S12639   2.411   2.761   2.535
    1PA     C1212640   2.425   2.766   2.318
    1PA     H2R12641   2.466   2.867   2.319
    1PA     H2S12642   2.516   2.706   2.321
    2PC     C1112643   2.351   2.731   2.191
    2PC     O1212644   2.338   2.618   2.149
    2PC     O1112645   2.292   2.840   2.142
    2PC      C112646   2.212   2.837   2.022
    2PC      HR12647   2.207   2.942   1.992
    2PC      HS12648   2.254   2.785   1.936
    2PC      C212649   2.070   2.785   2.040
    2PC      HX12650   2.083   2.678   2.062
    2PC      C312651   1.994   2.812   1.909
    2PC      HA12652   1.975   2.920   1.906
    2PC      HB12653   2.043   2.782   1.816
    2PC     O3112654   1.871   2.741   1.924
    2PC     P3112655   1.860   2.582   1.907
    2PC     O3212656   1.904   2.505   2.040
    2PC     C3112657   1.841   2.379   2.071
    2PC     H1A12658   1.734   2.401   2.063
    2PC     H1B12659   1.876   2.303   2.001
    2PC     C3212660   1.890   2.340   2.211
    2PC     H2A12661   1.871   2.424   2.277
    2PC     H2B12662   1.822   2.263   2.248
    2PC     N3112663   2.028   2.282   2.227
    2PC     C3312664   2.061   2.249   2.369
    2PC     H3A12665   2.052   2.341   2.426
    2PC     H3B12666   1.986   2.179   2.407
    2PC     H3C12667   2.163   2.212   2.373
    2PC     C3412668   2.042   2.143   2.173
    2PC     H4A12669   2.142   2.106   2.195
    2PC     H4B12670   1.972   2.087   2.234
    2PC     H4C12671   2.016   2.145   2.067
    2PC     C3512672   2.132   2.369   2.164
    2PC     H5A12673   2.228   2.320   2.178
    2PC     H5B12674   2.121   2.466   2.211
    2PC     H5C12675   2.104   2.385   2.060
    2PC     O3312676   1.725   2.532   1.872
    2PC     O3412677   1.949   2.546   1.793
    2PC     O2112678   2.000   2.854   2.146
    2PC     C2112679   2.005   2.797   2.267
    2PC     O2212680   2.061   2.692   2.294
    3OL     C1212681   1.943   2.892   2.366
    3OL     H2R12682   1.851   2.934   2.326
    3OL     H2S12683   2.012   2.975   2.383
    3OL     C1312684   1.919   2.820   2.499
    3OL     H3R12685   1.995   2.751   2.537
    3OL     H3S12686   1.839   2.747   2.485
    3OL     C1412687   1.885   2.916   2.615
    3OL     H4R12688   1.793   2.969   2.589
    3OL     H4S12689   1.963   2.989   2.633
    3OL     C1512690   1.866   2.838   2.746
    3OL     H5R12691   1.943   2.766   2.772
    3OL     H5S12692   1.786   2.766   2.729
    3OL     C1612693   1.833   2.936   2.859
    3OL     H6R12694   1.746   2.993   2.826
    3OL     H6S12695   1.914   3.009   2.859
    3OL     C1712696   1.809   2.868   2.995
    3OL     H7R12697   1.894   2.803   3.013
    3OL     H7S12698   1.720   2.806   2.976
    3OL     C1812699   1.773   2.961   3.112
    3OL     H8R12700   1.687   2.916   3.162
    3OL     H8S12701   1.737   3.059   3.081
    3OL     C1912702   1.896   2.969   3.199
    3OL     H9R12703   1.954   3.061   3.195
    3OL    C11012704   1.933   2.876   3.285
    3OL    H10R12705   2.019   2.890   3.350
    3OL    C11112706   1.870   2.740   3.300
    3OL    H11R12707   1.776   2.740   3.244
    3OL    H11S12708   1.828   2.727   3.400
    3OL    C11212709   1.967   2.631   3.252
    3OL    H12R12710   2.018   2.666   3.162
    3OL    H12S12711   1.898   2.547   3.234
    3OL    C11312712   2.076   2.606   3.357
    3OL    H13R12713   2.120   2.702   3.381
    3OL    H13S12714   2.153   2.551   3.302
    3OL    C11412715   2.014   2.531   3.476
    3OL    H14R12716   1.972   2.433   3.454
    3OL    H14S12717   1.935   2.598   3.512
    3OL    C11512718   2.114   2.530   3.593
    3OL    H15R12719   2.067   2.484   3.680
    3OL    H15S12720   2.130   2.633   3.623
    3OL    C11612721   2.248   2.468   3.556
    3OL    H16R12722   2.312   2.451   3.643
    3OL    H16S12723   2.305   2.532   3.488
    3OL    C11712724   2.240   2.328   3.493
    3OL    H17R12725   2.200   2.341   3.392
    3OL    H17S12726   2.178   2.260   3.551
    3OL    C11812727   2.382   2.272   3.478
    3OL    H18R12728   2.452   2.324   3.413
    3OL    H18S12729   2.371   2.182   3.416
    3OL    H18T12730   2.420   2.259   3.579
    1PA    C11612731   2.042   1.435   4.221
    1PA    H16R12732   2.101   1.507   4.278
    1PA    H16S12733   2.059   1.332   4.254
    1PA    H16T12734   1.937   1.461   4.236
    1PA    C11512735   2.079   1.457   4.073
    1PA    H15R12736   2.187   1.457   4.070
    1PA    H15S12737   2.043   1.369   4.020
    1PA    C11412738   2.025   1.589   4.016
    1PA    H14R12739   1.916   1.577   4.011
    1PA    H14S12740   2.046   1.666   4.091
    1PA    C11312741   2.086   1.623   3.879
    1PA    H13R12742   2.075   1.731   3.869
    1PA    H13S12743   2.192   1.605   3.871
    1PA    C11212744   2.016   1.548   3.765
    1PA    H12R12745   2.021   1.440   3.780
    1PA    H12S12746   1.911   1.577   3.759
    1PA    C11112747   2.095   1.575   3.636
    1PA    H11R12748   2.084   1.683   3.625
    1PA    H11S12749   2.196   1.544   3.661
    1PA    C11012750   2.058   1.493   3.512
    1PA    H10R12751   2.146   1.449   3.463
    1PA    H10S12752   1.990   1.413   3.543
    1PA     C1912753   1.971   1.579   3.420
    1PA     H9R12754   1.878   1.606   3.470
    1PA     H9S12755   2.016   1.676   3.397
    1PA     C1812756   1.938   1.514   3.285
    1PA     H8R12757   2.023   1.495   3.218
    1PA     H8S12758   1.889   1.417   3.300
    1PA     C1712759   1.840   1.595   3.199
    1PA     H7R12760   1.778   1.522   3.145
    1PA     H7S12761   1.774   1.654   3.262
    1PA     C1612762   1.918   1.687   3.104
    1PA     H6R12763   1.962   1.765   3.168
    1PA     H6S12764   1.999   1.635   3.053
    1PA     C1512765   1.826   1.777   3.022
    1PA     H5R12766   1.745   1.715   2.983
    1PA     H5S12767   1.784   1.853   3.089
    1PA     C1412768   1.902   1.850   2.910
    1PA     H4R12769   1.973   1.921   2.952
    1PA     H4S12770   1.955   1.782   2.843
    1PA     C1312771   1.802   1.923   2.820
    1PA     H3R12772   1.724   1.962   2.886
    1PA     H3S12773   1.854   2.009   2.778
    1PA     C1212774   1.753   1.826   2.711
    1PA     H2R12775   1.830   1.817   2.634
    1PA     H2S12776   1.726   1.725   2.742
    2PC     C1112777   1.634   1.880   2.637
    2PC     O1212778   1.520   1.867   2.679
    2PC     O1112779   1.667   1.954   2.530
    2PC      C112780   1.569   2.003   2.437
    2PC      HR12781   1.536   1.909   2.390
    2PC      HS12782   1.483   2.048   2.487
    2PC      C212783   1.622   2.089   2.322
    2PC      HX12784   1.536   2.113   2.259
    2PC      C312785   1.726   2.000   2.251
    2PC      HA12786   1.812   1.993   2.318
    2PC      HB12787   1.690   1.899   2.228
    2PC     O3112788   1.777   2.054   2.128
    2PC     P3112789   1.681   2.067   2.000
    2PC     O3212790   1.794   2.102   1.892
    2PC     C3112791   1.874   1.997   1.834
    2PC     H1A12792   1.965   1.987   1.894
    2PC     H1B12793   1.835   1.896   1.821
    2PC     C3212794   1.926   2.048   1.699
    2PC     H2A12795   2.009   2.118   1.712
    2PC     H2B12796   1.961   1.965   1.638
    2PC     N3112797   1.830   2.116   1.605
    2PC     C3312798   1.694   2.053   1.608
    2PC     H3A12799   1.699   1.950   1.573
    2PC     H3B12800   1.674   2.050   1.715
    2PC     H3C12801   1.619   2.112   1.555
    2PC     C3412802   1.828   2.260   1.646
    2PC     H4A12803   1.806   2.270   1.752
    2PC     H4B12804   1.928   2.293   1.617
    2PC     H4C12805   1.749   2.311   1.591
    2PC     C3512806   1.891   2.104   1.469
    2PC     H5A12807   1.839   2.171   1.401
    2PC     H5B12808   1.858   2.003   1.443
    2PC     H5C12809   2.000   2.111   1.475
    2PC     O3312810   1.604   1.944   1.971
    2PC     O3412811   1.585   2.175   2.030
    2PC     O2112812   1.689   2.204   2.375
    2PC     C2112813   1.609   2.303   2.419
    2PC     O2212814   1.490   2.318   2.400
    3OL     C1212815   1.684   2.401   2.506
    3OL     H2R12816   1.676   2.500   2.462
    3OL     H2S12817   1.790   2.377   2.513
    3OL     C1312818   1.617   2.409   2.644
    3OL     H3R12819   1.512   2.437   2.632
    3OL     H3S12820   1.675   2.489   2.691
    3OL     C1412821   1.636   2.283   2.730
    3OL     H4R12822   1.742   2.256   2.736
    3OL     H4S12823   1.589   2.197   2.682
    3OL     C1512824   1.575   2.297   2.870
    3OL     H5R12825   1.593   2.399   2.903
    3OL     H5S12826   1.623   2.230   2.942
    3OL     C1612827   1.422   2.285   2.870
    3OL     H6R12828   1.385   2.229   2.956
    3OL     H6S12829   1.384   2.231   2.783
    3OL     C1712830   1.347   2.419   2.874
    3OL     H7R12831   1.383   2.473   2.786
    3OL     H7S12832   1.368   2.474   2.965
    3OL     C1812833   1.194   2.420   2.865
    3OL     H8R12834   1.159   2.515   2.907
    3OL     H8S12835   1.153   2.335   2.919
    3OL     C1912836   1.151   2.394   2.723
    3OL     H9R12837   1.207   2.456   2.653
    3OL    C11012838   1.066   2.306   2.674
    3OL    H10R12839   1.043   2.298   2.568
    3OL    C11112840   0.976   2.210   2.747
    3OL    H11R12841   0.883   2.205   2.690
    3OL    H11S12842   0.935   2.246   2.842
    3OL    C11212843   1.043   2.074   2.775
    3OL    H12R12844   1.142   2.090   2.816
    3OL    H12S12845   1.066   2.029   2.678
    3OL    C11312846   0.964   1.967   2.851
    3OL    H13R12847   0.878   1.937   2.790
    3OL    H13S12848   0.925   2.001   2.947
    3OL    C11412849   1.068   1.855   2.869
    3OL    H14R12850   1.148   1.881   2.938
    3OL    H14S12851   1.112   1.830   2.772
    3OL    C11512852   0.998   1.728   2.918
    3OL    H15R12853   1.071   1.647   2.926
    3OL    H15S12854   0.934   1.693   2.836
    3OL    C11612855   0.928   1.754   3.052
    3OL    H16R12856   0.848   1.827   3.038
    3OL    H16S12857   1.000   1.794   3.124
    3OL    C11712858   0.868   1.620   3.095
    3OL    H17R12859   0.860   1.610   3.204
    3OL    H17S12860   0.935   1.534   3.088
    3OL    C11812861   0.735   1.593   3.024
    3OL    H18R12862   0.747   1.578   2.916
    3OL    H18S12863   0.663   1.670   3.055
    3OL    H18T12864   0.704   1.499   3.069
    1PA    C11612865   1.419   3.691   3.509
    1PA    H16R12866   1.436   3.684   3.401
    1PA    H16S12867   1.453   3.788   3.545
    1PA    H16T12868   1.310   3.686   3.522
    1PA    C11512869   1.490   3.573   3.576
    1PA    H15R12870   1.598   3.588   3.568
    1PA    H15S12871   1.481   3.582   3.685
    1PA    C11412872   1.457   3.430   3.536
    1PA    H14R12873   1.521   3.369   3.600
    1PA    H14S12874   1.356   3.405   3.567
    1PA    C11312875   1.473   3.411   3.384
    1PA    H13R12876   1.391   3.452   3.326
    1PA    H13S12877   1.563   3.448   3.334
    1PA    C11212878   1.470   3.261   3.354
    1PA    H12R12879   1.545   3.208   3.413
    1PA    H12S12880   1.373   3.223   3.388
    1PA    C11112881   1.501   3.220   3.210
    1PA    H11R12882   1.563   3.296   3.160
    1PA    H11S12883   1.560   3.128   3.208
    1PA    C11012884   1.369   3.218   3.132
    1PA    H10R12885   1.304   3.144   3.179
    1PA    H10S12886   1.324   3.317   3.143
    1PA     C1912887   1.388   3.185   2.983
    1PA     H9R12888   1.487   3.215   2.948
    1PA     H9S12889   1.380   3.077   2.969
    1PA     C1812890   1.283   3.245   2.889
    1PA     H8R12891   1.263   3.351   2.900
    1PA     H8S12892   1.323   3.221   2.790
    1PA     C1712893   1.151   3.167   2.909
    1PA     H7R12894   1.141   3.079   2.845
    1PA     H7S12895   1.140   3.138   3.013
    1PA     C1612896   1.038   3.257   2.856
    1PA     H6R12897   0.942   3.216   2.889
    1PA     H6S12898   1.038   3.351   2.911
    1PA     C1512899   1.035   3.272   2.704
    1PA     H5R12900   1.124   3.324   2.667
    1PA     H5S12901   1.037   3.175   2.654
    1PA     C1412902   0.909   3.353   2.668
    1PA     H4R12903   0.815   3.307   2.701
    1PA     H4S12904   0.917   3.456   2.702
    1PA     C1312905   0.900   3.363   2.515
    1PA     H3R12906   0.838   3.447   2.484
    1PA     H3S12907   1.001   3.372   2.474
    1PA     C1212908   0.847   3.233   2.454
    1PA     H2R12909   0.917   3.152   2.474
    1PA     H2S12910   0.751   3.211   2.502
    2PC     C1112911   0.835   3.250   2.305
    2PC     O1212912   0.749   3.202   2.234
    2PC     O1112913   0.920   3.345   2.261
    2PC      C112914   0.913   3.395   2.127
    2PC      HR12915   0.999   3.457   2.100
    2PC      HS12916   0.905   3.312   2.056
    2PC      C212917   0.786   3.479   2.115
    2PC      HX12918   0.694   3.423   2.132
    2PC      C312919   0.791   3.552   1.980
    2PC      HA12920   0.883   3.610   1.969
    2PC      HB12921   0.799   3.474   1.903
    2PC     O3112922   0.678   3.638   1.955
    2PC     P3112923   0.660   3.704   1.810
    2PC     O3212924   0.766   3.823   1.828
    2PC     C3112925   0.745   3.922   1.930
    2PC     H1A12926   0.653   3.970   1.895
    2PC     H1B12927   0.733   3.868   2.024
    2PC     C3212928   0.858   4.026   1.935
    2PC     H2A12929   0.846   4.102   2.013
    2PC     H2B12930   0.953   3.977   1.957
    2PC     N3112931   0.885   4.099   1.807
    2PC     C3312932   0.764   4.156   1.739
    2PC     H3A12933   0.691   4.076   1.728
    2PC     H3B12934   0.719   4.227   1.809
    2PC     H3C12935   0.800   4.204   1.648
    2PC     C3412936   0.972   4.219   1.827
    2PC     H4A12937   1.073   4.193   1.858
    2PC     H4B12938   0.972   4.280   1.737
    2PC     H4C12939   0.926   4.281   1.904
    2PC     C3512940   0.964   4.004   1.722
    2PC     H5A12941   0.942   3.899   1.742
    2PC     H5B12942   1.067   4.035   1.742
    2PC     H5C12943   0.952   4.016   1.614
    2PC     O3312944   0.672   3.608   1.698
    2PC     O3412945   0.525   3.763   1.801
    2PC     O2112946   0.789   3.582   2.216
    2PC     C2112947   0.681   3.641   2.271
    2PC     O2212948   0.567   3.601   2.261
    3OL     C1212949   0.708   3.763   2.354
    3OL     H2R12950   0.629   3.837   2.340
    3OL     H2S12951   0.804   3.807   2.325
    3OL     C1312952   0.717   3.721   2.502
    3OL     H3R12953   0.821   3.690   2.510
    3OL     H3S12954   0.656   3.632   2.516
    3OL     C1412955   0.690   3.832   2.604
    3OL     H4R12956   0.623   3.910   2.568
    3OL     H4S12957   0.790   3.867   2.631
    3OL     C1512958   0.620   3.769   2.726
    3OL     H5R12959   0.686   3.705   2.784
    3OL     H5S12960   0.549   3.708   2.668
    3OL     C1612961   0.551   3.880   2.807
    3OL     H6R12962   0.491   3.948   2.746
    3OL     H6S12963   0.632   3.945   2.842
    3OL     C1712964   0.492   3.821   2.936
    3OL     H7R12965   0.440   3.727   2.916
    3OL     H7S12966   0.416   3.890   2.973
    3OL     C1812967   0.592   3.802   3.050
    3OL     H8R12968   0.673   3.873   3.037
    3OL     H8S12969   0.643   3.706   3.042
    3OL     C1912970   0.529   3.805   3.188
    3OL     H9R12971   0.517   3.707   3.233
    3OL    C11012972   0.503   3.909   3.266
    3OL    H10R12973   0.466   3.894   3.367
    3OL    C11112974   0.529   4.053   3.230
    3OL    H11R12975   0.589   4.050   3.139
    3OL    H11S12976   0.583   4.111   3.305
    3OL    C11212977   0.404   4.141   3.217
    3OL    H12R12978   0.334   4.085   3.154
    3OL    H12S12979   0.437   4.232   3.167
    3OL    C11312980   0.342   4.175   3.353
    3OL    H13R12981   0.408   4.244   3.407
    3OL    H13S12982   0.327   4.085   3.412
    3OL    C11412983   0.209   4.250   3.331
    3OL    H14R12984   0.225   4.322   3.251
    3OL    H14S12985   0.189   4.311   3.419
    3OL    C11512986   0.094   4.151   3.311
    3OL    H15R12987   0.082   4.085   3.398
    3OL    H15S12988   0.113   4.084   3.227
    3OL    C11612989  -0.037   4.222   3.275
    3OL    H16R12990  -0.015   4.283   3.187
    3OL    H16S12991  -0.064   4.282   3.362
    3OL    C11712992  -0.151   4.123   3.244
    3OL    H17R12993  -0.157   4.047   3.322
    3OL    H17S12994  -0.128   4.068   3.152
    3OL    C11812995  -0.286   4.195   3.231
    3OL    H18R12996  -0.305   4.244   3.327
    3OL    H18S12997  -0.370   4.130   3.205
    3OL    H18T12998  -0.266   4.273   3.158
    1PA    C11612999   1.393   2.266   3.865
    1PA    H16R13000   1.401   2.369   3.901
    1PA    H16S13001   1.493   2.226   3.883
    1PA    H16T13002   1.318   2.208   3.919
    1PA    C11513003   1.343   2.256   3.721
    1PA    H15R13004   1.251   2.312   3.708
    1PA    H15S13005   1.409   2.306   3.650
    1PA    C11413006   1.328   2.110   3.674
    1PA    H14R13007   1.286   2.051   3.756
    1PA    H14S13008   1.265   2.108   3.585
    1PA    C11313009   1.465   2.049   3.640
    1PA    H13R13010   1.528   2.110   3.576
    1PA    H13S13011   1.509   2.035   3.739
    1PA    C11213012   1.441   1.906   3.588
    1PA    H12R13013   1.536   1.855   3.606
    1PA    H12S13014   1.370   1.846   3.646
    1PA    C11113015   1.414   1.899   3.437
    1PA    H11R13016   1.360   1.989   3.407
    1PA    H11S13017   1.515   1.906   3.397
    1PA    C11013018   1.330   1.781   3.387
    1PA    H10R13019   1.377   1.690   3.426
    1PA    H10S13020   1.229   1.781   3.430
    1PA     C1913021   1.317   1.766   3.235
    1PA     H9R13022   1.248   1.687   3.205
    1PA     H9S13023   1.292   1.865   3.197
    1PA     C1813024   1.453   1.751   3.166
    1PA     H8R13025   1.511   1.835   3.204
    1PA     H8S13026   1.508   1.657   3.180
    1PA     C1713027   1.441   1.774   3.015
    1PA     H7R13028   1.364   1.850   3.000
    1PA     H7S13029   1.539   1.801   2.977
    1PA     C1613030   1.385   1.645   2.951
    1PA     H6R13031   1.319   1.591   3.019
    1PA     H6S13032   1.334   1.678   2.861
    1PA     C1513033   1.496   1.555   2.895
    1PA     H5R13034   1.566   1.599   2.824
    1PA     H5S13035   1.561   1.521   2.976
    1PA     C1413036   1.440   1.434   2.818
    1PA     H4R13037   1.370   1.382   2.884
    1PA     H4S13038   1.379   1.474   2.737
    1PA     C1313039   1.543   1.330   2.771
    1PA     H3R13040   1.606   1.372   2.692
    1PA     H3S13041   1.601   1.303   2.859
    1PA     C1213042   1.472   1.206   2.713
    1PA     H2R13043   1.556   1.143   2.683
    1PA     H2S13044   1.421   1.155   2.795
    2PC     C1113045   1.385   1.229   2.593
    2PC     O1213046   1.400   1.313   2.506
    2PC     O1113047   1.290   1.135   2.595
    2PC      C113048   1.221   1.123   2.469
    2PC      HR13049   1.150   1.200   2.441
    2PC      HS13050   1.294   1.106   2.389
    2PC      C213051   1.154   0.985   2.476
    2PC      HX13052   1.221   0.915   2.528
    2PC      C313053   1.121   0.928   2.337
    2PC      HA13054   1.211   0.893   2.285
    2PC      HB13055   1.053   0.843   2.348
    2PC     O3113056   1.058   1.026   2.254
    2PC     P3113057   0.976   0.984   2.123
    2PC     O3213058   0.859   1.093   2.128
    2PC     C3113059   0.729   1.074   2.070
    2PC     H1A13060   0.728   1.090   1.962
    2PC     H1B13061   0.691   0.974   2.089
    2PC     C3213062   0.638   1.185   2.126
    2PC     H2A13063   0.553   1.188   2.058
    2PC     H2B13064   0.605   1.158   2.226
    2PC     N3113065   0.690   1.325   2.136
    2PC     C3313066   0.772   1.346   2.259
    2PC     H3A13067   0.840   1.428   2.233
    2PC     H3B13068   0.708   1.358   2.347
    2PC     H3C13069   0.834   1.257   2.268
    2PC     C3413070   0.760   1.356   2.007
    2PC     H4A13071   0.825   1.276   1.973
    2PC     H4B13072   0.682   1.381   1.934
    2PC     H4C13073   0.820   1.447   2.018
    2PC     C3513074   0.568   1.411   2.152
    2PC     H5A13075   0.491   1.384   2.079
    2PC     H5B13076   0.601   1.515   2.148
    2PC     H5C13077   0.548   1.404   2.259
    2PC     O3313078   1.048   0.993   1.994
    2PC     O3413079   0.915   0.849   2.135
    2PC     O2113080   1.034   0.990   2.555
    2PC     C2113081   0.987   0.882   2.619
    2PC     O2213082   1.055   0.783   2.634
    3OL     C1213083   0.847   0.907   2.670
    3OL     H2R13084   0.794   0.958   2.589
    3OL     H2S13085   0.850   0.983   2.749
    3OL     C1313086   0.768   0.781   2.704
    3OL     H3R13087   0.826   0.721   2.775
    3OL     H3S13088   0.759   0.710   2.621
    3OL     C1413089   0.629   0.817   2.758
    3OL     H4R13090   0.575   0.871   2.680
    3OL     H4S13091   0.631   0.888   2.841
    3OL     C1513092   0.560   0.690   2.811
    3OL     H5R13093   0.628   0.628   2.870
    3OL     H5S13094   0.516   0.634   2.728
    3OL     C1613095   0.438   0.728   2.895
    3OL     H6R13096   0.360   0.777   2.836
    3OL     H6S13097   0.481   0.797   2.968
    3OL     C1713098   0.359   0.610   2.952
    3OL     H7R13099   0.366   0.525   2.884
    3OL     H7S13100   0.252   0.633   2.948
    3OL     C1813101   0.404   0.573   3.094
    3OL     H8R13102   0.391   0.666   3.150
    3OL     H8S13103   0.509   0.543   3.085
    3OL     C1913104   0.311   0.478   3.166
    3OL     H9R13105   0.342   0.374   3.163
    3OL    C11013106   0.191   0.501   3.217
    3OL    H10R13107   0.136   0.415   3.255
    3OL    C11113108   0.115   0.631   3.214
    3OL    H11R13109   0.145   0.699   3.133
    3OL    H11S13110   0.115   0.670   3.316
    3OL    C11213111  -0.036   0.609   3.199
    3OL    H12R13112  -0.088   0.705   3.203
    3OL    H12S13113  -0.083   0.557   3.282
    3OL    C11313114  -0.065   0.525   3.074
    3OL    H13R13115  -0.027   0.424   3.088
    3OL    H13S13116  -0.012   0.560   2.985
    3OL    C11413117  -0.217   0.519   3.047
    3OL    H14R13118  -0.227   0.487   2.943
    3OL    H14S13119  -0.256   0.620   3.062
    3OL    C11513120  -0.292   0.420   3.137
    3OL    H15R13121  -0.277   0.440   3.243
    3OL    H15S13122  -0.254   0.320   3.117
    3OL    C11613123  -0.440   0.415   3.096
    3OL    H16R13124  -0.446   0.395   2.989
    3OL    H16S13125  -0.483   0.514   3.113
    3OL    C11713126  -0.496   0.299   3.178
    3OL    H17R13127  -0.462   0.293   3.282
    3OL    H17S13128  -0.456   0.213   3.123
    3OL    C11813129  -0.649   0.299   3.177
    3OL    H18R13130  -0.681   0.214   3.237
    3OL    H18S13131  -0.668   0.295   3.069
    3OL    H18T13132  -0.691   0.391   3.218
    1PA    C11613133   0.890   6.717   4.053
    1PA    H16R13134   0.782   6.721   4.065
    1PA    H16S13135   0.933   6.818   4.054
    1PA    H16T13136   0.934   6.655   4.132
    1PA    C11513137   0.931   6.667   3.914
    1PA    H15R13138   0.902   6.741   3.840
    1PA    H15S13139   1.038   6.643   3.910
    1PA    C11413140   0.854   6.541   3.871
    1PA    H14R13141   0.879   6.468   3.948
    1PA    H14S13142   0.747   6.556   3.857
    1PA    C11313143   0.918   6.496   3.739
    1PA    H13R13144   0.908   6.578   3.667
    1PA    H13S13145   1.021   6.471   3.764
    1PA    C11213146   0.838   6.380   3.679
    1PA    H12R13147   0.736   6.406   3.650
    1PA    H12S13148   0.884   6.352   3.584
    1PA    C11113149   0.846   6.251   3.763
    1PA    H11R13150   0.952   6.230   3.781
    1PA    H11S13151   0.792   6.267   3.856
    1PA    C11013152   0.777   6.133   3.694
    1PA    H10R13153   0.752   6.063   3.775
    1PA    H10S13154   0.681   6.167   3.656
    1PA     C1913155   0.864   6.060   3.591
    1PA     H9R13156   0.918   6.138   3.536
    1PA     H9S13157   0.937   5.994   3.639
    1PA     C1813158   0.775   5.967   3.508
    1PA     H8R13159   0.840   5.893   3.462
    1PA     H8S13160   0.705   5.909   3.569
    1PA     C1713161   0.697   6.049   3.404
    1PA     H7R13162   0.602   6.000   3.386
    1PA     H7S13163   0.674   6.144   3.455
    1PA     C1613164   0.772   6.072   3.273
    1PA     H6R13165   0.872   6.110   3.297
    1PA     H6S13166   0.780   5.975   3.224
    1PA     C1513167   0.705   6.161   3.167
    1PA     H5R13168   0.609   6.115   3.143
    1PA     H5S13169   0.677   6.259   3.207
    1PA     C1413170   0.801   6.167   3.048
    1PA     H4R13171   0.873   6.244   3.074
    1PA     H4S13172   0.848   6.072   3.022
    1PA     C1313173   0.718   6.215   2.928
    1PA     H3R13174   0.623   6.261   2.959
    1PA     H3S13175   0.773   6.299   2.884
    1PA     C1213176   0.703   6.113   2.815
    1PA     H2R13177   0.800   6.073   2.788
    1PA     H2S13178   0.648   6.026   2.853
    2PC     C1113179   0.630   6.162   2.692
    2PC     O1213180   0.563   6.262   2.697
    2PC     O1113181   0.646   6.086   2.582
    2PC      C113182   0.606   6.143   2.456
    2PC      HR13183   0.592   6.062   2.385
    2PC      HS13184   0.503   6.179   2.467
    2PC      C213185   0.707   6.243   2.397
    2PC      HX13186   0.734   6.326   2.463
    2PC      C313187   0.653   6.310   2.270
    2PC      HA13188   0.693   6.259   2.182
    2PC      HB13189   0.545   6.319   2.254
    2PC     O3113190   0.697   6.447   2.267
    2PC     P3113191   0.682   6.537   2.136
    2PC     O3213192   0.828   6.514   2.075
    2PC     C3113193   0.852   6.439   1.954
    2PC     H1A13194   0.815   6.336   1.956
    2PC     H1B13195   0.789   6.494   1.883
    2PC     C3213196   1.000   6.452   1.918
    2PC     H2A13197   1.018   6.408   1.819
    2PC     H2B13198   1.036   6.555   1.922
    2PC     N3113199   1.093   6.395   2.021
    2PC     C3313200   1.226   6.395   1.952
    2PC     H3A13201   1.262   6.498   1.954
    2PC     H3B13202   1.299   6.326   1.996
    2PC     H3C13203   1.214   6.347   1.854
    2PC     C3413204   1.089   6.486   2.140
    2PC     H4A13205   1.003   6.441   2.191
    2PC     H4B13206   1.177   6.460   2.200
    2PC     H4C13207   1.071   6.588   2.108
    2PC     C3513208   1.054   6.256   2.060
    2PC     H5A13209   0.967   6.252   2.126
    2PC     H5B13210   1.141   6.208   2.105
    2PC     H5C13211   1.038   6.207   1.963
    2PC     O3313212   0.574   6.504   2.040
    2PC     O3413213   0.673   6.678   2.181
    2PC     O2113214   0.831   6.179   2.360
    2PC     C2113215   0.923   6.159   2.455
    2PC     O2213216   0.922   6.224   2.558
    3OL     C1213217   1.026   6.052   2.428
    3OL     H2R13218   0.991   6.011   2.333
    3OL     H2S13219   1.024   5.979   2.508
    3OL     C1313220   1.170   6.106   2.420
    3OL     H3R13221   1.182   6.160   2.326
    3OL     H3S13222   1.239   6.023   2.402
    3OL     C1413223   1.222   6.193   2.535
    3OL     H4R13224   1.164   6.283   2.557
    3OL     H4S13225   1.320   6.224   2.497
    3OL     C1513226   1.237   6.119   2.668
    3OL     H5R13227   1.297   6.028   2.664
    3OL     H5S13228   1.137   6.084   2.696
    3OL     C1613229   1.293   6.204   2.783
    3OL     H6R13230   1.365   6.279   2.750
    3OL     H6S13231   1.348   6.131   2.844
    3OL     C1713232   1.177   6.259   2.867
    3OL     H7R13233   1.105   6.179   2.885
    3OL     H7S13234   1.125   6.335   2.808
    3OL     C1813235   1.232   6.309   3.002
    3OL     H8R13236   1.227   6.418   3.009
    3OL     H8S13237   1.338   6.286   2.990
    3OL     C1913238   1.162   6.238   3.115
    3OL     H9R13239   1.067   6.191   3.091
    3OL    C11013240   1.216   6.228   3.236
    3OL    H10R13241   1.161   6.165   3.305
    3OL    C11113242   1.352   6.277   3.279
    3OL    H11R13243   1.343   6.299   3.386
    3OL    H11S13244   1.394   6.360   3.223
    3OL    C11213245   1.456   6.165   3.276
    3OL    H12R13246   1.420   6.075   3.325
    3OL    H12S13247   1.539   6.192   3.342
    3OL    C11313248   1.507   6.136   3.134
    3OL    H13R13249   1.531   6.225   3.075
    3OL    H13S13250   1.430   6.089   3.073
    3OL    C11413251   1.628   6.042   3.141
    3OL    H14R13252   1.612   5.951   3.199
    3OL    H14S13253   1.722   6.085   3.176
    3OL    C11513254   1.651   5.981   3.002
    3OL    H15R13255   1.556   5.968   2.951
    3OL    H15S13256   1.707   5.887   3.003
    3OL    C11613257   1.734   6.075   2.914
    3OL    H16R13258   1.835   6.087   2.956
    3OL    H16S13259   1.694   6.176   2.912
    3OL    C11713260   1.732   6.035   2.766
    3OL    H17R13261   1.737   5.926   2.758
    3OL    H17S13262   1.815   6.075   2.707
    3OL    C11813263   1.608   6.083   2.690
    3OL    H18R13264   1.611   6.029   2.595
    3OL    H18S13265   1.624   6.188   2.668
    3OL    H18T13266   1.511   6.068   2.739
    1PA    C11613267   6.233   2.849   3.508
    1PA    H16R13268   6.338   2.820   3.503
    1PA    H16S13269   6.183   2.779   3.575
    1PA    H16T13270   6.222   2.949   3.552
    1PA    C11513271   6.156   2.836   3.376
    1PA    H15R13272   6.140   2.731   3.352
    1PA    H15S13273   6.052   2.867   3.384
    1PA    C11413274   6.220   2.891   3.248
    1PA    H14R13275   6.257   2.992   3.267
    1PA    H14S13276   6.308   2.833   3.220
    1PA    C11313277   6.120   2.888   3.131
    1PA    H13R13278   6.085   2.786   3.111
    1PA    H13S13279   6.029   2.943   3.158
    1PA    C11213280   6.181   2.922   2.995
    1PA    H12R13281   6.247   3.008   3.007
    1PA    H12S13282   6.240   2.834   2.969
    1PA    C11113283   6.071   2.943   2.889
    1PA    H11R13284   5.987   2.874   2.901
    1PA    H11S13285   6.035   3.044   2.913
    1PA    C11013286   6.114   2.945   2.742
    1PA    H10R13287   6.050   3.015   2.687
    1PA    H10S13288   6.216   2.983   2.742
    1PA     C1913289   6.101   2.802   2.687
    1PA     H9R13290   6.161   2.730   2.742
    1PA     H9S13291   5.997   2.770   2.698
    1PA     C1813292   6.136   2.796   2.538
    1PA     H8R13293   6.153   2.692   2.507
    1PA     H8S13294   6.049   2.827   2.481
    1PA     C1713295   6.269   2.860   2.498
    1PA     H7R13296   6.291   2.849   2.391
    1PA     H7S13297   6.267   2.968   2.508
    1PA     C1613298   6.392   2.806   2.573
    1PA     H6R13299   6.474   2.864   2.529
    1PA     H6S13300   6.386   2.829   2.680
    1PA     C1513301   6.419   2.656   2.564
    1PA     H5R13302   6.508   2.639   2.625
    1PA     H5S13303   6.330   2.607   2.604
    1PA     C1413304   6.445   2.602   2.422
    1PA     H4R13305   6.439   2.494   2.433
    1PA     H4S13306   6.370   2.624   2.345
    1PA     C1313307   6.589   2.627   2.378
    1PA     H3R13308   6.603   2.736   2.383
    1PA     H3S13309   6.654   2.573   2.446
    1PA     C1213310   6.629   2.569   2.241
    1PA     H2R13311   6.731   2.593   2.212
    1PA     H2S13312   6.633   2.461   2.256
    2PC     C1113313   6.534   2.601   2.129
    2PC     O1213314   6.465   2.521   2.068
    2PC     O1113315   6.522   2.733   2.111
    2PC      C113316   6.424   2.772   2.012
    2PC      HR13317   6.432   2.708   1.924
    2PC      HS13318   6.324   2.756   2.052
    2PC      C213319   6.463   2.914   1.969
    2PC      HX13320   6.387   2.953   1.901
    2PC      C313321   6.599   2.905   1.899
    2PC      HA13322   6.662   2.995   1.901
    2PC      HB13323   6.664   2.832   1.946
    2PC     O3113324   6.567   2.880   1.761
    2PC     P3113325   6.683   2.809   1.675
    2PC     O3213326   6.793   2.925   1.682
    2PC     C3113327   6.773   3.050   1.615
    2PC     H1A13328   6.808   3.044   1.511
    2PC     H1B13329   6.670   3.086   1.616
    2PC     C3213330   6.856   3.154   1.690
    2PC     H2A13331   6.829   3.139   1.794
    2PC     H2B13332   6.963   3.140   1.672
    2PC     N3113333   6.831   3.301   1.676
    2PC     C3313334   6.696   3.319   1.740
    2PC     H3A13335   6.661   3.419   1.714
    2PC     H3B13336   6.625   3.247   1.700
    2PC     H3C13337   6.702   3.308   1.848
    2PC     C3413338   6.933   3.370   1.762
    2PC     H4A13339   6.936   3.333   1.865
    2PC     H4B13340   7.027   3.353   1.708
    2PC     H4C13341   6.912   3.476   1.751
    2PC     C3513342   6.842   3.344   1.533
    2PC     H5A13343   6.799   3.260   1.478
    2PC     H5B13344   6.949   3.358   1.519
    2PC     H5C13345   6.794   3.440   1.518
    2PC     O3313346   6.722   2.679   1.733
    2PC     O3413347   6.641   2.766   1.539
    2PC     O2113348   6.462   3.000   2.085
    2PC     C2113349   6.474   3.132   2.060
    2PC     O2213350   6.499   3.168   1.947
    3OL     C1213351   6.473   3.227   2.177
    3OL     H2R13352   6.420   3.312   2.133
    3OL     H2S13353   6.575   3.247   2.209
    3OL     C1313354   6.411   3.163   2.302
    3OL     H3R13355   6.474   3.077   2.329
    3OL     H3S13356   6.311   3.128   2.276
    3OL     C1413357   6.398   3.263   2.417
    3OL     H4R13358   6.301   3.313   2.410
    3OL     H4S13359   6.477   3.338   2.415
    3OL     C1513360   6.413   3.201   2.557
    3OL     H5R13361   6.485   3.120   2.543
    3OL     H5S13362   6.318   3.152   2.579
    3OL     C1613363   6.442   3.298   2.673
    3OL     H6R13364   6.368   3.378   2.673
    3OL     H6S13365   6.541   3.344   2.666
    3OL     C1713366   6.448   3.225   2.807
    3OL     H7R13367   6.528   3.151   2.799
    3OL     H7S13368   6.360   3.162   2.825
    3OL     C1813369   6.456   3.324   2.924
    3OL     H8R13370   6.376   3.399   2.915
    3OL     H8S13371   6.540   3.393   2.926
    3OL     C1913372   6.458   3.252   3.057
    3OL     H9R13373   6.540   3.189   3.090
    3OL    C11013374   6.350   3.253   3.134
    3OL    H10R13375   6.355   3.198   3.227
    3OL    C11113376   6.219   3.320   3.102
    3OL    H11R13377   6.176   3.307   3.003
    3OL    H11S13378   6.240   3.424   3.125
    3OL    C11213379   6.105   3.277   3.197
    3OL    H12R13380   6.071   3.180   3.162
    3OL    H12S13381   6.025   3.351   3.195
    3OL    C11313382   6.142   3.250   3.344
    3OL    H13R13383   6.229   3.186   3.356
    3OL    H13S13384   6.052   3.218   3.397
    3OL    C11413385   6.176   3.387   3.402
    3OL    H14R13386   6.105   3.468   3.382
    3OL    H14S13387   6.274   3.416   3.363
    3OL    C11513388   6.189   3.384   3.555
    3OL    H15R13389   6.261   3.465   3.573
    3OL    H15S13390   6.237   3.292   3.588
    3OL    C11613391   6.062   3.409   3.637
    3OL    H16R13392   5.999   3.321   3.625
    3OL    H16S13393   6.008   3.501   3.612
    3OL    C11713394   6.092   3.424   3.787
    3OL    H17R13395   6.172   3.498   3.797
    3OL    H17S13396   6.143   3.340   3.834
    3OL    C11813397   5.961   3.472   3.852
    3OL    H18R13398   5.980   3.485   3.959
    3OL    H18S13399   5.880   3.401   3.838
    3OL    H18T13400   5.927   3.568   3.812
    1PA    C11613401   2.816   0.068   3.048
    1PA    H16R13402   2.813   0.108   2.946
    1PA    H16S13403   2.738  -0.008   3.048
    1PA    H16T13404   2.920   0.037   3.056
    1PA    C11513405   2.784   0.169   3.158
    1PA    H15R13406   2.678   0.193   3.170
    1PA    H15S13407   2.813   0.115   3.248
    1PA    C11413408   2.866   0.299   3.154
    1PA    H14R13409   2.969   0.278   3.125
    1PA    H14S13410   2.826   0.359   3.072
    1PA    C11313411   2.875   0.388   3.278
    1PA    H13R13412   2.777   0.393   3.326
    1PA    H13S13413   2.941   0.350   3.356
    1PA    C11213414   2.925   0.526   3.233
    1PA    H12R13415   2.997   0.567   3.305
    1PA    H12S13416   2.983   0.525   3.141
    1PA    C11113417   2.796   0.605   3.205
    1PA    H11R13418   2.730   0.555   3.133
    1PA    H11S13419   2.736   0.607   3.296
    1PA    C11013420   2.814   0.751   3.163
    1PA    H10R13421   2.826   0.813   3.253
    1PA    H10S13422   2.912   0.768   3.116
    1PA     C1913423   2.697   0.807   3.081
    1PA     H9R13424   2.604   0.808   3.138
    1PA     H9S13425   2.710   0.914   3.065
    1PA     C1813426   2.682   0.754   2.937
    1PA     H8R13427   2.738   0.662   2.924
    1PA     H8S13428   2.580   0.727   2.913
    1PA     C1713429   2.721   0.866   2.839
    1PA     H7R13430   2.691   0.965   2.873
    1PA     H7S13431   2.830   0.875   2.837
    1PA     C1613432   2.663   0.820   2.704
    1PA     H6R13433   2.688   0.716   2.683
    1PA     H6S13434   2.555   0.834   2.703
    1PA     C1513435   2.727   0.902   2.591
    1PA     H5R13436   2.692   1.005   2.605
    1PA     H5S13437   2.836   0.900   2.602
    1PA     C1413438   2.692   0.849   2.451
    1PA     H4R13439   2.723   0.745   2.443
    1PA     H4S13440   2.588   0.867   2.425
    1PA     C1313441   2.772   0.928   2.346
    1PA     H3R13442   2.748   1.034   2.352
    1PA     H3S13443   2.875   0.912   2.379
    1PA     C1213444   2.732   0.876   2.208
    1PA     H2R13445   2.800   0.912   2.130
    1PA     H2S13446   2.745   0.767   2.205
    2PC     C1113447   2.590   0.906   2.171
    2PC     O1213448   2.501   0.825   2.184
    2PC     O1113449   2.565   1.036   2.145
    2PC      C113450   2.428   1.071   2.123
    2PC      HR13451   2.376   1.003   2.055
    2PC      HS13452   2.375   1.059   2.218
    2PC      C213453   2.404   1.208   2.058
    2PC      HX13454   2.300   1.239   2.052
    2PC      C313455   2.458   1.209   1.914
    2PC      HA13456   2.566   1.221   1.922
    2PC      HB13457   2.441   1.111   1.868
    2PC     O3113458   2.392   1.318   1.848
    2PC     P3113459   2.245   1.294   1.789
    2PC     O3213460   2.291   1.279   1.636
    2PC     C3113461   2.191   1.227   1.546
    2PC     H1A13462   2.149   1.131   1.577
    2PC     H1B13463   2.119   1.303   1.515
    2PC     C3213464   2.276   1.218   1.418
    2PC     H2A13465   2.327   1.312   1.397
    2PC     H2B13466   2.355   1.143   1.422
    2PC     N3113467   2.207   1.204   1.286
    2PC     C3313468   2.099   1.301   1.255
    2PC     H3A13469   2.123   1.405   1.279
    2PC     H3B13470   2.077   1.298   1.148
    2PC     H3C13471   2.014   1.273   1.318
    2PC     C3413472   2.318   1.209   1.184
    2PC     H4A13473   2.394   1.135   1.210
    2PC     H4B13474   2.271   1.191   1.087
    2PC     H4C13475   2.352   1.313   1.188
    2PC     C3513476   2.137   1.073   1.273
    2PC     H5A13477   2.091   1.079   1.174
    2PC     H5B13478   2.053   1.058   1.341
    2PC     H5C13479   2.207   0.990   1.282
    2PC     O3313480   2.168   1.183   1.849
    2PC     O3413481   2.160   1.414   1.799
    2PC     O2113482   2.478   1.311   2.127
    2PC     C2113483   2.444   1.348   2.251
    2PC     O2213484   2.348   1.305   2.312
    3OL     C1213485   2.530   1.453   2.316
    3OL     H2R13486   2.473   1.546   2.317
    3OL     H2S13487   2.619   1.462   2.254
    3OL     C1313488   2.570   1.411   2.458
    3OL     H3R13489   2.601   1.306   2.458
    3OL     H3S13490   2.474   1.428   2.508
    3OL     C1413491   2.682   1.500   2.512
    3OL     H4R13492   2.649   1.601   2.537
    3OL     H4S13493   2.763   1.507   2.438
    3OL     C1513494   2.738   1.440   2.642
    3OL     H5R13495   2.757   1.334   2.627
    3OL     H5S13496   2.658   1.434   2.716
    3OL     C1613497   2.850   1.531   2.695
    3OL     H6R13498   2.815   1.631   2.723
    3OL     H6S13499   2.925   1.528   2.616
    3OL     C1713500   2.918   1.468   2.817
    3OL     H7R13501   3.018   1.510   2.824
    3OL     H7S13502   2.936   1.361   2.806
    3OL     C1813503   2.822   1.486   2.936
    3OL     H8R13504   2.723   1.449   2.908
    3OL     H8S13505   2.824   1.589   2.971
    3OL     C1913506   2.871   1.409   3.057
    3OL     H9R13507   2.906   1.307   3.041
    3OL    C11013508   2.891   1.449   3.181
    3OL    H10R13509   2.926   1.370   3.247
    3OL    C11113510   2.863   1.579   3.253
    3OL    H11R13511   2.814   1.551   3.346
    3OL    H11S13512   2.788   1.630   3.191
    3OL    C11213513   2.993   1.661   3.259
    3OL    H12R13514   2.967   1.759   3.298
    3OL    H12S13515   3.032   1.671   3.158
    3OL    C11313516   3.110   1.596   3.334
    3OL    H13R13517   3.204   1.630   3.290
    3OL    H13S13518   3.116   1.489   3.314
    3OL    C11413519   3.121   1.625   3.485
    3OL    H14R13520   3.167   1.724   3.494
    3OL    H14S13521   3.194   1.561   3.534
    3OL    C11513522   2.989   1.612   3.562
    3OL    H15R13523   2.951   1.510   3.553
    3OL    H15S13524   2.912   1.671   3.511
    3OL    C11613525   3.005   1.652   3.709
    3OL    H16R13526   3.034   1.758   3.710
    3OL    H16S13527   3.082   1.592   3.758
    3OL    C11713528   2.872   1.637   3.784
    3OL    H17R13529   2.843   1.532   3.791
    3OL    H17S13530   2.791   1.698   3.742
    3OL    C11813531   2.889   1.696   3.924
    3OL    H18R13532   2.888   1.806   3.927
    3OL    H18S13533   2.986   1.662   3.961
    3OL    H18T13534   2.809   1.648   3.979
    1PA    C11613535   4.338   5.356   4.030
    1PA    H16R13536   4.385   5.441   3.979
    1PA    H16S13537   4.348   5.378   4.136
    1PA    H16T13538   4.234   5.377   4.007
    1PA    C11513539   4.385   5.230   3.956
    1PA    H15R13540   4.378   5.246   3.848
    1PA    H15S13541   4.492   5.226   3.980
    1PA    C11413542   4.303   5.107   3.998
    1PA    H14R13543   4.295   5.111   4.106
    1PA    H14S13544   4.203   5.103   3.955
    1PA    C11313545   4.376   4.975   3.966
    1PA    H13R13546   4.470   4.966   4.021
    1PA    H13S13547   4.311   4.895   4.002
    1PA    C11213548   4.413   4.951   3.819
    1PA    H12R13549   4.438   5.045   3.769
    1PA    H12S13550   4.501   4.887   3.818
    1PA    C11113551   4.295   4.887   3.744
    1PA    H11R13552   4.262   4.789   3.779
    1PA    H11S13553   4.210   4.955   3.744
    1PA    C11013554   4.325   4.869   3.594
    1PA    H10R13555   4.347   4.966   3.549
    1PA    H10S13556   4.412   4.804   3.583
    1PA     C1913557   4.207   4.807   3.519
    1PA     H9R13558   4.156   4.731   3.579
    1PA     H9S13559   4.128   4.881   3.499
    1PA     C1813560   4.242   4.752   3.381
    1PA     H8R13561   4.147   4.744   3.328
    1PA     H8S13562   4.298   4.829   3.328
    1PA     C1713563   4.321   4.621   3.397
    1PA     H7R13564   4.405   4.638   3.464
    1PA     H7S13565   4.246   4.571   3.459
    1PA     C1613566   4.351   4.543   3.267
    1PA     H6R13567   4.398   4.449   3.296
    1PA     H6S13568   4.263   4.531   3.204
    1PA     C1513569   4.455   4.621   3.186
    1PA     H5R13570   4.491   4.703   3.248
    1PA     H5S13571   4.533   4.549   3.159
    1PA     C1413572   4.397   4.689   3.061
    1PA     H4R13573   4.343   4.616   3.000
    1PA     H4S13574   4.324   4.765   3.088
    1PA     C1313575   4.495   4.753   2.961
    1PA     H3R13576   4.549   4.672   2.912
    1PA     H3S13577   4.445   4.808   2.881
    1PA     C1213578   4.598   4.841   3.032
    1PA     H2R13579   4.546   4.915   3.094
    1PA     H2S13580   4.651   4.784   3.108
    2PC     C1113581   4.694   4.905   2.935
    2PC     O1213582   4.720   4.861   2.825
    2PC     O1113583   4.747   5.019   2.983
    2PC      C113584   4.841   5.099   2.909
    2PC      HR13585   4.889   5.169   2.978
    2PC      HS13586   4.916   5.033   2.864
    2PC      C213587   4.774   5.169   2.790
    2PC      HX13588   4.719   5.092   2.736
    2PC      C313589   4.867   5.242   2.693
    2PC      HA13590   4.883   5.346   2.722
    2PC      HB13591   4.965   5.193   2.699
    2PC     O3113592   4.816   5.236   2.559
    2PC     P3113593   4.905   5.273   2.431
    2PC     O3213594   4.812   5.202   2.322
    2PC     C3113595   4.813   5.059   2.312
    2PC     H1A13596   4.918   5.028   2.309
    2PC     H1B13597   4.774   5.018   2.406
    2PC     C3213598   4.719   5.029   2.194
    2PC     H2A13599   4.678   4.928   2.187
    2PC     H2B13600   4.636   5.098   2.200
    2PC     N3113601   4.778   5.049   2.058
    2PC     C3313602   4.857   5.176   2.039
    2PC     H3A13603   4.931   5.181   2.119
    2PC     H3B13604   4.915   5.172   1.947
    2PC     H3C13605   4.783   5.256   2.038
    2PC     C3413606   4.860   4.929   2.023
    2PC     H4A13607   4.892   4.932   1.918
    2PC     H4B13608   4.956   4.933   2.075
    2PC     H4C13609   4.811   4.832   2.027
    2PC     C3513610   4.665   5.050   1.960
    2PC     H5A13611   4.602   5.136   1.983
    2PC     H5B13612   4.624   4.949   1.972
    2PC     H5C13613   4.707   5.069   1.861
    2PC     O3313614   4.921   5.416   2.396
    2PC     O3413615   5.037   5.206   2.439
    2PC     O2113616   4.691   5.279   2.832
    2PC     C2113617   4.559   5.260   2.849
    2PC     O2213618   4.504   5.156   2.819
    3OL     C1213619   4.482   5.387   2.874
    3OL     H2R13620   4.387   5.347   2.912
    3OL     H2S13621   4.466   5.443   2.782
    3OL     C1313622   4.552   5.472   2.981
    3OL     H3R13623   4.637   5.527   2.941
    3OL     H3S13624   4.587   5.405   3.060
    3OL     C1413625   4.460   5.580   3.039
    3OL     H4R13626   4.357   5.547   3.050
    3OL     H4S13627   4.468   5.673   2.981
    3OL     C1513628   4.523   5.631   3.170
    3OL     H5R13629   4.625   5.662   3.144
    3OL     H5S13630   4.534   5.548   3.240
    3OL     C1613631   4.444   5.743   3.238
    3OL     H6R13632   4.381   5.803   3.172
    3OL     H6S13633   4.511   5.799   3.303
    3OL     C1713634   4.351   5.661   3.328
    3OL     H7R13635   4.395   5.579   3.385
    3OL     H7S13636   4.288   5.608   3.256
    3OL     C1813637   4.262   5.751   3.414
    3OL     H8R13638   4.215   5.828   3.352
    3OL     H8S13639   4.327   5.809   3.480
    3OL     C1913640   4.164   5.673   3.498
    3OL     H9R13641   4.098   5.606   3.445
    3OL    C11013642   4.149   5.683   3.629
    3OL    H10R13643   4.070   5.628   3.680
    3OL    C11113644   4.229   5.770   3.723
    3OL    H11R13645   4.186   5.779   3.823
    3OL    H11S13646   4.222   5.870   3.679
    3OL    C11213647   4.371   5.717   3.743
    3OL    H12R13648   4.436   5.732   3.657
    3OL    H12S13649   4.376   5.609   3.759
    3OL    C11313650   4.446   5.776   3.864
    3OL    H13R13651   4.396   5.735   3.952
    3OL    H13S13652   4.437   5.884   3.854
    3OL    C11413653   4.596   5.742   3.863
    3OL    H14R13654   4.636   5.809   3.787
    3OL    H14S13655   4.615   5.644   3.820
    3OL    C11513656   4.682   5.766   3.988
    3OL    H15R13657   4.739   5.859   3.984
    3OL    H15S13658   4.765   5.696   3.995
    3OL    C11613659   4.604   5.743   4.118
    3OL    H16R13660   4.548   5.650   4.110
    3OL    H16S13661   4.532   5.825   4.110
    3OL    C11713662   4.692   5.751   4.244
    3OL    H17R13663   4.742   5.848   4.235
    3OL    H17S13664   4.773   5.678   4.238
    3OL    C11813665   4.606   5.744   4.371
    3OL    H18R13666   4.538   5.830   4.369
    3OL    H18S13667   4.670   5.752   4.459
    3OL    H18T13668   4.546   5.653   4.371
    1PA    C11613669   7.423   4.813   2.773
    1PA    H16R13670   7.449   4.712   2.743
    1PA    H16S13671   7.399   4.813   2.880
    1PA    H16T13672   7.514   4.872   2.760
    1PA    C11513673   7.303   4.864   2.692
    1PA    H15R13674   7.298   4.972   2.707
    1PA    H15S13675   7.314   4.847   2.585
    1PA    C11413676   7.172   4.794   2.731
    1PA    H14R13677   7.140   4.844   2.823
    1PA    H14S13678   7.107   4.809   2.645
    1PA    C11313679   7.188   4.645   2.762
    1PA    H13R13680   7.237   4.587   2.683
    1PA    H13S13681   7.247   4.623   2.851
    1PA    C11213682   7.052   4.578   2.782
    1PA    H12R13683   6.982   4.636   2.842
    1PA    H12S13684   7.001   4.571   2.685
    1PA    C11113685   7.064   4.440   2.847
    1PA    H11R13686   7.108   4.372   2.774
    1PA    H11S13687   7.132   4.432   2.932
    1PA    C11013688   6.935   4.371   2.895
    1PA    H10R13689   6.965   4.300   2.972
    1PA    H10S13690   6.874   4.442   2.951
    1PA     C1913691   6.866   4.300   2.777
    1PA     H9R13692   6.827   4.381   2.716
    1PA     H9S13693   6.936   4.251   2.708
    1PA     C1813694   6.757   4.199   2.816
    1PA     H8R13695   6.705   4.167   2.725
    1PA     H8S13696   6.791   4.114   2.874
    1PA     C1713697   6.646   4.271   2.895
    1PA     H7R13698   6.668   4.297   2.998
    1PA     H7S13699   6.623   4.362   2.840
    1PA     C1613700   6.518   4.186   2.900
    1PA     H6R13701   6.530   4.086   2.942
    1PA     H6S13702   6.451   4.234   2.972
    1PA     C1513703   6.451   4.158   2.764
    1PA     H5R13704   6.414   4.251   2.720
    1PA     H5S13705   6.517   4.099   2.701
    1PA     C1413706   6.327   4.069   2.776
    1PA     H4R13707   6.357   3.975   2.823
    1PA     H4S13708   6.249   4.117   2.835
    1PA     C1313709   6.272   4.022   2.640
    1PA     H3R13710   6.352   3.976   2.581
    1PA     H3S13711   6.210   3.932   2.649
    1PA     C1213712   6.188   4.121   2.559
    1PA     H2R13713   6.099   4.147   2.617
    1PA     H2S13714   6.241   4.213   2.533
    2PC     C1113715   6.137   4.061   2.430
    2PC     O1213716   6.174   4.097   2.320
    2PC     O1113717   6.056   3.954   2.438
    2PC      C113718   5.985   3.911   2.321
    2PC      HR13719   6.038   3.940   2.230
    2PC      HS13720   5.968   3.803   2.316
    2PC      C213721   5.849   3.981   2.310
    2PC      HX13722   5.785   3.931   2.237
    2PC      C313723   5.852   4.130   2.271
    2PC      HA13724   5.880   4.185   2.361
    2PC      HB13725   5.928   4.150   2.195
    2PC     O3113726   5.725   4.185   2.232
    2PC     P3113727   5.709   4.310   2.132
    2PC     O3213728   5.747   4.245   1.990
    2PC     C3113729   5.724   4.328   1.875
    2PC     H1A13730   5.617   4.349   1.867
    2PC     H1B13731   5.781   4.421   1.886
    2PC     C3213732   5.771   4.253   1.750
    2PC     H2A13733   5.756   4.312   1.660
    2PC     H2B13734   5.878   4.238   1.764
    2PC     N3113735   5.712   4.120   1.712
    2PC     C3313736   5.764   4.018   1.808
    2PC     H3A13737   5.868   4.035   1.836
    2PC     H3B13738   5.703   4.014   1.898
    2PC     H3C13739   5.753   3.919   1.762
    2PC     C3413740   5.562   4.120   1.710
    2PC     H4A13741   5.535   4.020   1.675
    2PC     H4B13742   5.518   4.129   1.809
    2PC     H4C13743   5.519   4.193   1.641
    2PC     C3513744   5.762   4.072   1.579
    2PC     H5A13745   5.871   4.070   1.574
    2PC     H5B13746   5.727   4.145   1.506
    2PC     H5C13747   5.722   3.971   1.562
    2PC     O3313748   5.574   4.365   2.154
    2PC     O3413749   5.805   4.416   2.171
    2PC     O2113750   5.791   3.968   2.441
    2PC     C2113751   5.768   3.849   2.499
    2PC     O2213752   5.767   3.742   2.442
    3OL     C1213753   5.739   3.857   2.647
    3OL     H2R13754   5.754   3.756   2.685
    3OL     H2S13755   5.636   3.891   2.660
    3OL     C1313756   5.835   3.953   2.720
    3OL     H3R13757   5.858   4.046   2.668
    3OL     H3S13758   5.933   3.910   2.737
    3OL     C1413759   5.785   3.984   2.862
    3OL     H4R13760   5.776   3.891   2.918
    3OL     H4S13761   5.684   4.025   2.857
    3OL     C1513762   5.870   4.087   2.937
    3OL     H5R13763   5.894   4.170   2.871
    3OL     H5S13764   5.965   4.043   2.969
    3OL     C1613765   5.805   4.144   3.064
    3OL     H6R13766   5.724   4.198   3.014
    3OL     H6S13767   5.876   4.216   3.106
    3OL     C1713768   5.755   4.049   3.173
    3OL     H7R13769   5.839   4.005   3.227
    3OL     H7S13770   5.704   3.962   3.131
    3OL     C1813771   5.659   4.116   3.272
    3OL     H8R13772   5.623   4.033   3.334
    3OL     H8S13773   5.569   4.148   3.219
    3OL     C1913774   5.708   4.235   3.352
    3OL     H9R13775   5.776   4.210   3.433
    3OL    C11013776   5.671   4.361   3.334
    3OL    H10R13777   5.704   4.436   3.405
    3OL    C11113778   5.585   4.416   3.223
    3OL    H11R13779   5.514   4.340   3.191
    3OL    H11S13780   5.655   4.434   3.142
    3OL    C11213781   5.517   4.547   3.266
    3OL    H12R13782   5.582   4.609   3.328
    3OL    H12S13783   5.431   4.518   3.328
    3OL    C11313784   5.475   4.616   3.135
    3OL    H13R13785   5.410   4.540   3.091
    3OL    H13S13786   5.564   4.621   3.072
    3OL    C11413787   5.414   4.755   3.153
    3OL    H14R13788   5.402   4.801   3.054
    3OL    H14S13789   5.481   4.820   3.209
    3OL    C11513790   5.277   4.750   3.222
    3OL    H15R13791   5.284   4.684   3.309
    3OL    H15S13792   5.206   4.694   3.161
    3OL    C11613793   5.223   4.893   3.236
    3OL    H16R13794   5.303   4.946   3.288
    3OL    H16S13795   5.126   4.889   3.286
    3OL    C11713796   5.218   4.976   3.107
    3OL    H17R13797   5.162   4.940   3.020
    3OL    H17S13798   5.318   4.989   3.066
    3OL    C11813799   5.148   5.110   3.134
    3OL    H18R13800   5.147   5.162   3.039
    3OL    H18S13801   5.190   5.172   3.214
    3OL    H18T13802   5.045   5.089   3.166
    1PA    C11613803   3.196   0.706   3.450
    1PA    H16R13804   3.136   0.678   3.537
    1PA    H16S13805   3.202   0.615   3.390
    1PA    H16T13806   3.151   0.785   3.389
    1PA    C11513807   3.340   0.731   3.499
    1PA    H15R13808   3.350   0.644   3.565
    1PA    H15S13809   3.415   0.728   3.420
    1PA    C11413810   3.346   0.863   3.577
    1PA    H14R13811   3.318   0.950   3.516
    1PA    H14S13812   3.270   0.858   3.655
    1PA    C11313813   3.486   0.875   3.637
    1PA    H13R13814   3.484   0.915   3.739
    1PA    H13S13815   3.534   0.778   3.648
    1PA    C11213816   3.582   0.963   3.556
    1PA    H12R13817   3.575   0.939   3.449
    1PA    H12S13818   3.548   1.066   3.567
    1PA    C11113819   3.732   0.953   3.586
    1PA    H11R13820   3.746   0.954   3.695
    1PA    H11S13821   3.765   0.852   3.562
    1PA    C11013822   3.817   1.054   3.509
    1PA    H10R13823   3.769   1.152   3.516
    1PA    H10S13824   3.913   1.046   3.560
    1PA     C1913825   3.840   1.010   3.364
    1PA     H9R13826   3.883   0.910   3.365
    1PA     H9S13827   3.749   0.999   3.305
    1PA     C1813828   3.938   1.104   3.292
    1PA     H8R13829   3.891   1.202   3.286
    1PA     H8S13830   4.034   1.115   3.343
    1PA     C1713831   3.982   1.056   3.152
    1PA     H7R13832   4.048   0.970   3.170
    1PA     H7S13833   3.897   1.017   3.097
    1PA     C1613834   4.064   1.159   3.074
    1PA     H6R13835   3.997   1.236   3.035
    1PA     H6S13836   4.139   1.204   3.140
    1PA     C1513837   4.138   1.096   2.955
    1PA     H5R13838   4.209   1.023   2.995
    1PA     H5S13839   4.065   1.043   2.894
    1PA     C1413840   4.223   1.197   2.875
    1PA     H4R13841   4.159   1.284   2.863
    1PA     H4S13842   4.304   1.229   2.941
    1PA     C1313843   4.251   1.140   2.736
    1PA     H3R13844   4.305   1.046   2.745
    1PA     H3S13845   4.158   1.121   2.681
    1PA     C1213846   4.330   1.246   2.657
    1PA     H2R13847   4.285   1.344   2.667
    1PA     H2S13848   4.434   1.239   2.691
    2PC     C1113849   4.338   1.210   2.511
    2PC     O1213850   4.253   1.146   2.453
    2PC     O1113851   4.453   1.248   2.452
    2PC      C113852   4.464   1.230   2.309
    2PC      HR13853   4.413   1.138   2.279
    2PC      HS13854   4.418   1.316   2.260
    2PC      C213855   4.612   1.240   2.272
    2PC      HX13856   4.661   1.330   2.311
    2PC      C313857   4.618   1.214   2.121
    2PC      HA13858   4.588   1.113   2.094
    2PC      HB13859   4.543   1.277   2.072
    2PC     O3113860   4.754   1.218   2.073
    2PC     P3113861   4.798   1.136   1.942
    2PC     O3213862   4.738   0.990   1.967
    2PC     C3113863   4.806   0.917   2.071
    2PC     H1A13864   4.913   0.902   2.051
    2PC     H1B13865   4.790   0.961   2.169
    2PC     C3213866   4.753   0.773   2.083
    2PC     H2A13867   4.785   0.720   1.993
    2PC     H2B13868   4.804   0.728   2.169
    2PC     N3113869   4.608   0.740   2.104
    2PC     C3313870   4.523   0.787   1.991
    2PC     H3A13871   4.529   0.894   1.974
    2PC     H3B13872   4.570   0.755   1.897
    2PC     H3C13873   4.422   0.745   1.999
    2PC     C3413874   4.589   0.593   2.122
    2PC     H4A13875   4.483   0.571   2.134
    2PC     H4B13876   4.615   0.547   2.026
    2PC     H4C13877   4.651   0.552   2.202
    2PC     C3513878   4.558   0.804   2.230
    2PC     H5A13879   4.449   0.813   2.221
    2PC     H5B13880   4.605   0.901   2.241
    2PC     H5C13881   4.585   0.735   2.311
    2PC     O3313882   4.728   1.195   1.826
    2PC     O3413883   4.944   1.147   1.917
    2PC     O2113884   4.672   1.122   2.331
    2PC     C2113885   4.745   1.128   2.443
    2PC     O2213886   4.769   1.233   2.498
    3OL     C1213887   4.777   0.991   2.497
    3OL     H2R13888   4.880   0.983   2.532
    3OL     H2S13889   4.763   0.923   2.412
    3OL     C1313890   4.677   0.967   2.611
    3OL     H3R13891   4.577   0.987   2.573
    3OL     H3S13892   4.698   1.031   2.696
    3OL     C1413893   4.695   0.822   2.659
    3OL     H4R13894   4.797   0.807   2.695
    3OL     H4S13895   4.681   0.751   2.577
    3OL     C1513896   4.589   0.784   2.762
    3OL     H5R13897   4.601   0.677   2.781
    3OL     H5S13898   4.487   0.795   2.725
    3OL     C1613899   4.600   0.860   2.895
    3OL     H6R13900   4.560   0.960   2.877
    3OL     H6S13901   4.702   0.882   2.926
    3OL     C1713902   4.506   0.808   3.004
    3OL     H7R13903   4.505   0.700   3.018
    3OL     H7S13904   4.405   0.822   2.965
    3OL     C1813905   4.516   0.889   3.135
    3OL     H8R13906   4.487   0.993   3.120
    3OL     H8S13907   4.618   0.888   3.172
    3OL     C1913908   4.423   0.832   3.239
    3OL     H9R13909   4.318   0.833   3.210
    3OL    C11013910   4.456   0.750   3.338
    3OL    H10R13911   4.374   0.697   3.386
    3OL    C11113912   4.600   0.714   3.367
    3OL    H11R13913   4.634   0.777   3.449
    3OL    H11S13914   4.671   0.734   3.287
    3OL    C11213915   4.616   0.568   3.412
    3OL    H12R13916   4.722   0.547   3.428
    3OL    H12S13917   4.593   0.500   3.329
    3OL    C11313918   4.553   0.535   3.548
    3OL    H13R13919   4.572   0.430   3.572
    3OL    H13S13920   4.445   0.544   3.543
    3OL    C11413921   4.608   0.615   3.667
    3OL    H14R13922   4.592   0.721   3.647
    3OL    H14S13923   4.715   0.594   3.667
    3OL    C11513924   4.553   0.570   3.803
    3OL    H15R13925   4.551   0.462   3.820
    3OL    H15S13926   4.449   0.605   3.808
    3OL    C11613927   4.629   0.633   3.920
    3OL    H16R13928   4.730   0.592   3.929
    3OL    H16S13929   4.572   0.616   4.011
    3OL    C11713930   4.651   0.785   3.911
    3OL    H17R13931   4.701   0.807   3.817
    3OL    H17S13932   4.717   0.811   3.994
    3OL    C11813933   4.522   0.869   3.916
    3OL    H18R13934   4.465   0.860   3.824
    3OL    H18S13935   4.542   0.976   3.925
    3OL    H18T13936   4.459   0.835   3.999
    1PA    C11613937   5.277   4.661   3.608
    1PA    H16R13938   5.205   4.652   3.526
    1PA    H16S13939   5.253   4.582   3.680
    1PA    H16T13940   5.377   4.646   3.568
    1PA    C11513941   5.267   4.801   3.671
    1PA    H15R13942   5.316   4.807   3.769
    1PA    H15S13943   5.323   4.878   3.618
    1PA    C11413944   5.123   4.855   3.672
    1PA    H14R13945   5.064   4.819   3.588
    1PA    H14S13946   5.075   4.817   3.763
    1PA    C11313947   5.122   5.009   3.679
    1PA    H13R13948   5.175   5.023   3.773
    1PA    H13S13949   5.180   5.041   3.593
    1PA    C11213950   4.980   5.065   3.698
    1PA    H12R13951   4.940   5.013   3.785
    1PA    H12S13952   5.005   5.170   3.713
    1PA    C11113953   4.901   5.042   3.568
    1PA    H11R13954   4.939   5.102   3.485
    1PA    H11S13955   4.909   4.939   3.534
    1PA    C11013956   4.756   5.077   3.603
    1PA    H10R13957   4.727   5.009   3.683
    1PA    H10S13958   4.750   5.183   3.630
    1PA     C1913959   4.669   5.046   3.480
    1PA     H9R13960   4.717   4.962   3.427
    1PA     H9S13961   4.573   5.017   3.523
    1PA     C1813962   4.657   5.171   3.392
    1PA     H8R13963   4.610   5.259   3.435
    1PA     H8S13964   4.759   5.208   3.374
    1PA     C1713965   4.592   5.131   3.259
    1PA     H7R13966   4.620   5.199   3.179
    1PA     H7S13967   4.642   5.038   3.230
    1PA     C1613968   4.441   5.108   3.274
    1PA     H6R13969   4.407   5.041   3.194
    1PA     H6S13970   4.412   5.054   3.364
    1PA     C1513971   4.375   5.247   3.267
    1PA     H5R13972   4.381   5.287   3.368
    1PA     H5S13973   4.427   5.315   3.200
    1PA     C1413974   4.225   5.231   3.237
    1PA     H4R13975   4.188   5.151   3.302
    1PA     H4S13976   4.180   5.324   3.272
    1PA     C1313977   4.188   5.203   3.090
    1PA     H3R13978   4.236   5.280   3.029
    1PA     H3S13979   4.235   5.109   3.060
    1PA     C1213980   4.038   5.220   3.064
    1PA     H2R13981   3.989   5.163   3.143
    1PA     H2S13982   4.012   5.325   3.080
    2PC     C1113983   3.994   5.174   2.927
    2PC     O1213984   3.881   5.133   2.912
    2PC     O1113985   4.095   5.159   2.839
    2PC      C113986   4.070   5.121   2.703
    2PC      HR13987   4.161   5.070   2.670
    2PC      HS13988   3.986   5.052   2.698
    2PC      C213989   4.050   5.245   2.614
    2PC      HX13990   4.042   5.220   2.508
    2PC      C313991   4.171   5.337   2.633
    2PC      HA13992   4.143   5.412   2.708
    2PC      HB13993   4.259   5.292   2.679
    2PC     O3113994   4.211   5.408   2.514
    2PC     P3113995   4.299   5.328   2.407
    2PC     O3213996   4.402   5.451   2.404
    2PC     C3113997   4.538   5.429   2.363
    2PC     H1A13998   4.591   5.366   2.435
    2PC     H1B13999   4.549   5.372   2.271
    2PC     C3214000   4.619   5.559   2.357
    2PC     H2A14001   4.722   5.531   2.337
    2PC     H2B14002   4.585   5.623   2.276
    2PC     N3114003   4.633   5.638   2.484
    2PC     C3314004   4.675   5.553   2.600
    2PC     H3A14005   4.582   5.504   2.630
    2PC     H3B14006   4.745   5.475   2.569
    2PC     H3C14007   4.715   5.621   2.675
    2PC     C3414008   4.743   5.739   2.466
    2PC     H4A14009   4.751   5.778   2.567
    2PC     H4B14010   4.835   5.695   2.427
    2PC     H4C14011   4.712   5.822   2.401
    2PC     C3514012   4.508   5.718   2.503
    2PC     H5A14013   4.503   5.755   2.605
    2PC     H5B14014   4.421   5.654   2.488
    2PC     H5C14015   4.519   5.805   2.437
    2PC     O3314016   4.374   5.206   2.445
    2PC     O3414017   4.249   5.311   2.269
    2PC     O2114018   3.927   5.307   2.659
    2PC     C2114019   3.813   5.259   2.606
    2PC     O2214020   3.808   5.173   2.520
    3OL     C1214021   3.692   5.324   2.668
    3OL     H2R14022   3.680   5.426   2.632
    3OL     H2S14023   3.717   5.324   2.775
    3OL     C1314024   3.558   5.251   2.649
    3OL     H3R14025   3.546   5.237   2.541
    3OL     H3S14026   3.475   5.295   2.704
    3OL     C1414027   3.556   5.109   2.707
    3OL     H4R14028   3.640   5.048   2.672
    3OL     H4S14029   3.477   5.053   2.657
    3OL     C1514030   3.553   5.101   2.860
    3OL     H5R14031   3.477   5.169   2.900
    3OL     H5S14032   3.647   5.147   2.893
    3OL     C1614033   3.535   4.956   2.907
    3OL     H6R14034   3.619   4.895   2.874
    3OL     H6S14035   3.445   4.921   2.857
    3OL     C1714036   3.527   4.950   3.060
    3OL     H7R14037   3.450   5.012   3.106
    3OL     H7S14038   3.618   5.004   3.087
    3OL     C1814039   3.532   4.813   3.130
    3OL     H8R14040   3.580   4.826   3.227
    3OL     H8S14041   3.603   4.754   3.071
    3OL     C1914042   3.403   4.736   3.139
    3OL     H9R14043   3.321   4.767   3.075
    3OL    C11014044   3.376   4.641   3.227
    3OL    H10R14045   3.271   4.617   3.215
    3OL    C11114046   3.463   4.577   3.332
    3OL    H11R14047   3.559   4.628   3.328
    3OL    H11S14048   3.479   4.473   3.303
    3OL    C11214049   3.404   4.575   3.473
    3OL    H12R14050   3.307   4.526   3.483
    3OL    H12S14051   3.397   4.676   3.513
    3OL    C11314052   3.502   4.495   3.561
    3OL    H13R14053   3.592   4.554   3.575
    3OL    H13S14054   3.511   4.395   3.517
    3OL    C11414055   3.444   4.499   3.704
    3OL    H14R14056   3.346   4.450   3.707
    3OL    H14S14057   3.427   4.604   3.727
    3OL    C11514058   3.518   4.428   3.818
    3OL    H15R14059   3.627   4.437   3.815
    3OL    H15S14060   3.509   4.321   3.794
    3OL    C11614061   3.469   4.461   3.959
    3OL    H16R14062   3.410   4.553   3.948
    3OL    H16S14063   3.555   4.475   4.024
    3OL    C11714064   3.381   4.351   4.020
    3OL    H17R14065   3.302   4.330   3.947
    3OL    H17S14066   3.334   4.385   4.113
    3OL    C11814067   3.460   4.228   4.066
    3OL    H18R14068   3.405   4.176   4.144
    3OL    H18S14069   3.558   4.255   4.107
    3OL    H18T14070   3.476   4.166   3.977
    1PA    C11614071   3.398   5.566   4.062
    1PA    H16R14072   3.304   5.575   4.006
    1PA    H16S14073   3.403   5.492   4.142
    1PA    H16T14074   3.475   5.544   3.989
    1PA    C11514075   3.431   5.698   4.133
    1PA    H15R14076   3.347   5.706   4.202
    1PA    H15S14077   3.527   5.699   4.187
    1PA    C11414078   3.410   5.818   4.040
    1PA    H14R14079   3.316   5.806   3.985
    1PA    H14S14080   3.410   5.909   4.099
    1PA    C11314081   3.523   5.835   3.938
    1PA    H13R14082   3.618   5.851   3.990
    1PA    H13S14083   3.526   5.741   3.882
    1PA    C11214084   3.490   5.955   3.849
    1PA    H12R14085   3.397   5.932   3.796
    1PA    H12S14086   3.467   6.043   3.910
    1PA    C11114087   3.601   6.000   3.753
    1PA    H11R14088   3.592   6.103   3.719
    1PA    H11S14089   3.702   5.985   3.793
    1PA    C11014090   3.593   5.914   3.626
    1PA    H10R14091   3.596   5.806   3.643
    1PA    H10S14092   3.510   5.941   3.561
    1PA     C1914093   3.719   5.944   3.543
    1PA     H9R14094   3.717   6.049   3.512
    1PA     H9S14095   3.809   5.932   3.604
    1PA     C1814096   3.732   5.856   3.417
    1PA     H8R14097   3.761   5.753   3.440
    1PA     H8S14098   3.632   5.845   3.375
    1PA     C1714099   3.838   5.906   3.318
    1PA     H7R14100   3.817   6.006   3.279
    1PA     H7S14101   3.931   5.920   3.373
    1PA     C1614102   3.866   5.807   3.203
    1PA     H6R14103   3.867   5.703   3.234
    1PA     H6S14104   3.782   5.804   3.133
    1PA     C1514105   3.990   5.839   3.119
    1PA     H5R14106   3.981   5.940   3.078
    1PA     H5S14107   4.075   5.852   3.185
    1PA     C1414108   4.017   5.733   3.011
    1PA     H4R14109   4.024   5.640   3.067
    1PA     H4S14110   3.931   5.739   2.943
    1PA     C1314111   4.148   5.776   2.943
    1PA     H3R14112   4.209   5.825   3.018
    1PA     H3S14113   4.207   5.690   2.910
    1PA     C1214114   4.119   5.862   2.819
    1PA     H2R14115   4.046   5.806   2.760
    1PA     H2S14116   4.065   5.953   2.848
    2PC     C1114117   4.247   5.893   2.746
    2PC     O1214118   4.353   5.835   2.753
    2PC     O1114119   4.224   5.992   2.658
    2PC      C114120   4.322   6.053   2.572
    2PC      HR14121   4.403   6.092   2.633
    2PC      HS14122   4.353   5.985   2.492
    2PC      C214123   4.259   6.173   2.500
    2PC      HX14124   4.160   6.138   2.469
    2PC      C314125   4.346   6.205   2.377
    2PC      HA14126   4.440   6.249   2.411
    2PC      HB14127   4.353   6.113   2.319
    2PC     O3114128   4.273   6.309   2.310
    2PC     P3114129   4.355   6.411   2.218
    2PC     O3214130   4.405   6.327   2.091
    2PC     C3114131   4.513   6.383   2.015
    2PC     H1A14132   4.493   6.489   1.994
    2PC     H1B14133   4.601   6.377   2.079
    2PC     C3214134   4.539   6.297   1.890
    2PC     H2A14135   4.440   6.280   1.848
    2PC     H2B14136   4.596   6.365   1.826
    2PC     N3114137   4.606   6.164   1.907
    2PC     C3314138   4.614   6.102   1.770
    2PC     H3A14139   4.653   6.177   1.701
    2PC     H3B14140   4.667   6.007   1.775
    2PC     H3C14141   4.519   6.089   1.718
    2PC     C3414142   4.747   6.172   1.956
    2PC     H4A14143   4.796   6.265   1.925
    2PC     H4B14144   4.742   6.185   2.064
    2PC     H4C14145   4.810   6.085   1.941
    2PC     C3514146   4.523   6.085   2.004
    2PC     H5A14147   4.581   5.994   2.012
    2PC     H5B14148   4.424   6.068   1.961
    2PC     H5C14149   4.516   6.134   2.102
    2PC     O3314150   4.280   6.537   2.199
    2PC     O3414151   4.477   6.450   2.293
    2PC     O2114152   4.252   6.280   2.596
    2PC     C2114153   4.135   6.345   2.602
    2PC     O2214154   4.044   6.334   2.522
    3OL     C1214155   4.133   6.451   2.709
    3OL     H2R14156   4.221   6.511   2.732
    3OL     H2S14157   4.125   6.394   2.802
    3OL     C1314158   4.013   6.544   2.686
    3OL     H3R14159   3.920   6.499   2.652
    3OL     H3S14160   4.026   6.615   2.604
    3OL     C1414161   3.979   6.624   2.812
    3OL     H4R14162   4.068   6.681   2.838
    3OL     H4S14163   3.967   6.549   2.891
    3OL     C1514164   3.851   6.706   2.789
    3OL     H5R14165   3.848   6.743   2.687
    3OL     H5S14166   3.857   6.794   2.854
    3OL     C1614167   3.723   6.623   2.809
    3OL     H6R14168   3.720   6.572   2.905
    3OL     H6S14169   3.730   6.540   2.738
    3OL     C1714170   3.595   6.706   2.799
    3OL     H7R14171   3.582   6.771   2.712
    3OL     H7S14172   3.589   6.760   2.894
    3OL     C1814173   3.466   6.624   2.784
    3OL     H8R14174   3.469   6.564   2.693
    3OL     H8S14175   3.379   6.689   2.772
    3OL     C1914176   3.437   6.536   2.904
    3OL     H9R14177   3.484   6.438   2.900
    3OL    C11014178   3.340   6.556   2.991
    3OL    H10R14179   3.326   6.474   3.061
    3OL    C11114180   3.265   6.682   3.024
    3OL    H11R14181   3.159   6.661   3.003
    3OL    H11S14182   3.294   6.759   2.952
    3OL    C11214183   3.279   6.739   3.165
    3OL    H12R14184   3.220   6.830   3.178
    3OL    H12S14185   3.383   6.772   3.175
    3OL    C11314186   3.243   6.641   3.278
    3OL    H13R14187   3.304   6.551   3.280
    3OL    H13S14188   3.138   6.617   3.267
    3OL    C11414189   3.262   6.711   3.414
    3OL    H14R14190   3.203   6.802   3.414
    3OL    H14S14191   3.367   6.742   3.416
    3OL    C11514192   3.229   6.628   3.539
    3OL    H15R14193   3.279   6.531   3.536
    3OL    H15S14194   3.122   6.610   3.538
    3OL    C11614195   3.264   6.711   3.663
    3OL    H16R14196   3.217   6.810   3.672
    3OL    H16S14197   3.370   6.736   3.661
    3OL    C11714198   3.243   6.637   3.796
    3OL    H17R14199   3.308   6.683   3.871
    3OL    H17S14200   3.268   6.532   3.786
    3OL    C11814201   3.102   6.648   3.855
    3OL    H18R14202   3.078   6.753   3.874
    3OL    H18S14203   3.091   6.588   3.946
    3OL    H18T14204   3.028   6.609   3.785
    1PA    C11614205   4.387   0.199   2.956
    1PA    H16R14206   4.325   0.239   2.875
    1PA    H16S14207   4.338   0.117   3.009
    1PA    H16T14208   4.471   0.142   2.915
    1PA    C11514209   4.420   0.325   3.036
    1PA    H15R14210   4.524   0.322   3.069
    1PA    H15S14211   4.428   0.413   2.971
    1PA    C11414212   4.326   0.347   3.155
    1PA    H14R14213   4.259   0.264   3.178
    1PA    H14S14214   4.385   0.353   3.247
    1PA    C11314215   4.254   0.482   3.146
    1PA    H13R14216   4.204   0.498   3.242
    1PA    H13S14217   4.326   0.563   3.138
    1PA    C11214218   4.145   0.489   3.038
    1PA    H12R14219   4.174   0.460   2.937
    1PA    H12S14220   4.070   0.411   3.052
    1PA    C11114221   4.060   0.616   3.053
    1PA    H11R14222   3.953   0.597   3.037
    1PA    H11S14223   4.063   0.655   3.154
    1PA    C11014224   4.105   0.721   2.950
    1PA    H10R14225   4.058   0.813   2.986
    1PA    H10S14226   4.214   0.730   2.957
    1PA     C1914227   4.063   0.703   2.804
    1PA     H9R14228   4.100   0.791   2.751
    1PA     H9S14229   4.105   0.614   2.757
    1PA     C1814230   3.911   0.707   2.782
    1PA     H8R14231   3.888   0.669   2.683
    1PA     H8S14232   3.862   0.647   2.860
    1PA     C1714233   3.853   0.849   2.788
    1PA     H7R14234   3.891   0.905   2.874
    1PA     H7S14235   3.879   0.903   2.697
    1PA     C1614236   3.700   0.851   2.796
    1PA     H6R14237   3.668   0.813   2.893
    1PA     H6S14238   3.661   0.953   2.792
    1PA     C1514239   3.626   0.768   2.690
    1PA     H5R14240   3.649   0.662   2.707
    1PA     H5S14241   3.521   0.785   2.715
    1PA     C1414242   3.650   0.817   2.547
    1PA     H4R14243   3.596   0.912   2.537
    1PA     H4S14244   3.758   0.833   2.541
    1PA     C1314245   3.589   0.728   2.439
    1PA     H3R14246   3.606   0.630   2.484
    1PA     H3S14247   3.481   0.745   2.433
    1PA     C1214248   3.655   0.743   2.301
    1PA     H2R14249   3.641   0.845   2.262
    1PA     H2S14250   3.761   0.723   2.320
    2PC     C1114251   3.607   0.637   2.206
    2PC     O1214252   3.667   0.608   2.105
    2PC     O1114253   3.478   0.602   2.223
    2PC      C114254   3.413   0.519   2.126
    2PC      HR14255   3.304   0.533   2.129
    2PC      HS14256   3.430   0.559   2.026
    2PC      C214257   3.451   0.370   2.135
    2PC      HX14258   3.533   0.359   2.206
    2PC      C314259   3.472   0.306   1.997
    2PC      HA14260   3.539   0.365   1.934
    2PC      HB14261   3.517   0.208   2.008
    2PC     O3114262   3.350   0.297   1.920
    2PC     P3114263   3.340   0.187   1.804
    2PC     O3214264   3.243   0.081   1.874
    2PC     C3114265   3.282  -0.050   1.919
    2PC     H1A14266   3.361  -0.042   1.994
    2PC     H1B14267   3.199  -0.091   1.976
    2PC     C3214268   3.310  -0.151   1.806
    2PC     H2A14269   3.373  -0.108   1.729
    2PC     H2B14270   3.349  -0.239   1.859
    2PC     N3114271   3.188  -0.196   1.731
    2PC     C3314272   3.222  -0.296   1.625
    2PC     H3A14273   3.277  -0.245   1.545
    2PC     H3B14274   3.282  -0.375   1.671
    2PC     H3C14275   3.128  -0.340   1.592
    2PC     C3414276   3.085  -0.264   1.817
    2PC     H4A14277   3.012  -0.304   1.746
    2PC     H4B14278   3.131  -0.346   1.873
    2PC     H4C14279   3.048  -0.201   1.897
    2PC     C3514280   3.124  -0.077   1.664
    2PC     H5A14281   3.117   0.001   1.740
    2PC     H5B14282   3.033  -0.115   1.617
    2PC     H5C14283   3.210  -0.050   1.603
    2PC     O3314284   3.302   0.246   1.674
    2PC     O3414285   3.471   0.129   1.766
    2PC     O2114286   3.339   0.303   2.196
    2PC     C2114287   3.346   0.172   2.221
    2PC     O2214288   3.442   0.099   2.207
    3OL     C1214289   3.215   0.105   2.258
    3OL     H2R14290   3.228   0.000   2.230
    3OL     H2S14291   3.129   0.148   2.207
    3OL     C1314292   3.182   0.115   2.407
    3OL     H3R14293   3.186   0.219   2.440
    3OL     H3S14294   3.257   0.061   2.465
    3OL     C1414295   3.047   0.057   2.452
    3OL     H4R14296   3.041  -0.049   2.425
    3OL     H4S14297   2.967   0.106   2.397
    3OL     C1514298   3.018   0.066   2.603
    3OL     H5R14299   3.037   0.171   2.624
    3OL     H5S14300   3.091   0.011   2.663
    3OL     C1614301   2.874   0.019   2.629
    3OL     H6R14302   2.864   0.007   2.737
    3OL     H6S14303   2.873  -0.083   2.589
    3OL     C1714304   2.763   0.106   2.568
    3OL     H7R14305   2.667   0.080   2.612
    3OL     H7S14306   2.760   0.088   2.460
    3OL     C1814307   2.776   0.258   2.589
    3OL     H8R14308   2.860   0.291   2.528
    3OL     H8S14309   2.797   0.279   2.694
    3OL     C1914310   2.648   0.320   2.538
    3OL     H9R14311   2.625   0.291   2.436
    3OL    C11014312   2.579   0.410   2.607
    3OL    H10R14313   2.502   0.468   2.557
    3OL    C11114314   2.611   0.455   2.747
    3OL    H11R14315   2.568   0.555   2.763
    3OL    H11S14316   2.717   0.477   2.758
    3OL    C11214317   2.580   0.358   2.862
    3OL    H12R14318   2.605   0.405   2.958
    3OL    H12S14319   2.651   0.274   2.862
    3OL    C11314320   2.439   0.299   2.860
    3OL    H13R14321   2.431   0.233   2.774
    3OL    H13S14322   2.362   0.376   2.847
    3OL    C11414323   2.401   0.200   2.971
    3OL    H14R14324   2.480   0.124   2.971
    3OL    H14S14325   2.310   0.146   2.944
    3OL    C11514326   2.382   0.271   3.106
    3OL    H15R14327   2.289   0.329   3.112
    3OL    H15S14328   2.475   0.323   3.128
    3OL    C11614329   2.357   0.172   3.220
    3OL    H16R14330   2.363   0.238   3.306
    3OL    H16S14331   2.433   0.094   3.216
    3OL    C11714332   2.214   0.116   3.225
    3OL    H17R14333   2.186   0.072   3.129
    3OL    H17S14334   2.146   0.198   3.247
    3OL    C11814335   2.201   0.012   3.337
    3OL    H18R14336   2.219   0.074   3.425
    3OL    H18S14337   2.287  -0.055   3.336
    3OL    H18T14338   2.096  -0.015   3.339
    1PA    C11614339   3.748   3.538   3.618
    1PA    H16R14340   3.650   3.584   3.633
    1PA    H16S14341   3.759   3.530   3.509
    1PA    H16T14342   3.833   3.600   3.649
    1PA    C11514343   3.759   3.403   3.689
    1PA    H15R14344   3.763   3.414   3.798
    1PA    H15S14345   3.675   3.341   3.659
    1PA    C11414346   3.893   3.332   3.664
    1PA    H14R14347   3.978   3.389   3.704
    1PA    H14S14348   3.912   3.241   3.721
    1PA    C11314349   3.919   3.304   3.516
    1PA    H13R14350   3.843   3.239   3.471
    1PA    H13S14351   3.900   3.395   3.458
    1PA    C11214352   4.067   3.267   3.497
    1PA    H12R14353   4.126   3.356   3.520
    1PA    H12S14354   4.100   3.182   3.557
    1PA    C11114355   4.092   3.220   3.353
    1PA    H11R14356   4.191   3.174   3.343
    1PA    H11S14357   4.028   3.134   3.330
    1PA    C11014358   4.082   3.331   3.247
    1PA    H10R14359   3.985   3.382   3.250
    1PA    H10S14360   4.159   3.405   3.269
    1PA     C1914361   4.096   3.270   3.107
    1PA     H9R14362   4.193   3.220   3.113
    1PA     H9S14363   4.003   3.213   3.100
    1PA     C1814364   4.104   3.381   3.001
    1PA     H8R14365   4.017   3.445   3.017
    1PA     H8S14366   4.195   3.435   3.027
    1PA     C1714367   4.120   3.325   2.859
    1PA     H7R14368   4.208   3.259   2.852
    1PA     H7S14369   4.039   3.259   2.829
    1PA     C1614370   4.120   3.438   2.756
    1PA     H6R14371   4.031   3.501   2.759
    1PA     H6S14372   4.209   3.498   2.773
    1PA     C1514373   4.129   3.380   2.614
    1PA     H5R14374   4.219   3.318   2.606
    1PA     H5S14375   4.038   3.329   2.584
    1PA     C1414376   4.162   3.499   2.523
    1PA     H4R14377   4.075   3.566   2.521
    1PA     H4S14378   4.244   3.562   2.559
    1PA     C1314379   4.192   3.461   2.378
    1PA     H3R14380   4.245   3.537   2.320
    1PA     H3S14381   4.266   3.380   2.374
    1PA     C1214382   4.064   3.423   2.303
    1PA     H2R14383   4.011   3.349   2.364
    1PA     H2S14384   4.008   3.517   2.298
    2PC     C1114385   4.087   3.371   2.163
    2PC     O1214386   4.149   3.423   2.073
    2PC     O1114387   4.029   3.250   2.163
    2PC      C114388   4.032   3.172   2.043
    2PC      HR14389   3.956   3.095   2.061
    2PC      HS14390   3.992   3.244   1.970
    2PC      C214391   4.174   3.120   2.019
    2PC      HX14392   4.253   3.195   2.013
    2PC      C314393   4.181   3.031   1.895
    2PC      HA14394   4.175   3.083   1.799
    2PC      HB14395   4.271   2.968   1.893
    2PC     O3114396   4.070   2.941   1.913
    2PC     P3114397   4.011   2.873   1.780
    2PC     O3214398   3.862   2.930   1.791
    2PC     C3114399   3.761   2.856   1.862
    2PC     H1A14400   3.760   2.749   1.840
    2PC     H1B14401   3.775   2.880   1.968
    2PC     C3214402   3.623   2.910   1.822
    2PC     H2A14403   3.554   2.866   1.895
    2PC     H2B14404   3.626   3.018   1.833
    2PC     N3114405   3.566   2.872   1.689
    2PC     C3314406   3.666   2.911   1.585
    2PC     H3A14407   3.681   3.015   1.617
    2PC     H3B14408   3.763   2.861   1.585
    2PC     H3C14409   3.623   2.914   1.484
    2PC     C3414410   3.538   2.726   1.675
    2PC     H4A14411   3.481   2.710   1.584
    2PC     H4B14412   3.630   2.667   1.672
    2PC     H4C14413   3.484   2.686   1.761
    2PC     C3514414   3.446   2.948   1.641
    2PC     H5A14415   3.407   2.927   1.542
    2PC     H5B14416   3.460   3.055   1.655
    2PC     H5C14417   3.371   2.924   1.717
    2PC     O3314418   4.064   2.921   1.650
    2PC     O3414419   4.011   2.726   1.762
    2PC     O2114420   4.205   3.033   2.130
    2PC     C2114421   4.263   3.085   2.239
    2PC     O2214422   4.305   3.199   2.251
    3OL     C1214423   4.292   2.986   2.348
    3OL     H2R14424   4.371   2.921   2.309
    3OL     H2S14425   4.201   2.929   2.366
    3OL     C1314426   4.332   3.047   2.483
    3OL     H3R14427   4.245   3.100   2.523
    3OL     H3S14428   4.410   3.123   2.474
    3OL     C1414429   4.374   2.939   2.584
    3OL     H4R14430   4.448   2.878   2.531
    3OL     H4S14431   4.284   2.879   2.603
    3OL     C1514432   4.436   2.988   2.715
    3OL     H5R14433   4.448   2.905   2.785
    3OL     H5S14434   4.366   3.063   2.753
    3OL     C1614435   4.574   3.050   2.692
    3OL     H6R14436   4.580   3.135   2.760
    3OL     H6S14437   4.575   3.095   2.593
    3OL     C1714438   4.696   2.956   2.694
    3OL     H7R14439   4.780   3.010   2.651
    3OL     H7S14440   4.682   2.867   2.633
    3OL     C1814441   4.739   2.919   2.837
    3OL     H8R14442   4.806   2.833   2.837
    3OL     H8S14443   4.654   2.886   2.895
    3OL     C1914444   4.804   3.025   2.923
    3OL     H9R14445   4.907   3.048   2.895
    3OL    C11014446   4.756   3.074   3.036
    3OL    H10R14447   4.816   3.140   3.097
    3OL    C11114448   4.611   3.068   3.079
    3OL    H11R14449   4.554   3.005   3.010
    3OL    H11S14450   4.572   3.169   3.086
    3OL    C11214451   4.599   3.002   3.217
    3OL    H12R14452   4.639   3.076   3.287
    3OL    H12S14453   4.659   2.911   3.219
    3OL    C11314454   4.458   2.977   3.274
    3OL    H13R14455   4.396   2.917   3.208
    3OL    H13S14456   4.411   3.076   3.267
    3OL    C11414457   4.456   2.924   3.418
    3OL    H14R14458   4.519   2.990   3.477
    3OL    H14S14459   4.506   2.827   3.418
    3OL    C11514460   4.313   2.907   3.471
    3OL    H15R14461   4.241   2.850   3.412
    3OL    H15S14462   4.278   3.006   3.500
    3OL    C11614463   4.322   2.829   3.603
    3OL    H16R14464   4.384   2.885   3.674
    3OL    H16S14465   4.363   2.728   3.594
    3OL    C11714466   4.181   2.815   3.662
    3OL    H17R14467   4.124   2.750   3.596
    3OL    H17S14468   4.130   2.910   3.678
    3OL    C11814469   4.193   2.760   3.805
    3OL    H18R14470   4.215   2.653   3.805
    3OL    H18S14471   4.109   2.776   3.873
    3OL    H18T14472   4.272   2.817   3.854
    1PA    C11614473   5.993   4.482   3.567
    1PA    H16R14474   5.977   4.585   3.600
    1PA    H16S14475   5.907   4.450   3.509
    1PA    H16T14476   6.082   4.494   3.506
    1PA    C11514477   6.018   4.395   3.691
    1PA    H15R14478   6.036   4.297   3.646
    1PA    H15S14479   6.108   4.432   3.741
    1PA    C11414480   5.900   4.389   3.789
    1PA    H14R14481   5.942   4.366   3.887
    1PA    H14S14482   5.872   4.494   3.797
    1PA    C11314483   5.786   4.296   3.746
    1PA    H13R14484   5.756   4.307   3.641
    1PA    H13S14485   5.816   4.194   3.772
    1PA    C11214486   5.660   4.304   3.833
    1PA    H12R14487   5.686   4.285   3.938
    1PA    H12S14488   5.616   4.404   3.831
    1PA    C11114489   5.549   4.210   3.782
    1PA    H11R14490   5.589   4.116   3.745
    1PA    H11S14491   5.478   4.204   3.864
    1PA    C11014492   5.459   4.278   3.677
    1PA    H10R14493   5.431   4.377   3.715
    1PA    H10S14494   5.508   4.289   3.580
    1PA     C1914495   5.333   4.195   3.653
    1PA     H9R14496   5.367   4.093   3.633
    1PA     H9S14497   5.276   4.183   3.746
    1PA     C1814498   5.244   4.257   3.545
    1PA     H8R14499   5.139   4.248   3.573
    1PA     H8S14500   5.263   4.364   3.534
    1PA     C1714501   5.268   4.196   3.406
    1PA     H7R14502   5.373   4.203   3.377
    1PA     H7S14503   5.231   4.094   3.411
    1PA     C1614504   5.182   4.283   3.313
    1PA     H6R14505   5.082   4.306   3.349
    1PA     H6S14506   5.239   4.377   3.314
    1PA     C1514507   5.179   4.237   3.167
    1PA     H5R14508   5.150   4.317   3.099
    1PA     H5S14509   5.277   4.210   3.126
    1PA     C1414510   5.071   4.132   3.138
    1PA     H4R14511   5.109   4.041   3.185
    1PA     H4S14512   4.976   4.154   3.187
    1PA     C1314513   5.048   4.098   2.990
    1PA     H3R14514   5.007   4.180   2.930
    1PA     H3S14515   5.151   4.075   2.961
    1PA     C1214516   4.958   3.975   2.973
    1PA     H2R14517   4.981   3.905   3.054
    1PA     H2S14518   4.854   4.007   2.979
    2PC     C1114519   4.990   3.922   2.835
    2PC     O1214520   4.948   3.976   2.735
    2PC     O1114521   5.048   3.801   2.843
    2PC      C114522   5.076   3.719   2.728
    2PC      HR14523   5.053   3.618   2.763
    2PC      HS14524   5.006   3.744   2.648
    2PC      C214525   5.226   3.734   2.695
    2PC      HX14526   5.250   3.835   2.659
    2PC      C314527   5.266   3.638   2.583
    2PC      HA14528   5.292   3.540   2.624
    2PC      HB14529   5.189   3.634   2.506
    2PC     O3114530   5.379   3.689   2.510
    2PC     P3114531   5.369   3.808   2.404
    2PC     O3214532   5.467   3.918   2.467
    2PC     C3114533   5.488   4.028   2.377
    2PC     H1A14534   5.556   4.002   2.295
    2PC     H1B14535   5.395   4.053   2.325
    2PC     C3214536   5.542   4.149   2.454
    2PC     H2A14537   5.624   4.117   2.518
    2PC     H2B14538   5.576   4.227   2.386
    2PC     N3114539   5.443   4.229   2.535
    2PC     C3314540   5.513   4.349   2.591
    2PC     H3A14541   5.607   4.326   2.642
    2PC     H3B14542   5.522   4.427   2.516
    2PC     H3C14543   5.439   4.391   2.660
    2PC     C3414544   5.328   4.277   2.452
    2PC     H4A14545   5.293   4.368   2.499
    2PC     H4B14546   5.361   4.302   2.351
    2PC     H4C14547   5.243   4.209   2.442
    2PC     C3514548   5.400   4.147   2.652
    2PC     H5A14549   5.379   4.042   2.629
    2PC     H5B14550   5.309   4.194   2.689
    2PC     H5C14551   5.471   4.153   2.734
    2PC     O3314552   5.410   3.765   2.268
    2PC     O3414553   5.234   3.868   2.400
    2PC     O2114554   5.304   3.698   2.811
    2PC     C2114555   5.345   3.787   2.902
    2PC     O2214556   5.330   3.907   2.887
    3OL     C1214557   5.408   3.721   3.022
    3OL     H2R14558   5.516   3.733   3.020
    3OL     H2S14559   5.386   3.614   3.022
    3OL     C1314560   5.346   3.782   3.149
    3OL     H3R14561   5.240   3.757   3.152
    3OL     H3S14562   5.357   3.890   3.150
    3OL     C1414563   5.413   3.721   3.273
    3OL     H4R14564   5.520   3.699   3.270
    3OL     H4S14565   5.360   3.627   3.286
    3OL     C1514566   5.387   3.807   3.398
    3OL     H5R14567   5.283   3.836   3.416
    3OL     H5S14568   5.445   3.899   3.387
    3OL     C1614569   5.436   3.748   3.531
    3OL     H6R14570   5.449   3.839   3.590
    3OL     H6S14571   5.531   3.696   3.514
    3OL     C1714572   5.320   3.673   3.597
    3OL     H7R14573   5.294   3.597   3.522
    3OL     H7S14574   5.236   3.741   3.607
    3OL     C1814575   5.370   3.610   3.727
    3OL     H8R14576   5.286   3.566   3.781
    3OL     H8S14577   5.409   3.694   3.785
    3OL     C1914578   5.470   3.498   3.721
    3OL     H9R14579   5.573   3.533   3.725
    3OL    C11014580   5.449   3.369   3.705
    3OL    H10R14581   5.532   3.300   3.694
    3OL    C11114582   5.315   3.300   3.691
    3OL    H11R14583   5.293   3.289   3.585
    3OL    H11S14584   5.239   3.356   3.745
    3OL    C11214585   5.334   3.160   3.753
    3OL    H12R14586   5.401   3.158   3.839
    3OL    H12S14587   5.383   3.100   3.676
    3OL    C11314588   5.205   3.087   3.793
    3OL    H13R14589   5.139   3.067   3.709
    3OL    H13S14590   5.148   3.153   3.859
    3OL    C11414591   5.247   2.954   3.859
    3OL    H14R14592   5.320   2.981   3.935
    3OL    H14S14593   5.288   2.884   3.786
    3OL    C11514594   5.121   2.903   3.929
    3OL    H15R14595   5.049   2.881   3.850
    3OL    H15S14596   5.088   2.983   3.996
    3OL    C11614597   5.148   2.782   4.020
    3OL    H16R14598   5.211   2.822   4.100
    3OL    H16S14599   5.201   2.703   3.967
    3OL    C11714600   5.017   2.730   4.080
    3OL    H17R14601   4.945   2.709   4.001
    3OL    H17S14602   4.972   2.814   4.133
    3OL    C11814603   5.040   2.600   4.159
    3OL    H18R14604   5.088   2.534   4.086
    3OL    H18S14605   4.946   2.553   4.189
    3OL    H18T14606   5.109   2.618   4.241
    1PA    C11614607   2.344   1.073   3.966
    1PA    H16R14608   2.415   1.003   3.921
    1PA    H16S14609   2.275   1.009   4.020
    1PA    H16T14610   2.395   1.134   4.040
    1PA    C11514611   2.254   1.151   3.869
    1PA    H15R14612   2.190   1.213   3.932
    1PA    H15S14613   2.325   1.208   3.808
    1PA    C11414614   2.175   1.050   3.786
    1PA    H14R14615   2.248   0.980   3.744
    1PA    H14S14616   2.109   0.990   3.848
    1PA    C11314617   2.096   1.117   3.673
    1PA    H13R14618   2.027   1.192   3.710
    1PA    H13S14619   2.174   1.177   3.626
    1PA    C11214620   2.050   1.018   3.565
    1PA    H12R14621   2.133   0.965   3.518
    1PA    H12S14622   1.994   0.937   3.613
    1PA    C11114623   1.963   1.080   3.455
    1PA    H11R14624   1.880   1.131   3.504
    1PA    H11S14625   2.022   1.150   3.396
    1PA    C11014626   1.913   0.992   3.340
    1PA    H10R14627   1.991   0.967   3.268
    1PA    H10S14628   1.876   0.902   3.392
    1PA     C1914629   1.800   1.063   3.264
    1PA     H9R14630   1.711   1.050   3.326
    1PA     H9S14631   1.825   1.169   3.265
    1PA     C1814632   1.767   1.017   3.121
    1PA     H8R14633   1.741   0.913   3.140
    1PA     H8S14634   1.675   1.067   3.091
    1PA     C1714635   1.877   1.039   3.017
    1PA     H7R14636   1.969   0.986   3.041
    1PA     H7S14637   1.851   0.991   2.922
    1PA     C1614638   1.914   1.184   2.983
    1PA     H6R14639   1.834   1.229   2.925
    1PA     H6S14640   1.931   1.232   3.079
    1PA     C1514641   2.039   1.200   2.894
    1PA     H5R14642   2.126   1.142   2.924
    1PA     H5S14643   2.017   1.162   2.794
    1PA     C1414644   2.085   1.346   2.896
    1PA     H4R14645   2.078   1.391   2.995
    1PA     H4S14646   2.188   1.345   2.864
    1PA     C1314647   2.007   1.439   2.802
    1PA     H3R14648   1.900   1.432   2.823
    1PA     H3S14649   2.040   1.539   2.830
    1PA     C1214650   2.041   1.416   2.654
    1PA     H2R14651   2.147   1.435   2.640
    1PA     H2S14652   2.023   1.315   2.616
    2PC     C1114653   1.957   1.502   2.563
    2PC     O1214654   1.838   1.489   2.541
    2PC     O1114655   2.029   1.587   2.489
    2PC      C114656   1.975   1.664   2.381
    2PC      HR14657   1.913   1.607   2.311
    2PC      HS14658   1.911   1.738   2.430
    2PC      C214659   2.088   1.743   2.313
    2PC      HX14660   2.047   1.826   2.256
    2PC      C314661   2.176   1.653   2.225
    2PC      HA14662   2.213   1.578   2.296
    2PC      HB14663   2.119   1.602   2.148
    2PC     O3114664   2.286   1.721   2.162
    2PC     P3114665   2.265   1.813   2.033
    2PC     O3214666   2.386   1.770   1.937
    2PC     C3114667   2.417   1.630   1.921
    2PC     H1A14668   2.458   1.591   2.015
    2PC     H1B14669   2.330   1.578   1.881
    2PC     C3214670   2.528   1.611   1.818
    2PC     H2A14671   2.619   1.664   1.844
    2PC     H2B14672   2.550   1.506   1.797
    2PC     N3114673   2.487   1.665   1.684
    2PC     C3314674   2.349   1.620   1.648
    2PC     H3A14675   2.337   1.511   1.656
    2PC     H3B14676   2.286   1.680   1.714
    2PC     H3C14677   2.338   1.647   1.543
    2PC     C3414678   2.495   1.814   1.679
    2PC     H4A14679   2.508   1.843   1.574
    2PC     H4B14680   2.404   1.848   1.730
    2PC     H4C14681   2.585   1.833   1.736
    2PC     C3514682   2.582   1.612   1.580
    2PC     H5A14683   2.551   1.632   1.478
    2PC     H5B14684   2.584   1.503   1.587
    2PC     H5C14685   2.685   1.646   1.592
    2PC     O3314686   2.135   1.790   1.967
    2PC     O3414687   2.269   1.956   2.072
    2PC     O2114688   2.176   1.794   2.414
    2PC     C2114689   2.142   1.900   2.488
    2PC     O2214690   2.050   1.976   2.464
    3OL     C1214691   2.241   1.928   2.598
    3OL     H2R14692   2.230   2.033   2.626
    3OL     H2S14693   2.339   1.897   2.563
    3OL     C1314694   2.214   1.832   2.714
    3OL     H3R14695   2.211   1.726   2.688
    3OL     H3S14696   2.123   1.866   2.763
    3OL     C1414697   2.331   1.851   2.811
    3OL     H4R14698   2.336   1.948   2.863
    3OL     H4S14699   2.427   1.843   2.760
    3OL     C1514700   2.323   1.753   2.929
    3OL     H5R14701   2.429   1.731   2.945
    3OL     H5S14702   2.272   1.661   2.898
    3OL     C1614703   2.249   1.813   3.049
    3OL     H6R14704   2.215   1.735   3.117
    3OL     H6S14705   2.166   1.875   3.014
    3OL     C1714706   2.340   1.905   3.131
    3OL     H7R14707   2.361   2.005   3.090
    3OL     H7S14708   2.437   1.859   3.153
    3OL     C1814709   2.265   1.933   3.261
    3OL     H8R14710   2.163   1.961   3.234
    3OL     H8S14711   2.318   2.010   3.318
    3OL     C1914712   2.260   1.806   3.342
    3OL     H9R14713   2.212   1.718   3.302
    3OL    C11014714   2.311   1.785   3.463
    3OL    H10R14715   2.299   1.684   3.500
    3OL    C11114716   2.376   1.890   3.550
    3OL    H11R14717   2.324   1.986   3.550
    3OL    H11S14718   2.483   1.890   3.530
    3OL    C11214719   2.362   1.844   3.696
    3OL    H12R14720   2.401   1.742   3.706
    3OL    H12S14721   2.255   1.836   3.716
    3OL    C11314722   2.441   1.936   3.789
    3OL    H13R14723   2.398   2.037   3.796
    3OL    H13S14724   2.545   1.942   3.757
    3OL    C11414725   2.442   1.874   3.929
    3OL    H14R14726   2.472   1.769   3.926
    3OL    H14S14727   2.341   1.879   3.971
    3OL    C11514728   2.541   1.947   4.021
    3OL    H15R14729   2.529   2.055   4.011
    3OL    H15S14730   2.646   1.929   3.999
    3OL    C11614731   2.521   1.908   4.169
    3OL    H16R14732   2.557   1.807   4.186
    3OL    H16S14733   2.414   1.911   4.191
    3OL    C11714734   2.595   2.002   4.264
    3OL    H17R14735   2.545   1.991   4.360
    3OL    H17S14736   2.594   2.108   4.236
    3OL    C11814737   2.742   1.965   4.293
    3OL    H18R14738   2.810   1.965   4.208
    3OL    H18S14739   2.738   1.868   4.343
    3OL    H18T14740   2.779   2.043   4.360
    1PA    C11614741   6.391   1.743   3.684
    1PA    H16R14742   6.322   1.744   3.769
    1PA    H16S14743   6.419   1.847   3.664
    1PA    H16T14744   6.477   1.684   3.715
    1PA    C11514745   6.339   1.669   3.560
    1PA    H15R14746   6.410   1.670   3.477
    1PA    H15S14747   6.331   1.565   3.592
    1PA    C11414748   6.203   1.732   3.523
    1PA    H14R14749   6.130   1.707   3.600
    1PA    H14S14750   6.211   1.838   3.500
    1PA    C11314751   6.156   1.654   3.399
    1PA    H13R14752   6.231   1.648   3.320
    1PA    H13S14753   6.131   1.552   3.427
    1PA    C11214754   6.026   1.711   3.341
    1PA    H12R14755   5.981   1.642   3.270
    1PA    H12S14756   5.949   1.728   3.417
    1PA    C11114757   6.043   1.842   3.262
    1PA    H11R14758   6.084   1.913   3.334
    1PA    H11S14759   6.117   1.817   3.186
    1PA    C11014760   5.922   1.895   3.183
    1PA    H10R14761   5.889   1.819   3.112
    1PA    H10S14762   5.842   1.918   3.254
    1PA     C1914763   5.959   2.019   3.100
    1PA     H9R14764   5.974   2.103   3.169
    1PA     H9S14765   6.058   2.004   3.056
    1PA     C1814766   5.853   2.060   2.997
    1PA     H8R14767   5.755   2.050   3.045
    1PA     H8S14768   5.872   2.162   2.963
    1PA     C1714769   5.869   1.972   2.872
    1PA     H7R14770   5.973   1.965   2.839
    1PA     H7S14771   5.834   1.872   2.899
    1PA     C1614772   5.785   2.032   2.758
    1PA     H6R14773   5.682   1.999   2.776
    1PA     H6S14774   5.787   2.141   2.769
    1PA     C1514775   5.832   1.981   2.621
    1PA     H5R14776   5.940   1.985   2.608
    1PA     H5S14777   5.814   1.874   2.616
    1PA     C1414778   5.764   2.045   2.499
    1PA     H4R14779   5.656   2.032   2.512
    1PA     H4S14780   5.788   2.148   2.472
    1PA     C1314781   5.806   1.957   2.381
    1PA     H3R14782   5.915   1.949   2.374
    1PA     H3S14783   5.762   1.864   2.416
    1PA     C1214784   5.749   1.987   2.241
    1PA     H2R14785   5.747   1.894   2.185
    1PA     H2S14786   5.645   2.019   2.245
    2PC     C1114787   5.821   2.096   2.167
    2PC     O1214788   5.824   2.115   2.047
    2PC     O1114789   5.883   2.186   2.246
    2PC      C114790   5.932   2.308   2.187
    2PC      HR14791   5.993   2.367   2.256
    2PC      HS14792   5.983   2.297   2.092
    2PC      C214793   5.817   2.407   2.162
    2PC      HX14794   5.748   2.356   2.095
    2PC      C314795   5.851   2.539   2.090
    2PC      HA14796   5.893   2.615   2.156
    2PC      HB14797   5.928   2.537   2.013
    2PC     O3114798   5.729   2.593   2.037
    2PC     P3114799   5.731   2.738   1.969
    2PC     O3214800   5.580   2.727   1.916
    2PC     C3114801   5.473   2.743   2.011
    2PC     H1A14802   5.477   2.658   2.079
    2PC     H1B14803   5.488   2.828   2.079
    2PC     C3214804   5.336   2.743   1.943
    2PC     H2A14805   5.312   2.644   1.903
    2PC     H2B14806   5.260   2.772   2.016
    2PC     N3114807   5.323   2.841   1.830
    2PC     C3314808   5.370   2.975   1.879
    2PC     H3A14809   5.332   2.997   1.979
    2PC     H3B14810   5.478   2.982   1.885
    2PC     H3C14811   5.343   3.052   1.806
    2PC     C3414812   5.389   2.809   1.699
    2PC     H4A14813   5.377   2.902   1.643
    2PC     H4B14814   5.494   2.782   1.709
    2PC     H4C14815   5.329   2.727   1.660
    2PC     C3514816   5.177   2.863   1.805
    2PC     H5A14817   5.168   2.955   1.746
    2PC     H5B14818   5.119   2.860   1.897
    2PC     H5C14819   5.149   2.781   1.738
    2PC     O3314820   5.744   2.854   2.059
    2PC     O3414821   5.836   2.745   1.865
    2PC     O2114822   5.763   2.452   2.288
    2PC     C2114823   5.656   2.381   2.326
    2PC     O2214824   5.622   2.274   2.279
    3OL     C1214825   5.585   2.442   2.444
    3OL     H2R14826   5.482   2.467   2.420
    3OL     H2S14827   5.631   2.533   2.481
    3OL     C1314828   5.587   2.346   2.564
    3OL     H3R14829   5.690   2.314   2.581
    3OL     H3S14830   5.546   2.251   2.530
    3OL     C1414831   5.543   2.397   2.702
    3OL     H4R14832   5.530   2.308   2.764
    3OL     H4S14833   5.442   2.439   2.698
    3OL     C1514834   5.639   2.496   2.770
    3OL     H5R14835   5.663   2.586   2.714
    3OL     H5S14836   5.734   2.443   2.781
    3OL     C1614837   5.581   2.549   2.902
    3OL     H6R14838   5.564   2.463   2.967
    3OL     H6S14839   5.487   2.602   2.886
    3OL     C1714840   5.674   2.649   2.971
    3OL     H7R14841   5.714   2.720   2.899
    3OL     H7S14842   5.763   2.594   3.002
    3OL     C1814843   5.625   2.721   3.098
    3OL     H8R14844   5.571   2.653   3.163
    3OL     H8S14845   5.546   2.790   3.066
    3OL     C1914846   5.737   2.801   3.160
    3OL     H9R14847   5.753   2.902   3.123
    3OL    C11014848   5.819   2.753   3.251
    3OL    H10R14849   5.896   2.821   3.288
    3OL    C11114850   5.824   2.618   3.318
    3OL    H11R14851   5.924   2.588   3.349
    3OL    H11S14852   5.782   2.535   3.261
    3OL    C11214853   5.749   2.628   3.452
    3OL    H12R14854   5.714   2.526   3.472
    3OL    H12S14855   5.658   2.687   3.446
    3OL    C11314856   5.838   2.684   3.563
    3OL    H13R14857   5.878   2.782   3.535
    3OL    H13S14858   5.931   2.629   3.577
    3OL    C11414859   5.753   2.707   3.689
    3OL    H14R14860   5.669   2.775   3.675
    3OL    H14S14861   5.825   2.754   3.757
    3OL    C11514862   5.714   2.575   3.758
    3OL    H15R14863   5.805   2.528   3.795
    3OL    H15S14864   5.660   2.508   3.690
    3OL    C11614865   5.628   2.603   3.882
    3OL    H16R14866   5.542   2.669   3.866
    3OL    H16S14867   5.692   2.659   3.950
    3OL    C11714868   5.594   2.470   3.950
    3OL    H17R14869   5.682   2.426   3.997
    3OL    H17S14870   5.544   2.397   3.885
    3OL    C11814871   5.512   2.485   4.079
    3OL    H18R14872   5.472   2.395   4.126
    3OL    H18S14873   5.435   2.561   4.066
    3OL    H18T14874   5.578   2.537   4.149
    1PA    C11614875   4.832   1.553   3.720
    1PA    H16R14876   4.763   1.479   3.762
    1PA    H16S14877   4.893   1.587   3.804
    1PA    H16T14878   4.900   1.504   3.649
    1PA    C11514879   4.753   1.662   3.647
    1PA    H15R14880   4.701   1.728   3.717
    1PA    H15S14881   4.820   1.734   3.599
    1PA    C11414882   4.642   1.603   3.559
    1PA    H14R14883   4.684   1.532   3.487
    1PA    H14S14884   4.574   1.539   3.615
    1PA    C11314885   4.557   1.709   3.488
    1PA    H13R14886   4.456   1.678   3.461
    1PA    H13S14887   4.550   1.797   3.553
    1PA    C11214888   4.638   1.743   3.363
    1PA    H12R14889   4.743   1.753   3.394
    1PA    H12S14890   4.636   1.659   3.294
    1PA    C11114891   4.583   1.866   3.290
    1PA    H11R14892   4.474   1.865   3.289
    1PA    H11S14893   4.617   1.955   3.344
    1PA    C11014894   4.642   1.884   3.149
    1PA    H10R14895   4.751   1.890   3.152
    1PA    H10S14896   4.611   1.815   3.070
    1PA     C1914897   4.585   2.018   3.101
    1PA     H9R14898   4.584   2.096   3.178
    1PA     H9S14899   4.481   1.995   3.078
    1PA     C1814900   4.649   2.080   2.975
    1PA     H8R14901   4.574   2.154   2.947
    1PA     H8S14902   4.735   2.139   3.007
    1PA     C1714903   4.668   1.996   2.848
    1PA     H7R14904   4.722   2.049   2.769
    1PA     H7S14905   4.738   1.914   2.864
    1PA     C1614906   4.535   1.954   2.783
    1PA     H6R14907   4.538   1.856   2.736
    1PA     H6S14908   4.457   1.944   2.858
    1PA     C1514909   4.487   2.060   2.683
    1PA     H5R14910   4.379   2.074   2.692
    1PA     H5S14911   4.524   2.162   2.697
    1PA     C1414912   4.508   2.007   2.540
    1PA     H4R14913   4.617   2.003   2.528
    1PA     H4S14914   4.481   1.903   2.527
    1PA     C1314915   4.443   2.098   2.435
    1PA     H3R14916   4.337   2.087   2.459
    1PA     H3S14917   4.472   2.203   2.434
    1PA     C1214918   4.465   2.047   2.292
    1PA     H2R14919   4.572   2.057   2.273
    1PA     H2S14920   4.416   1.950   2.279
    2PC     C1114921   4.401   2.134   2.186
    2PC     O1214922   4.467   2.184   2.098
    2PC     O1114923   4.267   2.139   2.190
    2PC      C114924   4.209   2.230   2.094
    2PC      HR14925   4.220   2.330   2.137
    2PC      HS14926   4.254   2.222   1.995
    2PC      C214927   4.060   2.197   2.082
    2PC      HX14928   4.043   2.089   2.079
    2PC      C314929   3.989   2.261   1.962
    2PC      HA14930   3.995   2.370   1.963
    2PC      HB14931   4.045   2.248   1.869
    2PC     O3114932   3.857   2.205   1.953
    2PC     P3114933   3.765   2.259   1.833
    2PC     O3214934   3.829   2.196   1.700
    2PC     C3114935   3.776   2.226   1.570
    2PC     H1A14936   3.678   2.178   1.564
    2PC     H1B14937   3.767   2.333   1.550
    2PC     C3214938   3.860   2.158   1.461
    2PC     H2A14939   3.882   2.059   1.501
    2PC     H2B14940   3.794   2.135   1.377
    2PC     N3114941   3.970   2.230   1.389
    2PC     C3314942   4.064   2.296   1.486
    2PC     H3A14943   4.119   2.369   1.427
    2PC     H3B14944   4.005   2.333   1.570
    2PC     H3C14945   4.129   2.220   1.529
    2PC     C3414946   4.039   2.140   1.291
    2PC     H4A14947   3.957   2.105   1.229
    2PC     H4B14948   4.122   2.181   1.234
    2PC     H4C14949   4.084   2.065   1.357
    2PC     C3514950   3.893   2.328   1.306
    2PC     H5A14951   3.830   2.386   1.374
    2PC     H5B14952   3.842   2.269   1.229
    2PC     H5C14953   3.970   2.388   1.258
    2PC     O3314954   3.624   2.221   1.860
    2PC     O3414955   3.764   2.407   1.826
    2PC     O2114956   3.999   2.250   2.201
    2PC     C2114957   3.901   2.185   2.267
    2PC     O2214958   3.838   2.092   2.222
    3OL     C1214959   3.876   2.238   2.406
    3OL     H2R14960   3.774   2.209   2.433
    3OL     H2S14961   3.875   2.347   2.409
    3OL     C1314962   3.981   2.180   2.503
    3OL     H3R14963   4.078   2.228   2.490
    3OL     H3S14964   3.985   2.074   2.480
    3OL     C1414965   3.947   2.186   2.653
    3OL     H4R14966   3.865   2.114   2.664
    3OL     H4S14967   3.919   2.289   2.673
    3OL     C1514968   4.060   2.139   2.745
    3OL     H5R14969   4.151   2.196   2.726
    3OL     H5S14970   4.077   2.032   2.729
    3OL     C1614971   4.039   2.171   2.894
    3OL     H6R14972   3.956   2.116   2.938
    3OL     H6S14973   4.019   2.277   2.913
    3OL     C1714974   4.162   2.133   2.978
    3OL     H7R14975   4.251   2.164   2.923
    3OL     H7S14976   4.171   2.026   2.996
    3OL     C1814977   4.159   2.202   3.115
    3OL     H8R14978   4.071   2.176   3.174
    3OL     H8S14979   4.152   2.311   3.106
    3OL     C1914980   4.292   2.187   3.185
    3OL     H9R14981   4.379   2.230   3.136
    3OL    C11014982   4.304   2.124   3.301
    3OL    H10R14983   4.406   2.120   3.339
    3OL    C11114984   4.192   2.050   3.371
    3OL    H11R14985   4.160   1.972   3.302
    3OL    H11S14986   4.114   2.122   3.395
    3OL    C11214987   4.238   1.989   3.504
    3OL    H12R14988   4.238   2.066   3.581
    3OL    H12S14989   4.342   1.956   3.499
    3OL    C11314990   4.162   1.863   3.549
    3OL    H13R14991   4.206   1.831   3.644
    3OL    H13S14992   4.173   1.779   3.481
    3OL    C11414993   4.013   1.888   3.578
    3OL    H14R14994   3.974   1.793   3.616
    3OL    H14S14995   3.954   1.911   3.489
    3OL    C11514996   3.993   1.999   3.682
    3OL    H15R14997   4.015   2.098   3.641
    3OL    H15S14998   4.062   1.979   3.765
    3OL    C11614999   3.857   2.004   3.752
    3OL    H16R15000   3.784   2.035   3.676
    3OL    H16S15001   3.863   2.076   3.834
    3OL    C11715002   3.815   1.871   3.815
    3OL    H17R15003   3.765   1.803   3.745
    3OL    H17S15004   3.736   1.901   3.884
    3OL    C11815005   3.918   1.780   3.883
    3OL    H18R15006   3.979   1.732   3.806
    3OL    H18S15007   3.873   1.705   3.948
    3OL    H18T15008   3.988   1.846   3.936
    1PA    C11615009   2.727   2.313   3.871
    1PA    H16R15010   2.795   2.398   3.864
    1PA    H16S15011   2.730   2.267   3.970
    1PA    H16T15012   2.626   2.355   3.873
    1PA    C11515013   2.739   2.213   3.756
    1PA    H15R15014   2.654   2.145   3.752
    1PA    H15S15015   2.755   2.260   3.658
    1PA    C11415016   2.865   2.129   3.777
    1PA    H14R15017   2.950   2.197   3.777
    1PA    H14S15018   2.855   2.080   3.874
    1PA    C11315019   2.889   2.020   3.671
    1PA    H13R15020   2.993   1.987   3.682
    1PA    H13S15021   2.812   1.944   3.677
    1PA    C11215022   2.875   2.080   3.530
    1PA    H12R15023   2.769   2.098   3.514
    1PA    H12S15024   2.920   2.179   3.520
    1PA    C11115025   2.908   1.977   3.421
    1PA    H11R15026   3.012   1.945   3.436
    1PA    H11S15027   2.838   1.894   3.425
    1PA    C11015028   2.909   2.049   3.285
    1PA    H10R15029   2.811   2.091   3.263
    1PA    H10S15030   2.971   2.139   3.292
    1PA     C1915031   2.970   1.974   3.166
    1PA     H9R15032   3.067   1.930   3.189
    1PA     H9S15033   2.901   1.898   3.130
    1PA     C1815034   2.993   2.071   3.049
    1PA     H8R15035   2.908   2.137   3.031
    1PA     H8S15036   3.083   2.127   3.073
    1PA     C1715037   3.023   1.989   2.923
    1PA     H7R15038   3.109   1.923   2.933
    1PA     H7S15039   2.930   1.937   2.896
    1PA     C1615040   3.049   2.086   2.807
    1PA     H6R15041   2.966   2.156   2.807
    1PA     H6S15042   3.140   2.142   2.830
    1PA     C1515043   3.065   2.012   2.673
    1PA     H5R15044   3.171   1.993   2.658
    1PA     H5S15045   3.015   1.915   2.682
    1PA     C1415046   3.011   2.101   2.560
    1PA     H4R15047   2.903   2.118   2.561
    1PA     H4S15048   3.056   2.197   2.584
    1PA     C1315049   3.038   2.058   2.415
    1PA     H3R15050   3.017   2.145   2.352
    1PA     H3S15051   3.145   2.036   2.412
    1PA     C1215052   2.954   1.935   2.377
    1PA     H2R15053   2.972   1.848   2.440
    1PA     H2S15054   2.849   1.961   2.395
    2PC     C1115055   2.979   1.900   2.233
    2PC     O1215056   2.887   1.901   2.153
    2PC     O1115057   3.110   1.887   2.207
    2PC      C115058   3.153   1.849   2.075
    2PC      HR15059   3.119   1.751   2.043
    2PC      HS15060   3.108   1.921   2.007
    2PC      C215061   3.307   1.847   2.073
    2PC      HX15062   3.340   1.914   2.153
    2PC      C315063   3.349   1.904   1.937
    2PC      HA15064   3.306   2.002   1.913
    2PC      HB15065   3.458   1.910   1.936
    2PC     O3115066   3.298   1.813   1.838
    2PC     P3115067   3.363   1.831   1.693
    2PC     O3215068   3.384   1.685   1.629
    2PC     C3115069   3.287   1.630   1.539
    2PC     H1A15070   3.194   1.618   1.594
    2PC     H1B15071   3.272   1.692   1.450
    2PC     C3215072   3.325   1.486   1.501
    2PC     H2A15073   3.375   1.443   1.588
    2PC     H2B15074   3.231   1.440   1.471
    2PC     N3115075   3.419   1.479   1.384
    2PC     C3315076   3.451   1.334   1.370
    2PC     H3A15077   3.470   1.326   1.263
    2PC     H3B15078   3.538   1.301   1.427
    2PC     H3C15079   3.371   1.263   1.391
    2PC     C3415080   3.354   1.528   1.258
    2PC     H4A15081   3.409   1.502   1.167
    2PC     H4B15082   3.256   1.482   1.267
    2PC     H4C15083   3.342   1.636   1.262
    2PC     C3515084   3.549   1.548   1.415
    2PC     H5A15085   3.527   1.649   1.451
    2PC     H5B15086   3.600   1.550   1.318
    2PC     H5C15087   3.595   1.489   1.493
    2PC     O3315088   3.271   1.910   1.608
    2PC     O3415089   3.488   1.911   1.693
    2PC     O2115090   3.350   1.711   2.094
    2PC     C2115091   3.478   1.689   2.130
    2PC     O2215092   3.564   1.774   2.131
    3OL     C1215093   3.501   1.544   2.166
    3OL     H2R15094   3.449   1.484   2.092
    3OL     H2S15095   3.452   1.533   2.263
    3OL     C1315096   3.648   1.503   2.180
    3OL     H3R15097   3.711   1.547   2.102
    3OL     H3S15098   3.671   1.398   2.160
    3OL     C1415099   3.701   1.540   2.319
    3OL     H4R15100   3.643   1.626   2.355
    3OL     H4S15101   3.806   1.566   2.307
    3OL     C1515102   3.688   1.420   2.414
    3OL     H5R15103   3.730   1.328   2.373
    3OL     H5S15104   3.582   1.403   2.437
    3OL     C1615105   3.765   1.447   2.544
    3OL     H6R15106   3.744   1.545   2.588
    3OL     H6S15107   3.870   1.450   2.514
    3OL     C1715108   3.751   1.331   2.643
    3OL     H7R15109   3.832   1.329   2.716
    3OL     H7S15110   3.754   1.239   2.585
    3OL     C1815111   3.615   1.341   2.713
    3OL     H8R15112   3.538   1.385   2.649
    3OL     H8S15113   3.639   1.415   2.789
    3OL     C1915114   3.573   1.222   2.797
    3OL     H9R15115   3.517   1.146   2.743
    3OL    C11015116   3.583   1.217   2.929
    3OL    H10R15117   3.532   1.139   2.983
    3OL    C11115118   3.654   1.317   3.017
    3OL    H11R15119   3.699   1.404   2.970
    3OL    H11S15120   3.736   1.268   3.070
    3OL    C11215121   3.553   1.348   3.129
    3OL    H12R15122   3.521   1.267   3.194
    3OL    H12S15123   3.463   1.384   3.078
    3OL    C11315124   3.597   1.463   3.220
    3OL    H13R15125   3.619   1.555   3.166
    3OL    H13S15126   3.688   1.439   3.275
    3OL    C11415127   3.491   1.509   3.321
    3OL    H14R15128   3.394   1.519   3.270
    3OL    H14S15129   3.512   1.612   3.350
    3OL    C11515130   3.483   1.412   3.440
    3OL    H15R15131   3.464   1.309   3.408
    3OL    H15S15132   3.389   1.440   3.487
    3OL    C11615133   3.596   1.424   3.542
    3OL    H16R15134   3.619   1.530   3.536
    3OL    H16S15135   3.689   1.376   3.510
    3OL    C11715136   3.569   1.380   3.687
    3OL    H17R15137   3.663   1.390   3.740
    3OL    H17S15138   3.525   1.280   3.682
    3OL    C11815139   3.470   1.483   3.745
    3OL    H18R15140   3.522   1.579   3.745
    3OL    H18S15141   3.451   1.471   3.852
    3OL    H18T15142   3.375   1.505   3.696
    1PA    C11615143   5.922   5.876   3.868
    1PA    H16R15144   5.939   5.967   3.927
    1PA    H16S15145   5.999   5.803   3.892
    1PA    H16T15146   5.823   5.836   3.893
    1PA    C11515147   5.919   5.907   3.718
    1PA    H15R15148   6.000   5.978   3.704
    1PA    H15S15149   5.927   5.815   3.660
    1PA    C11415150   5.783   5.973   3.686
    1PA    H14R15151   5.718   5.948   3.770
    1PA    H14S15152   5.795   6.081   3.687
    1PA    C11315153   5.725   5.941   3.548
    1PA    H13R15154   5.808   5.964   3.481
    1PA    H13S15155   5.695   5.842   3.512
    1PA    C11215156   5.608   6.037   3.522
    1PA    H12R15157   5.649   6.129   3.564
    1PA    H12S15158   5.584   6.050   3.416
    1PA    C11115159   5.491   5.982   3.605
    1PA    H11R15160   5.515   5.986   3.712
    1PA    H11S15161   5.409   6.054   3.608
    1PA    C11015162   5.431   5.843   3.580
    1PA    H10R15163   5.510   5.772   3.606
    1PA    H10S15164   5.343   5.824   3.642
    1PA     C1915165   5.409   5.828   3.429
    1PA     H9R15166   5.331   5.891   3.386
    1PA     H9S15167   5.503   5.857   3.383
    1PA     C1815168   5.389   5.682   3.386
    1PA     H8R15169   5.480   5.623   3.400
    1PA     H8S15170   5.314   5.630   3.448
    1PA     C1715171   5.348   5.658   3.240
    1PA     H7R15172   5.318   5.553   3.229
    1PA     H7S15173   5.259   5.720   3.230
    1PA     C1615174   5.445   5.702   3.130
    1PA     H6R15175   5.399   5.733   3.036
    1PA     H6S15176   5.492   5.792   3.169
    1PA     C1515177   5.529   5.583   3.081
    1PA     H5R15178   5.624   5.625   3.046
    1PA     H5S15179   5.569   5.532   3.170
    1PA     C1415180   5.467   5.498   2.970
    1PA     H4R15181   5.366   5.465   2.996
    1PA     H4S15182   5.466   5.572   2.889
    1PA     C1315183   5.554   5.373   2.955
    1PA     H3R15184   5.574   5.328   3.053
    1PA     H3S15185   5.498   5.306   2.890
    1PA     C1215186   5.682   5.410   2.879
    1PA     H2R15187   5.649   5.481   2.803
    1PA     H2S15188   5.751   5.462   2.946
    2PC     C1115189   5.757   5.297   2.814
    2PC     O1215190   5.728   5.183   2.845
    2PC     O1115191   5.849   5.342   2.727
    2PC      C115192   5.943   5.240   2.687
    2PC      HR15193   5.985   5.179   2.767
    2PC      HS15194   5.893   5.175   2.614
    2PC      C215195   6.056   5.306   2.607
    2PC      HX15196   6.019   5.402   2.570
    2PC      C315197   6.103   5.212   2.495
    2PC      HA15198   6.193   5.244   2.441
    2PC      HB15199   6.129   5.120   2.547
    2PC     O3115200   6.001   5.189   2.397
    2PC     P3115201   6.023   5.074   2.288
    2PC     O3215202   5.879   5.004   2.278
    2PC     C3115203   5.835   4.919   2.386
    2PC     H1A15204   5.881   4.821   2.371
    2PC     H1B15205   5.864   4.965   2.481
    2PC     C3215206   5.685   4.888   2.378
    2PC     H2A15207   5.674   4.875   2.270
    2PC     H2B15208   5.683   4.799   2.442
    2PC     N3115209   5.581   4.981   2.432
    2PC     C3315210   5.452   4.908   2.414
    2PC     H3A15211   5.443   4.872   2.311
    2PC     H3B15212   5.434   4.831   2.489
    2PC     H3C15213   5.380   4.988   2.432
    2PC     C3415214   5.592   5.018   2.577
    2PC     H4A15215   5.574   4.924   2.631
    2PC     H4B15216   5.693   5.052   2.599
    2PC     H4C15217   5.513   5.092   2.594
    2PC     C3515218   5.596   5.096   2.337
    2PC     H5A15219   5.699   5.131   2.335
    2PC     H5B15220   5.538   5.180   2.377
    2PC     H5C15221   5.566   5.074   2.234
    2PC     O3315222   6.046   5.141   2.158
    2PC     O3415223   6.127   4.973   2.316
    2PC     O2115224   6.171   5.326   2.691
    2PC     C2115225   6.262   5.414   2.646
    2PC     O2215226   6.252   5.481   2.545
    3OL     C1215227   6.389   5.422   2.728
    3OL     H2R15228   6.460   5.472   2.662
    3OL     H2S15229   6.412   5.315   2.738
    3OL     C1315230   6.366   5.481   2.867
    3OL     H3R15231   6.452   5.454   2.929
    3OL     H3S15232   6.282   5.440   2.923
    3OL     C1415233   6.356   5.635   2.865
    3OL     H4R15234   6.266   5.658   2.808
    3OL     H4S15235   6.433   5.678   2.801
    3OL     C1515236   6.351   5.684   3.010
    3OL     H5R15237   6.444   5.661   3.063
    3OL     H5S15238   6.268   5.637   3.063
    3OL     C1615239   6.346   5.837   2.998
    3OL     H6R15240   6.255   5.869   2.946
    3OL     H6S15241   6.436   5.876   2.950
    3OL     C1715242   6.327   5.909   3.132
    3OL     H7R15243   6.418   5.908   3.192
    3OL     H7S15244   6.253   5.857   3.195
    3OL     C1815245   6.286   6.056   3.114
    3OL     H8R15246   6.348   6.106   3.039
    3OL     H8S15247   6.305   6.102   3.211
    3OL     C1915248   6.138   6.068   3.090
    3OL     H9R15249   6.108   5.998   3.012
    3OL    C11015250   6.049   6.131   3.166
    3OL    H10R15251   5.948   6.127   3.127
    3OL    C11115252   6.070   6.241   3.267
    3OL    H11R15253   6.041   6.339   3.230
    3OL    H11S15254   6.177   6.241   3.290
    3OL    C11215255   5.983   6.223   3.391
    3OL    H12R15256   5.995   6.118   3.420
    3OL    H12S15257   5.880   6.246   3.362
    3OL    C11315258   6.038   6.308   3.507
    3OL    H13R15259   6.146   6.315   3.491
    3OL    H13S15260   6.029   6.257   3.603
    3OL    C11415261   5.966   6.443   3.503
    3OL    H14R15262   5.865   6.432   3.544
    3OL    H14S15263   5.964   6.479   3.400
    3OL    C11515264   6.040   6.542   3.594
    3OL    H15R15265   6.067   6.495   3.689
    3OL    H15S15266   5.969   6.620   3.623
    3OL    C11615267   6.163   6.590   3.516
    3OL    H16R15268   6.144   6.635   3.418
    3OL    H16S15269   6.230   6.505   3.505
    3OL    C11715270   6.226   6.700   3.603
    3OL    H17R15271   6.241   6.668   3.706
    3OL    H17S15272   6.150   6.779   3.606
    3OL    C11815273   6.355   6.766   3.554
    3OL    H18R15274   6.337   6.805   3.453
    3OL    H18S15275   6.446   6.706   3.552
    3OL    H18T15276   6.367   6.855   3.616
    1PA    C11615277   0.709   2.062   3.592
    1PA    H16R15278   0.669   1.969   3.631
    1PA    H16S15279   0.793   2.097   3.653
    1PA    H16T15280   0.743   2.044   3.490
    1PA    C11515281   0.599   2.168   3.607
    1PA    H15R15282   0.585   2.176   3.715
    1PA    H15S15283   0.633   2.265   3.568
    1PA    C11415284   0.465   2.130   3.542
    1PA    H14R15285   0.420   2.222   3.504
    1PA    H14S15286   0.493   2.079   3.450
    1PA    C11315287   0.366   2.043   3.620
    1PA    H13R15288   0.390   1.937   3.626
    1PA    H13S15289   0.333   2.079   3.718
    1PA    C11215290   0.231   2.039   3.547
    1PA    H12R15291   0.171   1.965   3.600
    1PA    H12S15292   0.181   2.136   3.553
    1PA    C11115293   0.238   2.005   3.397
    1PA    H11R15294   0.285   2.088   3.345
    1PA    H11S15295   0.286   1.908   3.385
    1PA    C11015296   0.095   1.995   3.341
    1PA    H10R15297   0.030   1.923   3.390
    1PA    H10S15298   0.038   2.084   3.368
    1PA     C1915299   0.099   1.992   3.188
    1PA     H9R15300   0.156   2.080   3.159
    1PA     H9S15301   0.165   1.909   3.162
    1PA     C1815302  -0.040   1.978   3.122
    1PA     H8R15303  -0.098   1.892   3.155
    1PA     H8S15304  -0.098   2.070   3.136
    1PA     C1715305  -0.019   1.982   2.970
    1PA     H7R15306   0.019   2.081   2.945
    1PA     H7S15307   0.064   1.911   2.959
    1PA     C1615308  -0.141   1.941   2.887
    1PA     H6R15309  -0.178   1.839   2.905
    1PA     H6S15310  -0.229   1.999   2.915
    1PA     C1515311  -0.099   1.962   2.741
    1PA     H5R15312  -0.041   2.054   2.731
    1PA     H5S15313  -0.045   1.871   2.711
    1PA     C1415314  -0.212   1.973   2.638
    1PA     H4R15315  -0.291   1.905   2.671
    1PA     H4S15316  -0.263   2.070   2.639
    1PA     C1315317  -0.163   1.930   2.499
    1PA     H3R15318  -0.100   2.010   2.460
    1PA     H3S15319  -0.100   1.843   2.516
    1PA     C1215320  -0.289   1.902   2.416
    1PA     H2R15321  -0.359   1.841   2.474
    1PA     H2S15322  -0.342   1.993   2.385
    2PC     C1115323  -0.271   1.834   2.283
    2PC     O1215324  -0.374   1.806   2.225
    2PC     O1115325  -0.146   1.806   2.242
    2PC      C115326  -0.138   1.770   2.103
    2PC      HR15327  -0.198   1.679   2.091
    2PC      HS15328  -0.172   1.845   2.030
    2PC      C215329   0.011   1.753   2.069
    2PC      HX15330   0.054   1.850   2.096
    2PC      C315331   0.045   1.724   1.922
    2PC      HA15332  -0.012   1.793   1.858
    2PC      HB15333   0.153   1.731   1.907
    2PC     O3115334   0.007   1.590   1.889
    2PC     P3115335   0.079   1.531   1.759
    2PC     O3215336   0.217   1.492   1.831
    2PC     C3115337   0.224   1.370   1.907
    2PC     H1A15338   0.313   1.368   1.970
    2PC     H1B15339   0.140   1.359   1.977
    2PC     C3215340   0.229   1.247   1.816
    2PC     H2A15341   0.218   1.154   1.873
    2PC     H2B15342   0.147   1.250   1.745
    2PC     N3115343   0.343   1.224   1.722
    2PC     C3315344   0.340   1.323   1.609
    2PC     H3A15345   0.366   1.419   1.654
    2PC     H3B15346   0.410   1.291   1.532
    2PC     H3C15347   0.237   1.317   1.575
    2PC     C3415348   0.477   1.220   1.788
    2PC     H4A15349   0.492   1.119   1.826
    2PC     H4B15350   0.553   1.245   1.714
    2PC     H4C15351   0.471   1.295   1.866
    2PC     C3515352   0.333   1.086   1.663
    2PC     H5A15353   0.241   1.068   1.607
    2PC     H5B15354   0.323   1.022   1.751
    2PC     H5C15355   0.420   1.054   1.605
    2PC     O3315356   0.000   1.418   1.705
    2PC     O3415357   0.089   1.629   1.649
    2PC     O2115358   0.073   1.655   2.153
    2PC     C2115359   0.204   1.650   2.181
    2PC     O2215360   0.285   1.724   2.131
    3OL     C1215361   0.231   1.549   2.290
    3OL     H2R15362   0.303   1.471   2.265
    3OL     H2S15363   0.145   1.487   2.313
    3OL     C1315364   0.270   1.620   2.421
    3OL     H3R15365   0.197   1.699   2.442
    3OL     H3S15366   0.372   1.659   2.410
    3OL     C1415367   0.275   1.522   2.539
    3OL     H4R15368   0.353   1.452   2.509
    3OL     H4S15369   0.186   1.461   2.556
    3OL     C1515370   0.326   1.596   2.663
    3OL     H5R15371   0.262   1.683   2.682
    3OL     H5S15372   0.423   1.644   2.642
    3OL     C1615373   0.332   1.511   2.790
    3OL     H6R15374   0.233   1.468   2.809
    3OL     H6S15375   0.364   1.570   2.876
    3OL     C1715376   0.431   1.394   2.773
    3OL     H7R15377   0.515   1.431   2.714
    3OL     H7S15378   0.385   1.315   2.713
    3OL     C1815379   0.476   1.340   2.909
    3OL     H8R15380   0.388   1.296   2.956
    3OL     H8S15381   0.509   1.427   2.967
    3OL     C1915382   0.575   1.228   2.893
    3OL     H9R15383   0.597   1.210   2.788
    3OL    C11015384   0.626   1.154   2.991
    3OL    H10R15385   0.679   1.063   2.965
    3OL    C11115386   0.598   1.166   3.139
    3OL    H11R15387   0.546   1.079   3.180
    3OL    H11S15388   0.522   1.244   3.149
    3OL    C11215389   0.729   1.192   3.214
    3OL    H12R15390   0.795   1.267   3.170
    3OL    H12S15391   0.796   1.107   3.224
    3OL    C11315392   0.686   1.254   3.348
    3OL    H13R15393   0.614   1.191   3.401
    3OL    H13S15394   0.637   1.348   3.324
    3OL    C11415395   0.808   1.284   3.436
    3OL    H14R15396   0.773   1.353   3.514
    3OL    H14S15397   0.886   1.336   3.379
    3OL    C11515398   0.871   1.164   3.508
    3OL    H15R15399   0.899   1.078   3.447
    3OL    H15S15400   0.795   1.122   3.574
    3OL    C11615401   0.998   1.205   3.585
    3OL    H16R15402   0.977   1.299   3.637
    3OL    H16S15403   1.077   1.222   3.511
    3OL    C11715404   1.054   1.097   3.678
    3OL    H17R15405   0.977   1.052   3.742
    3OL    H17S15406   1.135   1.140   3.735
    3OL    C11815407   1.130   0.990   3.597
    3OL    H18R15408   1.139   0.893   3.647
    3OL    H18S15409   1.232   1.017   3.570
    3OL    H18T15410   1.069   0.971   3.509
    1PA    C11615411   0.130   2.924   3.512
    1PA    H16R15412   0.109   2.820   3.487
    1PA    H16S15413   0.032   2.972   3.516
    1PA    H16T15414   0.171   2.926   3.613
    1PA    C11515415   0.219   2.996   3.410
    1PA    H15R15416   0.158   3.005   3.319
    1PA    H15S15417   0.241   3.095   3.452
    1PA    C11415418   0.348   2.917   3.384
    1PA    H14R15419   0.323   2.818   3.345
    1PA    H14S15420   0.391   2.970   3.299
    1PA    C11315421   0.454   2.915   3.495
    1PA    H13R15422   0.486   3.015   3.524
    1PA    H13S15423   0.411   2.868   3.583
    1PA    C11215424   0.574   2.833   3.448
    1PA    H12R15425   0.614   2.866   3.352
    1PA    H12S15426   0.647   2.864   3.523
    1PA    C11115427   0.543   2.683   3.460
    1PA    H11R15428   0.495   2.657   3.554
    1PA    H11S15429   0.479   2.644   3.380
    1PA    C11015430   0.662   2.590   3.434
    1PA    H10R15431   0.737   2.618   3.508
    1PA    H10S15432   0.639   2.484   3.450
    1PA     C1915433   0.738   2.592   3.301
    1PA     H9R15434   0.791   2.686   3.286
    1PA     H9S15435   0.817   2.516   3.303
    1PA     C1815436   0.638   2.575   3.186
    1PA     H8R15437   0.567   2.495   3.206
    1PA     H8S15438   0.571   2.660   3.171
    1PA     C1715439   0.712   2.558   3.052
    1PA     H7R15440   0.757   2.646   3.008
    1PA     H7S15441   0.785   2.478   3.062
    1PA     C1615442   0.610   2.504   2.950
    1PA     H6R15443   0.565   2.414   2.993
    1PA     H6S15444   0.532   2.576   2.927
    1PA     C1515445   0.675   2.454   2.820
    1PA     H5R15446   0.752   2.522   2.784
    1PA     H5S15447   0.717   2.354   2.828
    1PA     C1415448   0.563   2.465   2.716
    1PA     H4R15449   0.466   2.431   2.753
    1PA     H4S15450   0.553   2.573   2.699
    1PA     C1315451   0.603   2.385   2.591
    1PA     H3R15452   0.694   2.428   2.549
    1PA     H3S15453   0.629   2.285   2.626
    1PA     C1215454   0.488   2.379   2.489
    1PA     H2R15455   0.409   2.312   2.525
    1PA     H2S15456   0.435   2.473   2.478
    2PC     C1115457   0.536   2.328   2.355
    2PC     O1215458   0.507   2.381   2.249
    2PC     O1115459   0.617   2.222   2.366
    2PC      C115460   0.673   2.164   2.246
    2PC      HR15461   0.594   2.118   2.187
    2PC      HS15462   0.721   2.241   2.185
    2PC      C215463   0.779   2.065   2.293
    2PC      HX15464   0.851   2.107   2.364
    2PC      C315465   0.854   2.021   2.167
    2PC      HA15466   0.928   2.095   2.135
    2PC      HB15467   0.924   1.943   2.198
    2PC     O3115468   0.769   1.973   2.061
    2PC     P3115469   0.828   1.907   1.928
    2PC     O3215470   0.743   1.967   1.806
    2PC     C3115471   0.613   1.916   1.770
    2PC     H1A15472   0.619   1.809   1.749
    2PC     H1B15473   0.541   1.927   1.852
    2PC     C3215474   0.565   1.988   1.643
    2PC     H2A15475   0.624   1.950   1.560
    2PC     H2B15476   0.463   1.953   1.625
    2PC     N3115477   0.542   2.136   1.645
    2PC     C3315478   0.508   2.191   1.780
    2PC     H3A15479   0.594   2.171   1.843
    2PC     H3B15480   0.483   2.297   1.765
    2PC     H3C15481   0.416   2.140   1.809
    2PC     C3415482   0.678   2.186   1.606
    2PC     H4A15483   0.688   2.292   1.629
    2PC     H4B15484   0.761   2.130   1.648
    2PC     H4C15485   0.686   2.170   1.498
    2PC     C3515486   0.431   2.166   1.549
    2PC     H5A15487   0.423   2.274   1.532
    2PC     H5B15488   0.341   2.128   1.596
    2PC     H5C15489   0.457   2.120   1.453
    2PC     O3315490   0.972   1.940   1.916
    2PC     O3415491   0.818   1.759   1.935
    2PC     O2115492   0.722   1.952   2.363
    2PC     C2115493   0.807   1.883   2.441
    2PC     O2215494   0.927   1.896   2.453
    3OL     C1215495   0.740   1.790   2.538
    3OL     H2R15496   0.641   1.768   2.497
    3OL     H2S15497   0.723   1.821   2.641
    3OL     C1315498   0.814   1.655   2.532
    3OL     H3R15499   0.895   1.651   2.605
    3OL     H3S15500   0.857   1.624   2.437
    3OL     C1415501   0.719   1.541   2.572
    3OL     H4R15502   0.642   1.536   2.495
    3OL     H4S15503   0.678   1.570   2.669
    3OL     C1515504   0.797   1.409   2.578
    3OL     H5R15505   0.870   1.403   2.497
    3OL     H5S15506   0.736   1.320   2.566
    3OL     C1615507   0.862   1.401   2.718
    3OL     H6R15508   0.783   1.384   2.791
    3OL     H6S15509   0.920   1.487   2.750
    3OL     C1715510   0.959   1.283   2.733
    3OL     H7R15511   1.048   1.295   2.671
    3OL     H7S15512   0.911   1.196   2.688
    3OL     C1815513   0.993   1.261   2.881
    3OL     H8R15514   0.912   1.209   2.934
    3OL     H8S15515   0.999   1.356   2.935
    3OL     C1915516   1.110   1.168   2.899
    3OL     H9R15517   1.150   1.112   2.815
    3OL    C11015518   1.183   1.163   3.010
    3OL    H10R15519   1.270   1.098   3.015
    3OL    C11115520   1.144   1.231   3.139
    3OL    H11R15521   1.161   1.160   3.220
    3OL    H11S15522   1.037   1.252   3.150
    3OL    C11215523   1.232   1.353   3.169
    3OL    H12R15524   1.204   1.394   3.267
    3OL    H12S15525   1.213   1.432   3.096
    3OL    C11315526   1.374   1.299   3.188
    3OL    H13R15527   1.425   1.291   3.092
    3OL    H13S15528   1.368   1.196   3.224
    3OL    C11415529   1.445   1.377   3.300
    3OL    H14R15530   1.375   1.360   3.382
    3OL    H14S15531   1.459   1.479   3.262
    3OL    C11515532   1.579   1.312   3.338
    3OL    H15R15533   1.656   1.318   3.261
    3OL    H15S15534   1.565   1.209   3.372
    3OL    C11615535   1.645   1.396   3.448
    3OL    H16R15536   1.642   1.503   3.426
    3OL    H16S15537   1.750   1.367   3.457
    3OL    C11715538   1.575   1.356   3.579
    3OL    H17R15539   1.555   1.249   3.582
    3OL    H17S15540   1.479   1.408   3.576
    3OL    C11815541   1.654   1.406   3.702
    3OL    H18R15542   1.667   1.513   3.687
    3OL    H18S15543   1.748   1.351   3.695
    3OL    H18T15544   1.604   1.373   3.793
    1PA    C11615545  -0.399   5.185   3.835
    1PA    H16R15546  -0.413   5.223   3.936
    1PA    H16S15547  -0.400   5.076   3.840
    1PA    H16T15548  -0.485   5.217   3.777
    1PA    C11515549  -0.267   5.218   3.764
    1PA    H15R15550  -0.263   5.166   3.668
    1PA    H15S15551  -0.268   5.324   3.734
    1PA    C11415552  -0.141   5.194   3.848
    1PA    H14R15553  -0.158   5.242   3.945
    1PA    H14S15554  -0.132   5.086   3.861
    1PA    C11315555  -0.015   5.253   3.784
    1PA    H13R15556  -0.008   5.213   3.683
    1PA    H13S15557  -0.030   5.361   3.782
    1PA    C11215558   0.108   5.205   3.863
    1PA    H12R15559   0.085   5.226   3.967
    1PA    H12S15560   0.122   5.097   3.857
    1PA    C11115561   0.238   5.269   3.811
    1PA    H11R15562   0.252   5.374   3.838
    1PA    H11S15563   0.324   5.215   3.850
    1PA    C11015564   0.251   5.253   3.659
    1PA    H10R15565   0.206   5.157   3.632
    1PA    H10S15566   0.200   5.339   3.614
    1PA     C1915567   0.399   5.251   3.617
    1PA     H9R15568   0.446   5.338   3.664
    1PA     H9S15569   0.447   5.169   3.670
    1PA     C1815570   0.416   5.247   3.465
    1PA     H8R15571   0.338   5.309   3.419
    1PA     H8S15572   0.511   5.292   3.435
    1PA     C1715573   0.420   5.107   3.402
    1PA     H7R15574   0.499   5.049   3.450
    1PA     H7S15575   0.327   5.050   3.415
    1PA     C1615576   0.437   5.131   3.251
    1PA     H6R15577   0.364   5.203   3.214
    1PA     H6S15578   0.537   5.168   3.229
    1PA     C1515579   0.431   5.004   3.165
    1PA     H5R15580   0.503   4.936   3.211
    1PA     H5S15581   0.331   4.961   3.159
    1PA     C1415582   0.482   5.029   3.022
    1PA     H4R15583   0.565   5.099   3.029
    1PA     H4S15584   0.512   4.937   2.971
    1PA     C1315585   0.378   5.085   2.924
    1PA     H3R15586   0.300   5.011   2.905
    1PA     H3S15587   0.325   5.171   2.966
    1PA     C1215588   0.439   5.128   2.790
    1PA     H2R15589   0.526   5.192   2.810
    1PA     H2S15590   0.475   5.034   2.749
    2PC     C1115591   0.338   5.182   2.693
    2PC     O1215592   0.218   5.192   2.710
    2PC     O1115593   0.411   5.211   2.584
    2PC      C115594   0.345   5.201   2.456
    2PC      HR15595   0.237   5.215   2.458
    2PC      HS15596   0.383   5.279   2.389
    2PC      C215597   0.372   5.059   2.406
    2PC      HX15598   0.474   5.035   2.438
    2PC      C315599   0.356   5.032   2.255
    2PC      HA15600   0.432   5.094   2.207
    2PC      HB15601   0.374   4.931   2.217
    2PC     O3115602   0.223   5.081   2.230
    2PC     P3115603   0.190   5.122   2.079
    2PC     O3215604   0.069   5.025   2.038
    2PC     C3115605  -0.058   5.054   2.101
    2PC     H1A15606  -0.045   5.033   2.207
    2PC     H1B15607  -0.080   5.158   2.077
    2PC     C3215608  -0.167   4.960   2.048
    2PC     H2A15609  -0.132   4.857   2.063
    2PC     H2B15610  -0.257   4.972   2.108
    2PC     N3115611  -0.222   4.979   1.911
    2PC     C3315612  -0.337   4.884   1.895
    2PC     H3A15613  -0.398   4.913   1.980
    2PC     H3B15614  -0.395   4.901   1.804
    2PC     H3C15615  -0.298   4.782   1.895
    2PC     C3415616  -0.268   5.118   1.880
    2PC     H4A15617  -0.188   5.187   1.905
    2PC     H4B15618  -0.287   5.115   1.772
    2PC     H4C15619  -0.364   5.149   1.923
    2PC     C3515620  -0.111   4.943   1.817
    2PC     H5A15621  -0.083   4.839   1.834
    2PC     H5B15622  -0.024   5.009   1.830
    2PC     H5C15623  -0.157   4.944   1.718
    2PC     O3315624   0.157   5.266   2.072
    2PC     O3415625   0.303   5.124   1.983
    2PC     O2115626   0.277   4.978   2.476
    2PC     C2115627   0.298   4.845   2.480
    2PC     O2215628   0.389   4.790   2.422
    3OL     C1215629   0.199   4.776   2.570
    3OL     H2R15630   0.190   4.677   2.524
    3OL     H2S15631   0.103   4.828   2.563
    3OL     C1315632   0.258   4.767   2.711
    3OL     H3R15633   0.268   4.868   2.751
    3OL     H3S15634   0.362   4.732   2.704
    3OL     C1415635   0.168   4.684   2.804
    3OL     H4R15636   0.153   4.584   2.763
    3OL     H4S15637   0.069   4.729   2.806
    3OL     C1515638   0.220   4.674   2.948
    3OL     H5R15639   0.228   4.780   2.973
    3OL     H5S15640   0.320   4.635   2.966
    3OL     C1615641   0.119   4.615   3.047
    3OL     H6R15642   0.069   4.531   2.998
    3OL     H6S15643   0.038   4.689   3.048
    3OL     C1715644   0.166   4.590   3.191
    3OL     H7R15645   0.251   4.523   3.202
    3OL     H7S15646   0.079   4.551   3.244
    3OL     C1815647   0.217   4.718   3.258
    3OL     H8R15648   0.154   4.805   3.241
    3OL     H8S15649   0.319   4.741   3.226
    3OL     C1915650   0.231   4.700   3.407
    3OL     H9R15651   0.136   4.705   3.460
    3OL    C11015652   0.346   4.690   3.472
    3OL    H10R15653   0.342   4.693   3.581
    3OL    C11115654   0.486   4.688   3.416
    3OL    H11R15655   0.547   4.698   3.506
    3OL    H11S15656   0.500   4.773   3.350
    3OL    C11215657   0.523   4.555   3.349
    3OL    H12R15658   0.491   4.548   3.245
    3OL    H12S15659   0.475   4.475   3.407
    3OL    C11315660   0.676   4.543   3.356
    3OL    H13R15661   0.698   4.439   3.333
    3OL    H13S15662   0.716   4.563   3.455
    3OL    C11415663   0.743   4.623   3.244
    3OL    H14R15664   0.680   4.622   3.154
    3OL    H14S15665   0.835   4.568   3.220
    3OL    C11515666   0.773   4.767   3.289
    3OL    H15R15667   0.853   4.783   3.361
    3OL    H15S15668   0.688   4.826   3.324
    3OL    C11615669   0.819   4.844   3.165
    3OL    H16R15670   0.751   4.841   3.080
    3OL    H16S15671   0.905   4.796   3.119
    3OL    C11715672   0.852   4.990   3.201
    3OL    H17R15673   0.944   4.978   3.259
    3OL    H17S15674   0.774   5.033   3.264
    3OL    C11815675   0.874   5.069   3.071
    3OL    H18R15676   0.949   5.022   3.009
    3OL    H18S15677   0.912   5.170   3.093
    3OL    H18T15678   0.784   5.081   3.011
    1PA    C11615679   2.681   2.654   3.897
    1PA    H16R15680   2.777   2.612   3.927
    1PA    H16S15681   2.602   2.635   3.969
    1PA    H16T15682   2.698   2.762   3.894
    1PA    C11515683   2.625   2.622   3.758
    1PA    H15R15684   2.589   2.519   3.764
    1PA    H15S15685   2.534   2.681   3.747
    1PA    C11415686   2.724   2.644   3.643
    1PA    H14R15687   2.770   2.743   3.633
    1PA    H14S15688   2.815   2.584   3.652
    1PA    C11315689   2.651   2.587   3.520
    1PA    H13R15690   2.644   2.482   3.550
    1PA    H13S15691   2.550   2.630   3.514
    1PA    C11215692   2.725   2.611   3.388
    1PA    H12R15693   2.653   2.638   3.310
    1PA    H12S15694   2.789   2.699   3.397
    1PA    C11115695   2.803   2.486   3.345
    1PA    H11R15696   2.877   2.458   3.420
    1PA    H11S15697   2.738   2.399   3.336
    1PA    C11015698   2.869   2.523   3.212
    1PA    H10R15699   2.789   2.549   3.142
    1PA    H10S15700   2.939   2.607   3.220
    1PA     C1915701   2.948   2.406   3.151
    1PA     H9R15702   3.018   2.382   3.231
    1PA     H9S15703   2.881   2.321   3.140
    1PA     C1815704   3.022   2.446   3.022
    1PA     H8R15705   3.110   2.509   3.037
    1PA     H8S15706   3.059   2.354   2.976
    1PA     C1715707   2.930   2.516   2.920
    1PA     H7R15708   2.852   2.446   2.890
    1PA     H7S15709   2.871   2.595   2.965
    1PA     C1615710   3.012   2.562   2.799
    1PA     H6R15711   2.952   2.622   2.729
    1PA     H6S15712   3.098   2.621   2.830
    1PA     C1515713   3.090   2.454   2.722
    1PA     H5R15714   3.145   2.391   2.793
    1PA     H5S15715   3.009   2.398   2.675
    1PA     C1415716   3.175   2.505   2.605
    1PA     H4R15717   3.245   2.583   2.633
    1PA     H4S15718   3.239   2.419   2.583
    1PA     C1315719   3.087   2.534   2.483
    1PA     H3R15720   3.024   2.448   2.461
    1PA     H3S15721   3.020   2.618   2.504
    1PA     C1215722   3.173   2.576   2.363
    1PA     H2R15723   3.225   2.666   2.397
    1PA     H2S15724   3.248   2.502   2.335
    2PC     C1115725   3.100   2.620   2.239
    2PC     O1215726   3.093   2.549   2.141
    2PC     O1115727   3.041   2.739   2.257
    2PC      C115728   2.945   2.789   2.162
    2PC      HR15729   2.922   2.896   2.165
    2PC      HS15730   2.985   2.761   2.064
    2PC      C215731   2.813   2.713   2.175
    2PC      HX15732   2.825   2.607   2.154
    2PC      C315733   2.706   2.780   2.088
    2PC      HA15734   2.655   2.859   2.144
    2PC      HB15735   2.747   2.816   1.994
    2PC     O3115736   2.609   2.681   2.048
    2PC     P3115737   2.629   2.598   1.913
    2PC     O3215738   2.556   2.466   1.966
    2PC     C3115739   2.601   2.402   2.087
    2PC     H1A15740   2.710   2.402   2.083
    2PC     H1B15741   2.558   2.468   2.162
    2PC     C3215742   2.554   2.256   2.090
    2PC     H2A15743   2.569   2.213   2.189
    2PC     H2B15744   2.447   2.263   2.069
    2PC     N3115745   2.612   2.162   1.989
    2PC     C3315746   2.756   2.141   2.026
    2PC     H3A15747   2.811   2.234   2.017
    2PC     H3B15748   2.748   2.102   2.128
    2PC     H3C15749   2.792   2.066   1.955
    2PC     C3415750   2.540   2.031   2.004
    2PC     H4A15751   2.577   1.965   1.925
    2PC     H4B15752   2.566   1.993   2.102
    2PC     H4C15753   2.434   2.056   1.999
    2PC     C3515754   2.589   2.215   1.851
    2PC     H5A15755   2.637   2.147   1.781
    2PC     H5B15756   2.656   2.301   1.846
    2PC     H5C15757   2.483   2.238   1.833
    2PC     O3315758   2.557   2.663   1.801
    2PC     O3415759   2.769   2.584   1.868
    2PC     O2115760   2.763   2.734   2.309
    2PC     C2115761   2.772   2.636   2.399
    2PC     O2215762   2.786   2.519   2.367
    3OL     C1215763   2.728   2.680   2.536
    3OL     H2R15764   2.755   2.603   2.608
    3OL     H2S15765   2.620   2.671   2.530
    3OL     C1315766   2.774   2.818   2.587
    3OL     H3R15767   2.738   2.884   2.508
    3OL     H3S15768   2.883   2.819   2.584
    3OL     C1415769   2.718   2.841   2.728
    3OL     H4R15770   2.747   2.767   2.802
    3OL     H4S15771   2.608   2.838   2.730
    3OL     C1515772   2.751   2.987   2.762
    3OL     H5R15773   2.700   3.045   2.685
    3OL     H5S15774   2.859   3.005   2.760
    3OL     C1615775   2.702   3.019   2.904
    3OL     H6R15776   2.760   2.949   2.965
    3OL     H6S15777   2.597   2.987   2.906
    3OL     C1715778   2.709   3.169   2.937
    3OL     H7R15779   2.659   3.233   2.864
    3OL     H7S15780   2.814   3.199   2.932
    3OL     C1815781   2.642   3.194   3.073
    3OL     H8R15782   2.538   3.163   3.061
    3OL     H8S15783   2.642   3.300   3.101
    3OL     C1915784   2.705   3.122   3.189
    3OL     H9R15785   2.806   3.157   3.209
    3OL    C11015786   2.656   3.029   3.270
    3OL    H10R15787   2.717   3.002   3.356
    3OL    C11115788   2.519   2.968   3.265
    3OL    H11R15789   2.542   2.887   3.195
    3OL    H11S15790   2.446   3.032   3.215
    3OL    C11215791   2.462   2.915   3.398
    3OL    H12R15792   2.542   2.874   3.459
    3OL    H12S15793   2.393   2.832   3.380
    3OL    C11315794   2.374   3.018   3.471
    3OL    H13R15795   2.293   3.046   3.405
    3OL    H13S15796   2.435   3.100   3.510
    3OL    C11415797   2.307   2.961   3.597
    3OL    H14R15798   2.384   2.950   3.673
    3OL    H14S15799   2.271   2.858   3.593
    3OL    C11515800   2.200   3.062   3.641
    3OL    H15R15801   2.147   3.109   3.559
    3OL    H15S15802   2.256   3.130   3.705
    3OL    C11615803   2.092   2.990   3.722
    3OL    H16R15804   2.051   2.913   3.656
    3OL    H16S15805   2.016   3.065   3.743
    3OL    C11715806   2.132   2.912   3.848
    3OL    H17R15807   2.195   2.970   3.915
    3OL    H17S15808   2.197   2.829   3.823
    3OL    C11815809   2.017   2.855   3.932
    3OL    H18R15810   1.980   2.943   3.985
    3OL    H18S15811   2.076   2.790   3.997
    3OL    H18T15812   1.948   2.803   3.865
    1PA    C11615813   2.515   1.388   3.917
    1PA    H16R15814   2.564   1.454   3.988
    1PA    H16S15815   2.500   1.290   3.964
    1PA    H16T15816   2.416   1.428   3.897
    1PA    C11515817   2.579   1.371   3.779
    1PA    H15R15818   2.504   1.329   3.712
    1PA    H15S15819   2.598   1.471   3.738
    1PA    C11415820   2.703   1.281   3.774
    1PA    H14R15821   2.783   1.317   3.838
    1PA    H14S15822   2.680   1.184   3.819
    1PA    C11315823   2.756   1.277   3.630
    1PA    H13R15824   2.700   1.207   3.567
    1PA    H13S15825   2.744   1.374   3.582
    1PA    C11215826   2.899   1.221   3.631
    1PA    H12R15827   2.964   1.283   3.694
    1PA    H12S15828   2.895   1.120   3.672
    1PA    C11115829   2.965   1.212   3.493
    1PA    H11R15830   2.900   1.161   3.422
    1PA    H11S15831   2.974   1.316   3.462
    1PA    C11015832   3.108   1.155   3.493
    1PA    H10R15833   3.152   1.183   3.589
    1PA    H10S15834   3.085   1.049   3.501
    1PA     C1915835   3.186   1.193   3.366
    1PA     H9R15836   3.198   1.301   3.361
    1PA     H9S15837   3.288   1.155   3.378
    1PA     C1815838   3.130   1.123   3.241
    1PA     H8R15839   3.148   1.019   3.270
    1PA     H8S15840   3.022   1.136   3.231
    1PA     C1715841   3.201   1.160   3.110
    1PA     H7R15842   3.187   1.267   3.090
    1PA     H7S15843   3.308   1.136   3.118
    1PA     C1615844   3.133   1.093   2.991
    1PA     H6R15845   3.148   0.986   3.000
    1PA     H6S15846   3.024   1.101   2.988
    1PA     C1515847   3.180   1.133   2.850
    1PA     H5R15848   3.156   1.235   2.818
    1PA     H5S15849   3.287   1.117   2.834
    1PA     C1415850   3.106   1.041   2.752
    1PA     H4R15851   3.123   0.937   2.781
    1PA     H4S15852   2.999   1.059   2.763
    1PA     C1315853   3.160   1.054   2.609
    1PA     H3R15854   3.092   1.014   2.533
    1PA     H3S15855   3.172   1.158   2.581
    1PA     C1215856   3.290   0.973   2.592
    1PA     H2R15857   3.373   1.002   2.656
    1PA     H2S15858   3.263   0.874   2.631
    2PC     C1115859   3.336   0.954   2.450
    2PC     O1215860   3.417   1.027   2.396
    2PC     O1115861   3.264   0.859   2.389
    2PC      C115862   3.265   0.832   2.248
    2PC      HR15863   3.365   0.850   2.208
    2PC      HS15864   3.247   0.726   2.227
    2PC      C215865   3.157   0.915   2.177
    2PC      HX15866   3.062   0.892   2.225
    2PC      C315867   3.146   0.887   2.026
    2PC      HA15868   3.100   0.792   1.999
    2PC      HB15869   3.073   0.961   1.992
    2PC     O3115870   3.271   0.892   1.955
    2PC     P3115871   3.272   0.910   1.796
    2PC     O3215872   3.427   0.939   1.770
    2PC     C3115873   3.523   0.839   1.808
    2PC     H1A15874   3.521   0.821   1.916
    2PC     H1B15875   3.493   0.747   1.756
    2PC     C3215876   3.669   0.869   1.770
    2PC     H2A15877   3.735   0.785   1.791
    2PC     H2B15878   3.669   0.903   1.666
    2PC     N3115879   3.750   0.970   1.846
    2PC     C3315880   3.889   0.967   1.790
    2PC     H3A15881   3.953   1.016   1.863
    2PC     H3B15882   3.930   0.866   1.783
    2PC     H3C15883   3.890   1.029   1.700
    2PC     C3415884   3.692   1.108   1.830
    2PC     H4A15885   3.585   1.103   1.851
    2PC     H4B15886   3.740   1.167   1.907
    2PC     H4C15887   3.719   1.157   1.736
    2PC     C3515888   3.763   0.940   1.992
    2PC     H5A15889   3.659   0.932   2.024
    2PC     H5B15890   3.814   1.019   2.047
    2PC     H5C15891   3.819   0.847   2.007
    2PC     O3315892   3.229   0.806   1.700
    2PC     O3415893   3.202   1.038   1.767
    2PC     O2115894   3.190   1.054   2.191
    2PC     C2115895   3.094   1.140   2.228
    2PC     O2215896   2.977   1.106   2.227
    3OL     C1215897   3.149   1.277   2.258
    3OL     H2R15898   3.165   1.334   2.166
    3OL     H2S15899   3.246   1.268   2.307
    3OL     C1315900   3.048   1.357   2.342
    3OL     H3R15901   3.010   1.318   2.437
    3OL     H3S15902   2.962   1.362   2.275
    3OL     C1415903   3.093   1.500   2.376
    3OL     H4R15904   3.008   1.566   2.397
    3OL     H4S15905   3.145   1.529   2.285
    3OL     C1515906   3.190   1.493   2.495
    3OL     H5R15907   3.275   1.433   2.461
    3OL     H5S15908   3.137   1.444   2.577
    3OL     C1615909   3.236   1.634   2.535
    3OL     H6R15910   3.161   1.699   2.580
    3OL     H6S15911   3.272   1.689   2.448
    3OL     C1715912   3.349   1.626   2.638
    3OL     H7R15913   3.390   1.728   2.640
    3OL     H7S15914   3.429   1.557   2.610
    3OL     C1815915   3.298   1.609   2.782
    3OL     H8R15916   3.237   1.520   2.795
    3OL     H8S15917   3.231   1.695   2.791
    3OL     C1915918   3.414   1.611   2.877
    3OL     H9R15919   3.436   1.509   2.909
    3OL    C11015920   3.485   1.711   2.926
    3OL    H10R15921   3.580   1.696   2.976
    3OL    C11115922   3.453   1.856   2.897
    3OL    H11R15923   3.350   1.878   2.871
    3OL    H11S15924   3.518   1.893   2.817
    3OL    C11215925   3.490   1.947   3.015
    3OL    H12R15926   3.598   1.958   3.021
    3OL    H12S15927   3.452   1.904   3.107
    3OL    C11315928   3.419   2.083   3.014
    3OL    H13R15929   3.311   2.073   3.002
    3OL    H13S15930   3.454   2.134   2.924
    3OL    C11415931   3.453   2.175   3.132
    3OL    H14R15932   3.561   2.193   3.130
    3OL    H14S15933   3.437   2.109   3.218
    3OL    C11515934   3.374   2.307   3.140
    3OL    H15R15935   3.278   2.284   3.186
    3OL    H15S15936   3.360   2.333   3.035
    3OL    C11615937   3.442   2.420   3.218
    3OL    H16R15938   3.550   2.421   3.207
    3OL    H16S15939   3.437   2.401   3.326
    3OL    C11715940   3.382   2.558   3.187
    3OL    H17R15941   3.273   2.553   3.198
    3OL    H17S15942   3.403   2.580   3.082
    3OL    C11815943   3.452   2.668   3.268
    3OL    H18R15944   3.402   2.765   3.260
    3OL    H18S15945   3.554   2.678   3.231
    3OL    H18T15946   3.459   2.639   3.373
    1PA    C11615947   6.190   0.894   4.455
    1PA    H16R15948   6.196   0.962   4.541
    1PA    H16S15949   6.164   0.792   4.485
    1PA    H16T15950   6.106   0.926   4.393
    1PA    C11515951   6.314   0.888   4.366
    1PA    H15R15952   6.331   0.993   4.340
    1PA    H15S15953   6.407   0.861   4.416
    1PA    C11415954   6.292   0.802   4.241
    1PA    H14R15955   6.250   0.707   4.275
    1PA    H14S15956   6.218   0.846   4.175
    1PA    C11315957   6.411   0.781   4.146
    1PA    H13R15958   6.433   0.878   4.101
    1PA    H13S15959   6.496   0.751   4.207
    1PA    C11215960   6.395   0.675   4.036
    1PA    H12R15961   6.497   0.671   3.996
    1PA    H12S15962   6.380   0.573   4.072
    1PA    C11115963   6.294   0.707   3.925
    1PA    H11R15964   6.199   0.708   3.978
    1PA    H11S15965   6.320   0.801   3.876
    1PA    C11015966   6.274   0.590   3.826
    1PA    H10R15967   6.365   0.578   3.767
    1PA    H10S15968   6.252   0.498   3.880
    1PA     C1915969   6.160   0.616   3.728
    1PA     H9R15970   6.114   0.526   3.687
    1PA     H9S15971   6.079   0.658   3.788
    1PA     C1815972   6.194   0.719   3.618
    1PA     H8R15973   6.204   0.821   3.655
    1PA     H8S15974   6.285   0.683   3.569
    1PA     C1715975   6.075   0.724   3.522
    1PA     H7R15976   6.059   0.628   3.472
    1PA     H7S15977   5.991   0.736   3.591
    1PA     C1615978   6.085   0.839   3.420
    1PA     H6R15979   6.076   0.925   3.487
    1PA     H6S15980   6.188   0.841   3.384
    1PA     C1515981   5.974   0.827   3.315
    1PA     H5R15982   6.007   0.739   3.261
    1PA     H5S15983   5.874   0.806   3.353
    1PA     C1415984   5.962   0.951   3.225
    1PA     H4R15985   5.856   0.976   3.222
    1PA     H4S15986   6.013   1.039   3.263
    1PA     C1315987   6.009   0.925   3.081
    1PA     H3R15988   5.969   0.828   3.053
    1PA     H3S15989   5.955   0.993   3.014
    1PA     C1215990   6.160   0.946   3.061
    1PA     H2R15991   6.186   1.051   3.075
    1PA     H2S15992   6.220   0.888   3.131
    2PC     C1115993   6.203   0.910   2.921
    2PC     O1215994   6.173   0.968   2.818
    2PC     O1115995   6.290   0.808   2.918
    2PC      C115996   6.368   0.783   2.799
    2PC      HR15997   6.423   0.689   2.805
    2PC      HS15998   6.297   0.776   2.716
    2PC      C215999   6.457   0.904   2.767
    2PC      HX16000   6.393   0.987   2.738
    2PC      C316001   6.548   0.880   2.645
    2PC      HA16002   6.481   0.865   2.560
    2PC      HB16003   6.619   0.961   2.623
    2PC     O3116004   6.624   0.759   2.656
    2PC     P3116005   6.680   0.709   2.514
    2PC     O3216006   6.786   0.600   2.563
    2PC     C3116007   6.732   0.471   2.596
    2PC     H1A16008   6.690   0.469   2.697
    2PC     H1B16009   6.664   0.437   2.517
    2PC     C3216010   6.846   0.369   2.607
    2PC     H2A16011   6.921   0.428   2.659
    2PC     H2B16012   6.810   0.285   2.666
    2PC     N3116013   6.904   0.317   2.479
    2PC     C3316014   6.957   0.433   2.400
    2PC     H3A16015   6.874   0.484   2.353
    2PC     H3B16016   7.021   0.501   2.457
    2PC     H3C16017   7.025   0.391   2.326
    2PC     C3416018   7.023   0.232   2.513
    2PC     H4A16019   6.985   0.158   2.583
    2PC     H4B16020   7.070   0.183   2.428
    2PC     H4C16021   7.087   0.304   2.564
    2PC     C3516022   6.808   0.229   2.405
    2PC     H5A16023   6.860   0.185   2.320
    2PC     H5B16024   6.726   0.292   2.370
    2PC     H5C16025   6.777   0.156   2.480
    2PC     O3316026   6.571   0.646   2.436
    2PC     O3416027   6.741   0.822   2.439
    2PC     O2116028   6.539   0.913   2.885
    2PC     C2116029   6.617   1.021   2.897
    2PC     O2216030   6.620   1.107   2.810
    3OL     C1216031   6.715   1.007   3.010
    3OL     H2R16032   6.817   1.037   2.983
    3OL     H2S16033   6.717   0.903   3.043
    3OL     C1316034   6.662   1.097   3.123
    3OL     H3R16035   6.665   1.202   3.093
    3OL     H3S16036   6.723   1.102   3.213
    3OL     C1416037   6.526   1.057   3.182
    3OL     H4R16038   6.530   0.961   3.234
    3OL     H4S16039   6.451   1.049   3.103
    3OL     C1516040   6.485   1.164   3.284
    3OL     H5R16041   6.461   1.261   3.240
    3OL     H5S16042   6.561   1.181   3.360
    3OL     C1616043   6.359   1.116   3.356
    3OL     H6R16044   6.393   1.031   3.416
    3OL     H6S16045   6.277   1.092   3.288
    3OL     C1716046   6.313   1.222   3.457
    3OL     H7R16047   6.268   1.308   3.406
    3OL     H7S16048   6.395   1.262   3.516
    3OL     C1816049   6.205   1.161   3.548
    3OL     H8R16050   6.252   1.080   3.606
    3OL     H8S16051   6.117   1.136   3.488
    3OL     C1916052   6.175   1.276   3.641
    3OL     H9R16053   6.258   1.307   3.703
    3OL    C11016054   6.063   1.346   3.649
    3OL    H10R16055   6.070   1.428   3.719
    3OL    C11116056   5.933   1.314   3.579
    3OL    H11R16057   5.932   1.207   3.559
    3OL    H11S16058   5.928   1.369   3.485
    3OL    C11216059   5.820   1.344   3.678
    3OL    H12R16060   5.819   1.446   3.716
    3OL    H12S16061   5.845   1.287   3.767
    3OL    C11316062   5.688   1.299   3.613
    3OL    H13R16063   5.682   1.200   3.567
    3OL    H13S16064   5.684   1.362   3.525
    3OL    C11416065   5.561   1.321   3.697
    3OL    H14R16066   5.531   1.224   3.735
    3OL    H14S16067   5.472   1.346   3.638
    3OL    C11516068   5.566   1.420   3.814
    3OL    H15R16069   5.660   1.419   3.870
    3OL    H15S16070   5.492   1.398   3.891
    3OL    C11616071   5.537   1.562   3.762
    3OL    H16R16072   5.432   1.554   3.736
    3OL    H16S16073   5.605   1.584   3.679
    3OL    C11716074   5.560   1.671   3.868
    3OL    H17R16075   5.517   1.638   3.963
    3OL    H17S16076   5.508   1.763   3.839
    3OL    C11816077   5.712   1.689   3.882
    3OL    H18R16078   5.744   1.724   3.784
    3OL    H18S16079   5.762   1.597   3.913
    3OL    H18T16080   5.735   1.774   3.947
    1PA    C11616081   2.628   5.168   3.219
    1PA    H16R16082   2.638   5.223   3.125
    1PA    H16S16083   2.717   5.184   3.280
    1PA    H16T16084   2.540   5.201   3.275
    1PA    C11516085   2.613   5.017   3.194
    1PA    H15R16086   2.536   5.002   3.118
    1PA    H15S16087   2.713   4.980   3.168
    1PA    C11416088   2.559   4.957   3.324
    1PA    H14R16089   2.623   4.961   3.411
    1PA    H14S16090   2.474   5.008   3.369
    1PA    C11316091   2.518   4.811   3.297
    1PA    H13R16092   2.490   4.760   3.389
    1PA    H13S16093   2.433   4.812   3.227
    1PA    C11216094   2.620   4.715   3.235
    1PA    H12R16095   2.656   4.752   3.138
    1PA    H12S16096   2.704   4.707   3.304
    1PA    C11116097   2.565   4.575   3.205
    1PA    H11R16098   2.529   4.525   3.296
    1PA    H11S16099   2.479   4.572   3.138
    1PA    C11016100   2.684   4.491   3.155
    1PA    H10R16101   2.717   4.554   3.072
    1PA    H10S16102   2.754   4.494   3.239
    1PA     C1916103   2.638   4.351   3.112
    1PA     H9R16104   2.710   4.269   3.117
    1PA     H9S16105   2.562   4.324   3.185
    1PA     C1816106   2.570   4.357   2.975
    1PA     H8R16107   2.502   4.442   2.965
    1PA     H8S16108   2.640   4.371   2.893
    1PA     C1716109   2.496   4.226   2.944
    1PA     H7R16110   2.462   4.184   3.039
    1PA     H7S16111   2.423   4.254   2.868
    1PA     C1616112   2.577   4.112   2.879
    1PA     H6R16113   2.679   4.116   2.916
    1PA     H6S16114   2.532   4.014   2.895
    1PA     C1516115   2.583   4.126   2.726
    1PA     H5R16116   2.580   4.230   2.695
    1PA     H5S16117   2.674   4.070   2.703
    1PA     C1416118   2.481   4.044   2.646
    1PA     H4R16119   2.479   3.940   2.677
    1PA     H4S16120   2.381   4.084   2.666
    1PA     C1316121   2.492   4.051   2.493
    1PA     H3R16122   2.489   4.157   2.470
    1PA     H3S16123   2.591   4.020   2.457
    1PA     C1216124   2.385   3.966   2.422
    1PA     H2R16125   2.408   3.866   2.459
    1PA     H2S16126   2.289   3.997   2.465
    2PC     C1116127   2.370   3.993   2.275
    2PC     O1216128   2.389   3.906   2.192
    2PC     O1116129   2.336   4.120   2.252
    2PC      C116130   2.322   4.163   2.116
    2PC      HR16131   2.406   4.117   2.063
    2PC      HS16132   2.228   4.134   2.067
    2PC      C216133   2.320   4.317   2.109
    2PC      HX16134   2.239   4.359   2.168
    2PC      C316135   2.319   4.357   1.961
    2PC      HA16136   2.229   4.309   1.922
    2PC      HB16137   2.303   4.465   1.947
    2PC     O3116138   2.426   4.305   1.881
    2PC     P3116139   2.429   4.322   1.722
    2PC     O3216140   2.571   4.255   1.690
    2PC     C3116141   2.616   4.230   1.556
    2PC     H1A16142   2.584   4.129   1.528
    2PC     H1B16143   2.562   4.304   1.496
    2PC     C3216144   2.767   4.248   1.533
    2PC     H2A16145   2.802   4.336   1.587
    2PC     H2B16146   2.828   4.166   1.572
    2PC     N3116147   2.804   4.265   1.389
    2PC     C3316148   2.740   4.171   1.291
    2PC     H3A16149   2.773   4.197   1.190
    2PC     H3B16150   2.774   4.070   1.315
    2PC     H3C16151   2.631   4.172   1.297
    2PC     C3416152   2.776   4.404   1.340
    2PC     H4A16153   2.667   4.411   1.331
    2PC     H4B16154   2.821   4.481   1.404
    2PC     H4C16155   2.827   4.427   1.247
    2PC     C3516156   2.950   4.241   1.368
    2PC     H5A16157   2.974   4.270   1.266
    2PC     H5B16158   2.979   4.136   1.373
    2PC     H5C16159   3.001   4.299   1.445
    2PC     O3316160   2.320   4.240   1.666
    2PC     O3416161   2.419   4.459   1.664
    2PC     O2116162   2.441   4.363   2.173
    2PC     C2116163   2.459   4.491   2.209
    2PC     O2216164   2.375   4.576   2.191
    3OL     C1216165   2.586   4.512   2.288
    3OL     H2R16166   2.562   4.578   2.372
    3OL     H2S16167   2.668   4.555   2.232
    3OL     C1316168   2.633   4.384   2.359
    3OL     H3R16169   2.622   4.297   2.294
    3OL     H3S16170   2.586   4.365   2.455
    3OL     C1416171   2.782   4.402   2.392
    3OL     H4R16172   2.792   4.498   2.442
    3OL     H4S16173   2.845   4.403   2.302
    3OL     C1516174   2.833   4.289   2.483
    3OL     H5R16175   2.805   4.189   2.449
    3OL     H5S16176   2.777   4.291   2.577
    3OL     C1616177   2.981   4.307   2.517
    3OL     H6R16178   3.002   4.412   2.539
    3OL     H6S16179   3.045   4.284   2.431
    3OL     C1716180   3.031   4.222   2.635
    3OL     H7R16181   3.136   4.250   2.646
    3OL     H7S16182   3.026   4.117   2.603
    3OL     C1816183   2.945   4.234   2.762
    3OL     H8R16184   2.995   4.171   2.837
    3OL     H8S16185   2.854   4.175   2.750
    3OL     C1916186   2.908   4.371   2.812
    3OL     H9R16187   2.825   4.424   2.767
    3OL    C11016188   2.940   4.430   2.926
    3OL    H10R16189   2.883   4.518   2.954
    3OL    C11116190   3.055   4.393   3.017
    3OL    H11R16191   3.117   4.483   3.006
    3OL    H11S16192   3.132   4.321   2.988
    3OL    C11216193   3.006   4.360   3.158
    3OL    H12R16194   2.937   4.275   3.149
    3OL    H12S16195   2.949   4.445   3.198
    3OL    C11316196   3.110   4.327   3.266
    3OL    H13R16197   3.067   4.322   3.366
    3OL    H13S16198   3.178   4.413   3.259
    3OL    C11416199   3.193   4.201   3.235
    3OL    H14R16200   3.237   4.218   3.137
    3OL    H14S16201   3.136   4.108   3.234
    3OL    C11516202   3.312   4.185   3.329
    3OL    H15R16203   3.380   4.266   3.301
    3OL    H15S16204   3.362   4.090   3.310
    3OL    C11616205   3.290   4.191   3.481
    3OL    H16R16206   3.241   4.287   3.498
    3OL    H16S16207   3.389   4.192   3.529
    3OL    C11716208   3.208   4.073   3.534
    3OL    H17R16209   3.279   3.992   3.521
    3OL    H17S16210   3.114   4.050   3.483
    3OL    C11816211   3.180   4.094   3.684
    3OL    H18R16212   3.134   4.010   3.737
    3OL    H18S16213   3.106   4.174   3.694
    3OL    H18T16214   3.271   4.125   3.735
    1PA    C11616215   4.679   2.381   3.947
    1PA    H16R16216   4.667   2.488   3.967
    1PA    H16S16217   4.632   2.335   4.034
    1PA    H16T16218   4.608   2.368   3.866
    1PA    C11516219   4.824   2.336   3.922
    1PA    H15R16220   4.886   2.410   3.871
    1PA    H15S16221   4.858   2.334   4.026
    1PA    C11416222   4.842   2.198   3.859
    1PA    H14R16223   4.940   2.154   3.877
    1PA    H14S16224   4.774   2.130   3.912
    1PA    C11316225   4.810   2.203   3.709
    1PA    H13R16226   4.712   2.247   3.692
    1PA    H13S16227   4.884   2.271   3.666
    1PA    C11216228   4.837   2.068   3.641
    1PA    H12R16229   4.945   2.058   3.653
    1PA    H12S16230   4.781   1.995   3.699
    1PA    C11116231   4.802   2.062   3.492
    1PA    H11R16232   4.785   1.959   3.462
    1PA    H11S16233   4.715   2.125   3.471
    1PA    C11016234   4.913   2.123   3.405
    1PA    H10R16235   4.874   2.164   3.311
    1PA    H10S16236   4.964   2.209   3.449
    1PA     C1916237   5.026   2.031   3.357
    1PA     H9R16238   5.105   2.100   3.327
    1PA     H9S16239   5.066   1.963   3.432
    1PA     C1816240   4.986   1.930   3.249
    1PA     H8R16241   4.905   1.868   3.287
    1PA     H8S16242   4.942   1.988   3.167
    1PA     C1716243   5.100   1.842   3.197
    1PA     H7R16244   5.172   1.903   3.141
    1PA     H7S16245   5.149   1.805   3.288
    1PA     C1616246   5.053   1.724   3.111
    1PA     H6R16247   5.137   1.654   3.106
    1PA     H6S16248   4.961   1.680   3.150
    1PA     C1516249   5.029   1.778   2.970
    1PA     H5R16250   4.962   1.864   2.979
    1PA     H5S16251   5.129   1.805   2.935
    1PA     C1416252   4.963   1.668   2.885
    1PA     H4R16253   5.042   1.593   2.882
    1PA     H4S16254   4.871   1.632   2.933
    1PA     C1316255   4.938   1.727   2.745
    1PA     H3R16256   4.891   1.826   2.745
    1PA     H3S16257   5.034   1.738   2.695
    1PA     C1216258   4.860   1.622   2.665
    1PA     H2R16259   4.911   1.526   2.653
    1PA     H2S16260   4.767   1.602   2.719
    2PC     C1116261   4.807   1.679   2.536
    2PC     O1216262   4.855   1.773   2.477
    2PC     O1116263   4.702   1.612   2.486
    2PC      C116264   4.641   1.669   2.369
    2PC      HR16265   4.615   1.775   2.380
    2PC      HS16266   4.701   1.641   2.283
    2PC      C216267   4.503   1.602   2.362
    2PC      HX16268   4.511   1.496   2.388
    2PC      C316269   4.457   1.604   2.215
    2PC      HA16270   4.525   1.556   2.144
    2PC      HB16271   4.365   1.545   2.207
    2PC     O3116272   4.431   1.741   2.180
    2PC     P3116273   4.373   1.762   2.032
    2PC     O3216274   4.468   1.870   1.963
    2PC     C3116275   4.607   1.854   1.996
    2PC     H1A16276   4.630   1.863   2.102
    2PC     H1B16277   4.629   1.751   1.965
    2PC     C3216278   4.698   1.951   1.918
    2PC     H2A16279   4.676   2.052   1.952
    2PC     H2B16280   4.800   1.935   1.952
    2PC     N3116281   4.693   1.957   1.768
    2PC     C3316282   4.808   2.037   1.715
    2PC     H3A16283   4.812   2.028   1.606
    2PC     H3B16284   4.797   2.141   1.745
    2PC     H3C16285   4.898   1.992   1.757
    2PC     C3416286   4.714   1.823   1.704
    2PC     H4A16287   4.809   1.781   1.737
    2PC     H4B16288   4.630   1.756   1.723
    2PC     H4C16289   4.733   1.839   1.598
    2PC     C3516290   4.568   2.021   1.717
    2PC     H5A16291   4.481   1.963   1.750
    2PC     H5B16292   4.569   2.020   1.608
    2PC     H5C16293   4.564   2.122   1.759
    2PC     O3316294   4.379   1.640   1.948
    2PC     O3416295   4.228   1.793   2.036
    2PC     O2116296   4.416   1.657   2.462
    2PC     C2116297   4.295   1.605   2.488
    2PC     O2216298   4.253   1.503   2.438
    3OL     C1216299   4.220   1.701   2.576
    3OL     H2R16300   4.213   1.787   2.509
    3OL     H2S16301   4.286   1.717   2.661
    3OL     C1316302   4.083   1.641   2.611
    3OL     H3R16303   4.094   1.538   2.646
    3OL     H3S16304   4.022   1.624   2.521
    3OL     C1416305   4.004   1.728   2.710
    3OL     H4R16306   3.909   1.675   2.724
    3OL     H4S16307   3.994   1.832   2.677
    3OL     C1516308   4.072   1.729   2.847
    3OL     H5R16309   4.168   1.783   2.844
    3OL     H5S16310   4.077   1.627   2.884
    3OL     C1616311   3.969   1.793   2.940
    3OL     H6R16312   3.868   1.758   2.916
    3OL     H6S16313   3.979   1.901   2.924
    3OL     C1716314   3.999   1.766   3.088
    3OL     H7R16315   4.002   1.864   3.135
    3OL     H7S16316   4.096   1.717   3.101
    3OL     C1816317   3.890   1.686   3.159
    3OL     H8R16318   3.895   1.581   3.128
    3OL     H8S16319   3.793   1.717   3.119
    3OL     C1916320   3.914   1.696   3.308
    3OL     H9R16321   3.885   1.792   3.351
    3OL    C11016322   3.948   1.607   3.400
    3OL    H10R16323   3.959   1.639   3.503
    3OL    C11116324   3.980   1.464   3.364
    3OL    H11R16325   4.012   1.442   3.263
    3OL    H11S16326   3.893   1.400   3.383
    3OL    C11216327   4.101   1.412   3.443
    3OL    H12R16328   4.100   1.303   3.439
    3OL    H12S16329   4.089   1.440   3.548
    3OL    C11316330   4.236   1.469   3.396
    3OL    H13R16331   4.317   1.437   3.463
    3OL    H13S16332   4.234   1.577   3.407
    3OL    C11416333   4.281   1.424   3.256
    3OL    H14R16334   4.199   1.459   3.193
    3OL    H14S16335   4.294   1.317   3.242
    3OL    C11516336   4.406   1.511   3.231
    3OL    H15R16337   4.480   1.485   3.306
    3OL    H15S16338   4.385   1.618   3.235
    3OL    C11616339   4.467   1.480   3.093
    3OL    H16R16340   4.462   1.372   3.081
    3OL    H16S16341   4.571   1.512   3.099
    3OL    C11716342   4.391   1.552   2.981
    3OL    H17R16343   4.383   1.660   2.998
    3OL    H17S16344   4.294   1.503   2.967
    3OL    C11816345   4.470   1.516   2.855
    3OL    H18R16346   4.418   1.560   2.770
    3OL    H18S16347   4.480   1.408   2.847
    3OL    H18T16348   4.567   1.566   2.862
    1PA    C11616349   3.785   0.239   3.218
    1PA    H16R16350   3.874   0.273   3.164
    1PA    H16S16351   3.759   0.146   3.167
    1PA    H16T16352   3.803   0.206   3.321
    1PA    C11516353   3.680   0.351   3.219
    1PA    H15R16354   3.663   0.377   3.115
    1PA    H15S16355   3.579   0.321   3.248
    1PA    C11416356   3.728   0.479   3.289
    1PA    H14R16357   3.749   0.464   3.395
    1PA    H14S16358   3.821   0.510   3.243
    1PA    C11316359   3.629   0.596   3.281
    1PA    H13R16360   3.532   0.548   3.269
    1PA    H13S16361   3.633   0.659   3.370
    1PA    C11216362   3.650   0.689   3.161
    1PA    H12R16363   3.747   0.736   3.180
    1PA    H12S16364   3.656   0.644   3.062
    1PA    C11116365   3.544   0.800   3.161
    1PA    H11R16366   3.549   0.850   3.259
    1PA    H11S16367   3.576   0.871   3.085
    1PA    C11016368   3.402   0.749   3.135
    1PA    H10R16369   3.387   0.662   3.198
    1PA    H10S16370   3.332   0.832   3.149
    1PA     C1916371   3.387   0.710   2.987
    1PA     H9R16372   3.400   0.795   2.920
    1PA     H9S16373   3.453   0.633   2.945
    1PA     C1816374   3.243   0.662   2.968
    1PA     H8R16375   3.240   0.579   3.039
    1PA     H8S16376   3.159   0.725   2.999
    1PA     C1716377   3.227   0.605   2.827
    1PA     H7R16378   3.239   0.681   2.749
    1PA     H7S16379   3.288   0.518   2.802
    1PA     C1616380   3.079   0.565   2.815
    1PA     H6R16381   3.059   0.480   2.881
    1PA     H6S16382   3.010   0.644   2.846
    1PA     C1516383   3.038   0.517   2.675
    1PA     H5R16384   3.096   0.435   2.630
    1PA     H5S16385   2.935   0.483   2.680
    1PA     C1416386   3.036   0.641   2.585
    1PA     H4R16387   2.974   0.711   2.641
    1PA     H4S16388   3.136   0.684   2.572
    1PA     C1316389   2.961   0.592   2.460
    1PA     H3R16390   2.868   0.541   2.485
    1PA     H3S16391   2.938   0.677   2.395
    1PA     C1216392   3.052   0.499   2.379
    1PA     H2R16393   3.156   0.530   2.387
    1PA     H2S16394   3.037   0.395   2.408
    2PC     C1116395   3.018   0.513   2.232
    2PC     O1216396   3.042   0.616   2.173
    2PC     O1116397   2.987   0.392   2.182
    2PC      C116398   2.954   0.395   2.041
    2PC      HR16399   2.853   0.436   2.037
    2PC      HS16400   3.029   0.460   1.995
    2PC      C216401   2.960   0.254   1.980
    2PC      HX16402   3.062   0.219   1.995
    2PC      C316403   2.940   0.265   1.829
    2PC      HA16404   3.004   0.346   1.794
    2PC      HB16405   2.971   0.169   1.786
    2PC     O3116406   2.800   0.296   1.814
    2PC     P3116407   2.732   0.302   1.669
    2PC     O3216408   2.579   0.342   1.693
    2PC     C3116409   2.551   0.473   1.745
    2PC     H1A16410   2.637   0.514   1.798
    2PC     H1B16411   2.530   0.541   1.661
    2PC     C3216412   2.437   0.471   1.848
    2PC     H2A16413   2.407   0.569   1.887
    2PC     H2B16414   2.343   0.440   1.802
    2PC     N3116415   2.458   0.381   1.966
    2PC     C3316416   2.585   0.421   2.034
    2PC     H3A16417   2.672   0.400   1.973
    2PC     H3B16418   2.586   0.530   2.049
    2PC     H3C16419   2.603   0.372   2.130
    2PC     C3416420   2.341   0.407   2.057
    2PC     H4A16421   2.345   0.349   2.149
    2PC     H4B16422   2.346   0.515   2.076
    2PC     H4C16423   2.252   0.389   1.998
    2PC     C3516424   2.469   0.239   1.918
    2PC     H5A16425   2.437   0.185   2.007
    2PC     H5B16426   2.572   0.213   1.897
    2PC     H5C16427   2.409   0.212   1.831
    2PC     O3316428   2.791   0.395   1.571
    2PC     O3416429   2.758   0.169   1.609
    2PC     O2116430   2.858   0.173   2.041
    2PC     C2116431   2.864   0.039   2.046
    2PC     O2216432   2.959  -0.017   1.996
    3OL     C1216433   2.765  -0.035   2.133
    3OL     H2R16434   2.816  -0.056   2.227
    3OL     H2S16435   2.740  -0.128   2.081
    3OL     C1316436   2.631   0.039   2.143
    3OL     H3R16437   2.590   0.047   2.042
    3OL     H3S16438   2.630   0.143   2.177
    3OL     C1416439   2.527  -0.042   2.221
    3OL     H4R16440   2.575  -0.072   2.315
    3OL     H4S16441   2.500  -0.134   2.169
    3OL     C1516442   2.392   0.026   2.245
    3OL     H5R16443   2.322  -0.051   2.276
    3OL     H5S16444   2.344   0.053   2.150
    3OL     C1616445   2.392   0.151   2.335
    3OL     H6R16446   2.467   0.213   2.286
    3OL     H6S16447   2.426   0.121   2.434
    3OL     C1716448   2.248   0.203   2.347
    3OL     H7R16449   2.181   0.128   2.390
    3OL     H7S16450   2.203   0.223   2.250
    3OL     C1816451   2.237   0.330   2.431
    3OL     H8R16452   2.286   0.411   2.376
    3OL     H8S16453   2.300   0.317   2.520
    3OL     C1916454   2.098   0.378   2.458
    3OL     H9R16455   2.054   0.440   2.381
    3OL    C11016456   2.023   0.350   2.564
    3OL    H10R16457   1.923   0.392   2.566
    3OL    C11116458   2.063   0.261   2.680
    3OL    H11R16459   2.033   0.315   2.770
    3OL    H11S16460   2.168   0.242   2.690
    3OL    C11216461   1.986   0.129   2.673
    3OL    H12R16462   2.027   0.065   2.594
    3OL    H12S16463   1.879   0.148   2.660
    3OL    C11316464   2.000   0.054   2.807
    3OL    H13R16465   2.099   0.080   2.843
    3OL    H13S16466   2.008  -0.052   2.784
    3OL    C11416467   1.887   0.088   2.906
    3OL    H14R16468   1.794   0.072   2.851
    3OL    H14S16469   1.893   0.197   2.916
    3OL    C11516470   1.888   0.011   3.039
    3OL    H15R16471   1.987   0.008   3.085
    3OL    H15S16472   1.861  -0.093   3.020
    3OL    C11616473   1.782   0.086   3.121
    3OL    H16R16474   1.685   0.096   3.073
    3OL    H16S16475   1.823   0.186   3.131
    3OL    C11716476   1.753   0.030   3.261
    3OL    H17R16477   1.841   0.037   3.325
    3OL    H17S16478   1.725  -0.075   3.248
    3OL    C11816479   1.638   0.099   3.334
    3OL    H18R16480   1.605   0.070   3.434
    3OL    H18S16481   1.547   0.085   3.276
    3OL    H18T16482   1.648   0.208   3.329
    1PA    C11616483   5.216   2.325   3.873
    1PA    H16R16484   5.178   2.410   3.930
    1PA    H16S16485   5.283   2.266   3.935
    1PA    H16T16486   5.136   2.256   3.846
    1PA    C11516487   5.298   2.365   3.749
    1PA    H15R16488   5.399   2.401   3.769
    1PA    H15S16489   5.316   2.278   3.685
    1PA    C11416490   5.231   2.475   3.666
    1PA    H14R16491   5.136   2.436   3.629
    1PA    H14S16492   5.208   2.569   3.715
    1PA    C11316493   5.312   2.490   3.536
    1PA    H13R16494   5.407   2.543   3.549
    1PA    H13S16495   5.339   2.399   3.482
    1PA    C11216496   5.230   2.573   3.436
    1PA    H12R16497   5.187   2.654   3.495
    1PA    H12S16498   5.293   2.621   3.360
    1PA    C11116499   5.125   2.493   3.358
    1PA    H11R16500   5.093   2.406   3.415
    1PA    H11S16501   5.040   2.558   3.337
    1PA    C11016502   5.185   2.450   3.223
    1PA    H10R16503   5.217   2.544   3.178
    1PA    H10S16504   5.273   2.386   3.230
    1PA     C1916505   5.083   2.381   3.131
    1PA     H9R16506   5.039   2.298   3.186
    1PA     H9S16507   4.999   2.447   3.111
    1PA     C1816508   5.158   2.343   3.002
    1PA     H8R16509   5.201   2.429   2.949
    1PA     H8S16510   5.242   2.281   3.033
    1PA     C1716511   5.059   2.280   2.903
    1PA     H7R16512   5.024   2.182   2.935
    1PA     H7S16513   4.978   2.352   2.894
    1PA     C1616514   5.119   2.264   2.763
    1PA     H6R16515   5.042   2.267   2.685
    1PA     H6S16516   5.180   2.349   2.734
    1PA     C1516517   5.200   2.134   2.745
    1PA     H5R16518   5.277   2.122   2.822
    1PA     H5S16519   5.138   2.045   2.752
    1PA     C1416520   5.265   2.141   2.606
    1PA     H4R16521   5.183   2.149   2.535
    1PA     H4S16522   5.316   2.237   2.600
    1PA     C1316523   5.346   2.013   2.579
    1PA     H3R16524   5.424   2.010   2.656
    1PA     H3S16525   5.285   1.923   2.584
    1PA     C1216526   5.417   2.016   2.443
    1PA     H2R16527   5.479   2.105   2.436
    1PA     H2S16528   5.482   1.932   2.417
    2PC     C1116529   5.317   2.023   2.330
    2PC     O1216530   5.231   1.942   2.306
    2PC     O1116531   5.326   2.136   2.257
    2PC      C116532   5.220   2.173   2.167
    2PC      HR16533   5.216   2.088   2.099
    2PC      HS16534   5.126   2.175   2.222
    2PC      C216535   5.248   2.309   2.100
    2PC      HX16536   5.168   2.335   2.030
    2PC      C316537   5.381   2.305   2.023
    2PC      HA16538   5.468   2.323   2.086
    2PC      HB16539   5.391   2.215   1.962
    2PC     O3116540   5.381   2.415   1.929
    2PC     P3116541   5.314   2.402   1.784
    2PC     O3216542   5.411   2.499   1.702
    2PC     C3116543   5.551   2.469   1.709
    2PC     H1A16544   5.587   2.479   1.812
    2PC     H1B16545   5.557   2.363   1.685
    2PC     C3216546   5.633   2.554   1.611
    2PC     H2A16547   5.643   2.660   1.636
    2PC     H2B16548   5.738   2.525   1.604
    2PC     N3116549   5.591   2.548   1.467
    2PC     C3316550   5.452   2.602   1.453
    2PC     H3A16551   5.457   2.691   1.517
    2PC     H3B16552   5.434   2.634   1.351
    2PC     H3C16553   5.379   2.527   1.484
    2PC     C3416554   5.694   2.629   1.395
    2PC     H4A16555   5.671   2.643   1.289
    2PC     H4B16556   5.703   2.719   1.456
    2PC     H4C16557   5.784   2.568   1.399
    2PC     C3516558   5.598   2.404   1.426
    2PC     H5A16559   5.502   2.361   1.457
    2PC     H5B16560   5.689   2.359   1.465
    2PC     H5C16561   5.595   2.409   1.317
    2PC     O3316562   5.306   2.261   1.740
    2PC     O3416563   5.178   2.460   1.775
    2PC     O2116564   5.249   2.419   2.192
    2PC     C2116565   5.137   2.452   2.259
    2PC     O2216566   5.037   2.383   2.248
    3OL     C1216567   5.145   2.576   2.343
    3OL     H2R16568   5.068   2.645   2.306
    3OL     H2S16569   5.241   2.626   2.325
    3OL     C1316570   5.126   2.559   2.494
    3OL     H3R16571   5.193   2.479   2.525
    3OL     H3S16572   5.022   2.536   2.519
    3OL     C1416573   5.172   2.689   2.561
    3OL     H4R16574   5.135   2.780   2.511
    3OL     H4S16575   5.281   2.691   2.558
    3OL     C1516576   5.131   2.699   2.708
    3OL     H5R16577   5.173   2.613   2.762
    3OL     H5S16578   5.023   2.693   2.713
    3OL     C1616579   5.177   2.829   2.776
    3OL     H6R16580   5.120   2.910   2.731
    3OL     H6S16581   5.285   2.845   2.771
    3OL     C1716582   5.144   2.827   2.926
    3OL     H7R16583   5.209   2.762   2.985
    3OL     H7S16584   5.043   2.789   2.940
    3OL     C1816585   5.160   2.969   2.983
    3OL     H8R16586   5.108   2.988   3.077
    3OL     H8S16587   5.117   3.040   2.913
    3OL     C1916588   5.306   3.004   2.997
    3OL     H9R16589   5.348   3.049   2.907
    3OL    C11016590   5.367   3.009   3.114
    3OL    H10R16591   5.472   3.033   3.124
    3OL    C11116592   5.307   2.970   3.247
    3OL    H11R16593   5.384   2.936   3.317
    3OL    H11S16594   5.244   2.882   3.232
    3OL    C11216595   5.222   3.079   3.313
    3OL    H12R16596   5.147   3.124   3.248
    3OL    H12S16597   5.291   3.159   3.343
    3OL    C11316598   5.151   3.029   3.440
    3OL    H13R16599   5.122   3.121   3.489
    3OL    H13S16600   5.225   2.977   3.500
    3OL    C11416601   5.030   2.939   3.407
    3OL    H14R16602   5.075   2.846   3.370
    3OL    H14S16603   4.966   2.973   3.326
    3OL    C11516604   4.954   2.917   3.538
    3OL    H15R16605   4.920   3.019   3.557
    3OL    H15S16606   5.024   2.882   3.614
    3OL    C11616607   4.835   2.823   3.511
    3OL    H16R16608   4.871   2.732   3.464
    3OL    H16S16609   4.767   2.867   3.438
    3OL    C11716610   4.756   2.787   3.638
    3OL    H17R16611   4.662   2.741   3.606
    3OL    H17S16612   4.733   2.875   3.697
    3OL    C11816613   4.845   2.687   3.714
    3OL    H18R16614   4.861   2.596   3.656
    3OL    H18S16615   4.809   2.664   3.815
    3OL    H18T16616   4.943   2.731   3.731
    1PA    C11616617   4.015   2.404   3.891
    1PA    H16R16618   4.073   2.463   3.961
    1PA    H16S16619   4.014   2.301   3.926
    1PA    H16T16620   3.910   2.435   3.896
    1PA    C11516621   4.067   2.426   3.748
    1PA    H15R16622   4.012   2.357   3.685
    1PA    H15S16623   4.062   2.531   3.716
    1PA    C11416624   4.215   2.389   3.736
    1PA    H14R16625   4.274   2.453   3.801
    1PA    H14S16626   4.221   2.286   3.772
    1PA    C11316627   4.274   2.398   3.594
    1PA    H13R16628   4.225   2.320   3.535
    1PA    H13S16629   4.252   2.493   3.547
    1PA    C11216630   4.426   2.375   3.597
    1PA    H12R16631   4.470   2.453   3.660
    1PA    H12S16632   4.449   2.272   3.627
    1PA    C11116633   4.487   2.394   3.457
    1PA    H11R16634   4.461   2.310   3.392
    1PA    H11S16635   4.432   2.479   3.417
    1PA    C11016636   4.634   2.438   3.452
    1PA    H10R16637   4.661   2.498   3.539
    1PA    H10S16638   4.695   2.347   3.460
    1PA     C1916639   4.665   2.518   3.325
    1PA     H9R16640   4.615   2.615   3.333
    1PA     H9S16641   4.773   2.532   3.313
    1PA     C1816642   4.624   2.447   3.195
    1PA     H8R16643   4.658   2.344   3.193
    1PA     H8S16644   4.517   2.423   3.197
    1PA     C1716645   4.673   2.523   3.071
    1PA     H7R16646   4.628   2.621   3.057
    1PA     H7S16647   4.780   2.540   3.081
    1PA     C1616648   4.652   2.443   2.942
    1PA     H6R16649   4.700   2.344   2.942
    1PA     H6S16650   4.548   2.409   2.933
    1PA     C1516651   4.698   2.515   2.814
    1PA     H5R16652   4.650   2.611   2.799
    1PA     H5S16653   4.801   2.544   2.836
    1PA     C1416654   4.694   2.440   2.681
    1PA     H4R16655   4.763   2.357   2.699
    1PA     H4S16656   4.589   2.413   2.666
    1PA     C1316657   4.746   2.532   2.569
    1PA     H3R16658   4.810   2.614   2.604
    1PA     H3S16659   4.795   2.470   2.494
    1PA     C1216660   4.618   2.596   2.514
    1PA     H2R16661   4.552   2.514   2.486
    1PA     H2S16662   4.565   2.655   2.589
    2PC     C1116663   4.643   2.684   2.394
    2PC     O1216664   4.729   2.769   2.390
    2PC     O1116665   4.556   2.648   2.298
    2PC      C116666   4.559   2.723   2.175
    2PC      HR16667   4.537   2.830   2.180
    2PC      HS16668   4.652   2.707   2.120
    2PC      C216669   4.456   2.656   2.083
    2PC      HX16670   4.455   2.547   2.094
    2PC      C316671   4.481   2.686   1.935
    2PC      HA16672   4.564   2.632   1.888
    2PC      HB16673   4.401   2.653   1.868
    2PC     O3116674   4.492   2.829   1.922
    2PC     P3116675   4.565   2.892   1.794
    2PC     O3216676   4.485   2.830   1.670
    2PC     C3116677   4.351   2.869   1.635
    2PC     H1A16678   4.284   2.811   1.698
    2PC     H1B16679   4.336   2.976   1.652
    2PC     C3216680   4.319   2.853   1.486
    2PC     H2A16681   4.214   2.880   1.477
    2PC     H2B16682   4.379   2.919   1.423
    2PC     N3116683   4.339   2.714   1.431
    2PC     C3316684   4.263   2.615   1.514
    2PC     H3A16685   4.278   2.513   1.478
    2PC     H3B16686   4.299   2.609   1.617
    2PC     H3C16687   4.157   2.641   1.523
    2PC     C3416688   4.271   2.723   1.298
    2PC     H4A16689   4.335   2.777   1.228
    2PC     H4B16690   4.272   2.620   1.261
    2PC     H4C16691   4.169   2.757   1.314
    2PC     C3516692   4.485   2.682   1.418
    2PC     H5A16693   4.529   2.740   1.337
    2PC     H5B16694   4.486   2.577   1.389
    2PC     H5C16695   4.531   2.705   1.514
    2PC     O3316696   4.565   3.039   1.812
    2PC     O3416697   4.711   2.871   1.788
    2PC     O2116698   4.325   2.709   2.113
    2PC     C2116699   4.221   2.641   2.062
    2PC     O2216700   4.230   2.548   1.985
    3OL     C1216701   4.090   2.688   2.120
    3OL     H2R16702   4.003   2.681   2.053
    3OL     H2S16703   4.100   2.795   2.141
    3OL     C1316704   4.046   2.603   2.239
    3OL     H3R16705   4.016   2.500   2.217
    3OL     H3S16706   3.958   2.648   2.285
    3OL     C1416707   4.152   2.598   2.350
    3OL     H4R16708   4.203   2.693   2.365
    3OL     H4S16709   4.227   2.530   2.308
    3OL     C1516710   4.105   2.555   2.490
    3OL     H5R16711   4.056   2.458   2.476
    3OL     H5S16712   4.031   2.628   2.526
    3OL     C1616713   4.223   2.538   2.587
    3OL     H6R16714   4.275   2.632   2.608
    3OL     H6S16715   4.288   2.464   2.540
    3OL     C1716716   4.161   2.488   2.718
    3OL     H7R16717   4.116   2.390   2.701
    3OL     H7S16718   4.083   2.555   2.756
    3OL     C1816719   4.260   2.473   2.833
    3OL     H8R16720   4.333   2.396   2.808
    3OL     H8S16721   4.214   2.416   2.914
    3OL     C1916722   4.346   2.593   2.867
    3OL     H9R16723   4.426   2.604   2.794
    3OL    C11016724   4.354   2.668   2.976
    3OL    H10R16725   4.429   2.746   2.979
    3OL    C11116726   4.276   2.650   3.104
    3OL    H11R16727   4.323   2.690   3.194
    3OL    H11S16728   4.257   2.544   3.122
    3OL    C11216729   4.143   2.727   3.102
    3OL    H12R16730   4.091   2.714   3.006
    3OL    H12S16731   4.165   2.834   3.108
    3OL    C11316732   4.054   2.697   3.223
    3OL    H13R16733   3.978   2.776   3.225
    3OL    H13S16734   4.116   2.696   3.313
    3OL    C11416735   3.982   2.562   3.217
    3OL    H14R16736   4.051   2.477   3.228
    3OL    H14S16737   3.923   2.553   3.126
    3OL    C11516738   3.881   2.565   3.333
    3OL    H15R16739   3.821   2.651   3.303
    3OL    H15S16740   3.928   2.571   3.431
    3OL    C11616741   3.793   2.440   3.331
    3OL    H16R16742   3.760   2.434   3.227
    3OL    H16S16743   3.708   2.448   3.399
    3OL    C11716744   3.875   2.316   3.369
    3OL    H17R16745   3.918   2.329   3.469
    3OL    H17S16746   3.953   2.305   3.293
    3OL    C11816747   3.790   2.188   3.361
    3OL    H18R16748   3.759   2.166   3.259
    3OL    H18S16749   3.696   2.211   3.412
    3OL    H18T16750   3.842   2.109   3.416
    1PA    C11616751   3.601   1.886   2.432
    1PA    H16R16752   3.504   1.838   2.417
    1PA    H16S16753   3.668   1.805   2.462
    1PA    H16T16754   3.632   1.926   2.335
    1PA    C11516755   3.591   1.994   2.541
    1PA    H15R16756   3.596   1.945   2.638
    1PA    H15S16757   3.678   2.060   2.548
    1PA    C11416758   3.469   2.086   2.521
    1PA    H14R16759   3.484   2.134   2.424
    1PA    H14S16760   3.376   2.030   2.523
    1PA    C11316761   3.450   2.187   2.634
    1PA    H13R16762   3.370   2.255   2.604
    1PA    H13S16763   3.423   2.121   2.716
    1PA    C11216764   3.576   2.268   2.669
    1PA    H12R16765   3.641   2.205   2.730
    1PA    H12S16766   3.634   2.295   2.581
    1PA    C11116767   3.540   2.400   2.739
    1PA    H11R16768   3.482   2.459   2.668
    1PA    H11S16769   3.476   2.381   2.825
    1PA    C11016770   3.674   2.465   2.777
    1PA    H10R16771   3.725   2.393   2.842
    1PA    H10S16772   3.743   2.468   2.693
    1PA     C1916773   3.662   2.594   2.860
    1PA     H9R16774   3.593   2.581   2.943
    1PA     H9S16775   3.762   2.607   2.902
    1PA     C1816776   3.615   2.704   2.764
    1PA     H8R16777   3.693   2.725   2.691
    1PA     H8S16778   3.525   2.674   2.710
    1PA     C1716779   3.606   2.836   2.841
    1PA     H7R16780   3.580   2.914   2.769
    1PA     H7S16781   3.519   2.831   2.907
    1PA     C1616782   3.737   2.890   2.900
    1PA     H6R16783   3.718   2.989   2.940
    1PA     H6S16784   3.766   2.830   2.986
    1PA     C1516785   3.853   2.894   2.799
    1PA     H5R16786   3.942   2.927   2.853
    1PA     H5S16787   3.876   2.799   2.752
    1PA     C1416788   3.823   2.990   2.683
    1PA     H4R16789   3.733   2.974   2.624
    1PA     H4S16790   3.826   3.092   2.722
    1PA     C1316791   3.934   2.991   2.577
    1PA     H3R16792   4.024   3.018   2.633
    1PA     H3S16793   3.960   2.892   2.536
    1PA     C1216794   3.905   3.088   2.461
    1PA     H2R16795   3.881   3.183   2.510
    1PA     H2S16796   4.000   3.110   2.412
    2PC     C1116797   3.801   3.051   2.359
    2PC     O1216798   3.759   2.939   2.337
    2PC     O1116799   3.757   3.151   2.282
    2PC      C116800   3.649   3.135   2.188
    2PC      HR16801   3.628   3.226   2.131
    2PC      HS16802   3.682   3.060   2.116
    2PC      C216803   3.520   3.083   2.252
    2PC      HX16804   3.545   3.006   2.326
    2PC      C316805   3.415   3.032   2.152
    2PC      HA16806   3.444   2.935   2.112
    2PC      HB16807   3.320   3.011   2.204
    2PC     O3116808   3.397   3.124   2.042
    2PC     P3116809   3.246   3.133   1.989
    2PC     O3216810   3.179   3.246   2.080
    2PC     C3116811   3.212   3.386   2.072
    2PC     H1A16812   3.319   3.395   2.094
    2PC     H1B16813   3.192   3.430   1.975
    2PC     C3216814   3.139   3.463   2.183
    2PC     H2A16815   3.031   3.453   2.168
    2PC     H2B16816   3.150   3.409   2.277
    2PC     N3116817   3.181   3.606   2.198
    2PC     C3316818   3.177   3.680   2.067
    2PC     H3A16819   3.227   3.776   2.083
    2PC     H3B16820   3.229   3.619   1.993
    2PC     H3C16821   3.071   3.696   2.043
    2PC     C3416822   3.084   3.671   2.291
    2PC     H4A16823   2.997   3.683   2.227
    2PC     H4B16824   3.059   3.613   2.380
    2PC     H4C16825   3.121   3.772   2.305
    2PC     C3516826   3.317   3.617   2.260
    2PC     H5A16827   3.390   3.556   2.205
    2PC     H5B16828   3.304   3.591   2.365
    2PC     H5C16829   3.346   3.721   2.245
    2PC     O3316830   3.236   3.164   1.844
    2PC     O3416831   3.176   3.003   1.985
    2PC     O2116832   3.457   3.191   2.324
    2PC     C2116833   3.461   3.199   2.458
    2PC     O2216834   3.520   3.125   2.534
    3OL     C1216835   3.374   3.312   2.508
    3OL     H2R16836   3.272   3.314   2.470
    3OL     H2S16837   3.423   3.400   2.465
    3OL     C1316838   3.368   3.318   2.662
    3OL     H3R16839   3.427   3.405   2.693
    3OL     H3S16840   3.398   3.231   2.720
    3OL     C1416841   3.225   3.354   2.705
    3OL     H4R16842   3.157   3.269   2.707
    3OL     H4S16843   3.180   3.425   2.635
    3OL     C1516844   3.218   3.412   2.847
    3OL     H5R16845   3.277   3.504   2.845
    3OL     H5S16846   3.268   3.340   2.912
    3OL     C1616847   3.074   3.422   2.900
    3OL     H6R16848   3.035   3.320   2.899
    3OL     H6S16849   3.014   3.476   2.827
    3OL     C1716850   3.075   3.502   3.031
    3OL     H7R16851   3.102   3.603   3.000
    3OL     H7S16852   3.168   3.473   3.079
    3OL     C1816853   2.944   3.509   3.112
    3OL     H8R16854   2.907   3.408   3.125
    3OL     H8S16855   2.870   3.553   3.045
    3OL     C1916856   2.958   3.591   3.238
    3OL     H9R16857   3.050   3.649   3.243
    3OL    C11016858   2.871   3.599   3.338
    3OL    H10R16859   2.885   3.669   3.420
    3OL    C11116860   2.735   3.534   3.334
    3OL    H11R16861   2.730   3.462   3.252
    3OL    H11S16862   2.655   3.604   3.309
    3OL    C11216863   2.695   3.478   3.471
    3OL    H12R16864   2.614   3.407   3.452
    3OL    H12S16865   2.660   3.557   3.538
    3OL    C11316866   2.810   3.403   3.541
    3OL    H13R16867   2.878   3.483   3.573
    3OL    H13S16868   2.862   3.346   3.465
    3OL    C11416869   2.772   3.316   3.661
    3OL    H14R16870   2.704   3.360   3.734
    3OL    H14S16871   2.866   3.301   3.714
    3OL    C11516872   2.701   3.184   3.625
    3OL    H15R16873   2.773   3.125   3.567
    3OL    H15S16874   2.613   3.204   3.564
    3OL    C11616875   2.665   3.110   3.754
    3OL    H16R16876   2.758   3.105   3.810
    3OL    H16S16877   2.631   3.011   3.724
    3OL    C11716878   2.565   3.169   3.855
    3OL    H17R16879   2.468   3.194   3.813
    3OL    H17S16880   2.613   3.265   3.880
    3OL    C11816881   2.546   3.080   3.979
    3OL    H18R16882   2.499   2.990   3.941
    3OL    H18S16883   2.475   3.130   4.045
    3OL    H18T16884   2.643   3.045   4.017
    1PA    C11616885   5.709   2.061   4.164
    1PA    H16R16886   5.793   2.006   4.120
    1PA    H16S16887   5.699   2.041   4.271
    1PA    H16T16888   5.716   2.169   4.149
    1PA    C11516889   5.582   2.008   4.095
    1PA    H15R16890   5.588   1.901   4.072
    1PA    H15S16891   5.501   2.012   4.168
    1PA    C11416892   5.540   2.086   3.970
    1PA    H14R16893   5.436   2.059   3.954
    1PA    H14S16894   5.540   2.192   3.997
    1PA    C11316895   5.636   2.061   3.853
    1PA    H13R16896   5.739   2.081   3.882
    1PA    H13S16897   5.628   1.954   3.836
    1PA    C11216898   5.589   2.138   3.729
    1PA    H12R16899   5.492   2.099   3.699
    1PA    H12S16900   5.583   2.245   3.752
    1PA    C11116901   5.688   2.127   3.612
    1PA    H11R16902   5.785   2.168   3.641
    1PA    H11S16903   5.709   2.022   3.593
    1PA    C11016904   5.660   2.214   3.488
    1PA    H10R16905   5.676   2.320   3.508
    1PA    H10S16906   5.729   2.187   3.408
    1PA     C1916907   5.515   2.207   3.437
    1PA     H9R16908   5.441   2.222   3.517
    1PA     H9S16909   5.507   2.294   3.372
    1PA     C1816910   5.484   2.082   3.355
    1PA     H8R16911   5.522   1.997   3.412
    1PA     H8S16912   5.377   2.068   3.339
    1PA     C1716913   5.556   2.084   3.219
    1PA     H7R16914   5.550   2.184   3.176
    1PA     H7S16915   5.655   2.039   3.232
    1PA     C1616916   5.481   1.999   3.115
    1PA     H6R16917   5.374   2.009   3.132
    1PA     H6S16918   5.507   2.028   3.013
    1PA     C1516919   5.524   1.852   3.128
    1PA     H5R16920   5.628   1.824   3.113
    1PA     H5S16921   5.500   1.819   3.229
    1PA     C1416922   5.449   1.760   3.031
    1PA     H4R16923   5.446   1.658   3.070
    1PA     H4S16924   5.345   1.793   3.035
    1PA     C1316925   5.503   1.757   2.887
    1PA     H3R16926   5.499   1.857   2.844
    1PA     H3S16927   5.600   1.708   2.887
    1PA     C1216928   5.408   1.673   2.802
    1PA     H2R16929   5.384   1.587   2.866
    1PA     H2S16930   5.315   1.729   2.791
    2PC     C1116931   5.461   1.639   2.664
    2PC     O1216932   5.441   1.714   2.571
    2PC     O1116933   5.519   1.518   2.661
    2PC      C116934   5.578   1.462   2.542
    2PC      HR16935   5.598   1.357   2.564
    2PC      HS16936   5.513   1.482   2.456
    2PC      C216937   5.706   1.539   2.509
    2PC      HX16938   5.703   1.636   2.559
    2PC      C316939   5.734   1.559   2.360
    2PC      HA16940   5.666   1.622   2.302
    2PC      HB16941   5.834   1.601   2.348
    2PC     O3116942   5.726   1.429   2.298
    2PC     P3116943   5.681   1.419   2.144
    2PC     O3216944   5.521   1.414   2.141
    2PC     C3116945   5.452   1.308   2.209
    2PC     H1A16946   5.482   1.210   2.169
    2PC     H1B16947   5.485   1.317   2.313
    2PC     C3216948   5.303   1.343   2.223
    2PC     H2A16949   5.261   1.257   2.275
    2PC     H2B16950   5.284   1.435   2.277
    2PC     N3116951   5.217   1.346   2.100
    2PC     C3316952   5.262   1.470   2.028
    2PC     H3A16953   5.194   1.473   1.943
    2PC     H3B16954   5.264   1.553   2.098
    2PC     H3C16955   5.362   1.438   1.998
    2PC     C3416956   5.237   1.226   2.012
    2PC     H4A16957   5.184   1.241   1.918
    2PC     H4B16958   5.342   1.199   2.011
    2PC     H4C16959   5.179   1.144   2.055
    2PC     C3516960   5.073   1.358   2.139
    2PC     H5A16961   5.067   1.447   2.202
    2PC     H5B16962   5.030   1.276   2.196
    2PC     H5C16963   5.016   1.362   2.046
    2PC     O3316964   5.721   1.547   2.081
    2PC     O3416965   5.738   1.314   2.057
    2PC     O2116966   5.813   1.467   2.575
    2PC     C2116967   5.925   1.537   2.600
    2PC     O2216968   5.936   1.657   2.583
    3OL     C1216969   6.028   1.446   2.662
    3OL     H2R16970   6.127   1.467   2.621
    3OL     H2S16971   6.001   1.345   2.629
    3OL     C1316972   6.026   1.453   2.816
    3OL     H3R16973   6.047   1.353   2.853
    3OL     H3S16974   5.925   1.480   2.848
    3OL     C1416975   6.133   1.542   2.881
    3OL     H4R16976   6.084   1.640   2.875
    3OL     H4S16977   6.224   1.548   2.821
    3OL     C1516978   6.161   1.496   3.025
    3OL     H5R16979   6.072   1.447   3.065
    3OL     H5S16980   6.181   1.583   3.088
    3OL     C1616981   6.284   1.404   3.027
    3OL     H6R16982   6.271   1.319   2.960
    3OL     H6S16983   6.286   1.368   3.130
    3OL     C1716984   6.424   1.463   3.011
    3OL     H7R16985   6.453   1.493   2.910
    3OL     H7S16986   6.510   1.399   3.034
    3OL     C1816987   6.437   1.587   3.100
    3OL     H8R16988   6.412   1.573   3.206
    3OL     H8S16989   6.372   1.660   3.053
    3OL     C1916990   6.579   1.632   3.073
    3OL     H9R16991   6.592   1.694   2.985
    3OL    C11016992   6.688   1.594   3.138
    3OL    H10R16993   6.786   1.630   3.108
    3OL    C11116994   6.687   1.490   3.247
    3OL    H11R16995   6.675   1.391   3.203
    3OL    H11S16996   6.605   1.500   3.318
    3OL    C11216997   6.818   1.480   3.325
    3OL    H12R16998   6.897   1.459   3.253
    3OL    H12S16999   6.813   1.391   3.387
    3OL    C11317000   6.850   1.599   3.417
    3OL    H13R17001   6.760   1.608   3.478
    3OL    H13S17002   6.858   1.693   3.361
    3OL    C11417003   6.965   1.588   3.517
    3OL    H14R17004   6.982   1.484   3.548
    3OL    H14S17005   6.944   1.638   3.612
    3OL    C11517006   7.088   1.636   3.439
    3OL    H15R17007   7.064   1.729   3.387
    3OL    H15S17008   7.123   1.562   3.366
    3OL    C11617009   7.206   1.651   3.537
    3OL    H16R17010   7.232   1.548   3.562
    3OL    H16S17011   7.168   1.699   3.628
    3OL    C11717012   7.326   1.733   3.487
    3OL    H17R17013   7.297   1.830   3.445
    3OL    H17S17014   7.357   1.671   3.404
    3OL    C11817015   7.441   1.746   3.588
    3OL    H18R17016   7.396   1.788   3.679
    3OL    H18S17017   7.505   1.824   3.547
    3OL    H18T17018   7.481   1.644   3.593
    1PA    C11617019   5.471   3.068   4.309
    1PA    H16R17020   5.368   3.097   4.329
    1PA    H16S17021   5.542   3.141   4.350
    1PA    H16T17022   5.488   2.982   4.373
    1PA    C11517023   5.499   3.033   4.162
    1PA    H15R17024   5.495   2.924   4.164
    1PA    H15S17025   5.415   3.071   4.103
    1PA    C11417026   5.630   3.092   4.107
    1PA    H14R17027   5.633   3.200   4.120
    1PA    H14S17028   5.712   3.047   4.164
    1PA    C11317029   5.657   3.032   3.969
    1PA    H13R17030   5.641   2.924   3.967
    1PA    H13S17031   5.584   3.076   3.901
    1PA    C11217032   5.798   3.070   3.921
    1PA    H12R17033   5.822   3.174   3.944
    1PA    H12S17034   5.869   3.000   3.966
    1PA    C11117035   5.822   3.051   3.771
    1PA    H11R17036   5.930   3.067   3.761
    1PA    H11S17037   5.792   2.950   3.741
    1PA    C11017038   5.739   3.154   3.692
    1PA    H10R17039   5.638   3.121   3.718
    1PA    H10S17040   5.760   3.251   3.737
    1PA     C1917041   5.762   3.136   3.542
    1PA     H9R17042   5.867   3.151   3.518
    1PA     H9S17043   5.736   3.036   3.507
    1PA     C1817044   5.684   3.243   3.465
    1PA     H8R17045   5.576   3.235   3.479
    1PA     H8S17046   5.686   3.344   3.507
    1PA     C1717047   5.721   3.245   3.316
    1PA     H7R17048   5.828   3.269   3.311
    1PA     H7S17049   5.721   3.145   3.272
    1PA     C1617050   5.629   3.333   3.231
    1PA     H6R17051   5.527   3.319   3.266
    1PA     H6S17052   5.651   3.440   3.234
    1PA     C1517053   5.647   3.294   3.083
    1PA     H5R17054   5.632   3.186   3.081
    1PA     H5S17055   5.564   3.339   3.027
    1PA     C1417056   5.779   3.337   3.018
    1PA     H4R17057   5.787   3.446   3.015
    1PA     H4S17058   5.861   3.288   3.070
    1PA     C1317059   5.791   3.301   2.870
    1PA     H3R17060   5.897   3.293   2.842
    1PA     H3S17061   5.743   3.205   2.852
    1PA     C1217062   5.717   3.398   2.777
    1PA     H2R17063   5.616   3.411   2.816
    1PA     H2S17064   5.776   3.490   2.773
    2PC     C1117065   5.706   3.343   2.637
    2PC     O1217066   5.785   3.263   2.589
    2PC     O1117067   5.611   3.404   2.565
    2PC      C117068   5.569   3.383   2.429
    2PC      HR17069   5.494   3.460   2.411
    2PC      HS17070   5.657   3.391   2.365
    2PC      C217071   5.506   3.243   2.417
    2PC      HX17072   5.580   3.166   2.440
    2PC      C317073   5.456   3.219   2.274
    2PC      HA17074   5.523   3.255   2.196
    2PC      HB17075   5.434   3.113   2.261
    2PC     O3117076   5.344   3.305   2.250
    2PC     P3117077   5.278   3.283   2.105
    2PC     O3217078   5.173   3.402   2.087
    2PC     C3117079   5.073   3.413   2.190
    2PC     H1A17080   5.035   3.314   2.214
    2PC     H1B17081   5.129   3.445   2.279
    2PC     C3217082   4.957   3.507   2.156
    2PC     H2A17083   4.890   3.507   2.242
    2PC     H2B17084   4.991   3.609   2.138
    2PC     N3117085   4.881   3.462   2.035
    2PC     C3317086   4.954   3.472   1.905
    2PC     H3A17087   5.047   3.419   1.891
    2PC     H3B17088   4.896   3.436   1.820
    2PC     H3C17089   4.962   3.580   1.894
    2PC     C3417090   4.837   3.321   2.055
    2PC     H4A17091   4.791   3.296   2.151
    2PC     H4B17092   4.755   3.302   1.986
    2PC     H4C17093   4.925   3.258   2.038
    2PC     C3517094   4.758   3.547   2.023
    2PC     H5A17095   4.790   3.651   2.023
    2PC     H5B17096   4.692   3.530   2.108
    2PC     H5C17097   4.704   3.526   1.930
    2PC     O3317098   5.364   3.267   1.986
    2PC     O3417099   5.208   3.153   2.120
    2PC     O2117100   5.393   3.239   2.506
    2PC     C2117101   5.403   3.202   2.635
    2PC     O2217102   5.499   3.159   2.695
    3OL     C1217103   5.267   3.217   2.700
    3OL     H2R17104   5.230   3.117   2.723
    3OL     H2S17105   5.202   3.259   2.623
    3OL     C1317106   5.273   3.306   2.825
    3OL     H3R17107   5.325   3.401   2.814
    3OL     H3S17108   5.335   3.246   2.892
    3OL     C1417109   5.135   3.330   2.890
    3OL     H4R17110   5.085   3.234   2.904
    3OL     H4S17111   5.075   3.389   2.821
    3OL     C1517112   5.149   3.408   3.021
    3OL     H5R17113   5.192   3.500   2.985
    3OL     H5S17114   5.217   3.372   3.098
    3OL     C1617115   5.011   3.434   3.082
    3OL     H6R17116   4.972   3.337   3.116
    3OL     H6S17117   4.937   3.464   3.008
    3OL     C1717118   5.014   3.540   3.192
    3OL     H7R17119   4.910   3.557   3.218
    3OL     H7S17120   5.058   3.631   3.151
    3OL     C1817121   5.081   3.495   3.323
    3OL     H8R17122   5.096   3.585   3.383
    3OL     H8S17123   5.182   3.459   3.301
    3OL     C1917124   4.995   3.389   3.386
    3OL     H9R17125   4.959   3.313   3.318
    3OL    C11017126   4.954   3.397   3.512
    3OL    H10R17127   4.883   3.325   3.553
    3OL    C11117128   5.007   3.495   3.612
    3OL    H11R17129   4.977   3.595   3.581
    3OL    H11S17130   5.116   3.497   3.616
    3OL    C11217131   4.942   3.463   3.747
    3OL    H12R17132   4.983   3.374   3.793
    3OL    H12S17133   4.833   3.452   3.740
    3OL    C11317134   4.973   3.568   3.854
    3OL    H13R17135   4.941   3.667   3.819
    3OL    H13S17136   5.082   3.577   3.849
    3OL    C11417137   4.925   3.545   3.998
    3OL    H14R17138   4.979   3.454   4.017
    3OL    H14S17139   4.816   3.535   3.993
    3OL    C11517140   4.965   3.662   4.089
    3OL    H15R17141   4.907   3.751   4.062
    3OL    H15S17142   5.072   3.685   4.078
    3OL    C11617143   4.931   3.642   4.237
    3OL    H16R17144   4.992   3.711   4.296
    3OL    H16S17145   4.965   3.546   4.277
    3OL    C11717146   4.781   3.657   4.264
    3OL    H17R17147   4.722   3.588   4.204
    3OL    H17S17148   4.744   3.755   4.233
    3OL    C11817149   4.740   3.630   4.410
    3OL    H18R17150   4.741   3.522   4.424
    3OL    H18S17151   4.644   3.674   4.435
    3OL    H18T17152   4.818   3.674   4.472
    4SOL     OW17153   6.098   3.042   0.359
    4SOL    HW117154   6.123   3.132   0.338
    4SOL    HW217155   6.128   2.991   0.284
    5SOL     OW17156   2.131   0.162   1.913
    5SOL    HW117157   2.138   0.097   1.984
    5SOL    HW217158   2.093   0.113   1.840
    6SOL     OW17159   3.852   6.270   0.605
    6SOL    HW117160   3.766   6.228   0.598
    6SOL    HW217161   3.860   6.320   0.524
    7SOL     OW17162   1.944   4.585   5.103
    7SOL    HW117163   1.857   4.612   5.131
    7SOL    HW217164   1.932   4.556   5.012
    8SOL     OW17165   2.350   3.786   0.298
    8SOL    HW117166   2.363   3.696   0.328
    8SOL    HW217167   2.278   3.780   0.236
    9SOL     OW17168   2.806   3.263   0.213
    9SOL    HW117169   2.793   3.291   0.304
    9SOL    HW217170   2.888   3.305   0.186
   10SOL     OW17171   3.016   6.408   7.305
   10SOL    HW117172   2.960   6.469   7.257
   10SOL    HW217173   3.042   6.343   7.240
   11SOL     OW17174   0.502   0.066   6.906
   11SOL    HW117175   0.459  -0.013   6.874
   11SOL    HW217176   0.494   0.129   6.834
   12SOL     OW17177   3.288   4.256   5.203
   12SOL    HW117178   3.327   4.309   5.273
   12SOL    HW217179   3.198   4.288   5.197
   13SOL     OW17180   3.093   6.323   0.127
   13SOL    HW117181   2.998   6.332   0.117
   13SOL    HW217182   3.118   6.392   0.188
   14SOL     OW17183   2.443   4.414   7.212
   14SOL    HW117184   2.427   4.469   7.288
   14SOL    HW217185   2.521   4.364   7.234
   15SOL     OW17186   2.970   2.705   7.692
   15SOL    HW117187   2.902   2.641   7.668
   15SOL    HW217188   2.929   2.790   7.677
   16SOL     OW17189   2.425   6.168   6.075
   16SOL    HW117190   2.486   6.179   6.003
   16SOL    HW217191   2.350   6.222   6.052
   17SOL     OW17192   0.666   4.475   6.487
   17SOL    HW117193   0.686   4.551   6.432
   17SOL    HW217194   0.682   4.400   6.430
   18SOL     OW17195   0.831   3.892   7.369
   18SOL    HW117196   0.849   3.927   7.456
   18SOL    HW217197   0.759   3.946   7.336
   19SOL     OW17198   2.534   1.260   6.486
   19SOL    HW117199   2.590   1.207   6.429
   19SOL    HW217200   2.469   1.198   6.519
   20SOL     OW17201   3.973   0.561   6.661
   20SOL    HW117202   3.884   0.585   6.634
   20SOL    HW217203   3.987   0.475   6.623
   21SOL     OW17204   0.909   3.539   0.474
   21SOL    HW117205   0.839   3.476   0.488
   21SOL    HW217206   0.984   3.487   0.447
   22SOL     OW17207   4.423   4.641   7.215
   22SOL    HW117208   4.457   4.558   7.184
   22SOL    HW217209   4.333   4.622   7.242
   23SOL     OW17210   4.759   5.039   0.931
   23SOL    HW117211   4.686   4.980   0.950
   23SOL    HW217212   4.737   5.078   0.847
   24SOL     OW17213   6.192   2.737   1.559
   24SOL    HW117214   6.135   2.670   1.596
   24SOL    HW217215   6.272   2.689   1.536
   25SOL     OW17216   4.099   0.404   6.446
   25SOL    HW117217   4.062   0.338   6.387
   25SOL    HW217218   4.157   0.355   6.504
   26SOL     OW17219   1.873   1.178   5.873
   26SOL    HW117220   1.887   1.090   5.838
   26SOL    HW217221   1.832   1.226   5.801
   27SOL     OW17222   2.402   5.500   1.097
   27SOL    HW117223   2.462   5.521   1.169
   27SOL    HW217224   2.345   5.433   1.133
   28SOL     OW17225   4.096   2.630   7.064
   28SOL    HW117226   4.121   2.603   6.976
   28SOL    HW217227   4.058   2.552   7.104
   29SOL     OW17228   3.487   5.206   5.902
   29SOL    HW117229   3.528   5.146   5.840
   29SOL    HW217230   3.559   5.259   5.935
   30SOL     OW17231   4.688   5.696   1.724
   30SOL    HW117232   4.623   5.729   1.661
   30SOL    HW217233   4.636   5.647   1.788
   31SOL     OW17234   3.688   3.663   6.772
   31SOL    HW117235   3.658   3.754   6.776
   31SOL    HW217236   3.620   3.613   6.817
   32SOL     OW17237   4.836   0.421   7.372
   32SOL    HW117238   4.844   0.483   7.445
   32SOL    HW217239   4.819   0.477   7.296
   33SOL     OW17240   2.144   0.493   1.237
   33SOL    HW117241   2.157   0.587   1.223
   33SOL    HW217242   2.231   0.456   1.236
   34SOL     OW17243   5.688   3.624   2.219
   34SOL    HW117244   5.592   3.632   2.222
   34SOL    HW217245   5.718   3.670   2.298
   35SOL     OW17246   5.007   2.064   0.828
   35SOL    HW117247   5.013   2.092   0.920
   35SOL    HW217248   4.917   2.086   0.803
   36SOL     OW17249   1.338   0.640   6.109
   36SOL    HW117250   1.401   0.617   6.040
   36SOL    HW217251   1.354   0.734   6.124
   37SOL     OW17252   0.372   4.737   2.070
   37SOL    HW117253   0.353   4.783   1.988
   37SOL    HW217254   0.286   4.726   2.111
   38SOL     OW17255   0.393   5.349   7.200
   38SOL    HW117256   0.382   5.373   7.108
   38SOL    HW217257   0.322   5.287   7.217
   39SOL     OW17258   2.308   2.712   1.712
   39SOL    HW117259   2.322   2.800   1.677
   39SOL    HW217260   2.393   2.686   1.747
   40SOL     OW17261   4.545   0.247   1.146
   40SOL    HW117262   4.524   0.327   1.194
   40SOL    HW217263   4.467   0.228   1.095
   41SOL     OW17264   1.059   4.873   1.011
   41SOL    HW117265   1.155   4.877   1.006
   41SOL    HW217266   1.030   4.961   0.987
   42SOL     OW17267   1.251   2.395   6.363
   42SOL    HW117268   1.171   2.353   6.395
   42SOL    HW217269   1.266   2.355   6.278
   43SOL     OW17270   5.800   0.743   0.340
   43SOL    HW117271   5.851   0.824   0.331
   43SOL    HW217272   5.798   0.706   0.252
   44SOL     OW17273   4.967   3.757   2.385
   44SOL    HW117274   4.929   3.841   2.412
   44SOL    HW217275   5.058   3.778   2.364
   45SOL     OW17276   4.194   5.846   7.166
   45SOL    HW117277   4.184   5.877   7.256
   45SOL    HW217278   4.105   5.847   7.130
   46SOL     OW17279   3.849   3.505   0.377
   46SOL    HW117280   3.863   3.434   0.315
   46SOL    HW217281   3.935   3.544   0.389
   47SOL     OW17282   5.972   3.681   5.873
   47SOL    HW117283   5.902   3.618   5.892
   47SOL    HW217284   5.999   3.713   5.958
   48SOL     OW17285   5.942   0.260   1.409
   48SOL    HW117286   5.939   0.355   1.419
   48SOL    HW217287   6.000   0.245   1.335
   49SOL     OW17288   6.162   6.021   1.176
   49SOL    HW117289   6.154   5.942   1.230
   49SOL    HW217290   6.191   5.989   1.091
   50SOL     OW17291   5.167   2.349   6.429
   50SOL    HW117292   5.188   2.256   6.438
   50SOL    HW217293   5.105   2.353   6.356
   51SOL     OW17294   5.847   6.265   5.439
   51SOL    HW117295   5.817   6.344   5.484
   51SOL    HW217296   5.931   6.290   5.400
   52SOL     OW17297   3.602   0.315   5.698
   52SOL    HW117298   3.573   0.225   5.683
   52SOL    HW217299   3.557   0.342   5.779
   53SOL     OW17300   0.476   5.330   2.029
   53SOL    HW117301   0.538   5.285   1.971
   53SOL    HW217302   0.394   5.282   2.018
   54SOL     OW17303   1.216   6.255   0.868
   54SOL    HW117304   1.224   6.301   0.952
   54SOL    HW217305   1.287   6.192   0.868
   55SOL     OW17306   0.809   0.641   1.614
   55SOL    HW117307   0.827   0.622   1.706
   55SOL    HW217308   0.736   0.703   1.617
   56SOL     OW17309   2.573   2.163   7.147
   56SOL    HW117310   2.640   2.230   7.159
   56SOL    HW217311   2.490   2.212   7.142
   57SOL     OW17312   4.318   1.179   0.649
   57SOL    HW117313   4.239   1.125   0.646
   57SOL    HW217314   4.309   1.230   0.729
   58SOL     OW17315   6.082   2.877   6.002
   58SOL    HW117316   6.105   2.843   5.915
   58SOL    HW217317   5.996   2.840   6.020
   59SOL     OW17318   2.506   5.179   1.841
   59SOL    HW117319   2.563   5.145   1.772
   59SOL    HW217320   2.418   5.160   1.810
   60SOL     OW17321   6.200   1.912   0.455
   60SOL    HW117322   6.109   1.918   0.484
   60SOL    HW217323   6.199   1.842   0.389
   61SOL     OW17324   1.130   6.132   0.055
   61SOL    HW117325   1.146   6.151   0.147
   61SOL    HW217326   1.150   6.038   0.047
   62SOL     OW17327   1.526   0.948   7.160
   62SOL    HW117328   1.491   0.868   7.121
   62SOL    HW217329   1.597   0.918   7.216
   63SOL     OW17330   0.246   0.867   0.167
   63SOL    HW117331   0.245   0.963   0.173
   63SOL    HW217332   0.303   0.840   0.239
   64SOL     OW17333   3.374   0.457   1.553
   64SOL    HW117334   3.453   0.478   1.603
   64SOL    HW217335   3.343   0.374   1.589
   65SOL     OW17336   2.150   1.931   7.160
   65SOL    HW117337   2.110   2.016   7.145
   65SOL    HW217338   2.224   1.950   7.217
   66SOL     OW17339   0.402   4.255   1.792
   66SOL    HW117340   0.411   4.170   1.747
   66SOL    HW217341   0.394   4.318   1.721
   67SOL     OW17342   2.550   2.550   1.559
   67SOL    HW117343   2.571   2.592   1.642
   67SOL    HW217344   2.513   2.465   1.583
   68SOL     OW17345   0.587   5.844   0.914
   68SOL    HW117346   0.573   5.759   0.956
   68SOL    HW217347   0.623   5.899   0.983
   69SOL     OW17348   0.499   1.243   0.376
   69SOL    HW117349   0.584   1.257   0.418
   69SOL    HW217350   0.445   1.316   0.405
   70SOL     OW17351   0.300   2.340   0.052
   70SOL    HW117352   0.279   2.284   0.127
   70SOL    HW217353   0.395   2.347   0.053
   71SOL     OW17354   6.365   4.603   1.244
   71SOL    HW117355   6.415   4.651   1.311
   71SOL    HW217356   6.396   4.513   1.251
   72SOL     OW17357   1.991   1.453   7.161
   72SOL    HW117358   1.934   1.484   7.231
   72SOL    HW217359   1.958   1.495   7.082
   73SOL     OW17360   5.082   4.017   6.306
   73SOL    HW117361   5.157   4.028   6.247
   73SOL    HW217362   5.008   4.004   6.247
   74SOL     OW17363   3.198   0.976   0.970
   74SOL    HW117364   3.184   0.956   1.062
   74SOL    HW217365   3.167   1.067   0.960
   75SOL     OW17366   5.706   5.757   5.526
   75SOL    HW117367   5.681   5.666   5.545
   75SOL    HW217368   5.642   5.810   5.575
   76SOL     OW17369   0.362   3.866   6.903
   76SOL    HW117370   0.378   3.958   6.882
   76SOL    HW217371   0.425   3.846   6.973
   77SOL     OW17372   2.284   4.227   6.857
   77SOL    HW117373   2.275   4.154   6.918
   77SOL    HW217374   2.375   4.255   6.867
   78SOL     OW17375   6.055   1.352   6.637
   78SOL    HW117376   5.976   1.374   6.687
   78SOL    HW217377   6.121   1.415   6.667
   79SOL     OW17378   3.724   3.428   1.409
   79SOL    HW117379   3.648   3.428   1.350
   79SOL    HW217380   3.775   3.351   1.381
   80SOL     OW17381   2.319   2.577   0.940
   80SOL    HW117382   2.383   2.510   0.963
   80SOL    HW217383   2.350   2.613   0.857
   81SOL     OW17384   0.965   3.868   6.072
   81SOL    HW117385   0.986   3.800   6.007
   81SOL    HW217386   0.905   3.824   6.132
   82SOL     OW17387   6.061   5.786   0.214
   82SOL    HW117388   6.079   5.859   0.274
   82SOL    HW217389   6.097   5.815   0.130
   83SOL     OW17390   1.995   4.192   1.137
   83SOL    HW117391   1.995   4.274   1.186
   83SOL    HW217392   2.073   4.196   1.082
   84SOL     OW17393   0.621   0.083   0.170
   84SOL    HW117394   0.692   0.140   0.197
   84SOL    HW217395   0.594   0.117   0.084
   85SOL     OW17396   3.704   2.394   0.473
   85SOL    HW117397   3.609   2.400   0.484
   85SOL    HW217398   3.736   2.366   0.559
   86SOL     OW17399   5.118   3.810   7.446
   86SOL    HW117400   5.199   3.763   7.467
   86SOL    HW217401   5.086   3.767   7.366
   87SOL     OW17402   2.890   6.432   1.475
   87SOL    HW117403   2.855   6.500   1.534
   87SOL    HW217404   2.963   6.474   1.431
   88SOL     OW17405   0.538   4.571   1.801
   88SOL    HW117406   0.586   4.637   1.751
   88SOL    HW217407   0.467   4.544   1.744
   89SOL     OW17408   2.752   5.766   6.623
   89SOL    HW117409   2.724   5.687   6.577
   89SOL    HW217410   2.811   5.810   6.561
   90SOL     OW17411   0.703   6.377   5.832
   90SOL    HW117412   0.777   6.435   5.848
   90SOL    HW217413   0.668   6.405   5.748
   91SOL     OW17414   2.299   2.532   0.572
   91SOL    HW117415   2.242   2.501   0.642
   91SOL    HW217416   2.254   2.507   0.492
   92SOL     OW17417   0.662   5.277   1.825
   92SOL    HW117418   0.687   5.185   1.830
   92SOL    HW217419   0.614   5.285   1.742
   93SOL     OW17420   4.002   2.094   7.217
   93SOL    HW117421   4.096   2.082   7.199
   93SOL    HW217422   3.975   2.012   7.257
   94SOL     OW17423   1.085   3.012   0.970
   94SOL    HW117424   1.013   3.057   0.926
   94SOL    HW217425   1.043   2.940   1.018
   95SOL     OW17426   4.041   1.121   7.429
   95SOL    HW117427   4.052   1.192   7.366
   95SOL    HW217428   4.001   1.162   7.506
   96SOL     OW17429   2.041   0.582   6.820
   96SOL    HW117430   1.984   0.656   6.839
   96SOL    HW217431   2.098   0.612   6.750
   97SOL     OW17432   0.739   5.393   7.627
   97SOL    HW117433   0.676   5.444   7.677
   97SOL    HW217434   0.730   5.304   7.661
   98SOL     OW17435   6.391   3.950   0.031
   98SOL    HW117436   6.475   3.984  -0.001
   98SOL    HW217437   6.349   3.913  -0.047
   99SOL     OW17438   0.582   3.187   6.346
   99SOL    HW117439   0.594   3.214   6.437
   99SOL    HW217440   0.509   3.240   6.314
  100SOL     OW17441   1.740   2.669   0.160
  100SOL    HW117442   1.754   2.670   0.255
  100SOL    HW217443   1.669   2.606   0.148
  101SOL     OW17444   3.025   6.211   1.311
  101SOL    HW117445   3.013   6.142   1.377
  101SOL    HW217446   2.949   6.267   1.321
  102SOL     OW17447   5.971   6.339   1.957
  102SOL    HW117448   5.954   6.266   2.017
  102SOL    HW217449   5.884   6.361   1.922
  103SOL     OW17450   3.339   3.789   0.791
  103SOL    HW117451   3.263   3.763   0.739
  103SOL    HW217452   3.410   3.796   0.728
  104SOL     OW17453   4.515   6.375   1.436
  104SOL    HW117454   4.451   6.438   1.403
  104SOL    HW217455   4.600   6.413   1.413
  105SOL     OW17456   5.604   0.077   2.637
  105SOL    HW117457   5.654   0.054   2.559
  105SOL    HW217458   5.648   0.155   2.672
  106SOL     OW17459   2.708   1.009   1.685
  106SOL    HW117460   2.637   1.062   1.650
  106SOL    HW217461   2.761   1.070   1.736
  107SOL     OW17462   6.130   3.985   6.657
  107SOL    HW117463   6.089   3.988   6.570
  107SOL    HW217464   6.171   3.899   6.661
  108SOL     OW17465   2.061   6.407   6.550
  108SOL    HW117466   2.027   6.376   6.466
  108SOL    HW217467   2.004   6.366   6.615
  109SOL     OW17468   5.773   0.953   5.736
  109SOL    HW117469   5.794   0.861   5.751
  109SOL    HW217470   5.770   0.991   5.824
  110SOL     OW17471   5.356   3.472   0.044
  110SOL    HW117472   5.349   3.407   0.113
  110SOL    HW217473   5.449   3.495   0.040
  111SOL     OW17474   2.066   1.376   6.563
  111SOL    HW117475   2.099   1.308   6.504
  111SOL    HW217476   1.980   1.344   6.590
  112SOL     OW17477   5.044   0.216   6.353
  112SOL    HW117478   4.999   0.239   6.434
  112SOL    HW217479   4.974   0.192   6.292
  113SOL     OW17480   2.530   3.251   5.717
  113SOL    HW117481   2.595   3.261   5.647
  113SOL    HW217482   2.500   3.340   5.734
  114SOL     OW17483   6.291   3.842   5.446
  114SOL    HW117484   6.255   3.757   5.420
  114SOL    HW217485   6.236   3.906   5.402
  115SOL     OW17486   3.330   0.103   7.080
  115SOL    HW117487   3.334   0.014   7.045
  115SOL    HW217488   3.334   0.091   7.175
  116SOL     OW17489   0.532   1.478   0.834
  116SOL    HW117490   0.529   1.388   0.868
  116SOL    HW217491   0.623   1.504   0.846
  117SOL     OW17492   4.117   0.608   0.042
  117SOL    HW117493   4.088   0.693   0.073
  117SOL    HW217494   4.056   0.546   0.082
  118SOL     OW17495   0.850   5.967   7.489
  118SOL    HW117496   0.896   5.884   7.476
  118SOL    HW217497   0.842   5.975   7.584
  119SOL     OW17498   2.796   1.882   7.348
  119SOL    HW117499   2.890   1.886   7.330
  119SOL    HW217500   2.783   1.795   7.386
  120SOL     OW17501   4.885   4.717   1.160
  120SOL    HW117502   4.793   4.690   1.156
  120SOL    HW217503   4.931   4.640   1.193
  121SOL     OW17504   1.110   1.794   1.746
  121SOL    HW117505   1.063   1.859   1.798
  121SOL    HW217506   1.196   1.789   1.786
  122SOL     OW17507   4.092   5.512   1.139
  122SOL    HW117508   4.103   5.491   1.046
  122SOL    HW217509   4.165   5.468   1.182
  123SOL     OW17510   1.660   3.910   0.922
  123SOL    HW117511   1.731   3.863   0.966
  123SOL    HW217512   1.621   3.845   0.864
  124SOL     OW17513   3.651   5.988   6.498
  124SOL    HW117514   3.631   5.974   6.590
  124SOL    HW217515   3.685   6.078   6.494
  125SOL     OW17516   2.409   4.088   1.256
  125SOL    HW117517   2.341   4.119   1.316
  125SOL    HW217518   2.390   3.995   1.243
  126SOL     OW17519   0.543   1.073   7.393
  126SOL    HW117520   0.605   1.088   7.322
  126SOL    HW217521   0.458   1.068   7.350
  127SOL     OW17522   4.104   0.153   1.981
  127SOL    HW117523   4.121   0.069   1.938
  127SOL    HW217524   4.151   0.148   2.064
  128SOL     OW17525   2.658   1.733   2.133
  128SOL    HW117526   2.674   1.641   2.114
  128SOL    HW217527   2.745   1.771   2.143
  129SOL     OW17528   6.388   4.861   6.290
  129SOL    HW117529   6.458   4.898   6.344
  129SOL    HW217530   6.403   4.766   6.292
  130SOL     OW17531   2.012   1.576   0.406
  130SOL    HW117532   1.960   1.501   0.377
  130SOL    HW217533   1.980   1.649   0.353
  131SOL     OW17534   4.859   5.915   7.136
  131SOL    HW117535   4.876   5.987   7.197
  131SOL    HW217536   4.925   5.925   7.068
  132SOL     OW17537   4.965   5.280   0.298
  132SOL    HW117538   4.921   5.234   0.370
  132SOL    HW217539   5.006   5.355   0.340
  133SOL     OW17540   2.219   5.482   7.507
  133SOL    HW117541   2.286   5.529   7.557
  133SOL    HW217542   2.190   5.412   7.565
  134SOL     OW17543   2.646   4.736   6.147
  134SOL    HW117544   2.680   4.816   6.187
  134SOL    HW217545   2.691   4.731   6.062
  135SOL     OW17546   4.618   0.341   5.830
  135SOL    HW117547   4.632   0.415   5.889
  135SOL    HW217548   4.696   0.287   5.841
  136SOL     OW17549   1.809   4.444   1.305
  136SOL    HW117550   1.904   4.445   1.292
  136SOL    HW217551   1.774   4.488   1.226
  137SOL     OW17552   5.789   2.989   6.642
  137SOL    HW117553   5.769   3.019   6.730
  137SOL    HW217554   5.872   2.941   6.650
  138SOL     OW17555   6.268   4.911   1.164
  138SOL    HW117556   6.213   4.852   1.112
  138SOL    HW217557   6.348   4.860   1.180
  139SOL     OW17558   4.999   0.902   6.972
  139SOL    HW117559   5.067   0.841   6.998
  139SOL    HW217560   5.045   0.985   6.957
  140SOL     OW17561   2.879   5.996   5.628
  140SOL    HW117562   2.965   5.972   5.592
  140SOL    HW217563   2.836   5.913   5.646
  141SOL     OW17564   1.669   6.358   0.290
  141SOL    HW117565   1.757   6.380   0.260
  141SOL    HW217566   1.682   6.314   0.374
  142SOL     OW17567   0.923   0.743   1.330
  142SOL    HW117568   0.891   0.667   1.282
  142SOL    HW217569   0.980   0.788   1.268
  143SOL     OW17570   3.506   2.920   0.613
  143SOL    HW117571   3.595   2.886   0.601
  143SOL    HW217572   3.498   2.933   0.707
  144SOL     OW17573   1.760   1.502   7.302
  144SOL    HW117574   1.778   1.497   7.396
  144SOL    HW217575   1.742   1.595   7.286
  145SOL     OW17576   2.871   2.247   6.766
  145SOL    HW117577   2.928   2.241   6.690
  145SOL    HW217578   2.826   2.331   6.756
  146SOL     OW17579   2.836   3.311   7.332
  146SOL    HW117580   2.920   3.356   7.340
  146SOL    HW217581   2.817   3.279   7.420
  147SOL     OW17582   0.806   1.046   0.149
  147SOL    HW117583   0.712   1.035   0.158
  147SOL    HW217584   0.840   1.031   0.238
  148SOL     OW17585   1.950   0.150   0.739
  148SOL    HW117586   1.894   0.076   0.764
  148SOL    HW217587   2.039   0.121   0.760
  149SOL     OW17588   4.516   1.195   5.998
  149SOL    HW117589   4.487   1.277   6.039
  149SOL    HW217590   4.575   1.223   5.928
  150SOL     OW17591   3.286   2.808   0.455
  150SOL    HW117592   3.359   2.840   0.509
  150SOL    HW217593   3.223   2.880   0.456
  151SOL     OW17594   3.145   3.178   5.547
  151SOL    HW117595   3.129   3.237   5.621
  151SOL    HW217596   3.223   3.129   5.573
  152SOL     OW17597   5.101   0.419   1.921
  152SOL    HW117598   5.189   0.455   1.905
  152SOL    HW217599   5.101   0.335   1.874
  153SOL     OW17600   2.950   0.887   0.786
  153SOL    HW117601   2.962   0.974   0.749
  153SOL    HW217602   2.892   0.900   0.861
  154SOL     OW17603   0.372   3.399   7.682
  154SOL    HW117604   0.389   3.480   7.728
  154SOL    HW217605   0.287   3.370   7.716
  155SOL     OW17606   2.547   1.177   7.749
  155SOL    HW117607   2.525   1.088   7.722
  155SOL    HW217608   2.614   1.167   7.816
  156SOL     OW17609   4.486   6.003   6.405
  156SOL    HW117610   4.453   6.072   6.347
  156SOL    HW217611   4.469   6.035   6.493
  157SOL     OW17612   3.357   3.757   1.181
  157SOL    HW117613   3.302   3.725   1.253
  157SOL    HW217614   3.374   3.680   1.128
  158SOL     OW17615   0.850   5.919   5.511
  158SOL    HW117616   0.927   5.878   5.550
  158SOL    HW217617   0.885   5.992   5.459
  159SOL     OW17618   3.860   2.356   7.707
  159SOL    HW117619   3.884   2.441   7.745
  159SOL    HW217620   3.943   2.313   7.690
  160SOL     OW17621   6.184   0.841   1.015
  160SOL    HW117622   6.218   0.830   0.926
  160SOL    HW217623   6.199   0.934   1.035
  161SOL     OW17624   2.107   1.191   0.555
  161SOL    HW117625   2.068   1.105   0.572
  161SOL    HW217626   2.185   1.193   0.610
  162SOL     OW17627   3.009   2.883   7.341
  162SOL    HW117628   3.057   2.966   7.342
  162SOL    HW217629   3.053   2.830   7.275
  163SOL     OW17630   2.729   1.272   0.153
  163SOL    HW117631   2.668   1.344   0.143
  163SOL    HW217632   2.807   1.300   0.105
  164SOL     OW17633   4.302   5.329   1.226
  164SOL    HW117634   4.335   5.245   1.194
  164SOL    HW217635   4.241   5.305   1.296
  165SOL     OW17636   5.106   4.632   0.501
  165SOL    HW117637   5.192   4.593   0.490
  165SOL    HW217638   5.096   4.643   0.596
  166SOL     OW17639   1.062   2.199   1.922
  166SOL    HW117640   1.150   2.168   1.943
  166SOL    HW217641   1.017   2.123   1.886
  167SOL     OW17642   1.136   0.639   5.528
  167SOL    HW117643   1.122   0.681   5.443
  167SOL    HW217644   1.050   0.639   5.569
  168SOL     OW17645   6.394   6.265   2.221
  168SOL    HW117646   6.304   6.260   2.188
  168SOL    HW217647   6.430   6.178   2.205
  169SOL     OW17648   1.110   5.765   0.313
  169SOL    HW117649   1.064   5.846   0.335
  169SOL    HW217650   1.196   5.774   0.354
  170SOL     OW17651   0.371   1.174   0.686
  170SOL    HW117652   0.417   1.094   0.713
  170SOL    HW217653   0.440   1.233   0.656
  171SOL     OW17654   6.056   1.810   6.890
  171SOL    HW117655   6.029   1.816   6.799
  171SOL    HW217656   6.130   1.871   6.897
  172SOL     OW17657   2.003   6.302   6.875
  172SOL    HW117658   2.039   6.314   6.963
  172SOL    HW217659   2.044   6.221   6.844
  173SOL     OW17660   3.037   3.385   0.105
  173SOL    HW117661   3.083   3.459   0.143
  173SOL    HW217662   3.036   3.404   0.011
  174SOL     OW17663   0.152   5.588   0.528
  174SOL    HW117664   0.203   5.518   0.568
  174SOL    HW217665   0.204   5.667   0.543
  175SOL     OW17666   3.408   0.566   5.801
  175SOL    HW117667   3.385   0.574   5.709
  175SOL    HW217668   3.363   0.487   5.832
  176SOL     OW17669   6.147   3.260   7.123
  176SOL    HW117670   6.173   3.175   7.160
  176SOL    HW217671   6.205   3.271   7.047
  177SOL     OW17672   2.949   2.417   1.787
  177SOL    HW117673   2.891   2.493   1.796
  177SOL    HW217674   3.017   2.432   1.853
  178SOL     OW17675   1.933   0.769   7.547
  178SOL    HW117676   1.948   0.821   7.626
  178SOL    HW217677   1.939   0.678   7.577
  179SOL     OW17678   2.762   4.281   0.887
  179SOL    HW117679   2.818   4.212   0.851
  179SOL    HW217680   2.819   4.358   0.893
  180SOL     OW17681   4.979   2.001   7.558
  180SOL    HW117682   4.937   1.955   7.631
  180SOL    HW217683   5.043   1.938   7.525
  181SOL     OW17684   2.089   2.766   6.764
  181SOL    HW117685   2.032   2.829   6.809
  181SOL    HW217686   2.067   2.775   6.671
  182SOL     OW17687   1.623   0.379   0.490
  182SOL    HW117688   1.588   0.467   0.475
  182SOL    HW217689   1.602   0.331   0.409
  183SOL     OW17690   6.082   2.946   0.619
  183SOL    HW117691   6.078   2.982   0.531
  183SOL    HW217692   6.029   3.005   0.672
  184SOL     OW17693   4.272   1.970   1.611
  184SOL    HW117694   4.252   1.876   1.605
  184SOL    HW217695   4.252   1.993   1.702
  185SOL     OW17696   1.104   4.788   1.695
  185SOL    HW117697   1.087   4.826   1.781
  185SOL    HW217698   1.060   4.703   1.697
  186SOL     OW17699   2.345   4.744   0.678
  186SOL    HW117700   2.433   4.781   0.674
  186SOL    HW217701   2.291   4.813   0.716
  187SOL     OW17702   4.893   3.987   5.834
  187SOL    HW117703   4.830   4.050   5.799
  187SOL    HW217704   4.963   3.984   5.769
  188SOL     OW17705   0.566   0.899   6.176
  188SOL    HW117706   0.646   0.889   6.123
  188SOL    HW217707   0.497   0.861   6.122
  189SOL     OW17708   0.163   6.053   6.561
  189SOL    HW117709   0.218   6.100   6.498
  189SOL    HW217710   0.124   5.982   6.509
  190SOL     OW17711   4.179   4.658   6.492
  190SOL    HW117712   4.198   4.565   6.481
  190SOL    HW217713   4.127   4.682   6.415
  191SOL     OW17714   6.043   3.557   6.672
  191SOL    HW117715   6.112   3.619   6.697
  191SOL    HW217716   6.069   3.527   6.585
  192SOL     OW17717   2.689   0.804   1.871
  192SOL    HW117718   2.754   0.749   1.828
  192SOL    HW217719   2.697   0.889   1.827
  193SOL     OW17720   5.099   4.662   7.042
  193SOL    HW117721   5.185   4.635   7.073
  193SOL    HW217722   5.113   4.685   6.950
  194SOL     OW17723   3.162   4.631   1.185
  194SOL    HW117724   3.195   4.606   1.272
  194SOL    HW217725   3.099   4.702   1.203
  195SOL     OW17726   6.127   2.574   6.686
  195SOL    HW117727   6.055   2.516   6.660
  195SOL    HW217728   6.114   2.589   6.780
  196SOL     OW17729   4.556   2.373   1.918
  196SOL    HW117730   4.636   2.396   1.966
  196SOL    HW217731   4.522   2.298   1.967
  197SOL     OW17732   0.910   5.452   1.904
  197SOL    HW117733   0.828   5.408   1.881
  197SOL    HW217734   0.979   5.390   1.879
  198SOL     OW17735   4.953   5.107   1.421
  198SOL    HW117736   5.043   5.085   1.445
  198SOL    HW217737   4.960   5.194   1.380
  199SOL     OW17738   1.252   1.183   0.244
  199SOL    HW117739   1.212   1.270   0.243
  199SOL    HW217740   1.328   1.192   0.302
  200SOL     OW17741   1.070   1.355   6.549
  200SOL    HW117742   1.049   1.287   6.613
  200SOL    HW217743   1.104   1.307   6.474
  201SOL     OW17744   1.249   6.286   1.158
  201SOL    HW117745   1.233   6.379   1.174
  201SOL    HW217746   1.273   6.251   1.243
  202SOL     OW17747   2.151   5.963   7.427
  202SOL    HW117748   2.220   5.911   7.468
  202SOL    HW217749   2.098   5.899   7.381
  203SOL     OW17750   5.749   5.649   0.991
  203SOL    HW117751   5.724   5.563   1.023
  203SOL    HW217752   5.819   5.633   0.928
  204SOL     OW17753   0.312   3.205   1.090
  204SOL    HW117754   0.252   3.149   1.140
  204SOL    HW217755   0.270   3.214   1.005
  205SOL     OW17756   1.994   3.500   0.742
  205SOL    HW117757   2.083   3.532   0.726
  205SOL    HW217758   1.998   3.460   0.829
  206SOL     OW17759   5.123   1.965   1.564
  206SOL    HW117760   5.103   1.991   1.654
  206SOL    HW217761   5.087   1.876   1.557
  207SOL     OW17762   0.256   3.821   0.102
  207SOL    HW117763   0.162   3.810   0.086
  207SOL    HW217764   0.267   3.798   0.194
  208SOL     OW17765   2.592   1.914   7.175
  208SOL    HW117766   2.653   1.905   7.249
  208SOL    HW217767   2.587   2.008   7.159
  209SOL     OW17768   1.746   0.698   1.271
  209SOL    HW117769   1.657   0.661   1.278
  209SOL    HW217770   1.801   0.622   1.253
  210SOL     OW17771   3.143   4.556   0.790
  210SOL    HW117772   3.206   4.580   0.858
  210SOL    HW217773   3.197   4.538   0.713
  211SOL     OW17774   6.186   6.016   5.654
  211SOL    HW117775   6.201   6.041   5.745
  211SOL    HW217776   6.124   5.943   5.659
  212SOL     OW17777   3.977   4.591   0.534
  212SOL    HW117778   3.933   4.623   0.455
  212SOL    HW217779   4.070   4.603   0.516
  213SOL     OW17780   5.532   1.051   1.491
  213SOL    HW117781   5.578   1.092   1.565
  213SOL    HW217782   5.452   1.016   1.529
  214SOL     OW17783   4.755   0.038   1.411
  214SOL    HW117784   4.795   0.097   1.346
  214SOL    HW217785   4.801   0.058   1.492
  215SOL     OW17786   4.075   2.595   0.686
  215SOL    HW117787   4.003   2.564   0.631
  215SOL    HW217788   4.111   2.515   0.725
  216SOL     OW17789   1.248   4.522   6.906
  216SOL    HW117790   1.340   4.516   6.934
  216SOL    HW217791   1.251   4.504   6.812
  217SOL     OW17792   1.253   5.377   0.544
  217SOL    HW117793   1.310   5.302   0.563
  217SOL    HW217794   1.274   5.399   0.453
  218SOL     OW17795   0.550   6.282   0.080
  218SOL    HW117796   0.625   6.237   0.043
  218SOL    HW217797   0.585   6.366   0.111
  219SOL     OW17798   4.761   1.496   7.398
  219SOL    HW117799   4.675   1.473   7.362
  219SOL    HW217800   4.805   1.412   7.410
  220SOL     OW17801   5.533   5.554   0.732
  220SOL    HW117802   5.601   5.498   0.693
  220SOL    HW217803   5.567   5.643   0.725
  221SOL     OW17804   0.193   2.327   6.643
  221SOL    HW117805   0.217   2.369   6.726
  221SOL    HW217806   0.275   2.293   6.609
  222SOL     OW17807   2.716   6.434   7.156
  222SOL    HW117808   2.717   6.448   7.062
  222SOL    HW217809   2.767   6.506   7.192
  223SOL     OW17810   2.702   2.786   6.638
  223SOL    HW117811   2.646   2.852   6.678
  223SOL    HW217812   2.723   2.822   6.551
  224SOL     OW17813   3.992   0.800   0.647
  224SOL    HW117814   4.026   0.749   0.721
  224SOL    HW217815   4.065   0.802   0.585
  225SOL     OW17816   4.521   3.243   7.174
  225SOL    HW117817   4.489   3.216   7.260
  225SOL    HW217818   4.561   3.164   7.138
  226SOL     OW17819   5.931   4.493   0.543
  226SOL    HW117820   5.860   4.515   0.482
  226SOL    HW217821   5.982   4.573   0.551
  227SOL     OW17822   6.382   6.258   2.702
  227SOL    HW117823   6.388   6.310   2.782
  227SOL    HW217824   6.335   6.179   2.728
  228SOL     OW17825   1.703   2.922   5.270
  228SOL    HW117826   1.676   2.833   5.295
  228SOL    HW217827   1.769   2.946   5.336
  229SOL     OW17828   3.687   5.195   6.480
  229SOL    HW117829   3.757   5.258   6.496
  229SOL    HW217830   3.678   5.192   6.385
  230SOL     OW17831   1.341   1.169   7.712
  230SOL    HW117832   1.298   1.155   7.796
  230SOL    HW217833   1.328   1.087   7.664
  231SOL     OW17834   5.872   3.030   6.375
  231SOL    HW117835   5.812   3.055   6.305
  231SOL    HW217836   5.816   2.996   6.444
  232SOL     OW17837   5.186   2.826   0.543
  232SOL    HW117838   5.114   2.771   0.512
  232SOL    HW217839   5.158   2.855   0.630
  233SOL     OW17840   6.115   2.330   0.728
  233SOL    HW117841   6.119   2.235   0.716
  233SOL    HW217842   6.207   2.358   0.729
  234SOL     OW17843   0.368   5.138   1.297
  234SOL    HW117844   0.404   5.053   1.270
  234SOL    HW217845   0.289   5.148   1.244
  235SOL     OW17846   4.506   1.559   0.034
  235SOL    HW117847   4.518   1.465   0.045
  235SOL    HW217848   4.411   1.570   0.027
  236SOL     OW17849   5.813   0.590   7.133
  236SOL    HW117850   5.895   0.636   7.154
  236SOL    HW217851   5.789   0.622   7.046
  237SOL     OW17852   3.329   6.028   6.812
  237SOL    HW117853   3.245   6.041   6.767
  237SOL    HW217854   3.395   6.059   6.749
  238SOL     OW17855   2.548   3.304   0.191
  238SOL    HW117856   2.532   3.263   0.107
  238SOL    HW217857   2.625   3.259   0.226
  239SOL     OW17858   4.456   0.148   7.583
  239SOL    HW117859   4.416   0.101   7.510
  239SOL    HW217860   4.481   0.233   7.547
  240SOL     OW17861   6.316   5.577   0.498
  240SOL    HW117862   6.411   5.581   0.495
  240SOL    HW217863   6.295   5.489   0.465
  241SOL     OW17864   2.957   4.459   1.012
  241SOL    HW117865   3.001   4.407   1.079
  241SOL    HW217866   3.024   4.474   0.945
  242SOL     OW17867   2.284   6.201   1.971
  242SOL    HW117868   2.223   6.129   1.952
  242SOL    HW217869   2.268   6.222   2.063
  243SOL     OW17870   1.611   1.862   6.997
  243SOL    HW117871   1.698   1.880   7.031
  243SOL    HW217872   1.557   1.849   7.075
  244SOL     OW17873   2.258   3.007   0.595
  244SOL    HW117874   2.255   3.062   0.673
  244SOL    HW217875   2.280   3.067   0.524
  245SOL     OW17876   6.339   4.921   5.532
  245SOL    HW117877   6.315   4.983   5.463
  245SOL    HW217878   6.411   4.965   5.578
  246SOL     OW17879   0.169   5.180   1.750
  246SOL    HW117880   0.210   5.161   1.834
  246SOL    HW217881   0.236   5.159   1.685
  247SOL     OW17882   6.377   4.753   0.409
  247SOL    HW117883   6.469   4.732   0.393
  247SOL    HW217884   6.364   4.837   0.366
  248SOL     OW17885   2.995   5.196   6.975
  248SOL    HW117886   3.008   5.102   6.960
  248SOL    HW217887   3.030   5.238   6.897
  249SOL     OW17888   5.957   5.064   0.025
  249SOL    HW117889   6.046   5.056  -0.010
  249SOL    HW217890   5.904   5.008  -0.032
  250SOL     OW17891   3.739   2.623   1.400
  250SOL    HW117892   3.682   2.549   1.380
  250SOL    HW217893   3.760   2.612   1.493
  251SOL     OW17894   4.234   1.068   0.993
  251SOL    HW117895   4.224   1.161   1.013
  251SOL    HW217896   4.203   1.059   0.903
  252SOL     OW17897   6.339   0.331   2.683
  252SOL    HW117898   6.382   0.327   2.768
  252SOL    HW217899   6.354   0.245   2.644
  253SOL     OW17900   3.271   5.143   1.304
  253SOL    HW117901   3.223   5.220   1.274
  253SOL    HW217902   3.221   5.111   1.379
  254SOL     OW17903   1.028   6.375   1.454
  254SOL    HW117904   0.987   6.462   1.449
  254SOL    HW217905   0.987   6.334   1.531
  255SOL     OW17906   0.616   4.922   6.776
  255SOL    HW117907   0.703   4.927   6.736
  255SOL    HW217908   0.613   4.835   6.816
  256SOL     OW17909   4.989   2.644   0.488
  256SOL    HW117910   4.957   2.661   0.399
  256SOL    HW217911   5.026   2.556   0.484
  257SOL     OW17912   1.242   5.062   6.970
  257SOL    HW117913   1.166   5.026   7.015
  257SOL    HW217914   1.210   5.081   6.881
  258SOL     OW17915   3.235   1.181   0.022
  258SOL    HW117916   3.264   1.091   0.005
  258SOL    HW217917   3.309   1.223   0.066
  259SOL     OW17918   5.070   3.662   0.678
  259SOL    HW117919   5.101   3.726   0.743
  259SOL    HW217920   4.984   3.695   0.651
  260SOL     OW17921   3.085   3.999   6.951
  260SOL    HW117922   3.158   3.975   7.009
  260SOL    HW217923   3.007   3.973   7.000
  261SOL     OW17924   3.853   0.870   0.021
  261SOL    HW117925   3.897   0.945  -0.019
  261SOL    HW217926   3.910   0.846   0.094
  262SOL     OW17927   6.194   4.556   2.027
  262SOL    HW117928   6.164   4.607   2.102
  262SOL    HW217929   6.188   4.465   2.056
  263SOL     OW17930   5.762   1.382   0.729
  263SOL    HW117931   5.830   1.410   0.668
  263SOL    HW217932   5.681   1.385   0.677
  264SOL     OW17933   1.743   5.584   2.061
  264SOL    HW117934   1.795   5.552   1.987
  264SOL    HW217935   1.701   5.505   2.097
  265SOL     OW17936   5.563   0.671   0.442
  265SOL    HW117937   5.652   0.687   0.412
  265SOL    HW217938   5.518   0.755   0.433
  266SOL     OW17939   1.641   4.442   1.002
  266SOL    HW117940   1.583   4.421   1.076
  266SOL    HW217941   1.653   4.359   0.957
  267SOL     OW17942   1.762   4.252   6.120
  267SOL    HW117943   1.699   4.324   6.127
  267SOL    HW217944   1.803   4.248   6.207
  268SOL     OW17945   0.532   1.529   0.163
  268SOL    HW117946   0.539   1.453   0.106
  268SOL    HW217947   0.584   1.596   0.120
  269SOL     OW17948   4.520   0.366   7.212
  269SOL    HW117949   4.550   0.277   7.231
  269SOL    HW217950   4.458   0.385   7.283
  270SOL     OW17951   1.649   2.292   1.358
  270SOL    HW117952   1.583   2.252   1.301
  270SOL    HW217953   1.599   2.328   1.431
  271SOL     OW17954   4.280   5.265   7.660
  271SOL    HW117955   4.259   5.291   7.571
  271SOL    HW217956   4.358   5.210   7.652
  272SOL     OW17957   5.716   3.618   7.198
  272SOL    HW117958   5.724   3.712   7.184
  272SOL    HW217959   5.638   3.592   7.148
  273SOL     OW17960   4.652   4.012   6.157
  273SOL    HW117961   4.583   4.078   6.166
  273SOL    HW217962   4.606   3.928   6.161
  274SOL     OW17963   2.280   0.849   6.843
  274SOL    HW117964   2.310   0.939   6.856
  274SOL    HW217965   2.217   0.855   6.772
  275SOL     OW17966   5.134   1.550   6.433
  275SOL    HW117967   5.225   1.552   6.460
  275SOL    HW217968   5.113   1.457   6.422
  276SOL     OW17969   3.012   4.660   7.437
  276SOL    HW117970   3.090   4.704   7.472
  276SOL    HW217971   3.000   4.698   7.351
  277SOL     OW17972   1.051   3.631   6.966
  277SOL    HW117973   1.060   3.716   7.008
  277SOL    HW217974   1.079   3.646   6.875
  278SOL     OW17975   3.871   3.434   0.830
  278SOL    HW117976   3.808   3.405   0.896
  278SOL    HW217977   3.853   3.380   0.753
  279SOL     OW17978   1.695   6.375   6.486
  279SOL    HW117979   1.684   6.286   6.452
  279SOL    HW217980   1.730   6.362   6.574
  280SOL     OW17981   1.384   1.558   0.371
  280SOL    HW117982   1.296   1.586   0.348
  280SOL    HW217983   1.394   1.581   0.463
  281SOL     OW17984   5.084   5.102   0.529
  281SOL    HW117985   4.991   5.094   0.509
  281SOL    HW217986   5.104   5.026   0.583
  282SOL     OW17987   0.055   4.020   2.286
  282SOL    HW117988   0.109   3.975   2.220
  282SOL    HW217989  -0.035   4.009   2.256
  283SOL     OW17990   5.329   1.618   1.310
  283SOL    HW117991   5.286   1.538   1.340
  283SOL    HW217992   5.371   1.594   1.227
  284SOL     OW17993   4.253   2.199   6.132
  284SOL    HW117994   4.159   2.197   6.146
  284SOL    HW217995   4.264   2.177   6.039
  285SOL     OW17996   3.984   5.687   5.558
  285SOL    HW117997   3.954   5.601   5.530
  285SOL    HW217998   3.904   5.734   5.582
  286SOL     OW17999   6.031   0.424   6.278
  286SOL    HW118000   6.024   0.471   6.361
  286SOL    HW218001   5.959   0.458   6.225
  287SOL     OW18002   4.282   5.175   0.464
  287SOL    HW118003   4.201   5.223   0.446
  287SOL    HW218004   4.338   5.237   0.510
  288SOL     OW18005   1.692   4.701   7.412
  288SOL    HW118006   1.691   4.738   7.501
  288SOL    HW218007   1.611   4.650   7.406
  289SOL     OW18008   0.339   2.032   6.746
  289SOL    HW118009   0.406   1.972   6.711
  289SOL    HW218010   0.280   2.048   6.672
  290SOL     OW18011   6.114   0.972   5.584
  290SOL    HW118012   6.139   0.880   5.575
  290SOL    HW218013   6.019   0.972   5.583
  291SOL     OW18014   0.359   3.434   0.885
  291SOL    HW118015   0.378   3.456   0.976
  291SOL    HW218016   0.445   3.413   0.848
  292SOL     OW18017   2.359   4.150   0.197
  292SOL    HW118018   2.319   4.083   0.253
  292SOL    HW218019   2.290   4.175   0.136
  293SOL     OW18020   6.259   0.663   6.262
  293SOL    HW118021   6.234   0.570   6.256
  293SOL    HW218022   6.307   0.680   6.181
  294SOL     OW18023   1.395   2.424   0.263
  294SOL    HW118024   1.448   2.452   0.189
  294SOL    HW218025   1.340   2.500   0.283
  295SOL     OW18026   2.223   4.042   0.824
  295SOL    HW118027   2.318   4.029   0.816
  295SOL    HW218028   2.213   4.136   0.838
  296SOL     OW18029   4.475   6.422   0.429
  296SOL    HW118030   4.458   6.363   0.356
  296SOL    HW218031   4.442   6.507   0.400
  297SOL     OW18032   5.383   3.719   7.296
  297SOL    HW118033   5.410   3.687   7.382
  297SOL    HW218034   5.433   3.665   7.234
  298SOL     OW18035   2.528   2.977   6.731
  298SOL    HW118036   2.496   2.942   6.815
  298SOL    HW218037   2.466   2.943   6.666
  299SOL     OW18038   1.947   4.802   1.079
  299SOL    HW118039   1.862   4.761   1.065
  299SOL    HW218040   1.974   4.833   0.993
  300SOL     OW18041   5.533   0.009   6.784
  300SOL    HW118042   5.588   0.074   6.827
  300SOL    HW218043   5.586  -0.071   6.784
  301SOL     OW18044   0.075   5.295   0.903
  301SOL    HW118045   0.166   5.301   0.874
  301SOL    HW218046   0.031   5.249   0.831
  302SOL     OW18047   3.150   3.686   0.620
  302SOL    HW118048   3.062   3.717   0.600
  302SOL    HW218049   3.137   3.598   0.655
  303SOL     OW18050   4.684   3.159   6.853
  303SOL    HW118051   4.685   3.081   6.909
  303SOL    HW218052   4.725   3.130   6.771
  304SOL     OW18053   0.414   5.547   1.380
  304SOL    HW118054   0.486   5.601   1.412
  304SOL    HW218055   0.339   5.607   1.377
  305SOL     OW18056   1.838   3.657   5.315
  305SOL    HW118057   1.913   3.717   5.314
  305SOL    HW218058   1.788   3.680   5.236
  306SOL     OW18059   2.918   4.578   7.018
  306SOL    HW118060   2.899   4.651   6.959
  306SOL    HW218061   2.843   4.576   7.077
  307SOL     OW18062   1.658   1.050   6.127
  307SOL    HW118063   1.601   1.027   6.053
  307SOL    HW218064   1.642   0.982   6.192
  308SOL     OW18065   1.187   3.932   7.393
  308SOL    HW118066   1.162   4.021   7.419
  308SOL    HW218067   1.158   3.877   7.466
  309SOL     OW18068   4.598   5.877   0.997
  309SOL    HW118069   4.627   5.845   1.082
  309SOL    HW218070   4.584   5.970   1.010
  310SOL     OW18071   1.371   4.094   6.703
  310SOL    HW118072   1.381   4.073   6.611
  310SOL    HW218073   1.302   4.034   6.734
  311SOL     OW18074   4.111   0.711   6.481
  311SOL    HW118075   4.118   0.641   6.415
  311SOL    HW218076   4.071   0.668   6.557
  312SOL     OW18077   4.029   3.499   7.198
  312SOL    HW118078   3.992   3.420   7.237
  312SOL    HW218079   4.032   3.481   7.104
  313SOL     OW18080   3.247   4.956   6.686
  313SOL    HW118081   3.338   4.985   6.675
  313SOL    HW218082   3.202   4.990   6.609
  314SOL     OW18083   4.669   1.901   7.558
  314SOL    HW118084   4.713   1.897   7.474
  314SOL    HW218085   4.645   1.811   7.578
  315SOL     OW18086   1.186   0.489   1.967
  315SOL    HW118087   1.148   0.535   2.042
  315SOL    HW218088   1.191   0.555   1.898
  316SOL     OW18089   1.234   2.268   5.614
  316SOL    HW118090   1.169   2.337   5.626
  316SOL    HW218091   1.231   2.217   5.695
  317SOL     OW18092   5.794   3.492   2.002
  317SOL    HW118093   5.711   3.504   1.956
  317SOL    HW218094   5.782   3.537   2.086
  318SOL     OW18095   4.731   2.186   6.402
  318SOL    HW118096   4.648   2.205   6.358
  318SOL    HW218097   4.714   2.203   6.494
  319SOL     OW18098   3.139   5.150   6.478
  319SOL    HW118099   3.045   5.155   6.494
  319SOL    HW218100   3.178   5.209   6.542
  320SOL     OW18101   4.346   5.390   5.763
  320SOL    HW118102   4.354   5.476   5.723
  320SOL    HW218103   4.423   5.383   5.820
  321SOL     OW18104   6.256   0.966   1.778
  321SOL    HW118105   6.316   1.026   1.734
  321SOL    HW218106   6.177   0.967   1.723
  322SOL     OW18107   2.265   4.808   6.475
  322SOL    HW118108   2.355   4.789   6.500
  322SOL    HW218109   2.212   4.753   6.534
  323SOL     OW18110   6.043   5.981   6.855
  323SOL    HW118111   6.049   5.957   6.947
  323SOL    HW218112   6.117   5.938   6.813
  324SOL     OW18113   3.884   5.171   0.218
  324SOL    HW118114   3.896   5.244   0.279
  324SOL    HW218115   3.922   5.096   0.263
  325SOL     OW18116   1.907   2.065   7.789
  325SOL    HW118117   1.869   2.086   7.874
  325SOL    HW218118   2.000   2.054   7.806
  326SOL     OW18119   0.668   1.369   6.585
  326SOL    HW118120   0.741   1.425   6.611
  326SOL    HW218121   0.617   1.357   6.664
  327SOL     OW18122   1.566   3.282   0.554
  327SOL    HW118123   1.579   3.355   0.613
  327SOL    HW218124   1.653   3.266   0.515
  328SOL     OW18125   4.687   3.110   0.449
  328SOL    HW118126   4.690   3.205   0.442
  328SOL    HW218127   4.742   3.078   0.378
  329SOL     OW18128   2.744   5.568   5.870
  329SOL    HW118129   2.773   5.480   5.846
  329SOL    HW218130   2.729   5.563   5.964
  330SOL     OW18131   2.846   2.150   7.308
  330SOL    HW118132   2.832   2.064   7.349
  330SOL    HW218133   2.835   2.134   7.214
  331SOL     OW18134   0.556   4.744   0.730
  331SOL    HW118135   0.622   4.724   0.662
  331SOL    HW218136   0.490   4.676   0.719
  332SOL     OW18137   1.538   3.084   5.917
  332SOL    HW118138   1.495   3.008   5.955
  332SOL    HW218139   1.483   3.158   5.943
  333SOL     OW18140   5.366   1.983   0.158
  333SOL    HW118141   5.446   2.000   0.109
  333SOL    HW218142   5.316   1.924   0.101
  334SOL     OW18143   5.490   0.940   0.811
  334SOL    HW118144   5.564   0.879   0.816
  334SOL    HW218145   5.501   0.997   0.887
  335SOL     OW18146   4.265   2.680   0.967
  335SOL    HW118147   4.291   2.747   0.903
  335SOL    HW218148   4.320   2.605   0.947
  336SOL     OW18149   5.009   4.328   0.323
  336SOL    HW118150   5.090   4.277   0.325
  336SOL    HW218151   4.989   4.346   0.415
  337SOL     OW18152   4.212   2.453   0.389
  337SOL    HW118153   4.245   2.432   0.302
  337SOL    HW218154   4.247   2.541   0.407
  338SOL     OW18155   3.824   3.321   7.305
  338SOL    HW118156   3.831   3.264   7.381
  338SOL    HW218157   3.772   3.272   7.242
  339SOL     OW18158   2.469   2.064   6.828
  339SOL    HW118159   2.434   2.153   6.828
  339SOL    HW218160   2.406   2.014   6.775
  340SOL     OW18161   5.761   5.518   1.742
  340SOL    HW118162   5.789   5.436   1.783
  340SOL    HW218163   5.792   5.512   1.652
  341SOL     OW18164   0.824   5.245   7.407
  341SOL    HW118165   0.736   5.225   7.374
  341SOL    HW218166   0.809   5.304   7.481
  342SOL     OW18167   2.157   3.877   5.496
  342SOL    HW118168   2.141   3.786   5.521
  342SOL    HW218169   2.206   3.914   5.568
  343SOL     OW18170   1.812   3.187   0.424
  343SOL    HW118171   1.855   3.106   0.394
  343SOL    HW218172   1.850   3.256   0.369
  344SOL     OW18173   1.881   5.188   0.381
  344SOL    HW118174   1.832   5.153   0.307
  344SOL    HW218175   1.949   5.244   0.342
  345SOL     OW18176   0.751   6.095   5.773
  345SOL    HW118177   0.746   6.190   5.782
  345SOL    HW218178   0.797   6.066   5.852
  346SOL     OW18179   3.721   4.742   6.931
  346SOL    HW118180   3.788   4.730   6.863
  346SOL    HW218181   3.651   4.789   6.887
  347SOL     OW18182   4.626   3.474   7.521
  347SOL    HW118183   4.700   3.424   7.488
  347SOL    HW218184   4.593   3.520   7.445
  348SOL     OW18185   5.121   1.583   0.915
  348SOL    HW118186   5.087   1.670   0.895
  348SOL    HW218187   5.210   1.598   0.946
  349SOL     OW18188   3.450   4.114   0.643
  349SOL    HW118189   3.498   4.167   0.580
  349SOL    HW218190   3.488   4.026   0.633
  350SOL     OW18191   4.912   0.410   0.460
  350SOL    HW118192   4.957   0.430   0.377
  350SOL    HW218193   4.936   0.320   0.479
  351SOL     OW18194   2.711   5.370   0.039
  351SOL    HW118195   2.799   5.356   0.073
  351SOL    HW218196   2.718   5.353  -0.055
  352SOL     OW18197   5.305   6.297   6.617
  352SOL    HW118198   5.276   6.321   6.529
  352SOL    HW218199   5.391   6.258   6.603
  353SOL     OW18200   5.261   0.769   6.606
  353SOL    HW118201   5.215   0.853   6.615
  353SOL    HW218202   5.196   0.704   6.630
  354SOL     OW18203   1.843   3.241   6.711
  354SOL    HW118204   1.904   3.227   6.638
  354SOL    HW218205   1.773   3.294   6.673
  355SOL     OW18206   0.572   4.872   7.525
  355SOL    HW118207   0.620   4.797   7.490
  355SOL    HW218208   0.482   4.859   7.496
  356SOL     OW18209   4.646   5.515   0.236
  356SOL    HW118210   4.608   5.557   0.158
  356SOL    HW218211   4.617   5.424   0.231
  357SOL     OW18212   4.674   3.068   1.492
  357SOL    HW118213   4.670   2.976   1.515
  357SOL    HW218214   4.707   3.111   1.571
  358SOL     OW18215   0.879   0.605   5.685
  358SOL    HW118216   0.818   0.556   5.630
  358SOL    HW218217   0.868   0.696   5.658
  359SOL     OW18218   5.219   5.694   1.772
  359SOL    HW118219   5.243   5.722   1.860
  359SOL    HW218220   5.125   5.675   1.778
  360SOL     OW18221   1.127   3.967   6.666
  360SOL    HW118222   1.079   3.892   6.701
  360SOL    HW218223   1.091   3.979   6.578
  361SOL     OW18224   0.883   4.626   1.713
  361SOL    HW118225   0.796   4.664   1.700
  361SOL    HW218226   0.893   4.563   1.642
  362SOL     OW18227   2.551   4.474   0.634
  362SOL    HW118228   2.559   4.405   0.568
  362SOL    HW218229   2.472   4.522   0.608
  363SOL     OW18230   0.776   1.230   6.215
  363SOL    HW118231   0.797   1.223   6.122
  363SOL    HW218232   0.716   1.304   6.221
  364SOL     OW18233   1.063   2.545   1.247
  364SOL    HW118234   1.083   2.464   1.199
  364SOL    HW218235   1.134   2.604   1.225
  365SOL     OW18236   1.373   2.296   1.016
  365SOL    HW118237   1.408   2.207   1.012
  365SOL    HW218238   1.450   2.352   1.006
  366SOL     OW18239   0.767   4.479   1.926
  366SOL    HW118240   0.695   4.508   1.871
  366SOL    HW218241   0.846   4.504   1.878
  367SOL     OW18242   2.763   5.823   0.548
  367SOL    HW118243   2.741   5.744   0.498
  367SOL    HW218244   2.693   5.831   0.612
  368SOL     OW18245   5.467   4.620   5.739
  368SOL    HW118246   5.385   4.650   5.701
  368SOL    HW218247   5.488   4.539   5.691
  369SOL     OW18248   2.294   0.093   6.410
  369SOL    HW118249   2.378   0.138   6.421
  369SOL    HW218250   2.239   0.127   6.481
  370SOL     OW18251   5.957   2.966   7.412
  370SOL    HW118252   5.963   3.045   7.465
  370SOL    HW218253   5.865   2.939   7.419
  371SOL     OW18254   4.924   5.687   7.517
  371SOL    HW118255   4.878   5.760   7.560
  371SOL    HW218256   4.878   5.676   7.434
  372SOL     OW18257   3.057   4.361   6.996
  372SOL    HW118258   3.003   4.305   6.940
  372SOL    HW218259   3.017   4.448   6.989
  373SOL     OW18260   3.264   0.889   0.317
  373SOL    HW118261   3.253   0.983   0.331
  373SOL    HW218262   3.195   0.865   0.256
  374SOL     OW18263   1.452   5.695   5.861
  374SOL    HW118264   1.413   5.718   5.777
  374SOL    HW218265   1.546   5.712   5.849
  375SOL     OW18266   5.974   1.569   2.098
  375SOL    HW118267   5.988   1.635   2.165
  375SOL    HW218268   5.879   1.566   2.086
  376SOL     OW18269   0.969   0.785  -0.005
  376SOL    HW118270   0.925   0.868   0.015
  376SOL    HW218271   0.978   0.741   0.079
  377SOL     OW18272   5.721   3.815   1.391
  377SOL    HW118273   5.806   3.794   1.353
  377SOL    HW218274   5.704   3.906   1.365
  378SOL     OW18275   0.085   0.597   6.589
  378SOL    HW118276   0.122   0.683   6.605
  378SOL    HW218277  -0.009   0.607   6.604
  379SOL     OW18278   1.713   2.407   7.274
  379SOL    HW118279   1.736   2.481   7.218
  379SOL    HW218280   1.738   2.434   7.362
  380SOL     OW18281   3.369   0.718   1.493
  380SOL    HW118282   3.363   0.622   1.495
  380SOL    HW218283   3.308   0.746   1.561
  381SOL     OW18284   4.910   4.750   0.843
  381SOL    HW118285   4.839   4.807   0.871
  381SOL    HW218286   4.947   4.716   0.925
  382SOL     OW18287   4.009   5.268   7.297
  382SOL    HW118288   4.097   5.241   7.270
  382SOL    HW218289   4.022   5.350   7.344
  383SOL     OW18290   3.814   2.933   7.046
  383SOL    HW118291   3.855   2.871   7.106
  383SOL    HW218292   3.830   2.896   6.959
  384SOL     OW18293   0.852   1.150   0.927
  384SOL    HW118294   0.834   1.116   1.015
  384SOL    HW218295   0.794   1.225   0.918
  385SOL     OW18296   6.096   5.387   2.143
  385SOL    HW118297   6.172   5.411   2.197
  385SOL    HW218298   6.089   5.292   2.153
  386SOL     OW18299   1.144   0.312   2.356
  386SOL    HW118300   1.171   0.309   2.264
  386SOL    HW218301   1.216   0.356   2.401
  387SOL     OW18302   5.327   0.738   0.882
  387SOL    HW118303   5.389   0.666   0.885
  387SOL    HW218304   5.381   0.816   0.866
  388SOL     OW18305   3.972   6.024   7.314
  388SOL    HW118306   3.940   5.983   7.234
  388SOL    HW218307   3.893   6.048   7.362
  389SOL     OW18308   1.847   0.966   1.269
  389SOL    HW118309   1.788   0.895   1.296
  389SOL    HW218310   1.832   1.035   1.334
  390SOL     OW18311   6.127   0.251   1.162
  390SOL    HW118312   6.142   0.344   1.142
  390SOL    HW218313   6.072   0.219   1.091
  391SOL     OW18314   2.549   0.789   6.785
  391SOL    HW118315   2.575   0.876   6.816
  391SOL    HW218316   2.473   0.766   6.838
  392SOL     OW18317   3.985   0.515   2.157
  392SOL    HW118318   4.056   0.480   2.210
  392SOL    HW218319   3.958   0.442   2.101
  393SOL     OW18320   5.343   5.040   1.930
  393SOL    HW118321   5.281   5.099   1.889
  393SOL    HW218322   5.376   5.089   2.006
  394SOL     OW18323   0.023   2.176   5.669
  394SOL    HW118324   0.101   2.158   5.722
  394SOL    HW218325  -0.040   2.108   5.695
  395SOL     OW18326   4.029   1.253   6.283
  395SOL    HW118327   4.116   1.219   6.305
  395SOL    HW218328   4.047   1.333   6.234
  396SOL     OW18329   6.102   3.699   0.523
  396SOL    HW118330   6.089   3.780   0.573
  396SOL    HW218331   6.046   3.708   0.446
  397SOL     OW18332   1.761   2.120   0.841
  397SOL    HW118333   1.791   2.127   0.750
  397SOL    HW218334   1.689   2.057   0.838
  398SOL     OW18335   0.208   3.342   5.967
  398SOL    HW118336   0.117   3.370   5.958
  398SOL    HW218337   0.240   3.335   5.877
  399SOL     OW18338   2.698   2.997   7.113
  399SOL    HW118339   2.661   3.021   7.198
  399SOL    HW218340   2.669   2.907   7.099
  400SOL     OW18341   0.025   3.482   6.653
  400SOL    HW118342   0.008   3.533   6.574
  400SOL    HW218343   0.119   3.464   6.650
  401SOL     OW18344   5.316   4.080   1.995
  401SOL    HW118345   5.384   4.016   2.015
  401SOL    HW218346   5.255   4.074   2.069
  402SOL     OW18347   4.159   5.207   6.419
  402SOL    HW118348   4.112   5.225   6.501
  402SOL    HW218349   4.090   5.179   6.358
  403SOL     OW18350   5.501   4.412   0.739
  403SOL    HW118351   5.409   4.402   0.764
  403SOL    HW218352   5.519   4.336   0.684
  404SOL     OW18353   4.596   5.964   7.154
  404SOL    HW118354   4.557   5.886   7.116
  404SOL    HW218355   4.691   5.948   7.150
  405SOL     OW18356   6.016   1.239   6.180
  405SOL    HW118357   5.931   1.206   6.208
  405SOL    HW218358   6.064   1.162   6.151
  406SOL     OW18359   0.256   1.845   5.543
  406SOL    HW118360   0.339   1.892   5.541
  406SOL    HW218361   0.212   1.876   5.622
  407SOL     OW18362   2.527   0.208   7.443
  407SOL    HW118363   2.503   0.125   7.401
  407SOL    HW218364   2.513   0.274   7.376
  408SOL     OW18365   0.164   3.803   5.605
  408SOL    HW118366   0.108   3.751   5.547
  408SOL    HW218367   0.103   3.859   5.653
  409SOL     OW18368   0.001   5.687   1.151
  409SOL    HW118369   0.009   5.770   1.198
  409SOL    HW218370  -0.019   5.712   1.061
  410SOL     OW18371   0.234   5.443   6.908
  410SOL    HW118372   0.294   5.515   6.928
  410SOL    HW218373   0.226   5.444   6.813
  411SOL     OW18374   3.631   3.541   0.645
  411SOL    HW118375   3.638   3.612   0.710
  411SOL    HW218376   3.692   3.566   0.576
  412SOL     OW18377   3.294   0.622   6.950
  412SOL    HW118378   3.323   0.579   7.031
  412SOL    HW218379   3.283   0.551   6.887
  413SOL     OW18380   5.897   5.448   6.075
  413SOL    HW118381   5.939   5.435   6.160
  413SOL    HW218382   5.942   5.387   6.016
  414SOL     OW18383   5.014   1.566   7.768
  414SOL    HW118384   5.064   1.494   7.728
  414SOL    HW218385   4.983   1.530   7.851
  415SOL     OW18386   5.240   3.534   6.497
  415SOL    HW118387   5.165   3.564   6.549
  415SOL    HW218388   5.309   3.519   6.562
  416SOL     OW18389   5.043   4.185   7.259
  416SOL    HW118390   4.994   4.106   7.240
  416SOL    HW218391   5.084   4.209   7.175
  417SOL     OW18392   4.729   0.572   5.988
  417SOL    HW118393   4.709   0.663   5.965
  417SOL    HW218394   4.820   0.561   5.962
  418SOL     OW18395   0.986   5.499   7.640
  418SOL    HW118396   0.979   5.546   7.723
  418SOL    HW218397   0.906   5.448   7.635
  419SOL     OW18398   5.745   0.422   0.698
  419SOL    HW118399   5.653   0.447   0.685
  419SOL    HW218400   5.795   0.487   0.649
  420SOL     OW18401   5.744   6.414   1.818
  420SOL    HW118402   5.747   6.327   1.778
  420SOL    HW218403   5.793   6.470   1.758
  421SOL     OW18404   3.377   2.953   0.184
  421SOL    HW118405   3.343   2.931   0.271
  421SOL    HW218406   3.320   3.025   0.154
  422SOL     OW18407   0.466   0.119   6.151
  422SOL    HW118408   0.535   0.088   6.210
  422SOL    HW218409   0.512   0.139   6.069
  423SOL     OW18410   4.883   2.929   0.313
  423SOL    HW118411   4.924   2.857   0.264
  423SOL    HW218412   4.876   3.000   0.249
  424SOL     OW18413   2.967   3.439   1.290
  424SOL    HW118414   2.959   3.384   1.368
  424SOL    HW218415   3.052   3.415   1.253
  425SOL     OW18416   3.399   5.297   6.828
  425SOL    HW118417   3.397   5.388   6.797
  425SOL    HW218418   3.465   5.296   6.897
  426SOL     OW18419   3.321   3.048   5.719
  426SOL    HW118420   3.413   3.063   5.740
  426SOL    HW218421   3.300   2.965   5.762
  427SOL     OW18422   0.753   1.861   0.781
  427SOL    HW118423   0.726   1.862   0.873
  427SOL    HW218424   0.681   1.903   0.735
  428SOL     OW18425   3.324   5.070   7.440
  428SOL    HW118426   3.382   5.015   7.387
  428SOL    HW218427   3.305   5.146   7.384
  429SOL     OW18428   5.145   2.605   6.482
  429SOL    HW118429   5.143   2.509   6.486
  429SOL    HW218430   5.211   2.630   6.546
  430SOL     OW18431   2.314   4.588   0.908
  430SOL    HW118432   2.399   4.544   0.916
  430SOL    HW218433   2.307   4.611   0.815
  431SOL     OW18434   5.797   0.509   6.142
  431SOL    HW118435   5.793   0.572   6.069
  431SOL    HW218436   5.821   0.426   6.101
  432SOL     OW18437   1.045   0.520   6.966
  432SOL    HW118438   1.137   0.508   6.942
  432SOL    HW218439   1.023   0.441   7.016
  433SOL     OW18440   0.564   5.886   1.308
  433SOL    HW118441   0.476   5.861   1.335
  433SOL    HW218442   0.571   5.979   1.331
  434SOL     OW18443   1.001   1.252   1.344
  434SOL    HW118444   1.033   1.232   1.432
  434SOL    HW218445   0.916   1.294   1.359
  435SOL     OW18446   6.181   4.234   1.617
  435SOL    HW118447   6.160   4.194   1.702
  435SOL    HW218448   6.212   4.161   1.563
  436SOL     OW18449   0.060   3.477   7.452
  436SOL    HW118450   0.048   3.383   7.447
  436SOL    HW218451   0.063   3.506   7.361
  437SOL     OW18452   1.498   4.963   7.033
  437SOL    HW118453   1.406   4.985   7.025
  437SOL    HW218454   1.524   4.998   7.118
  438SOL     OW18455   4.861   5.377   0.066
  438SOL    HW118456   4.796   5.446   0.049
  438SOL    HW218457   4.865   5.372   0.162
  439SOL     OW18458   3.279   6.432   7.764
  439SOL    HW118459   3.233   6.444   7.681
  439SOL    HW218460   3.217   6.384   7.819
  440SOL     OW18461   2.587   1.208   0.778
  440SOL    HW118462   2.555   1.297   0.766
  440SOL    HW218463   2.661   1.201   0.717
  441SOL     OW18464   3.561   1.103   6.516
  441SOL    HW118465   3.510   1.119   6.437
  441SOL    HW218466   3.610   1.184   6.530
  442SOL     OW18467   4.548   5.817   0.482
  442SOL    HW118468   4.635   5.798   0.448
  442SOL    HW218469   4.557   5.806   0.577
  443SOL     OW18470   4.029   5.696   0.211
  443SOL    HW118471   4.053   5.623   0.154
  443SOL    HW218472   4.110   5.718   0.257
  444SOL     OW18473   5.801   2.557   6.108
  444SOL    HW118474   5.720   2.516   6.078
  444SOL    HW218475   5.861   2.549   6.034
  445SOL     OW18476   3.139   3.570   5.975
  445SOL    HW118477   3.223   3.596   6.013
  445SOL    HW218478   3.073   3.603   6.036
  446SOL     OW18479   2.396   1.539   1.302
  446SOL    HW118480   2.441   1.620   1.324
  446SOL    HW218481   2.342   1.561   1.226
  447SOL     OW18482   1.861   1.155   2.529
  447SOL    HW118483   1.942   1.166   2.479
  447SOL    HW218484   1.821   1.242   2.528
  448SOL     OW18485   0.318   1.384   6.415
  448SOL    HW118486   0.235   1.429   6.398
  448SOL    HW218487   0.329   1.388   6.510
  449SOL     OW18488   5.314   0.621   0.094
  449SOL    HW118489   5.302   0.635   0.000
  449SOL    HW218490   5.225   0.618   0.129
  450SOL     OW18491   1.196   1.681   0.598
  450SOL    HW118492   1.238   1.603   0.635
  450SOL    HW218493   1.102   1.664   0.610
  451SOL     OW18494   1.465   5.088   6.077
  451SOL    HW118495   1.492   5.026   6.145
  451SOL    HW218496   1.378   5.059   6.051
  452SOL     OW18497   1.491   0.291   6.201
  452SOL    HW118498   1.518   0.258   6.116
  452SOL    HW218499   1.562   0.265   6.260
  453SOL     OW18500   5.317   3.530   0.651
  453SOL    HW118501   5.341   3.442   0.675
  453SOL    HW218502   5.222   3.532   0.658
  454SOL     OW18503   5.595   5.120   7.178
  454SOL    HW118504   5.528   5.124   7.245
  454SOL    HW218505   5.678   5.127   7.226
  455SOL     OW18506   2.720   5.042   0.579
  455SOL    HW118507   2.665   5.061   0.655
  455SOL    HW218508   2.793   4.991   0.613
  456SOL     OW18509   3.658   3.303   0.183
  456SOL    HW118510   3.614   3.240   0.240
  456SOL    HW218511   3.744   3.315   0.223
  457SOL     OW18512   3.726   0.607   6.561
  457SOL    HW118513   3.676   0.676   6.604
  457SOL    HW218514   3.662   0.539   6.541
  458SOL     OW18515   5.167   5.630   0.703
  458SOL    HW118516   5.154   5.606   0.612
  458SOL    HW218517   5.219   5.711   0.699
  459SOL     OW18518   6.326   3.994   0.403
  459SOL    HW118519   6.264   3.996   0.330
  459SOL    HW218520   6.305   4.072   0.455
  460SOL     OW18521   4.612   1.909   5.581
  460SOL    HW118522   4.632   1.987   5.529
  460SOL    HW218523   4.627   1.836   5.522
  461SOL     OW18524   2.470   6.348   0.040
  461SOL    HW118525   2.502   6.317   0.124
  461SOL    HW218526   2.376   6.335   0.043
  462SOL     OW18527   4.061   2.155   6.467
  462SOL    HW118528   4.016   2.196   6.393
  462SOL    HW218529   4.074   2.226   6.529
  463SOL     OW18530   5.145   5.007   2.603
  463SOL    HW118531   5.079   4.943   2.578
  463SOL    HW218532   5.145   5.070   2.531
  464SOL     OW18533   5.617   1.647   0.894
  464SOL    HW118534   5.662   1.729   0.873
  464SOL    HW218535   5.661   1.581   0.839
  465SOL     OW18536   1.521   6.306   0.769
  465SOL    HW118537   1.456   6.376   0.760
  465SOL    HW218538   1.479   6.242   0.827
  466SOL     OW18539   0.746   0.830   6.549
  466SOL    HW118540   0.815   0.768   6.523
  466SOL    HW218541   0.763   0.907   6.495
  467SOL     OW18542   5.781   0.846   1.755
  467SOL    HW118543   5.777   0.938   1.779
  467SOL    HW218544   5.824   0.804   1.830
  468SOL     OW18545   4.779   1.004   1.174
  468SOL    HW118546   4.730   0.923   1.164
  468SOL    HW218547   4.827   1.014   1.092
  469SOL     OW18548   4.654   0.845   5.938
  469SOL    HW118549   4.607   0.807   5.864
  469SOL    HW218550   4.673   0.935   5.911
  470SOL     OW18551   4.921   0.227   7.545
  470SOL    HW118552   4.852   0.162   7.563
  470SOL    HW218553   4.876   0.297   7.498
  471SOL     OW18554   3.493   3.864   0.540
  471SOL    HW118555   3.583   3.833   0.527
  471SOL    HW218556   3.440   3.809   0.481
  472SOL     OW18557   0.009   3.761   0.218
  472SOL    HW118558  -0.028   3.828   0.159
  472SOL    HW218559   0.035   3.810   0.296
  473SOL     OW18560   5.234   2.623   7.668
  473SOL    HW118561   5.229   2.528   7.666
  473SOL    HW218562   5.311   2.642   7.720
  474SOL     OW18563   1.639   0.614   0.008
  474SOL    HW118564   1.630   0.669  -0.069
  474SOL    HW218565   1.549   0.591   0.032
  475SOL     OW18566   4.828   1.905   2.244
  475SOL    HW118567   4.849   1.996   2.267
  475SOL    HW218568   4.836   1.857   2.327
  476SOL     OW18569   5.292   4.587   1.865
  476SOL    HW118570   5.231   4.634   1.923
  476SOL    HW218571   5.318   4.510   1.916
  477SOL     OW18572   4.768   2.150   0.717
  477SOL    HW118573   4.762   2.212   0.644
  477SOL    HW218574   4.685   2.160   0.764
  478SOL     OW18575   2.371   5.777   6.604
  478SOL    HW118576   2.371   5.811   6.694
  478SOL    HW218577   2.281   5.791   6.573
  479SOL     OW18578   0.130   3.288   7.762
  479SOL    HW118579   0.101   3.246   7.844
  479SOL    HW218580   0.119   3.219   7.696
  480SOL     OW18581   5.076   0.945   5.706
  480SOL    HW118582   5.046   0.967   5.794
  480SOL    HW218583   5.147   0.882   5.720
  481SOL     OW18584   0.907   5.895   0.973
  481SOL    HW118585   0.972   5.962   0.996
  481SOL    HW218586   0.888   5.851   1.055
  482SOL     OW18587   1.306   0.630   2.216
  482SOL    HW118588   1.212   0.630   2.197
  482SOL    HW218589   1.341   0.700   2.161
  483SOL     OW18590   2.780   0.787   7.483
  483SOL    HW118591   2.867   0.783   7.443
  483SOL    HW218592   2.788   0.851   7.554
  484SOL     OW18593   1.602   1.687   0.342
  484SOL    HW118594   1.653   1.636   0.279
  484SOL    HW218595   1.511   1.668   0.319
  485SOL     OW18596   1.051   6.076   0.642
  485SOL    HW118597   1.053   6.162   0.684
  485SOL    HW218598   1.143   6.059   0.619
  486SOL     OW18599   4.752   0.326   1.931
  486SOL    HW118600   4.799   0.261   1.983
  486SOL    HW218601   4.701   0.273   1.869
  487SOL     OW18602   2.308   4.451   1.411
  487SOL    HW118603   2.342   4.449   1.500
  487SOL    HW218604   2.355   4.524   1.369
  488SOL     OW18605   0.855   3.328   6.525
  488SOL    HW118606   0.890   3.415   6.507
  488SOL    HW218607   0.837   3.329   6.619
  489SOL     OW18608   0.593   0.250   6.705
  489SOL    HW118609   0.618   0.336   6.671
  489SOL    HW218610   0.676   0.202   6.712
  490SOL     OW18611   4.069   5.020   1.921
  490SOL    HW118612   4.157   5.026   1.958
  490SOL    HW218613   4.028   4.949   1.970
  491SOL     OW18614   5.572   4.010   7.053
  491SOL    HW118615   5.601   4.093   7.014
  491SOL    HW218616   5.636   3.993   7.123
  492SOL     OW18617   2.015   3.813   7.145
  492SOL    HW118618   2.050   3.875   7.209
  492SOL    HW218619   2.092   3.785   7.095
  493SOL     OW18620   2.246   3.498   7.438
  493SOL    HW118621   2.224   3.470   7.349
  493SOL    HW218622   2.239   3.593   7.436
  494SOL     OW18623   6.427   2.620   1.501
  494SOL    HW118624   6.506   2.675   1.502
  494SOL    HW218625   6.456   2.537   1.539
  495SOL     OW18626   3.672   2.229   0.135
  495SOL    HW118627   3.663   2.324   0.141
  495SOL    HW218628   3.585   2.195   0.157
  496SOL     OW18629   3.904   5.951   0.601
  496SOL    HW118630   3.876   5.914   0.517
  496SOL    HW218631   3.932   6.040   0.580
  497SOL     OW18632   5.800   4.909   7.644
  497SOL    HW118633   5.737   4.850   7.683
  497SOL    HW218634   5.876   4.854   7.625
  498SOL     OW18635   3.855   3.133   7.544
  498SOL    HW118636   3.853   3.039   7.527
  498SOL    HW218637   3.893   3.141   7.631
  499SOL     OW18638   4.097   1.696   5.970
  499SOL    HW118639   4.158   1.769   5.984
  499SOL    HW218640   4.108   1.674   5.878
  500SOL     OW18641   5.826   3.259   2.168
  500SOL    HW118642   5.798   3.342   2.129
  500SOL    HW218643   5.854   3.206   2.094
  501SOL     OW18644   1.997   1.558   7.521
  501SOL    HW118645   1.951   1.474   7.531
  501SOL    HW218646   2.089   1.532   7.511
  502SOL     OW18647   6.141   6.438   6.232
  502SOL    HW118648   6.147   6.371   6.299
  502SOL    HW218649   6.072   6.497   6.263
  503SOL     OW18650   0.138   2.971   0.548
  503SOL    HW118651   0.143   3.064   0.529
  503SOL    HW218652   0.197   2.957   0.622
  504SOL     OW18653   1.462   1.555   6.888
  504SOL    HW118654   1.485   1.560   6.980
  504SOL    HW218655   1.370   1.581   6.885
  505SOL     OW18656   4.423   1.466   0.351
  505SOL    HW118657   4.353   1.430   0.298
  505SOL    HW218658   4.469   1.389   0.386
  506SOL     OW18659   4.303   3.593   6.095
  506SOL    HW118660   4.300   3.617   6.003
  506SOL    HW218661   4.217   3.556   6.114
  507SOL     OW18662   6.039   0.378   6.756
  507SOL    HW118663   6.086   0.420   6.828
  507SOL    HW218664   6.079   0.292   6.747
  508SOL     OW18665   5.649   4.543   0.426
  508SOL    HW118666   5.607   4.592   0.355
  508SOL    HW218667   5.587   4.550   0.499
  509SOL     OW18668   2.370   6.004   7.053
  509SOL    HW118669   2.436   5.950   7.097
  509SOL    HW218670   2.352   6.074   7.116
  510SOL     OW18671   4.732   3.218   1.738
  510SOL    HW118672   4.808   3.163   1.758
  510SOL    HW218673   4.657   3.166   1.766
  511SOL     OW18674   4.102   0.417   1.857
  511SOL    HW118675   4.098   0.343   1.796
  511SOL    HW218676   4.125   0.378   1.941
  512SOL     OW18677   4.758   6.211   6.468
  512SOL    HW118678   4.739   6.289   6.521
  512SOL    HW218679   4.780   6.245   6.382
  513SOL     OW18680   2.464   1.074   0.321
  513SOL    HW118681   2.558   1.074   0.303
  513SOL    HW218682   2.455   1.024   0.402
  514SOL     OW18683   0.033   6.052   0.478
  514SOL    HW118684   0.011   6.105   0.402
  514SOL    HW218685   0.116   6.088   0.510
  515SOL     OW18686   2.426   5.439   5.986
  515SOL    HW118687   2.427   5.364   5.926
  515SOL    HW218688   2.494   5.420   6.049
  516SOL     OW18689   0.348   6.025   1.540
  516SOL    HW118690   0.422   6.068   1.499
  516SOL    HW218691   0.321   6.085   1.610
  517SOL     OW18692   0.070   4.740   2.223
  517SOL    HW118693   0.057   4.830   2.252
  517SOL    HW218694   0.009   4.689   2.277
  518SOL     OW18695   6.324   1.840   5.974
  518SOL    HW118696   6.318   1.890   5.892
  518SOL    HW218697   6.375   1.763   5.951
  519SOL     OW18698   5.973   5.049   6.831
  519SOL    HW118699   5.888   5.040   6.875
  519SOL    HW218700   6.031   4.991   6.880
  520SOL     OW18701   4.846   1.460   6.681
  520SOL    HW118702   4.917   1.486   6.623
  520SOL    HW218703   4.823   1.371   6.652
  521SOL     OW18704   5.986   5.290   1.510
  521SOL    HW118705   6.047   5.218   1.492
  521SOL    HW218706   6.040   5.357   1.552
  522SOL     OW18707   0.732   1.775   1.048
  522SOL    HW118708   0.637   1.783   1.058
  522SOL    HW218709   0.768   1.800   1.134
  523SOL     OW18710   4.923   3.313   5.469
  523SOL    HW118711   4.985   3.343   5.403
  523SOL    HW218712   4.864   3.388   5.482
  524SOL     OW18713   5.392   3.262   1.092
  524SOL    HW118714   5.402   3.169   1.072
  524SOL    HW218715   5.381   3.266   1.187
  525SOL     OW18716   4.761   2.159   6.976
  525SOL    HW118717   4.854   2.145   6.994
  525SOL    HW218718   4.752   2.254   6.973
  526SOL     OW18719   3.608   1.156   6.970
  526SOL    HW118720   3.674   1.088   6.959
  526SOL    HW218721   3.594   1.162   7.064
  527SOL     OW18722   3.886   4.308   0.449
  527SOL    HW118723   3.914   4.372   0.514
  527SOL    HW218724   3.966   4.290   0.398
  528SOL     OW18725   5.915   6.359   7.560
  528SOL    HW118726   5.957   6.319   7.636
  528SOL    HW218727   5.869   6.435   7.596
  529SOL     OW18728   4.934   5.577   6.728
  529SOL    HW118729   5.015   5.600   6.681
  529SOL    HW218730   4.927   5.482   6.718
  530SOL     OW18731   1.043   3.708   1.655
  530SOL    HW118732   0.967   3.650   1.664
  530SOL    HW218733   1.053   3.746   1.742
  531SOL     OW18734   4.128   0.247   7.513
  531SOL    HW118735   4.140   0.155   7.534
  531SOL    HW218736   4.055   0.249   7.450
  532SOL     OW18737   2.632   2.823   0.610
  532SOL    HW118738   2.622   2.899   0.553
  532SOL    HW218739   2.577   2.842   0.686
  533SOL     OW18740   4.988   6.340   0.333
  533SOL    HW118741   5.054   6.279   0.366
  533SOL    HW218742   4.934   6.287   0.274
  534SOL     OW18743   5.018   2.810   7.713
  534SOL    HW118744   5.012   2.716   7.692
  534SOL    HW218745   5.111   2.829   7.709
  535SOL     OW18746   5.327   1.313   6.703
  535SOL    HW118747   5.238   1.278   6.699
  535SOL    HW218748   5.384   1.236   6.702
  536SOL     OW18749   4.698   2.227   1.238
  536SOL    HW118750   4.765   2.281   1.280
  536SOL    HW218751   4.739   2.140   1.231
  537SOL     OW18752   1.870   3.736   6.704
  537SOL    HW118753   1.830   3.712   6.620
  537SOL    HW218754   1.804   3.714   6.769
  538SOL     OW18755   3.348   0.580   6.659
  538SOL    HW118756   3.427   0.630   6.641
  538SOL    HW218757   3.283   0.615   6.598
  539SOL     OW18758   4.217   0.830   0.497
  539SOL    HW118759   4.264   0.762   0.545
  539SOL    HW218760   4.285   0.890   0.467
  540SOL     OW18761   0.364   1.747   6.632
  540SOL    HW118762   0.413   1.775   6.709
  540SOL    HW218763   0.275   1.779   6.648
  541SOL     OW18764   3.401   6.267   1.076
  541SOL    HW118765   3.315   6.308   1.084
  541SOL    HW218766   3.412   6.219   1.158
  542SOL     OW18767   3.967   1.215   6.681
  542SOL    HW118768   3.938   1.123   6.678
  542SOL    HW218769   4.061   1.211   6.667
  543SOL     OW18770   0.665   0.060   1.315
  543SOL    HW118771   0.584   0.083   1.361
  543SOL    HW218772   0.651   0.089   1.225
  544SOL     OW18773   0.027   0.659   7.657
  544SOL    HW118774   0.121   0.670   7.642
  544SOL    HW218775   0.011   0.704   7.739
  545SOL     OW18776   4.887   2.846   0.677
  545SOL    HW118777   4.874   2.931   0.635
  545SOL    HW218778   4.927   2.791   0.609
  546SOL     OW18779   1.636   4.985   1.179
  546SOL    HW118780   1.577   4.911   1.192
  546SOL    HW218781   1.601   5.055   1.234
  547SOL     OW18782   5.197   4.669   0.755
  547SOL    HW118783   5.129   4.618   0.800
  547SOL    HW218784   5.254   4.700   0.826
  548SOL     OW18785   5.813   2.208   0.904
  548SOL    HW118786   5.813   2.213   0.808
  548SOL    HW218787   5.721   2.202   0.927
  549SOL     OW18788   6.106   0.387   1.844
  549SOL    HW118789   6.168   0.382   1.772
  549SOL    HW218790   6.093   0.296   1.872
  550SOL     OW18791   2.623   2.867   6.040
  550SOL    HW118792   2.700   2.882   6.095
  550SOL    HW218793   2.627   2.938   5.975
  551SOL     OW18794   4.995   5.974   1.190
  551SOL    HW118795   4.940   5.910   1.234
  551SOL    HW218796   4.958   5.981   1.102
  552SOL     OW18797   1.994   0.572   0.035
  552SOL    HW118798   1.986   0.508  -0.036
  552SOL    HW218799   1.905   0.604   0.049
  553SOL     OW18800   2.358   5.804   6.879
  553SOL    HW118801   2.373   5.867   6.949
  553SOL    HW218802   2.317   5.729   6.922
  554SOL     OW18803   5.510   6.011   6.211
  554SOL    HW118804   5.439   6.076   6.211
  554SOL    HW218805   5.584   6.056   6.252
  555SOL     OW18806   4.358   1.776   7.451
  555SOL    HW118807   4.403   1.759   7.368
  555SOL    HW218808   4.281   1.721   7.448
  556SOL     OW18809   3.900   5.365   6.560
  556SOL    HW118810   3.967   5.431   6.577
  556SOL    HW218811   3.876   5.332   6.647
  557SOL     OW18812   5.889   5.984   6.271
  557SOL    HW118813   5.964   6.044   6.270
  557SOL    HW218814   5.891   5.945   6.358
  558SOL     OW18815   1.869   1.678   5.714
  558SOL    HW118816   1.804   1.667   5.783
  558SOL    HW218817   1.943   1.720   5.756
  559SOL     OW18818   4.611   5.806   0.746
  559SOL    HW118819   4.702   5.779   0.737
  559SOL    HW218820   4.605   5.843   0.834
  560SOL     OW18821   2.198   1.698   6.590
  560SOL    HW118822   2.253   1.641   6.536
  560SOL    HW218823   2.113   1.697   6.546
  561SOL     OW18824   1.263   4.697   6.342
  561SOL    HW118825   1.231   4.663   6.426
  561SOL    HW218826   1.185   4.702   6.287
  562SOL     OW18827   0.473   3.943   1.261
  562SOL    HW118828   0.457   3.953   1.167
  562SOL    HW218829   0.400   3.889   1.292
  563SOL     OW18830   3.807   0.848   0.349
  563SOL    HW118831   3.891   0.813   0.319
  563SOL    HW218832   3.785   0.795   0.426
  564SOL     OW18833   2.528   5.731   0.298
  564SOL    HW118834   2.615   5.765   0.281
  564SOL    HW218835   2.523   5.651   0.245
  565SOL     OW18836   2.459   3.472   1.228
  565SOL    HW118837   2.414   3.420   1.294
  565SOL    HW218838   2.533   3.511   1.275
  566SOL     OW18839   5.684   4.577   2.346
  566SOL    HW118840   5.728   4.537   2.270
  566SOL    HW218841   5.597   4.600   2.314
  567SOL     OW18842   2.234   1.578   1.077
  567SOL    HW118843   2.208   1.487   1.063
  567SOL    HW218844   2.228   1.618   0.991
  568SOL     OW18845   1.167   3.260   0.041
  568SOL    HW118846   1.191   3.167   0.037
  568SOL    HW218847   1.239   3.306  -0.002
  569SOL     OW18848   3.574   4.978   7.567
  569SOL    HW118849   3.482   4.956   7.585
  569SOL    HW218850   3.569   5.055   7.511
  570SOL     OW18851   3.123   3.268   6.828
  570SOL    HW118852   3.122   3.229   6.916
  570SOL    HW218853   3.044   3.234   6.786
  571SOL     OW18854   2.381   2.715   5.560
  571SOL    HW118855   2.451   2.775   5.585
  571SOL    HW218856   2.426   2.634   5.537
  572SOL     OW18857   0.007   6.075   0.767
  572SOL    HW118858   0.012   6.085   0.672
  572SOL    HW218859  -0.046   6.148   0.796
  573SOL     OW18860   1.303   3.256   7.226
  573SOL    HW118861   1.231   3.193   7.227
  573SOL    HW218862   1.280   3.318   7.157
  574SOL     OW18863   5.091   4.500   6.157
  574SOL    HW118864   5.156   4.436   6.186
  574SOL    HW218865   5.017   4.447   6.127
  575SOL     OW18866   3.909   1.139   0.379
  575SOL    HW118867   3.976   1.093   0.328
  575SOL    HW218868   3.863   1.070   0.427
  576SOL     OW18869   3.804   5.588   6.397
  576SOL    HW118870   3.821   5.510   6.450
  576SOL    HW218871   3.746   5.558   6.327
  577SOL     OW18872   0.866   2.390   1.998
  577SOL    HW118873   0.929   2.323   1.971
  577SOL    HW218874   0.904   2.428   2.077
  578SOL     OW18875   0.496   4.601   1.300
  578SOL    HW118876   0.417   4.642   1.264
  578SOL    HW218877   0.509   4.523   1.246
  579SOL     OW18878   3.989   0.232   0.751
  579SOL    HW118879   4.084   0.227   0.740
  579SOL    HW218880   3.976   0.227   0.846
  580SOL     OW18881   3.716   2.498   6.905
  580SOL    HW118882   3.722   2.402   6.909
  580SOL    HW218883   3.801   2.525   6.870
  581SOL     OW18884   6.241   2.206   0.100
  581SOL    HW118885   6.279   2.244   0.021
  581SOL    HW218886   6.281   2.254   0.172
  582SOL     OW18887   5.922   4.660   7.580
  582SOL    HW118888   5.857   4.593   7.559
  582SOL    HW218889   5.948   4.696   7.495
  583SOL     OW18890   1.283   3.147   6.389
  583SOL    HW118891   1.285   3.052   6.381
  583SOL    HW218892   1.249   3.178   6.305
  584SOL     OW18893   5.532   0.788   1.158
  584SOL    HW118894   5.606   0.824   1.109
  584SOL    HW218895   5.521   0.699   1.125
  585SOL     OW18896   3.858   4.451   7.096
  585SOL    HW118897   3.817   4.521   7.146
  585SOL    HW218898   3.784   4.398   7.065
  586SOL     OW18899   6.415   5.718   6.794
  586SOL    HW118900   6.381   5.807   6.804
  586SOL    HW218901   6.510   5.728   6.805
  587SOL     OW18902   3.478   1.236   0.137
  587SOL    HW118903   3.507   1.145   0.146
  587SOL    HW218904   3.552   1.287   0.169
  588SOL     OW18905   2.591   4.967   0.354
  588SOL    HW118906   2.659   4.980   0.288
  588SOL    HW218907   2.626   5.007   0.433
  589SOL     OW18908   4.641   5.112   0.689
  589SOL    HW118909   4.580   5.039   0.695
  589SOL    HW218910   4.588   5.186   0.663
  590SOL     OW18911   1.283   5.384   0.266
  590SOL    HW118912   1.295   5.317   0.198
  590SOL    HW218913   1.252   5.461   0.219
  591SOL     OW18914   1.325   3.361   7.633
  591SOL    HW118915   1.280   3.439   7.601
  591SOL    HW218916   1.283   3.288   7.587
  592SOL     OW18917   0.207   3.219   0.852
  592SOL    HW118918   0.258   3.300   0.848
  592SOL    HW218919   0.239   3.166   0.779
  593SOL     OW18920   5.721   3.635   6.734
  593SOL    HW118921   5.694   3.681   6.814
  593SOL    HW218922   5.761   3.702   6.679
  594SOL     OW18923   5.386   2.234   0.332
  594SOL    HW118924   5.326   2.292   0.285
  594SOL    HW218925   5.365   2.147   0.299
  595SOL     OW18926   3.870   3.229   1.326
  595SOL    HW118927   3.878   3.152   1.270
  595SOL    HW218928   3.947   3.282   1.305
  596SOL     OW18929   1.844   2.098   1.126
  596SOL    HW118930   1.819   2.066   1.039
  596SOL    HW218931   1.859   2.191   1.113
  597SOL     OW18932   0.231   2.761   0.847
  597SOL    HW118933   0.277   2.843   0.830
  597SOL    HW218934   0.296   2.693   0.831
  598SOL     OW18935   3.091   3.464   7.367
  598SOL    HW118936   3.181   3.434   7.357
  598SOL    HW218937   3.070   3.502   7.282
  599SOL     OW18938   5.364   2.445   0.810
  599SOL    HW118939   5.306   2.518   0.833
  599SOL    HW218940   5.370   2.448   0.714
  600SOL     OW18941   4.921   0.669   0.585
  600SOL    HW118942   4.866   0.686   0.662
  600SOL    HW218943   4.869   0.609   0.531
  601SOL     OW18944   2.028   5.436   5.617
  601SOL    HW118945   2.123   5.442   5.628
  601SOL    HW218946   1.993   5.513   5.661
  602SOL     OW18947   0.257   2.595   0.485
  602SOL    HW118948   0.234   2.643   0.564
  602SOL    HW218949   0.173   2.571   0.446
  603SOL     OW18950   2.202   1.337   0.926
  603SOL    HW118951   2.189   1.243   0.921
  603SOL    HW218952   2.264   1.357   0.856
  604SOL     OW18953   0.725   0.439   7.172
  604SOL    HW118954   0.655   0.407   7.230
  604SOL    HW218955   0.728   0.375   7.101
  605SOL     OW18956   2.612   3.448   0.762
  605SOL    HW118957   2.579   3.395   0.690
  605SOL    HW218958   2.620   3.388   0.836
  606SOL     OW18959   0.525   4.484   6.152
  606SOL    HW118960   0.612   4.479   6.191
  606SOL    HW218961   0.491   4.394   6.159
  607SOL     OW18962   1.330   4.801   1.524
  607SOL    HW118963   1.373   4.719   1.549
  607SOL    HW218964   1.244   4.796   1.566
  608SOL     OW18965   4.680   2.040   7.302
  608SOL    HW118966   4.610   2.070   7.245
  608SOL    HW218967   4.751   2.102   7.288
  609SOL     OW18968   3.693   0.435   7.141
  609SOL    HW118969   3.663   0.350   7.110
  609SOL    HW218970   3.670   0.496   7.071
  610SOL     OW18971   6.231   5.104   5.358
  610SOL    HW118972   6.227   5.153   5.276
  610SOL    HW218973   6.279   5.161   5.418
  611SOL     OW18974   6.286   5.597   5.796
  611SOL    HW118975   6.294   5.509   5.760
  611SOL    HW218976   6.192   5.611   5.805
  612SOL     OW18977   1.445   3.855   7.753
  612SOL    HW118978   1.440   3.851   7.848
  612SOL    HW218979   1.353   3.855   7.724
  613SOL     OW18980   0.313   4.293   0.854
  613SOL    HW118981   0.323   4.290   0.759
  613SOL    HW218982   0.243   4.231   0.873
  614SOL     OW18983   2.314   2.288   6.816
  614SOL    HW118984   2.289   2.380   6.826
  614SOL    HW218985   2.273   2.260   6.734
  615SOL     OW18986   2.400   0.517   7.019
  615SOL    HW118987   2.358   0.510   7.105
  615SOL    HW218988   2.336   0.482   6.958
  616SOL     OW18989   4.459   5.819   5.536
  616SOL    HW118990   4.368   5.827   5.566
  616SOL    HW218991   4.460   5.740   5.481
  617SOL     OW18992   3.308   6.009   5.432
  617SOL    HW118993   3.269   5.948   5.370
  617SOL    HW218994   3.267   5.988   5.516
  618SOL     OW18995   2.478   3.456   6.009
  618SOL    HW118996   2.448   3.466   5.919
  618SOL    HW218997   2.400   3.467   6.062
  619SOL     OW18998   4.483   0.576   1.638
  619SOL    HW118999   4.467   0.540   1.725
  619SOL    HW219000   4.562   0.531   1.607
  620SOL     OW19001   1.468   5.824   1.067
  620SOL    HW119002   1.523   5.890   1.108
  620SOL    HW219003   1.413   5.791   1.139
  621SOL     OW19004   4.755   1.461   5.965
  621SOL    HW119005   4.714   1.438   6.048
  621SOL    HW219006   4.716   1.401   5.902
  622SOL     OW19007   5.384   1.909   1.944
  622SOL    HW119008   5.449   1.934   1.878
  622SOL    HW219009   5.426   1.838   1.993
  623SOL     OW19010   5.983   6.121   6.618
  623SOL    HW119011   5.934   6.052   6.573
  623SOL    HW219012   5.992   6.088   6.708
  624SOL     OW19013   4.907   4.217   1.031
  624SOL    HW119014   4.851   4.153   0.988
  624SOL    HW219015   4.907   4.293   0.972
  625SOL     OW19016   6.197   1.566   6.765
  625SOL    HW119017   6.217   1.589   6.855
  625SOL    HW219018   6.174   1.649   6.723
  626SOL     OW19019   4.564   0.703   7.477
  626SOL    HW119020   4.500   0.707   7.405
  626SOL    HW219021   4.522   0.648   7.543
  627SOL     OW19022   3.337   2.284   1.349
  627SOL    HW119023   3.280   2.326   1.414
  627SOL    HW219024   3.298   2.198   1.334
  628SOL     OW19025   4.963   6.227   5.712
  628SOL    HW119026   4.918   6.144   5.701
  628SOL    HW219027   5.028   6.229   5.643
  629SOL     OW19028   5.856   4.402   6.378
  629SOL    HW119029   5.822   4.463   6.313
  629SOL    HW219030   5.781   4.348   6.402
  630SOL     OW19031   0.141   1.727   0.455
  630SOL    HW119032   0.094   1.717   0.372
  630SOL    HW219033   0.219   1.672   0.446
  631SOL     OW19034   2.355   2.627   7.289
  631SOL    HW119035   2.262   2.613   7.305
  631SOL    HW219036   2.369   2.603   7.198
  632SOL     OW19037   0.082   2.620   1.064
  632SOL    HW119038   0.127   2.648   0.985
  632SOL    HW219039   0.126   2.668   1.135
  633SOL     OW19040   3.189   2.010   6.364
  633SOL    HW119041   3.221   2.091   6.404
  633SOL    HW219042   3.145   1.964   6.436
  634SOL     OW19043   1.134   5.803   1.469
  634SOL    HW119044   1.094   5.717   1.481
  634SOL    HW219045   1.086   5.842   1.396
  635SOL     OW19046   4.713   4.432   7.284
  635SOL    HW119047   4.777   4.474   7.226
  635SOL    HW219048   4.659   4.379   7.226
  636SOL     OW19049   0.312   1.608   5.846
  636SOL    HW119050   0.389   1.661   5.867
  636SOL    HW219051   0.300   1.620   5.752
  637SOL     OW19052   3.999   3.009   7.312
  637SOL    HW119053   4.059   3.013   7.387
  637SOL    HW219054   4.028   3.081   7.255
  638SOL     OW19055   2.020   6.032   1.168
  638SOL    HW119056   2.111   6.056   1.151
  638SOL    HW219057   2.025   5.947   1.210
  639SOL     OW19058   6.377   3.128   0.904
  639SOL    HW119059   6.465   3.164   0.913
  639SOL    HW219060   6.337   3.178   0.833
  640SOL     OW19061   4.256   5.490   7.170
  640SOL    HW119062   4.202   5.524   7.099
  640SOL    HW219063   4.345   5.487   7.133
  641SOL     OW19064   5.313   4.005   6.159
  641SOL    HW119065   5.365   4.006   6.079
  641SOL    HW219066   5.374   3.978   6.228
  642SOL     OW19067   4.212   4.522   1.445
  642SOL    HW119068   4.218   4.583   1.519
  642SOL    HW219069   4.119   4.503   1.436
  643SOL     OW19070   4.995   4.714   7.323
  643SOL    HW119071   5.053   4.714   7.247
  643SOL    HW219072   4.941   4.635   7.313
  644SOL     OW19073   1.271   2.128   6.982
  644SOL    HW119074   1.237   2.064   7.045
  644SOL    HW219075   1.317   2.076   6.917
  645SOL     OW19076   4.734   2.407   1.580
  645SOL    HW119077   4.760   2.425   1.490
  645SOL    HW219078   4.721   2.494   1.619
  646SOL     OW19079   0.750   5.862   5.164
  646SOL    HW119080   0.798   5.780   5.151
  646SOL    HW219081   0.817   5.930   5.158
  647SOL     OW19082   6.431   5.501   1.622
  647SOL    HW119083   6.511   5.480   1.574
  647SOL    HW219084   6.456   5.493   1.714
  648SOL     OW19085   3.627   0.524   1.660
  648SOL    HW119086   3.656   0.578   1.586
  648SOL    HW219087   3.699   0.530   1.723
  649SOL     OW19088   5.681   6.182   6.323
  649SOL    HW119089   5.758   6.127   6.334
  649SOL    HW219090   5.716   6.266   6.294
  650SOL     OW19091   3.957   5.901   7.032
  650SOL    HW119092   3.996   5.884   6.947
  650SOL    HW219093   3.868   5.866   7.026
  651SOL     OW19094   2.069   5.885   6.701
  651SOL    HW119095   2.112   5.962   6.736
  651SOL    HW219096   2.090   5.885   6.607
  652SOL     OW19097   1.366   6.408   7.182
  652SOL    HW119098   1.384   6.416   7.088
  652SOL    HW219099   1.355   6.314   7.196
  653SOL     OW19100   3.782   0.157   1.049
  653SOL    HW119101   3.818   0.241   1.075
  653SOL    HW219102   3.698   0.178   1.008
  654SOL     OW19103   1.385   1.689   1.723
  654SOL    HW119104   1.413   1.741   1.799
  654SOL    HW219105   1.460   1.693   1.663
  655SOL     OW19106   0.979   2.745   7.240
  655SOL    HW119107   0.911   2.694   7.285
  655SOL    HW219108   0.955   2.741   7.148
  656SOL     OW19109   3.474   2.549   0.977
  656SOL    HW119110   3.544   2.507   1.027
  656SOL    HW219111   3.510   2.634   0.952
  657SOL     OW19112   2.655   4.399   6.648
  657SOL    HW119113   2.649   4.353   6.564
  657SOL    HW219114   2.748   4.393   6.672
  658SOL     OW19115   4.963   0.511   6.990
  658SOL    HW119116   4.948   0.417   6.994
  658SOL    HW219117   4.905   0.548   7.057
  659SOL     OW19118   5.804   3.506   5.982
  659SOL    HW119119   5.722   3.553   5.965
  659SOL    HW219120   5.784   3.416   5.961
  660SOL     OW19121   1.907   3.665   7.621
  660SOL    HW119122   1.849   3.740   7.632
  660SOL    HW219123   1.898   3.641   7.529
  661SOL     OW19124   1.076   4.433   7.089
  661SOL    HW119125   1.031   4.359   7.048
  661SOL    HW219126   1.146   4.455   7.028
  662SOL     OW19127   2.596   3.092   7.362
  662SOL    HW119128   2.633   3.144   7.434
  662SOL    HW219129   2.543   3.026   7.405
  663SOL     OW19130   3.392   3.737   6.571
  663SOL    HW119131   3.352   3.716   6.486
  663SOL    HW219132   3.478   3.695   6.568
  664SOL     OW19133   4.548   3.714   1.677
  664SOL    HW119134   4.579   3.653   1.609
  664SOL    HW219135   4.453   3.715   1.665
  665SOL     OW19136   5.155   3.476   7.359
  665SOL    HW119137   5.223   3.518   7.412
  665SOL    HW219138   5.202   3.412   7.306
  666SOL     OW19139   2.618   3.406   6.623
  666SOL    HW119140   2.576   3.471   6.568
  666SOL    HW219141   2.590   3.428   6.712
  667SOL     OW19142   1.484   1.632   7.150
  667SOL    HW119143   1.397   1.644   7.189
  667SOL    HW219144   1.543   1.682   7.206
  668SOL     OW19145   6.329   5.174   1.275
  668SOL    HW119146   6.312   5.129   1.192
  668SOL    HW219147   6.312   5.267   1.256
  669SOL     OW19148   0.684   0.355   0.687
  669SOL    HW119149   0.751   0.324   0.748
  669SOL    HW219150   0.624   0.406   0.741
  670SOL     OW19151   1.516   1.013   5.912
  670SOL    HW119152   1.480   0.943   5.857
  670SOL    HW219153   1.509   1.092   5.858
  671SOL     OW19154   4.978   3.401   0.652
  671SOL    HW119155   5.010   3.491   0.656
  671SOL    HW219156   4.887   3.409   0.624
  672SOL     OW19157   3.073   5.119   5.894
  672SOL    HW119158   3.007   5.069   5.943
  672SOL    HW219159   3.143   5.055   5.877
  673SOL     OW19160   2.740   2.342   1.613
  673SOL    HW119161   2.697   2.414   1.567
  673SOL    HW219162   2.775   2.382   1.693
  674SOL     OW19163   3.535   0.047   7.313
  674SOL    HW119164   3.605   0.073   7.253
  674SOL    HW219165   3.546   0.105   7.389
  675SOL     OW19166   4.218   4.683   1.662
  675SOL    HW119167   4.157   4.640   1.722
  675SOL    HW219168   4.288   4.717   1.719
  676SOL     OW19169   4.313   0.935   6.471
  676SOL    HW119170   4.230   0.892   6.491
  676SOL    HW219171   4.373   0.902   6.538
  677SOL     OW19172   2.739   4.500   7.204
  677SOL    HW119173   2.699   4.586   7.214
  677SOL    HW219174   2.737   4.462   7.292
  678SOL     OW19175   2.255   2.566   6.826
  678SOL    HW119176   2.188   2.627   6.857
  678SOL    HW219177   2.279   2.598   6.739
  679SOL     OW19178   1.867   3.631   7.322
  679SOL    HW119179   1.918   3.683   7.260
  679SOL    HW219180   1.818   3.569   7.268
  680SOL     OW19181   1.378   1.099   1.679
  680SOL    HW119182   1.311   1.069   1.741
  680SOL    HW219183   1.457   1.053   1.706
  681SOL     OW19184   1.678   1.770   7.377
  681SOL    HW119185   1.756   1.824   7.392
  681SOL    HW219186   1.674   1.711   7.452
  682SOL     OW19187   0.040   2.615   5.943
  682SOL    HW119188   0.069   2.694   5.898
  682SOL    HW219189  -0.032   2.582   5.889
  683SOL     OW19190   5.197   1.808   0.038
  683SOL    HW119191   5.117   1.823  -0.014
  683SOL    HW219192   5.190   1.716   0.065
  684SOL     OW19193   4.205   2.979   7.502
  684SOL    HW119194   4.176   2.988   7.593
  684SOL    HW219195   4.251   3.061   7.483
  685SOL     OW19196   0.324   4.530   1.631
  685SOL    HW119197   0.336   4.599   1.566
  685SOL    HW219198   0.230   4.528   1.647
  686SOL     OW19199   6.194   1.067   6.033
  686SOL    HW119200   6.228   1.011   5.962
  686SOL    HW219201   6.163   1.005   6.099
  687SOL     OW19202   2.356   3.067   6.088
  687SOL    HW119203   2.424   3.045   6.025
  687SOL    HW219204   2.398   3.127   6.150
  688SOL     OW19205   3.938   0.199   6.950
  688SOL    HW119206   4.028   0.178   6.926
  688SOL    HW219207   3.939   0.201   7.046
  689SOL     OW19208   0.288   2.985   0.278
  689SOL    HW119209   0.349   3.050   0.314
  689SOL    HW219210   0.243   2.950   0.355
  690SOL     OW19211   3.143   1.647   6.114
  690SOL    HW119212   3.107   1.585   6.051
  690SOL    HW219213   3.069   1.703   6.138
  691SOL     OW19214   5.844   4.485   6.793
  691SOL    HW119215   5.856   4.549   6.723
  691SOL    HW219216   5.923   4.431   6.790
  692SOL     OW19217   0.195   5.847   0.866
  692SOL    HW119218   0.259   5.887   0.924
  692SOL    HW219219   0.124   5.911   0.861
  693SOL     OW19220   6.278   5.494   6.749
  693SOL    HW119221   6.323   5.466   6.670
  693SOL    HW219222   6.318   5.579   6.770
  694SOL     OW19223   5.352   3.323   0.272
  694SOL    HW119224   5.381   3.378   0.344
  694SOL    HW219225   5.276   3.276   0.306
  695SOL     OW19226   1.894   2.733   5.800
  695SOL    HW119227   1.981   2.755   5.765
  695SOL    HW219228   1.844   2.814   5.792
  696SOL     OW19229   6.361   0.296   6.388
  696SOL    HW119230   6.337   0.351   6.313
  696SOL    HW219231   6.379   0.210   6.349
  697SOL     OW19232   3.141   2.712   7.192
  697SOL    HW119233   3.215   2.671   7.237
  697SOL    HW219234   3.169   2.716   7.100
  698SOL     OW19235   2.845   1.813   7.665
  698SOL    HW119236   2.891   1.888   7.704
  698SOL    HW219237   2.753   1.841   7.662
  699SOL     OW19238   3.440   5.987   1.865
  699SOL    HW119239   3.520   6.038   1.852
  699SOL    HW219240   3.469   5.908   1.910
  700SOL     OW19241   4.821   0.320   6.714
  700SOL    HW119242   4.852   0.250   6.656
  700SOL    HW219243   4.828   0.283   6.802
  701SOL     OW19244   0.311   3.722   6.662
  701SOL    HW119245   0.305   3.648   6.722
  701SOL    HW219246   0.326   3.798   6.718
  702SOL     OW19247   5.090   4.887   6.529
  702SOL    HW119248   5.066   4.977   6.548
  702SOL    HW219249   5.038   4.835   6.591
  703SOL     OW19250   5.098   3.009   5.653
  703SOL    HW119251   5.074   2.955   5.578
  703SOL    HW219252   5.100   3.098   5.620
  704SOL     OW19253   2.440   0.184   0.692
  704SOL    HW119254   2.495   0.163   0.616
  704SOL    HW219255   2.464   0.273   0.716
  705SOL     OW19256   4.124   3.122   6.296
  705SOL    HW119257   4.152   3.212   6.278
  705SOL    HW219258   4.200   3.079   6.335
  706SOL     OW19259   3.881   6.346   0.326
  706SOL    HW119260   3.832   6.289   0.267
  706SOL    HW219261   3.907   6.420   0.271
  707SOL     OW19262   3.279   3.242   0.383
  707SOL    HW119263   3.368   3.220   0.356
  707SOL    HW219264   3.240   3.158   0.408
  708SOL     OW19265   2.384   0.833   1.841
  708SOL    HW119266   2.373   0.825   1.747
  708SOL    HW219267   2.478   0.824   1.856
  709SOL     OW19268   6.083   4.032   1.080
  709SOL    HW119269   6.127   4.115   1.098
  709SOL    HW219270   6.145   3.983   1.026
  710SOL     OW19271   0.281   1.074   2.417
  710SOL    HW119272   0.278   0.986   2.453
  710SOL    HW219273   0.206   1.079   2.358
  711SOL     OW19274   3.107   5.598   6.464
  711SOL    HW119275   3.182   5.540   6.462
  711SOL    HW219276   3.134   5.670   6.522
  712SOL     OW19277   5.124   3.227   1.491
  712SOL    HW119278   5.096   3.309   1.531
  712SOL    HW219279   5.209   3.246   1.453
  713SOL     OW19280   1.691   1.038   7.541
  713SOL    HW119281   1.767   1.017   7.488
  713SOL    HW219282   1.708   1.126   7.574
  714SOL     OW19283   3.132   4.246   1.067
  714SOL    HW119284   3.170   4.160   1.046
  714SOL    HW219285   3.205   4.297   1.100
  715SOL     OW19286   4.291   2.038   7.206
  715SOL    HW119287   4.332   2.017   7.122
  715SOL    HW219288   4.360   2.079   7.257
  716SOL     OW19289   5.096   4.796   7.575
  716SOL    HW119290   5.055   4.739   7.640
  716SOL    HW219291   5.072   4.758   7.491
  717SOL     OW19292   2.499   4.532   6.131
  717SOL    HW119293   2.530   4.496   6.048
  717SOL    HW219294   2.559   4.604   6.150
  718SOL     OW19295   6.174   5.844   6.661
  718SOL    HW119296   6.219   5.869   6.581
  718SOL    HW219297   6.092   5.804   6.631
  719SOL     OW19298   4.076   0.790   0.239
  719SOL    HW119299   4.102   0.803   0.331
  719SOL    HW219300   4.147   0.828   0.188
  720SOL     OW19301   5.967   2.700   6.298
  720SOL    HW119302   5.905   2.715   6.370
  720SOL    HW219303   5.922   2.639   6.240
  721SOL     OW19304   4.562   2.998   0.864
  721SOL    HW119305   4.468   3.003   0.884
  721SOL    HW219306   4.574   2.911   0.826
  722SOL     OW19307   4.204   1.107   7.062
  722SOL    HW119308   4.124   1.131   7.016
  722SOL    HW219309   4.178   1.034   7.119
  723SOL     OW19310   1.015   4.153   5.767
  723SOL    HW119311   1.029   4.215   5.696
  723SOL    HW219312   0.935   4.105   5.743
  724SOL     OW19313   1.406   0.554   5.546
  724SOL    HW119314   1.324   0.602   5.549
  724SOL    HW219315   1.465   0.603   5.604
  725SOL     OW19316   5.194   5.227   5.524
  725SOL    HW119317   5.232   5.245   5.439
  725SOL    HW219318   5.114   5.279   5.527
  726SOL     OW19319   5.593   3.521   1.762
  726SOL    HW119320   5.615   3.509   1.670
  726SOL    HW219321   5.568   3.435   1.792
  727SOL     OW19322   1.282   2.157   5.875
  727SOL    HW119323   1.219   2.089   5.899
  727SOL    HW219324   1.283   2.216   5.950
  728SOL     OW19325   4.667   0.359   0.351
  728SOL    HW119326   4.619   0.416   0.411
  728SOL    HW219327   4.750   0.343   0.395
  729SOL     OW19328   1.603   1.293   5.969
  729SOL    HW119329   1.589   1.290   5.874
  729SOL    HW219330   1.661   1.219   5.987
  730SOL     OW19331   0.731   0.513   6.830
  730SOL    HW119332   0.640   0.542   6.834
  730SOL    HW219333   0.781   0.583   6.873
  731SOL     OW19334   5.498   3.886   2.057
  731SOL    HW119335   5.479   3.816   1.995
  731SOL    HW219336   5.488   3.845   2.143
  732SOL     OW19337   0.798   4.472   2.218
  732SOL    HW119338   0.790   4.438   2.129
  732SOL    HW219339   0.738   4.546   2.221
  733SOL     OW19340   2.008   1.609   0.687
  733SOL    HW119341   2.027   1.610   0.593
  733SOL    HW219342   1.957   1.529   0.701
  734SOL     OW19343   1.663   6.336   1.066
  734SOL    HW119344   1.610   6.370   0.994
  734SOL    HW219345   1.613   6.358   1.145
  735SOL     OW19346   0.603   2.921   6.834
  735SOL    HW119347   0.690   2.888   6.853
  735SOL    HW219348   0.547   2.843   6.830
  736SOL     OW19349   4.981   4.860   5.962
  736SOL    HW119350   4.913   4.928   5.952
  736SOL    HW219351   5.011   4.843   5.873
  737SOL     OW19352   2.535   6.278   5.836
  737SOL    HW119353   2.583   6.229   5.770
  737SOL    HW219354   2.444   6.273   5.808
  738SOL     OW19355   0.747   0.550   7.559
  738SOL    HW119356   0.746   0.638   7.595
  738SOL    HW219357   0.839   0.535   7.533
  739SOL     OW19358   2.198   1.265   5.721
  739SOL    HW119359   2.150   1.335   5.677
  739SOL    HW219360   2.183   1.188   5.667
  740SOL     OW19361   6.373   5.008   7.461
  740SOL    HW119362   6.295   5.007   7.517
  740SOL    HW219363   6.437   4.957   7.510
  741SOL     OW19364   2.683   1.275   1.163
  741SOL    HW119365   2.701   1.338   1.093
  741SOL    HW219366   2.770   1.251   1.196
  742SOL     OW19367   6.437   6.370   1.780
  742SOL    HW119368   6.436   6.290   1.727
  742SOL    HW219369   6.368   6.356   1.845
  743SOL     OW19370   3.500   6.224   7.241
  743SOL    HW119371   3.443   6.163   7.289
  743SOL    HW219372   3.484   6.309   7.283
  744SOL     OW19373   2.592   4.972   6.844
  744SOL    HW119374   2.624   5.001   6.759
  744SOL    HW219375   2.635   5.030   6.907
  745SOL     OW19376   1.713   5.505   6.279
  745SOL    HW119377   1.672   5.437   6.226
  745SOL    HW219378   1.738   5.573   6.215
  746SOL     OW19379   5.327   6.252   6.220
  746SOL    HW119380   5.388   6.311   6.175
  746SOL    HW219381   5.291   6.304   6.291
  747SOL     OW19382   1.137   0.678   1.786
  747SOL    HW119383   1.163   0.764   1.818
  747SOL    HW219384   1.048   0.666   1.819
  748SOL     OW19385   0.957   3.520   7.446
  748SOL    HW119386   0.932   3.581   7.376
  748SOL    HW219387   0.937   3.435   7.410
  749SOL     OW19388   2.995   1.312   0.307
  749SOL    HW119389   2.999   1.297   0.212
  749SOL    HW219390   2.906   1.341   0.323
  750SOL     OW19391   0.420   5.906   6.070
  750SOL    HW119392   0.423   5.854   6.150
  750SOL    HW219393   0.474   5.857   6.008
  751SOL     OW19394   0.799   4.501   0.248
  751SOL    HW119395   0.810   4.596   0.249
  751SOL    HW219396   0.708   4.487   0.224
  752SOL     OW19397   0.785   3.392   6.164
  752SOL    HW119398   0.706   3.445   6.172
  752SOL    HW219399   0.782   3.333   6.239
  753SOL     OW19400   1.535   0.320   0.238
  753SOL    HW119401   1.494   0.402   0.211
  753SOL    HW219402   1.622   0.322   0.198
  754SOL     OW19403   3.613   3.349   6.274
  754SOL    HW119404   3.696   3.302   6.269
  754SOL    HW219405   3.574   3.319   6.356
  755SOL     OW19406   5.109   0.925   5.988
  755SOL    HW119407   5.158   0.843   5.991
  755SOL    HW219408   5.176   0.993   5.998
  756SOL     OW19409   1.564   2.992   0.823
  756SOL    HW119410   1.626   3.060   0.849
  756SOL    HW219411   1.497   3.037   0.772
  757SOL     OW19412   5.449   4.586   2.212
  757SOL    HW119413   5.489   4.505   2.181
  757SOL    HW219414   5.445   4.641   2.134
  758SOL     OW19415   2.878   4.726   1.496
  758SOL    HW119416   2.803   4.667   1.489
  758SOL    HW219417   2.897   4.729   1.590
  759SOL     OW19418   2.612   6.074   6.840
  759SOL    HW119419   2.518   6.061   6.854
  759SOL    HW219420   2.618   6.115   6.754
  760SOL     OW19421   3.570   2.420   1.346
  760SOL    HW119422   3.490   2.368   1.344
  760SOL    HW219423   3.622   2.387   1.272
  761SOL     OW19424   2.226   1.438   7.011
  761SOL    HW119425   2.305   1.421   7.062
  761SOL    HW219426   2.160   1.456   7.076
  762SOL     OW19427   1.232   1.408   1.231
  762SOL    HW119428   1.250   1.387   1.322
  762SOL    HW219429   1.136   1.407   1.224
  763SOL     OW19430   5.973   5.044   0.652
  763SOL    HW119431   6.008   5.132   0.660
  763SOL    HW219432   5.902   5.051   0.588
  764SOL     OW19433   5.307   3.927   7.085
  764SOL    HW119434   5.293   3.866   7.157
  764SOL    HW219435   5.402   3.938   7.082
  765SOL     OW19436   1.368   5.914   1.547
  765SOL    HW119437   1.282   5.892   1.511
  765SOL    HW219438   1.349   5.955   1.631
  766SOL     OW19439   0.085   5.665   7.103
  766SOL    HW119440   0.135   5.746   7.113
  766SOL    HW219441   0.045   5.671   7.016
  767SOL     OW19442   1.311   1.838   0.970
  767SOL    HW119443   1.255   1.856   0.894
  767SOL    HW219444   1.272   1.760   1.009
  768SOL     OW19445   3.534   2.890   7.612
  768SOL    HW119446   3.491   2.812   7.576
  768SOL    HW219447   3.560   2.864   7.701
  769SOL     OW19448   0.873   4.410   1.563
  769SOL    HW119449   0.780   4.407   1.545
  769SOL    HW219450   0.914   4.367   1.487
  770SOL     OW19451   4.548   3.759   6.148
  770SOL    HW119452   4.468   3.716   6.118
  770SOL    HW219453   4.608   3.687   6.167
  771SOL     OW19454   4.159   0.384   0.347
  771SOL    HW119455   4.147   0.414   0.437
  771SOL    HW219456   4.212   0.304   0.355
  772SOL     OW19457   4.053   4.668   6.208
  772SOL    HW119458   4.040   4.576   6.182
  772SOL    HW219459   4.130   4.696   6.159
  773SOL     OW19460   1.277   0.083   6.912
  773SOL    HW119461   1.351   0.051   6.861
  773SOL    HW219462   1.224   0.005   6.929
  774SOL     OW19463   3.617   4.875   1.309
  774SOL    HW119464   3.565   4.942   1.264
  774SOL    HW219465   3.703   4.916   1.322
  775SOL     OW19466   4.592   3.860   0.026
  775SOL    HW119467   4.685   3.867   0.046
  775SOL    HW219468   4.550   3.920   0.088
  776SOL     OW19469   0.221   0.067   2.668
  776SOL    HW119470   0.137   0.053   2.625
  776SOL    HW219471   0.285   0.027   2.610
  777SOL     OW19472   1.488   0.801   5.641
  777SOL    HW119473   1.554   0.869   5.649
  777SOL    HW219474   1.472   0.794   5.547
  778SOL     OW19475   2.749   1.056   0.302
  778SOL    HW119476   2.772   0.982   0.246
  778SOL    HW219477   2.763   1.134   0.247
  779SOL     OW19478   2.100   2.551   1.609
  779SOL    HW119479   2.032   2.558   1.676
  779SOL    HW219480   2.159   2.624   1.626
  780SOL     OW19481   0.793   1.065   1.178
  780SOL    HW119482   0.739   0.997   1.217
  780SOL    HW219483   0.758   1.147   1.213
  781SOL     OW19484   5.785   5.933   1.580
  781SOL    HW119485   5.862   5.887   1.613
  781SOL    HW219486   5.711   5.881   1.609
  782SOL     OW19487   2.959   1.071   6.176
  782SOL    HW119488   3.014   0.992   6.183
  782SOL    HW219489   3.020   1.140   6.150
  783SOL     OW19490   2.798   2.949   7.604
  783SOL    HW119491   2.755   2.885   7.547
  783SOL    HW219492   2.790   3.032   7.558
  784SOL     OW19493   2.414   1.671   7.765
  784SOL    HW119494   2.467   1.739   7.722
  784SOL    HW219495   2.404   1.702   7.855
  785SOL     OW19496   0.310   5.275   6.311
  785SOL    HW119497   0.241   5.209   6.301
  785SOL    HW219498   0.364   5.242   6.383
  786SOL     OW19499   3.783   2.599   7.474
  786SOL    HW119500   3.719   2.555   7.530
  786SOL    HW219501   3.752   2.585   7.385
  787SOL     OW19502   1.844   2.580   6.014
  787SOL    HW119503   1.857   2.643   5.944
  787SOL    HW219504   1.926   2.581   6.063
  788SOL     OW19505   5.144   0.560   2.463
  788SOL    HW119506   5.142   0.553   2.368
  788SOL    HW219507   5.059   0.526   2.491
  789SOL     OW19508   5.612   1.343   1.593
  789SOL    HW119509   5.611   1.417   1.532
  789SOL    HW219510   5.662   1.375   1.668
  790SOL     OW19511   5.019   4.082   1.449
  790SOL    HW119512   5.084   4.014   1.464
  790SOL    HW219513   5.062   4.145   1.391
  791SOL     OW19514   0.185   4.531   7.663
  791SOL    HW119515   0.269   4.528   7.618
  791SOL    HW219516   0.151   4.442   7.657
  792SOL     OW19517   3.591   1.385   6.807
  792SOL    HW119518   3.580   1.313   6.869
  792SOL    HW219519   3.647   1.448   6.853
  793SOL     OW19520   5.967   5.634   0.811
  793SOL    HW119521   5.999   5.627   0.721
  793SOL    HW219522   6.026   5.698   0.851
  794SOL     OW19523   4.407   1.582   6.525
  794SOL    HW119524   4.399   1.623   6.611
  794SOL    HW219525   4.464   1.641   6.475
  795SOL     OW19526   5.931   5.527   0.213
  795SOL    HW119527   5.962   5.614   0.188
  795SOL    HW219528   5.870   5.502   0.143
  796SOL     OW19529   0.805   4.525   0.817
  796SOL    HW119530   0.843   4.587   0.754
  796SOL    HW219531   0.868   4.523   0.889
  797SOL     OW19532   5.461   3.255   5.905
  797SOL    HW119533   5.470   3.275   5.811
  797SOL    HW219534   5.380   3.206   5.911
  798SOL     OW19535   1.260   4.061   5.488
  798SOL    HW119536   1.165   4.073   5.491
  798SOL    HW219537   1.273   4.000   5.415
  799SOL     OW19538   1.757   5.559   1.507
  799SOL    HW119539   1.766   5.627   1.574
  799SOL    HW219540   1.812   5.487   1.539
  800SOL     OW19541   1.061   2.674   0.144
  800SOL    HW119542   1.086   2.708   0.058
  800SOL    HW219543   0.982   2.723   0.167
  801SOL     OW19544   2.120   3.648   1.868
  801SOL    HW119545   2.147   3.641   1.960
  801SOL    HW219546   2.046   3.709   1.869
  802SOL     OW19547   1.257   1.680   7.268
  802SOL    HW119548   1.206   1.599   7.263
  802SOL    HW219549   1.234   1.717   7.353
  803SOL     OW19550   2.768   0.822   0.084
  803SOL    HW119551   2.676   0.797   0.094
  803SOL    HW219552   2.770   0.869   0.000
  804SOL     OW19553   6.445   4.141   5.985
  804SOL    HW119554   6.422   4.087   6.060
  804SOL    HW219555   6.407   4.096   5.910
  805SOL     OW19556   1.009   3.040   7.203
  805SOL    HW119557   0.931   3.052   7.149
  805SOL    HW219558   1.053   2.964   7.164
  806SOL     OW19559   4.721   0.577   6.820
  806SOL    HW119560   4.655   0.510   6.802
  806SOL    HW219561   4.804   0.533   6.806
  807SOL     OW19562   6.185   1.203   5.697
  807SOL    HW119563   6.178   1.117   5.656
  807SOL    HW219564   6.132   1.261   5.642
  808SOL     OW19565   6.305   3.581   6.892
  808SOL    HW119566   6.257   3.498   6.890
  808SOL    HW219567   6.239   3.645   6.920
  809SOL     OW19568   5.367   4.102   0.041
  809SOL    HW119569   5.295   4.165   0.027
  809SOL    HW219570   5.398   4.121   0.130
  810SOL     OW19571   4.252   0.365   2.540
  810SOL    HW119572   4.296   0.418   2.607
  810SOL    HW219573   4.302   0.283   2.538
  811SOL     OW19574   4.895   2.148   5.479
  811SOL    HW119575   4.837   2.115   5.410
  811SOL    HW219576   4.981   2.151   5.439
  812SOL     OW19577   0.373   6.374   2.529
  812SOL    HW119578   0.422   6.306   2.576
  812SOL    HW219579   0.343   6.331   2.449
  813SOL     OW19580   3.438   1.207   5.413
  813SOL    HW119581   3.343   1.210   5.406
  813SOL    HW219582   3.461   1.288   5.459
  814SOL     OW19583   1.088   4.714   6.768
  814SOL    HW119584   1.108   4.661   6.691
  814SOL    HW219585   1.136   4.671   6.839
  815SOL     OW19586   0.004   4.316   1.017
  815SOL    HW119587   0.072   4.258   0.982
  815SOL    HW219588   0.017   4.313   1.112
  816SOL     OW19589   5.198   1.058   6.301
  816SOL    HW119590   5.239   1.086   6.219
  816SOL    HW219591   5.204   0.962   6.299
  817SOL     OW19592   2.236   5.358   6.377
  817SOL    HW119593   2.246   5.263   6.372
  817SOL    HW219594   2.226   5.376   6.470
  818SOL     OW19595   5.379   2.377   1.149
  818SOL    HW119596   5.435   2.451   1.125
  818SOL    HW219597   5.345   2.344   1.066
  819SOL     OW19598   2.125   0.195   7.539
  819SOL    HW119599   2.157   0.222   7.453
  819SOL    HW219600   2.030   0.199   7.532
  820SOL     OW19601   3.725   1.913   1.610
  820SOL    HW119602   3.632   1.919   1.631
  820SOL    HW219603   3.769   1.954   1.684
  821SOL     OW19604   2.376   0.368   0.983
  821SOL    HW119605   2.462   0.327   0.985
  821SOL    HW219606   2.354   0.382   1.076
  822SOL     OW19607   0.318   3.290   6.220
  822SOL    HW119608   0.291   3.369   6.267
  822SOL    HW219609   0.285   3.303   6.131
  823SOL     OW19610   3.109   1.249   1.911
  823SOL    HW119611   3.147   1.187   1.849
  823SOL    HW219612   3.122   1.335   1.871
  824SOL     OW19613   4.025   6.289   0.014
  824SOL    HW119614   4.088   6.269   0.083
  824SOL    HW219615   3.942   6.302   0.060
  825SOL     OW19616   5.026   5.249   7.690
  825SOL    HW119617   4.972   5.300   7.749
  825SOL    HW219618   5.084   5.313   7.649
  826SOL     OW19619   6.416   5.343   6.908
  826SOL    HW119620   6.363   5.409   6.863
  826SOL    HW219621   6.506   5.375   6.900
  827SOL     OW19622   2.741   3.400   5.970
  827SOL    HW119623   2.647   3.385   5.970
  827SOL    HW219624   2.756   3.463   6.039
  828SOL     OW19625   0.938   2.399   0.745
  828SOL    HW119626   1.023   2.355   0.737
  828SOL    HW219627   0.959   2.492   0.748
  829SOL     OW19628   3.546   5.300   1.026
  829SOL    HW119629   3.495   5.340   1.096
  829SOL    HW219630   3.550   5.366   0.957
  830SOL     OW19631   1.707   1.558   1.717
  830SOL    HW119632   1.661   1.616   1.778
  830SOL    HW219633   1.739   1.615   1.648
  831SOL     OW19634   2.593   0.191   1.016
  831SOL    HW119635   2.634   0.126   1.072
  831SOL    HW219636   2.503   0.159   1.003
  832SOL     OW19637   6.150   4.864   5.190
  832SOL    HW119638   6.131   4.945   5.238
  832SOL    HW219639   6.225   4.826   5.237
  833SOL     OW19640   5.019   1.186   6.999
  833SOL    HW119641   4.931   1.196   7.034
  833SOL    HW219642   5.077   1.190   7.075
  834SOL     OW19643   6.162   3.700   0.203
  834SOL    HW119644   6.184   3.662   0.117
  834SOL    HW219645   6.246   3.704   0.249
  835SOL     OW19646   4.186   5.024   7.483
  835SOL    HW119647   4.221   5.073   7.409
  835SOL    HW219648   4.115   5.078   7.517
  836SOL     OW19649   4.878   1.176   0.199
  836SOL    HW119650   4.969   1.154   0.216
  836SOL    HW219651   4.852   1.116   0.130
  837SOL     OW19652   1.617   2.004   1.316
  837SOL    HW119653   1.703   2.008   1.275
  837SOL    HW219654   1.556   2.024   1.245
  838SOL     OW19655   1.889   3.373   7.473
  838SOL    HW119656   1.898   3.323   7.391
  838SOL    HW219657   1.937   3.454   7.457
  839SOL     OW19658   3.914   1.943   1.855
  839SOL    HW119659   3.862   2.021   1.871
  839SOL    HW219660   3.854   1.870   1.875
  840SOL     OW19661   0.151   4.375   6.015
  840SOL    HW119662   0.085   4.305   6.019
  840SOL    HW219663   0.212   4.347   5.947
  841SOL     OW19664   3.704   4.165   6.890
  841SOL    HW119665   3.649   4.242   6.903
  841SOL    HW219666   3.765   4.166   6.963
  842SOL     OW19667   4.524   4.857   7.015
  842SOL    HW119668   4.452   4.816   7.062
  842SOL    HW219669   4.573   4.784   6.977
  843SOL     OW19670   5.464   0.540   0.677
  843SOL    HW119671   5.385   0.498   0.643
  843SOL    HW219672   5.506   0.578   0.601
  844SOL     OW19673   5.144   5.956   5.560
  844SOL    HW119674   5.203   5.972   5.633
  844SOL    HW219675   5.065   5.919   5.601
  845SOL     OW19676   1.797   3.887   0.580
  845SOL    HW119677   1.841   3.921   0.659
  845SOL    HW219678   1.824   3.947   0.510
  846SOL     OW19679   0.053   6.375   1.408
  846SOL    HW119680  -0.031   6.370   1.364
  846SOL    HW219681   0.109   6.315   1.360
  847SOL     OW19682   5.990   0.467   5.644
  847SOL    HW119683   5.919   0.412   5.609
  847SOL    HW219684   6.063   0.406   5.654
  848SOL     OW19685   3.555   6.169   2.237
  848SOL    HW119686   3.484   6.201   2.180
  848SOL    HW219687   3.567   6.240   2.301
  849SOL     OW19688   3.616   0.512   0.440
  849SOL    HW119689   3.683   0.560   0.487
  849SOL    HW219690   3.541   0.570   0.438
  850SOL     OW19691   1.282   5.373   7.747
  850SOL    HW119692   1.320   5.461   7.737
  850SOL    HW219693   1.192   5.382   7.717
  851SOL     OW19694   5.121   6.357   1.191
  851SOL    HW119695   5.045   6.306   1.220
  851SOL    HW219696   5.140   6.416   1.263
  852SOL     OW19697   5.457   0.113   7.575
  852SOL    HW119698   5.409   0.145   7.651
  852SOL    HW219699   5.390   0.096   7.509
  853SOL     OW19700   6.425   4.537   6.753
  853SOL    HW119701   6.346   4.501   6.711
  853SOL    HW219702   6.425   4.497   6.840
  854SOL     OW19703   0.715   0.637   6.256
  854SOL    HW119704   0.681   0.726   6.243
  854SOL    HW219705   0.652   0.596   6.315
  855SOL     OW19706   1.037   1.598   1.278
  855SOL    HW119707   1.018   1.566   1.366
  855SOL    HW219708   0.975   1.669   1.263
  856SOL     OW19709   5.025   1.602   7.407
  856SOL    HW119710   5.039   1.693   7.432
  856SOL    HW219711   4.947   1.575   7.456
  857SOL     OW19712   4.338   6.169   6.206
  857SOL    HW119713   4.388   6.193   6.128
  857SOL    HW219714   4.372   6.225   6.276
  858SOL     OW19715   4.349   0.526   0.174
  858SOL    HW119716   4.283   0.542   0.107
  858SOL    HW219717   4.304   0.473   0.240
  859SOL     OW19718   5.771   4.837   7.362
  859SOL    HW119719   5.810   4.838   7.449
  859SOL    HW219720   5.794   4.922   7.325
  860SOL     OW19721   4.751   1.848   1.023
  860SOL    HW119722   4.675   1.799   1.055
  860SOL    HW219723   4.753   1.927   1.078
  861SOL     OW19724   0.598   1.363   5.855
  861SOL    HW119725   0.603   1.386   5.762
  861SOL    HW219726   0.588   1.446   5.900
  862SOL     OW19727   0.081   2.821   7.056
  862SOL    HW119728   0.089   2.748   6.994
  862SOL    HW219729   0.165   2.866   7.051
  863SOL     OW19730   0.324   4.569   6.448
  863SOL    HW119731   0.369   4.654   6.448
  863SOL    HW219732   0.274   4.568   6.529
  864SOL     OW19733   1.652   3.611   6.475
  864SOL    HW119734   1.717   3.625   6.406
  864SOL    HW219735   1.652   3.517   6.490
  865SOL     OW19736   5.196   0.171   1.835
  865SOL    HW119737   5.170   0.127   1.754
  865SOL    HW219738   5.290   0.158   1.840
  866SOL     OW19739   3.640   2.639   2.418
  866SOL    HW119740   3.713   2.668   2.472
  866SOL    HW219741   3.574   2.707   2.427
  867SOL     OW19742   6.207   5.798   7.752
  867SOL    HW119743   6.294   5.834   7.741
  867SOL    HW219744   6.153   5.845   7.688
  868SOL     OW19745   4.145   2.027   6.949
  868SOL    HW119746   4.064   2.077   6.960
  868SOL    HW219747   4.116   1.942   6.917
  869SOL     OW19748   1.832   4.839   7.195
  869SOL    HW119749   1.891   4.795   7.133
  869SOL    HW219750   1.767   4.773   7.217
  870SOL     OW19751   3.900   5.751   1.087
  870SOL    HW119752   3.974   5.692   1.093
  870SOL    HW219753   3.907   5.790   1.000
  871SOL     OW19754   5.629   0.083   1.479
  871SOL    HW119755   5.632   0.020   1.407
  871SOL    HW219756   5.719   0.112   1.490
  872SOL     OW19757   4.050   5.933   5.863
  872SOL    HW119758   4.062   5.949   5.956
  872SOL    HW219759   4.063   6.018   5.821
  873SOL     OW19760   2.217   0.057   0.778
  873SOL    HW119761   2.294   0.102   0.742
  873SOL    HW219762   2.209  -0.023   0.725
  874SOL     OW19763   4.670   2.527   1.189
  874SOL    HW119764   4.583   2.491   1.203
  874SOL    HW219765   4.727   2.473   1.244
  875SOL     OW19766   4.441   1.141   6.919
  875SOL    HW119767   4.420   1.217   6.865
  875SOL    HW219768   4.360   1.122   6.967
  876SOL     OW19769   5.475   4.215   7.357
  876SOL    HW119770   5.462   4.163   7.436
  876SOL    HW219771   5.404   4.186   7.298
  877SOL     OW19772   5.494   0.872   7.545
  877SOL    HW119773   5.524   0.845   7.632
  877SOL    HW219774   5.453   0.957   7.560
  878SOL     OW19775   5.333   5.366   7.274
  878SOL    HW119776   5.404   5.427   7.253
  878SOL    HW219777   5.260   5.395   7.219
  879SOL     OW19778   5.368   1.350   7.390
  879SOL    HW119779   5.408   1.374   7.307
  879SOL    HW219780   5.437   1.365   7.455
  880SOL     OW19781   0.116   1.169   6.567
  880SOL    HW119782   0.178   1.226   6.612
  880SOL    HW219783   0.165   1.089   6.549
  881SOL     OW19784   0.376   5.975   1.039
  881SOL    HW119785   0.445   5.918   1.007
  881SOL    HW219786   0.403   6.063   1.014
  882SOL     OW19787   5.474   1.684   7.278
  882SOL    HW119788   5.557   1.638   7.268
  882SOL    HW219789   5.407   1.617   7.268
  883SOL     OW19790   2.923   1.849   1.874
  883SOL    HW119791   2.914   1.861   1.968
  883SOL    HW219792   2.936   1.937   1.839
  884SOL     OW19793   5.083   4.465   7.655
  884SOL    HW119794   5.024   4.526   7.699
  884SOL    HW219795   5.053   4.465   7.564
  885SOL     OW19796   0.985   6.160   6.581
  885SOL    HW119797   0.916   6.149   6.646
  885SOL    HW219798   1.048   6.091   6.602
  886SOL     OW19799   5.730   4.212   0.892
  886SOL    HW119800   5.805   4.269   0.874
  886SOL    HW219801   5.678   4.214   0.812
  887SOL     OW19802   0.597   5.170   0.780
  887SOL    HW119803   0.671   5.136   0.829
  887SOL    HW219804   0.602   5.126   0.695
  888SOL     OW19805   1.398   5.579   0.685
  888SOL    HW119806   1.361   5.509   0.631
  888SOL    HW219807   1.331   5.596   0.751
  889SOL     OW19808   5.272   0.253   0.343
  889SOL    HW119809   5.255   0.188   0.275
  889SOL    HW219810   5.338   0.311   0.305
  890SOL     OW19811   0.671   1.741   6.966
  890SOL    HW119812   0.585   1.764   6.929
  890SOL    HW219813   0.651   1.710   7.054
  891SOL     OW19814   6.431   0.464   0.108
  891SOL    HW119815   6.359   0.450   0.046
  891SOL    HW219816   6.427   0.557   0.129
  892SOL     OW19817   5.452   2.737   6.221
  892SOL    HW119818   5.514   2.801   6.258
  892SOL    HW219819   5.480   2.653   6.257
  893SOL     OW19820   6.146   5.771   1.647
  893SOL    HW119821   6.166   5.686   1.687
  893SOL    HW219822   6.065   5.799   1.689
  894SOL     OW19823   4.629   3.926   7.273
  894SOL    HW119824   4.598   3.841   7.305
  894SOL    HW219825   4.549   3.974   7.252
  895SOL     OW19826   4.498   5.453   7.021
  895SOL    HW119827   4.579   5.475   6.976
  895SOL    HW219828   4.508   5.361   7.046
  896SOL     OW19829   0.557   5.565   7.744
  896SOL    HW119830   0.486   5.619   7.776
  896SOL    HW219831   0.586   5.608   7.664
  897SOL     OW19832   2.331   3.831   1.256
  897SOL    HW119833   2.332   3.800   1.165
  897SOL    HW219834   2.277   3.767   1.302
  898SOL     OW19835   0.386   0.579   0.109
  898SOL    HW119836   0.357   0.558   0.198
  898SOL    HW219837   0.340   0.516   0.053
  899SOL     OW19838   5.382   2.036   5.366
  899SOL    HW119839   5.471   2.024   5.333
  899SOL    HW219840   5.374   1.970   5.435
  900SOL     OW19841   5.818   0.043   5.586
  900SOL    HW119842   5.881   0.081   5.647
  900SOL    HW219843   5.791   0.116   5.531
  901SOL     OW19844   5.754   4.160   5.600
  901SOL    HW119845   5.751   4.066   5.583
  901SOL    HW219846   5.687   4.198   5.544
  902SOL     OW19847   4.935   2.822   2.210
  902SOL    HW119848   4.887   2.788   2.286
  902SOL    HW219849   5.022   2.844   2.243
  903SOL     OW19850   2.869   3.721   0.121
  903SOL    HW119851   2.920   3.753   0.195
  903SOL    HW219852   2.934   3.694   0.056
  904SOL     OW19853   0.393   0.958   6.399
  904SOL    HW119854   0.457   0.956   6.327
  904SOL    HW219855   0.425   1.027   6.457
  905SOL     OW19856   5.006   2.151   1.394
  905SOL    HW119857   5.017   2.197   1.477
  905SOL    HW219858   5.020   2.059   1.415
  906SOL     OW19859   2.581   0.117   0.437
  906SOL    HW119860   2.653   0.180   0.427
  906SOL    HW219861   2.527   0.129   0.359
  907SOL     OW19862   2.751   2.764   7.401
  907SOL    HW119863   2.688   2.754   7.329
  907SOL    HW219864   2.832   2.790   7.359
  908SOL     OW19865  -0.004   3.362   5.650
  908SOL    HW119866   0.086   3.366   5.682
  908SOL    HW219867  -0.008   3.426   5.579
  909SOL     OW19868   3.640   5.173   7.396
  909SOL    HW119869   3.697   5.102   7.366
  909SOL    HW219870   3.593   5.200   7.317
  910SOL     OW19871   4.633   2.835   0.483
  910SOL    HW119872   4.665   2.925   0.489
  910SOL    HW219873   4.638   2.815   0.389
  911SOL     OW19874   5.448   4.322   6.668
  911SOL    HW119875   5.369   4.357   6.627
  911SOL    HW219876   5.492   4.272   6.598
  912SOL     OW19877   2.434   0.826   0.468
  912SOL    HW119878   2.419   0.770   0.543
  912SOL    HW219879   2.347   0.849   0.437
  913SOL     OW19880   1.834   4.361   1.679
  913SOL    HW119881   1.916   4.317   1.699
  913SOL    HW219882   1.766   4.298   1.705
  914SOL     OW19883   0.174   6.084   0.184
  914SOL    HW119884   0.080   6.101   0.190
  914SOL    HW219885   0.185   5.998   0.226
  915SOL     OW19886   0.653   4.764   6.123
  915SOL    HW119887   0.586   4.700   6.099
  915SOL    HW219888   0.611   4.849   6.110
  916SOL     OW19889   6.092   3.187   6.532
  916SOL    HW119890   6.050   3.175   6.447
  916SOL    HW219891   6.090   3.100   6.571
  917SOL     OW19892   5.321   0.754   5.702
  917SOL    HW119893   5.405   0.710   5.687
  917SOL    HW219894   5.292   0.724   5.788
  918SOL     OW19895   3.372   2.404   0.241
  918SOL    HW119896   3.394   2.448   0.323
  918SOL    HW219897   3.416   2.456   0.174
  919SOL     OW19898   0.877   2.541   7.063
  919SOL    HW119899   0.896   2.531   7.156
  919SOL    HW219900   0.828   2.462   7.040
  920SOL     OW19901   5.323   5.759   5.822
  920SOL    HW119902   5.359   5.847   5.807
  920SOL    HW219903   5.385   5.700   5.780
  921SOL     OW19904   3.346   5.444   6.457
  921SOL    HW119905   3.345   5.394   6.375
  921SOL    HW219906   3.439   5.456   6.476
  922SOL     OW19907   1.348   5.308   6.968
  922SOL    HW119908   1.376   5.315   7.059
  922SOL    HW219909   1.287   5.234   6.966
  923SOL     OW19910   4.735   0.011   7.598
  923SOL    HW119911   4.748  -0.014   7.689
  923SOL    HW219912   4.641   0.003   7.583
  924SOL     OW19913   1.034   4.202   0.897
  924SOL    HW119914   1.003   4.118   0.930
  924SOL    HW219915   1.126   4.187   0.875
  925SOL     OW19916   1.462   2.955   7.098
  925SOL    HW119917   1.402   2.880   7.097
  925SOL    HW219918   1.416   3.023   7.048
  926SOL     OW19919   0.726   4.833   1.120
  926SOL    HW119920   0.773   4.798   1.196
  926SOL    HW219921   0.701   4.756   1.069
  927SOL     OW19922   4.672   6.427   6.631
  927SOL    HW119923   4.611   6.433   6.558
  927SOL    HW219924   4.653   6.503   6.686
  928SOL     OW19925   0.916   1.868   6.679
  928SOL    HW119926   0.910   1.899   6.769
  928SOL    HW219927   1.004   1.896   6.650
  929SOL     OW19928   5.433   5.243   2.099
  929SOL    HW119929   5.396   5.327   2.126
  929SOL    HW219930   5.509   5.267   2.045
  930SOL     OW19931   1.058   3.190   5.891
  930SOL    HW119932   0.994   3.123   5.865
  930SOL    HW219933   1.070   3.243   5.813
  931SOL     OW19934   5.441   2.729   0.400
  931SOL    HW119935   5.434   2.825   0.397
  931SOL    HW219936   5.369   2.701   0.455
  932SOL     OW19937   6.434   5.139   2.545
  932SOL    HW119938   6.519   5.136   2.589
  932SOL    HW219939   6.421   5.052   2.508
  933SOL     OW19940   3.368   5.952   1.066
  933SOL    HW119941   3.360   6.025   1.128
  933SOL    HW219942   3.318   5.979   0.990
  934SOL     OW19943   0.343   1.768   7.195
  934SOL    HW119944   0.316   1.683   7.230
  934SOL    HW219945   0.262   1.818   7.187
  935SOL     OW19946   2.672   6.315   7.648
  935SOL    HW119947   2.668   6.282   7.558
  935SOL    HW219948   2.580   6.313   7.677
  936SOL     OW19949   3.136   4.437   5.353
  936SOL    HW119950   3.069   4.413   5.289
  936SOL    HW219951   3.142   4.362   5.412
  937SOL     OW19952   5.889   2.139   6.238
  937SOL    HW119953   5.793   2.140   6.234
  937SOL    HW219954   5.916   2.098   6.155
  938SOL     OW19955   2.796   0.185   0.139
  938SOL    HW119956   2.760   0.264   0.100
  938SOL    HW219957   2.743   0.170   0.217
  939SOL     OW19958   6.210   2.867   5.578
  939SOL    HW119959   6.190   2.819   5.659
  939SOL    HW219960   6.267   2.808   5.529
  940SOL     OW19961   4.571   1.012   6.436
  940SOL    HW119962   4.476   1.024   6.437
  940SOL    HW219963   4.587   0.953   6.363
  941SOL     OW19964   6.111   3.321   0.984
  941SOL    HW119965   6.045   3.257   1.011
  941SOL    HW219966   6.152   3.349   1.065
  942SOL     OW19967   1.028   3.884   1.445
  942SOL    HW119968   1.112   3.926   1.464
  942SOL    HW219969   1.025   3.809   1.505
  943SOL     OW19970   0.904   2.285   1.360
  943SOL    HW119971   0.946   2.264   1.443
  943SOL    HW219972   0.969   2.334   1.311
  944SOL     OW19973   4.446   2.533   7.644
  944SOL    HW119974   4.371   2.576   7.684
  944SOL    HW219975   4.458   2.579   7.560
  945SOL     OW19976   2.079   2.197   7.176
  945SOL    HW119977   2.006   2.252   7.145
  945SOL    HW219978   2.089   2.221   7.268
  946SOL     OW19979   0.613   1.308   7.640
  946SOL    HW119980   0.702   1.282   7.665
  946SOL    HW219981   0.622   1.399   7.611
  947SOL     OW19982   0.501   5.824   6.541
  947SOL    HW119983   0.520   5.909   6.579
  947SOL    HW219984   0.406   5.816   6.547
  948SOL     OW19985   1.264   2.720   1.838
  948SOL    HW119986   1.213   2.801   1.845
  948SOL    HW219987   1.214   2.656   1.890
  949SOL     OW19988   1.370   0.777   7.054
  949SOL    HW119989   1.299   0.831   7.089
  949SOL    HW219990   1.359   0.692   7.096
  950SOL     OW19991   4.155   6.027   1.342
  950SOL    HW119992   4.155   5.967   1.268
  950SOL    HW219993   4.130   6.112   1.305
  951SOL     OW19994   3.863   0.112   7.228
  951SOL    HW119995   3.887   0.054   7.300
  951SOL    HW219996   3.846   0.197   7.269
  952SOL     OW19997   3.355   1.498   6.994
  952SOL    HW119998   3.312   1.429   7.044
  952SOL    HW219999   3.431   1.522   7.047
  953SOL     OW20000   5.614   0.221   0.132
  953SOL    HW120001   5.568   0.296   0.172
  953SOL    HW220002   5.554   0.147   0.145
  954SOL     OW20003   0.873   3.485   1.635
  954SOL    HW120004   0.868   3.507   1.542
  954SOL    HW220005   0.792   3.522   1.672
  955SOL     OW20006   5.641   2.907   0.913
  955SOL    HW120007   5.719   2.947   0.952
  955SOL    HW220008   5.671   2.821   0.884
  956SOL     OW20009   5.697   4.111   7.266
  956SOL    HW120010   5.739   4.196   7.254
  956SOL    HW220011   5.613   4.131   7.306
  957SOL     OW20012   2.692   1.447   7.238
  957SOL    HW120013   2.637   1.521   7.262
  957SOL    HW220014   2.727   1.414   7.321
  958SOL     OW20015   1.864   5.511   6.871
  958SOL    HW120016   1.846   5.431   6.820
  958SOL    HW220017   1.942   5.489   6.922
  959SOL     OW20018   0.130   0.036   0.273
  959SOL    HW120019   0.179   0.053   0.193
  959SOL    HW220020   0.196   0.015   0.338
  960SOL     OW20021   0.259   1.129   6.941
  960SOL    HW120022   0.179   1.167   6.905
  960SOL    HW220023   0.327   1.194   6.920
  961SOL     OW20024   0.715   0.800   7.675
  961SOL    HW120025   0.715   0.891   7.646
  961SOL    HW220026   0.662   0.800   7.755
  962SOL     OW20027   5.619   5.562   1.998
  962SOL    HW120028   5.673   5.554   1.918
  962SOL    HW220029   5.567   5.640   1.984
  963SOL     OW20030   2.299   3.000   0.054
  963SOL    HW120031   2.234   2.992  -0.016
  963SOL    HW220032   2.270   2.939   0.122
  964SOL     OW20033   5.433   6.088   0.520
  964SOL    HW120034   5.393   6.022   0.576
  964SOL    HW220035   5.524   6.061   0.511
  965SOL     OW20036   3.824   1.703   6.069
  965SOL    HW120037   3.915   1.679   6.053
  965SOL    HW220038   3.783   1.701   5.983
  966SOL     OW20039   4.362   1.387   7.550
  966SOL    HW120040   4.412   1.351   7.623
  966SOL    HW220041   4.426   1.395   7.479
  967SOL     OW20042   5.240   0.212   7.148
  967SOL    HW120043   5.223   0.197   7.055
  967SOL    HW220044   5.335   0.213   7.155
  968SOL     OW20045   1.309   5.041   1.327
  968SOL    HW120046   1.320   4.964   1.383
  968SOL    HW220047   1.312   5.115   1.387
  969SOL     OW20048   6.388   2.872   7.644
  969SOL    HW120049   6.447   2.942   7.614
  969SOL    HW220050   6.306   2.916   7.664
  970SOL     OW20051   5.400   4.075   5.467
  970SOL    HW120052   5.396   4.042   5.557
  970SOL    HW220053   5.484   4.121   5.462
  971SOL     OW20054   1.711   1.268   7.138
  971SOL    HW120055   1.736   1.346   7.189
  971SOL    HW220056   1.756   1.196   7.182
  972SOL     OW20057   1.900   1.717   2.022
  972SOL    HW120058   1.986   1.754   2.002
  972SOL    HW220059   1.915   1.624   2.032
  973SOL     OW20060   0.549   6.100   6.251
  973SOL    HW120061   0.524   6.026   6.196
  973SOL    HW220062   0.633   6.076   6.288
  974SOL     OW20063   3.753   0.861   5.145
  974SOL    HW120064   3.835   0.909   5.146
  974SOL    HW220065   3.691   0.918   5.191
  975SOL     OW20066   5.009   2.016   7.004
  975SOL    HW120067   4.983   1.950   7.069
  975SOL    HW220068   4.967   1.988   6.923
  976SOL     OW20069   4.781   5.201   7.542
  976SOL    HW120070   4.873   5.207   7.569
  976SOL    HW220071   4.785   5.194   7.446
  977SOL     OW20072   3.317   6.049   7.354
  977SOL    HW120073   3.234   6.091   7.331
  977SOL    HW220074   3.305   5.957   7.330
  978SOL     OW20075   0.063   0.051   0.740
  978SOL    HW120076   0.157   0.036   0.744
  978SOL    HW220077   0.030   0.025   0.826
  979SOL     OW20078   0.532   1.998   6.080
  979SOL    HW120079   0.582   2.036   6.007
  979SOL    HW220080   0.455   2.053   6.087
  980SOL     OW20081   6.180   3.446   6.442
  980SOL    HW120082   6.192   3.360   6.483
  980SOL    HW220083   6.237   3.445   6.366
  981SOL     OW20084   1.473   6.099   1.340
  981SOL    HW120085   1.457   6.030   1.405
  981SOL    HW220086   1.398   6.158   1.348
  982SOL     OW20087   3.649   1.734   5.795
  982SOL    HW120088   3.594   1.691   5.860
  982SOL    HW220089   3.608   1.820   5.782
  983SOL     OW20090   3.408   6.336   6.083
  983SOL    HW120091   3.497   6.371   6.078
  983SOL    HW220092   3.363   6.375   6.008
  984SOL     OW20093   0.507   1.853   0.565
  984SOL    HW120094   0.482   1.813   0.648
  984SOL    HW220095   0.426   1.892   0.532
  985SOL     OW20096   1.286   0.472   7.526
  985SOL    HW120097   1.264   0.430   7.609
  985SOL    HW220098   1.322   0.401   7.472
  986SOL     OW20099   2.769   0.338   0.415
  986SOL    HW120100   2.751   0.428   0.386
  986SOL    HW220101   2.839   0.347   0.479
  987SOL     OW20102   4.940   2.463   1.878
  987SOL    HW120103   4.925   2.558   1.876
  987SOL    HW220104   5.029   2.453   1.846
  988SOL     OW20105   0.797   2.770   6.966
  988SOL    HW120106   0.805   2.674   6.971
  988SOL    HW220107   0.888   2.800   6.959
  989SOL     OW20108   5.525   4.697   0.238
  989SOL    HW120109   5.461   4.627   0.235
  989SOL    HW220110   5.473   4.777   0.245
  990SOL     OW20111   5.476   4.920   6.217
  990SOL    HW120112   5.390   4.895   6.250
  990SOL    HW220113   5.486   4.870   6.136
  991SOL     OW20114   4.907   3.975   6.119
  991SOL    HW120115   4.823   4.010   6.148
  991SOL    HW220116   4.908   3.990   6.025
  992SOL     OW20117   6.027   0.996   1.568
  992SOL    HW120118   6.051   1.057   1.498
  992SOL    HW220119   5.949   1.035   1.608
  993SOL     OW20120   4.545   4.321   6.021
  993SOL    HW120121   4.500   4.399   6.053
  993SOL    HW220122   4.510   4.249   6.074
  994SOL     OW20123   3.914   0.909   6.696
  994SOL    HW120124   3.968   0.831   6.702
  994SOL    HW220125   3.877   0.906   6.607
  995SOL     OW20126   2.651   1.057   6.849
  995SOL    HW120127   2.745   1.047   6.864
  995SOL    HW220128   2.634   1.150   6.866
  996SOL     OW20129   3.077   6.220   7.127
  996SOL    HW120130   3.166   6.223   7.094
  996SOL    HW220131   3.051   6.128   7.119
  997SOL     OW20132   3.941   2.141   5.975
  997SOL    HW120133   4.031   2.141   5.942
  997SOL    HW220134   3.890   2.181   5.905
  998SOL     OW20135   1.873   0.176   7.237
  998SOL    HW120136   1.940   0.139   7.295
  998SOL    HW220137   1.906   0.161   7.149
  999SOL     OW20138   3.009   1.871   6.216
  999SOL    HW120139   3.020   1.913   6.131
  999SOL    HW220140   3.075   1.911   6.272
 1000SOL     OW20141   6.288   2.472   7.687
 1000SOL    HW120142   6.258   2.539   7.749
 1000SOL    HW220143   6.379   2.456   7.711
 1001SOL     OW20144   6.075   1.467   0.654
 1001SOL    HW120145   6.033   1.548   0.626
 1001SOL    HW220146   6.168   1.489   0.663
 1002SOL     OW20147   1.437   4.624   1.712
 1002SOL    HW120148   1.500   4.665   1.772
 1002SOL    HW220149   1.371   4.586   1.769
 1003SOL     OW20150   1.043   5.273   0.702
 1003SOL    HW120151   1.017   5.324   0.778
 1003SOL    HW220152   1.109   5.326   0.658
 1004SOL     OW20153   0.845   5.410   0.208
 1004SOL    HW120154   0.882   5.454   0.284
 1004SOL    HW220155   0.855   5.473   0.136
 1005SOL     OW20156   4.174   5.975   6.470
 1005SOL    HW120157   4.198   6.068   6.470
 1005SOL    HW220158   4.180   5.949   6.562
 1006SOL     OW20159   5.430   3.691   1.875
 1006SOL    HW120160   5.494   3.631   1.837
 1006SOL    HW220161   5.397   3.741   1.801
 1007SOL     OW20162   4.417   1.472   5.996
 1007SOL    HW120163   4.475   1.521   6.055
 1007SOL    HW220164   4.398   1.533   5.925
 1008SOL     OW20165   5.687   6.212   2.484
 1008SOL    HW120166   5.775   6.241   2.461
 1008SOL    HW220167   5.630   6.283   2.457
 1009SOL     OW20168   0.741   3.658   7.689
 1009SOL    HW120169   0.729   3.753   7.685
 1009SOL    HW220170   0.655   3.624   7.711
 1010SOL     OW20171   0.975   6.017   5.195
 1010SOL    HW120172   1.000   6.071   5.270
 1010SOL    HW220173   1.053   6.015   5.140
 1011SOL     OW20174   4.446   4.168   7.469
 1011SOL    HW120175   4.422   4.078   7.493
 1011SOL    HW220176   4.426   4.173   7.375
 1012SOL     OW20177   4.171   3.499   1.810
 1012SOL    HW120178   4.252   3.455   1.786
 1012SOL    HW220179   4.169   3.495   1.906
 1013SOL     OW20180   0.407   3.704   5.514
 1013SOL    HW120181   0.324   3.752   5.503
 1013SOL    HW220182   0.384   3.613   5.499
 1014SOL     OW20183   0.267   1.531   7.266
 1014SOL    HW120184   0.321   1.465   7.309
 1014SOL    HW220185   0.177   1.505   7.287
 1015SOL     OW20186   3.181   3.877   6.097
 1015SOL    HW120187   3.262   3.830   6.079
 1015SOL    HW220188   3.194   3.916   6.183
 1016SOL     OW20189   3.861   0.994   2.314
 1016SOL    HW120190   3.892   1.069   2.364
 1016SOL    HW220191   3.771   1.016   2.291
 1017SOL     OW20192   6.150   4.453   6.708
 1017SOL    HW120193   6.131   4.456   6.614
 1017SOL    HW220194   6.110   4.372   6.739
 1018SOL     OW20195   3.164   3.568   1.747
 1018SOL    HW120196   3.259   3.566   1.754
 1018SOL    HW220197   3.141   3.485   1.704
 1019SOL     OW20198   4.974   4.766   1.635
 1019SOL    HW120199   5.065   4.784   1.656
 1019SOL    HW220200   4.938   4.851   1.609
 1020SOL     OW20201   3.225   0.340   6.671
 1020SOL    HW120202   3.279   0.418   6.683
 1020SOL    HW220203   3.214   0.332   6.576
 1021SOL     OW20204   2.932   5.078   7.435
 1021SOL    HW120205   3.020   5.111   7.457
 1021SOL    HW220206   2.903   5.032   7.514
 1022SOL     OW20207   3.868   2.560   0.311
 1022SOL    HW120208   3.826   2.500   0.373
 1022SOL    HW220209   3.806   2.633   0.303
 1023SOL     OW20210   3.456   2.594   5.794
 1023SOL    HW120211   3.545   2.558   5.787
 1023SOL    HW220212   3.400   2.518   5.807
 1024SOL     OW20213   1.582   0.101   7.208
 1024SOL    HW120214   1.493   0.067   7.198
 1024SOL    HW220215   1.620   0.096   7.120
 1025SOL     OW20216   4.993   1.384   2.445
 1025SOL    HW120217   4.910   1.349   2.478
 1025SOL    HW220218   5.054   1.310   2.451
 1026SOL     OW20219   2.872   2.789   1.431
 1026SOL    HW120220   2.960   2.752   1.422
 1026SOL    HW220221   2.834   2.744   1.506
 1027SOL     OW20222   1.767   4.590   7.712
 1027SOL    HW120223   1.765   4.682   7.740
 1027SOL    HW220224   1.676   4.561   7.722
 1028SOL     OW20225   0.785   1.543   0.921
 1028SOL    HW120226   0.779   1.634   0.951
 1028SOL    HW220227   0.877   1.531   0.896
 1029SOL     OW20228   3.896   3.802   5.551
 1029SOL    HW120229   3.827   3.859   5.516
 1029SOL    HW220230   3.906   3.733   5.485
 1030SOL     OW20231   4.334   0.970   1.322
 1030SOL    HW120232   4.411   0.921   1.350
 1030SOL    HW220233   4.262   0.932   1.372
 1031SOL     OW20234   3.440   6.125   1.292
 1031SOL    HW120235   3.514   6.074   1.261
 1031SOL    HW220236   3.372   6.060   1.312
 1032SOL     OW20237   1.952   4.631   6.553
 1032SOL    HW120238   2.005   4.662   6.626
 1032SOL    HW220239   2.013   4.580   6.499
 1033SOL     OW20240   4.900   5.975   5.791
 1033SOL    HW120241   4.954   5.934   5.860
 1033SOL    HW220242   4.852   5.902   5.752
 1034SOL     OW20243   3.486   1.031   6.201
 1034SOL    HW120244   3.454   1.107   6.249
 1034SOL    HW220245   3.543   1.067   6.133
 1035SOL     OW20246   0.585   0.649   5.921
 1035SOL    HW120247   0.654   0.715   5.910
 1035SOL    HW220248   0.506   0.701   5.935
 1036SOL     OW20249   2.336   1.663   5.764
 1036SOL    HW120250   2.409   1.724   5.754
 1036SOL    HW220251   2.258   1.719   5.768
 1037SOL     OW20252   4.574   2.968   1.260
 1037SOL    HW120253   4.635   2.896   1.243
 1037SOL    HW220254   4.597   2.998   1.348
 1038SOL     OW20255   6.362   3.923   5.690
 1038SOL    HW120256   6.312   4.000   5.719
 1038SOL    HW220257   6.322   3.899   5.606
 1039SOL     OW20258   0.387   0.142   2.878
 1039SOL    HW120259   0.477   0.120   2.855
 1039SOL    HW220260   0.334   0.096   2.813
 1040SOL     OW20261   2.343   3.119   0.338
 1040SOL    HW120262   2.289   3.084   0.267
 1040SOL    HW220263   2.369   3.206   0.307
 1041SOL     OW20264   3.767   3.545   6.179
 1041SOL    HW120265   3.701   3.606   6.146
 1041SOL    HW220266   3.717   3.470   6.211
 1042SOL     OW20267   5.867   6.330   5.100
 1042SOL    HW120268   5.841   6.277   5.025
 1042SOL    HW220269   5.912   6.268   5.158
 1043SOL     OW20270   4.112   1.949   1.023
 1043SOL    HW120271   4.121   1.909   1.110
 1043SOL    HW220272   4.019   1.942   1.003
 1044SOL     OW20273   5.427   1.779   6.523
 1044SOL    HW120274   5.372   1.715   6.569
 1044SOL    HW220275   5.433   1.746   6.434
 1045SOL     OW20276   4.485   4.833   0.490
 1045SOL    HW120277   4.510   4.850   0.399
 1045SOL    HW220278   4.541   4.761   0.518
 1046SOL     OW20279   2.066   1.128   6.375
 1046SOL    HW120280   2.021   1.150   6.294
 1046SOL    HW220281   2.007   1.068   6.421
 1047SOL     OW20282   4.204   1.413   1.020
 1047SOL    HW120283   4.282   1.358   1.013
 1047SOL    HW220284   4.228   1.495   0.977
 1048SOL     OW20285   0.281   5.119   7.375
 1048SOL    HW120286   0.256   5.120   7.468
 1048SOL    HW220287   0.202   5.150   7.330
 1049SOL     OW20288   2.097   0.099   1.610
 1049SOL    HW120289   2.191   0.092   1.601
 1049SOL    HW220290   2.067   0.134   1.526
 1050SOL     OW20291   2.895   1.227   0.901
 1050SOL    HW120292   2.868   1.242   0.810
 1050SOL    HW220293   2.827   1.170   0.937
 1051SOL     OW20294   3.807   0.507   5.752
 1051SOL    HW120295   3.743   0.438   5.735
 1051SOL    HW220296   3.849   0.523   5.668
 1052SOL     OW20297   2.389   4.473   7.740
 1052SOL    HW120298   2.454   4.470   7.809
 1052SOL    HW220299   2.361   4.564   7.736
 1053SOL     OW20300   0.782   4.051   0.380
 1053SOL    HW120301   0.841   3.976   0.385
 1053SOL    HW220302   0.830   4.122   0.422
 1054SOL     OW20303   3.019   3.752   1.597
 1054SOL    HW120304   3.037   3.686   1.664
 1054SOL    HW220305   3.072   3.725   1.522
 1055SOL     OW20306   5.568   4.137   1.365
 1055SOL    HW120307   5.597   4.206   1.305
 1055SOL    HW220308   5.478   4.119   1.339
 1056SOL     OW20309   5.727   0.073   6.527
 1056SOL    HW120310   5.696   0.022   6.602
 1056SOL    HW220311   5.821   0.058   6.525
 1057SOL     OW20312   6.088   1.807   0.783
 1057SOL    HW120313   6.143   1.882   0.805
 1057SOL    HW220314   6.075   1.762   0.866
 1058SOL     OW20315   6.042   6.185   7.719
 1058SOL    HW120316   6.030   6.091   7.704
 1058SOL    HW220317   6.031   6.195   7.814
 1059SOL     OW20318   5.801   3.989   1.031
 1059SOL    HW120319   5.773   4.060   0.974
 1059SOL    HW220320   5.891   4.010   1.053
 1060SOL     OW20321   1.562   4.158   0.582
 1060SOL    HW120322   1.542   4.196   0.667
 1060SOL    HW220323   1.590   4.069   0.601
 1061SOL     OW20324   0.028   5.950   7.565
 1061SOL    HW120325  -0.025   5.882   7.524
 1061SOL    HW220326   0.080   5.903   7.630
 1062SOL     OW20327   3.403   0.825   1.061
 1062SOL    HW120328   3.345   0.816   1.137
 1062SOL    HW220329   3.371   0.904   1.017
 1063SOL     OW20330   6.387   0.077   2.579
 1063SOL    HW120331   6.444   0.066   2.503
 1063SOL    HW220332   6.359  -0.012   2.601
 1064SOL     OW20333   3.092   4.305   6.610
 1064SOL    HW120334   3.086   4.390   6.653
 1064SOL    HW220335   3.183   4.279   6.620
 1065SOL     OW20336   4.184   4.747   6.755
 1065SOL    HW120337   4.111   4.804   6.777
 1065SOL    HW220338   4.164   4.715   6.666
 1066SOL     OW20339   6.248   5.083   6.188
 1066SOL    HW120340   6.214   5.105   6.275
 1066SOL    HW220341   6.273   4.991   6.194
 1067SOL     OW20342   2.234   1.335   5.981
 1067SOL    HW120343   2.240   1.313   5.888
 1067SOL    HW220344   2.226   1.430   5.983
 1068SOL     OW20345   4.255   3.020   0.884
 1068SOL    HW120346   4.231   2.956   0.816
 1068SOL    HW220347   4.249   3.105   0.840
 1069SOL     OW20348   5.587   4.615   2.740
 1069SOL    HW120349   5.650   4.543   2.738
 1069SOL    HW220350   5.613   4.668   2.816
 1070SOL     OW20351   4.783   1.434   1.677
 1070SOL    HW120352   4.704   1.486   1.691
 1070SOL    HW220353   4.767   1.353   1.726
 1071SOL     OW20354   5.574   2.729   6.996
 1071SOL    HW120355   5.655   2.729   7.048
 1071SOL    HW220356   5.555   2.637   6.981
 1072SOL     OW20357   5.868   2.112   1.174
 1072SOL    HW120358   5.860   2.191   1.228
 1072SOL    HW220359   5.888   2.145   1.086
 1073SOL     OW20360   5.010   6.105   6.355
 1073SOL    HW120361   4.920   6.103   6.324
 1073SOL    HW220362   5.030   6.198   6.365
 1074SOL     OW20363   4.008   3.798   1.565
 1074SOL    HW120364   3.919   3.831   1.575
 1074SOL    HW220365   3.997   3.713   1.522
 1075SOL     OW20366   1.059   5.123   5.758
 1075SOL    HW120367   0.974   5.080   5.746
 1075SOL    HW220368   1.112   5.091   5.685
 1076SOL     OW20369   2.925   2.542   6.360
 1076SOL    HW120370   2.942   2.462   6.312
 1076SOL    HW220371   2.953   2.612   6.300
 1077SOL     OW20372   0.646   2.261   6.689
 1077SOL    HW120373   0.683   2.183   6.647
 1077SOL    HW220374   0.717   2.325   6.686
 1078SOL     OW20375   5.985   4.292   1.165
 1078SOL    HW120376   6.014   4.282   1.256
 1078SOL    HW220377   5.915   4.227   1.156
 1079SOL     OW20378   2.178   4.008   7.306
 1079SOL    HW120379   2.157   4.053   7.388
 1079SOL    HW220380   2.264   3.970   7.321
 1080SOL     OW20381   5.694   1.344   1.228
 1080SOL    HW120382   5.609   1.300   1.228
 1080SOL    HW220383   5.730   1.327   1.141
 1081SOL     OW20384   6.004   4.216   6.759
 1081SOL    HW120385   6.073   4.157   6.726
 1081SOL    HW220386   5.926   4.189   6.710
 1082SOL     OW20387   2.154   5.787   0.450
 1082SOL    HW120388   2.177   5.812   0.361
 1082SOL    HW220389   2.236   5.783   0.497
 1083SOL     OW20390   0.784   5.073   0.962
 1083SOL    HW120391   0.747   4.999   1.011
 1083SOL    HW220392   0.764   5.150   1.015
 1084SOL     OW20393   2.690   6.253   7.396
 1084SOL    HW120394   2.691   6.321   7.328
 1084SOL    HW220395   2.638   6.183   7.359
 1085SOL     OW20396   3.674   6.402   6.067
 1085SOL    HW120397   3.734   6.474   6.086
 1085SOL    HW220398   3.713   6.325   6.109
 1086SOL     OW20399   4.535   5.237   7.268
 1086SOL    HW120400   4.621   5.198   7.284
 1086SOL    HW220401   4.494   5.180   7.203
 1087SOL     OW20402   3.187   4.996   1.904
 1087SOL    HW120403   3.232   5.023   1.824
 1087SOL    HW220404   3.236   4.920   1.934
 1088SOL     OW20405   6.102   3.757   6.095
 1088SOL    HW120406   6.143   3.728   6.177
 1088SOL    HW220407   6.040   3.825   6.122
 1089SOL     OW20408   2.194   3.337   6.614
 1089SOL    HW120409   2.242   3.352   6.696
 1089SOL    HW220410   2.170   3.245   6.616
 1090SOL     OW20411   5.252   5.138   0.324
 1090SOL    HW120412   5.200   5.128   0.244
 1090SOL    HW220413   5.187   5.137   0.394
 1091SOL     OW20414   4.244   1.220   6.643
 1091SOL    HW120415   4.285   1.135   6.660
 1091SOL    HW220416   4.316   1.283   6.643
 1092SOL     OW20417   3.018   0.859   1.548
 1092SOL    HW120418   2.955   0.802   1.594
 1092SOL    HW220419   3.090   0.870   1.610
 1093SOL     OW20420   1.266   1.038   1.426
 1093SOL    HW120421   1.309   0.996   1.500
 1093SOL    HW220422   1.212   1.107   1.465
 1094SOL     OW20423   6.400   0.026   0.025
 1094SOL    HW120424   6.484   0.066   0.003
 1094SOL    HW220425   6.389  -0.044  -0.040
 1095SOL     OW20426   1.273   3.027   7.659
 1095SOL    HW120427   1.213   3.051   7.588
 1095SOL    HW220428   1.353   3.076   7.640
 1096SOL     OW20429   4.615   1.292   0.122
 1096SOL    HW120430   4.708   1.270   0.121
 1096SOL    HW220431   4.572   1.210   0.147
 1097SOL     OW20432   4.558   4.621   6.826
 1097SOL    HW120433   4.470   4.584   6.841
 1097SOL    HW220434   4.618   4.551   6.851
 1098SOL     OW20435   3.774   2.547   2.069
 1098SOL    HW120436   3.789   2.468   2.122
 1098SOL    HW220437   3.754   2.513   1.981
 1099SOL     OW20438   3.888   1.216   2.134
 1099SOL    HW120439   3.824   1.157   2.173
 1099SOL    HW220440   3.966   1.207   2.188
 1100SOL     OW20441   6.142   6.322   0.280
 1100SOL    HW120442   6.063   6.334   0.331
 1100SOL    HW220443   6.157   6.407   0.238
 1101SOL     OW20444   2.792   4.180   0.579
 1101SOL    HW120445   2.841   4.127   0.642
 1101SOL    HW220446   2.838   4.264   0.577
 1102SOL     OW20447   3.882   3.383   6.472
 1102SOL    HW120448   3.860   3.316   6.408
 1102SOL    HW220449   3.867   3.341   6.557
 1103SOL     OW20450   5.556   0.490   7.067
 1103SOL    HW120451   5.648   0.502   7.089
 1103SOL    HW220452   5.540   0.396   7.079
 1104SOL     OW20453   0.742   1.045   6.781
 1104SOL    HW120454   0.722   1.032   6.874
 1104SOL    HW220455   0.770   0.959   6.751
 1105SOL     OW20456   3.220   0.917   6.922
 1105SOL    HW120457   3.240   0.827   6.947
 1105SOL    HW220458   3.304   0.954   6.895
 1106SOL     OW20459   0.171   1.975   6.538
 1106SOL    HW120460   0.078   1.969   6.558
 1106SOL    HW220461   0.177   2.041   6.469
 1107SOL     OW20462   1.652   5.243   5.575
 1107SOL    HW120463   1.576   5.223   5.521
 1107SOL    HW220464   1.680   5.159   5.610
 1108SOL     OW20465   5.401   1.914   1.088
 1108SOL    HW120466   5.397   1.966   1.007
 1108SOL    HW220467   5.439   1.974   1.153
 1109SOL     OW20468   5.620   4.244   6.454
 1109SOL    HW120469   5.643   4.253   6.362
 1109SOL    HW220470   5.561   4.169   6.458
 1110SOL     OW20471   3.929   0.429   7.652
 1110SOL    HW120472   3.873   0.431   7.730
 1110SOL    HW220473   4.009   0.386   7.681
 1111SOL     OW20474   5.585   5.139   0.403
 1111SOL    HW120475   5.490   5.145   0.392
 1111SOL    HW220476   5.603   5.047   0.419
 1112SOL     OW20477   1.889   6.180   5.843
 1112SOL    HW120478   1.843   6.098   5.821
 1112SOL    HW220479   1.969   6.178   5.790
 1113SOL     OW20480   0.331   1.786   7.712
 1113SOL    HW120481   0.315   1.783   7.618
 1113SOL    HW220482   0.310   1.699   7.744
 1114SOL     OW20483   2.494   3.599   6.481
 1114SOL    HW120484   2.440   3.529   6.443
 1114SOL    HW220485   2.431   3.666   6.508
 1115SOL     OW20486   5.272   3.052   7.613
 1115SOL    HW120487   5.237   3.130   7.655
 1115SOL    HW220488   5.337   3.018   7.675
 1116SOL     OW20489   5.654   1.952   6.855
 1116SOL    HW120490   5.584   1.964   6.919
 1116SOL    HW220491   5.641   1.863   6.822
 1117SOL     OW20492   3.624   4.971   0.082
 1117SOL    HW120493   3.711   5.001   0.057
 1117SOL    HW220494   3.575   5.051   0.101
 1118SOL     OW20495   6.136   5.902   7.088
 1118SOL    HW120496   6.167   5.817   7.120
 1118SOL    HW220497   6.145   5.960   7.163
 1119SOL     OW20498   5.870   3.010   1.031
 1119SOL    HW120499   5.902   3.062   1.106
 1119SOL    HW220500   5.947   2.996   0.977
 1120SOL     OW20501   5.598   4.268   6.182
 1120SOL    HW120502   5.634   4.355   6.170
 1120SOL    HW220503   5.639   4.215   6.113
 1121SOL     OW20504   1.261   1.453   7.731
 1121SOL    HW120505   1.323   1.384   7.751
 1121SOL    HW220506   1.248   1.448   7.637
 1122SOL     OW20507   1.167   2.333   7.136
 1122SOL    HW120508   1.243   2.362   7.187
 1122SOL    HW220509   1.198   2.257   7.088
 1123SOL     OW20510   0.214   0.560   6.966
 1123SOL    HW120511   0.166   0.481   6.941
 1123SOL    HW220512   0.286   0.528   7.021
 1124SOL     OW20513   5.075   4.009   5.622
 1124SOL    HW120514   5.143   3.942   5.619
 1124SOL    HW220515   5.087   4.059   5.542
 1125SOL     OW20516   2.236   0.615   7.760
 1125SOL    HW120517   2.234   0.708   7.783
 1125SOL    HW220518   2.154   0.581   7.791
 1126SOL     OW20519   2.037   1.630   1.726
 1126SOL    HW120520   2.096   1.558   1.751
 1126SOL    HW220521   2.050   1.696   1.793
 1127SOL     OW20522   1.329   1.427   1.529
 1127SOL    HW120523   1.313   1.521   1.528
 1127SOL    HW220524   1.283   1.396   1.606
 1128SOL     OW20525   6.048   3.098   1.735
 1128SOL    HW120526   6.095   3.135   1.811
 1128SOL    HW220527   6.076   3.007   1.732
 1129SOL     OW20528   0.616   4.399   2.430
 1129SOL    HW120529   0.701   4.408   2.388
 1129SOL    HW220530   0.559   4.458   2.383
 1130SOL     OW20531   0.798   4.172   0.146
 1130SOL    HW120532   0.891   4.176   0.124
 1130SOL    HW220533   0.793   4.116   0.223
 1131SOL     OW20534   3.560   1.836   0.012
 1131SOL    HW120535   3.626   1.771   0.035
 1131SOL    HW220536   3.602   1.891  -0.054
 1132SOL     OW20537   5.415   3.664   6.305
 1132SOL    HW120538   5.494   3.611   6.311
 1132SOL    HW220539   5.363   3.639   6.381
 1133SOL     OW20540   3.492   0.164   6.019
 1133SOL    HW120541   3.486   0.153   5.924
 1133SOL    HW220542   3.558   0.100   6.046
 1134SOL     OW20543   3.369   0.121   0.431
 1134SOL    HW120544   3.460   0.150   0.419
 1134SOL    HW220545   3.345   0.155   0.517
 1135SOL     OW20546   3.587   4.486   6.321
 1135SOL    HW120547   3.672   4.479   6.365
 1135SOL    HW220548   3.592   4.569   6.273
 1136SOL     OW20549   1.828   3.200   5.550
 1136SOL    HW120550   1.891   3.235   5.613
 1136SOL    HW220551   1.867   3.218   5.464
 1137SOL     OW20552   5.046   0.366   0.201
 1137SOL    HW120553   5.009   0.310   0.133
 1137SOL    HW220554   5.106   0.309   0.249
 1138SOL     OW20555   4.166   4.036   6.751
 1138SOL    HW120556   4.074   4.020   6.728
 1138SOL    HW220557   4.190   4.114   6.702
 1139SOL     OW20558   4.986   2.684   6.300
 1139SOL    HW120559   4.903   2.640   6.317
 1139SOL    HW220560   5.044   2.654   6.370
 1140SOL     OW20561   0.164   1.638   1.116
 1140SOL    HW120562   0.167   1.644   1.211
 1140SOL    HW220563   0.077   1.670   1.092
 1141SOL     OW20564   3.828   1.821   2.171
 1141SOL    HW120565   3.827   1.916   2.163
 1141SOL    HW220566   3.735   1.797   2.175
 1142SOL     OW20567   3.581   3.104   6.811
 1142SOL    HW120568   3.519   3.043   6.849
 1142SOL    HW220569   3.533   3.187   6.805
 1143SOL     OW20570   1.336   3.380   0.915
 1143SOL    HW120571   1.355   3.305   0.858
 1143SOL    HW220572   1.300   3.341   0.995
 1144SOL     OW20573   0.071   3.550   5.474
 1144SOL    HW120574   0.062   3.548   5.379
 1144SOL    HW220575   0.160   3.518   5.490
 1145SOL     OW20576   0.588   1.876   0.291
 1145SOL    HW120577   0.599   1.970   0.300
 1145SOL    HW220578   0.550   1.848   0.374
 1146SOL     OW20579   1.211   3.204   1.104
 1146SOL    HW120580   1.188   3.117   1.073
 1146SOL    HW220581   1.128   3.246   1.125
 1147SOL     OW20582   6.200   3.379   1.240
 1147SOL    HW120583   6.168   3.302   1.287
 1147SOL    HW220584   6.271   3.413   1.294
 1148SOL     OW20585   3.138   0.384   7.192
 1148SOL    HW120586   3.164   0.306   7.241
 1148SOL    HW220587   3.134   0.354   7.101
 1149SOL     OW20588   3.188   2.375   6.139
 1149SOL    HW120589   3.223   2.295   6.099
 1149SOL    HW220590   3.098   2.381   6.106
 1150SOL     OW20591   0.023   5.773   0.171
 1150SOL    HW120592  -0.061   5.812   0.194
 1150SOL    HW220593   0.079   5.789   0.247
 1151SOL     OW20594   1.680   5.129   6.882
 1151SOL    HW120595   1.665   5.063   6.814
 1151SOL    HW220596   1.652   5.087   6.963
 1152SOL     OW20597   3.726   5.807   6.952
 1152SOL    HW120598   3.660   5.792   7.019
 1152SOL    HW220599   3.685   5.867   6.890
 1153SOL     OW20600   4.876   0.043   2.042
 1153SOL    HW120601   4.884   0.069   2.133
 1153SOL    HW220602   4.929  -0.037   2.034
 1154SOL     OW20603   2.376   1.606   7.459
 1154SOL    HW120604   2.323   1.527   7.443
 1154SOL    HW220605   2.451   1.575   7.509
 1155SOL     OW20606   2.811   6.424   6.884
 1155SOL    HW120607   2.814   6.512   6.847
 1155SOL    HW220608   2.798   6.366   6.809
 1156SOL     OW20609   1.874   5.947   0.435
 1156SOL    HW120610   1.880   6.036   0.470
 1156SOL    HW220611   1.937   5.897   0.487
 1157SOL     OW20612   5.840   2.103   7.560
 1157SOL    HW120613   5.875   2.022   7.597
 1157SOL    HW220614   5.896   2.172   7.596
 1158SOL     OW20615   2.378   1.101   6.972
 1158SOL    HW120616   2.353   1.187   7.006
 1158SOL    HW220617   2.422   1.058   7.046
 1159SOL     OW20618   4.579   0.042   6.372
 1159SOL    HW120619   4.539   0.127   6.386
 1159SOL    HW220620   4.596   0.039   6.278
 1160SOL     OW20621   0.286   0.757   7.671
 1160SOL    HW120622   0.299   0.730   7.762
 1160SOL    HW220623   0.361   0.721   7.624
 1161SOL     OW20624   4.706   4.840   2.549
 1161SOL    HW120625   4.708   4.836   2.645
 1161SOL    HW220626   4.631   4.895   2.528
 1162SOL     OW20627   0.530   4.608   2.276
 1162SOL    HW120628   0.482   4.629   2.197
 1162SOL    HW220629   0.528   4.689   2.328
 1163SOL     OW20630   1.935   6.196   0.603
 1163SOL    HW120631   1.913   6.213   0.694
 1163SOL    HW220632   2.029   6.177   0.604
 1164SOL     OW20633   2.659   2.397   0.359
 1164SOL    HW120634   2.686   2.447   0.436
 1164SOL    HW220635   2.632   2.312   0.394
 1165SOL     OW20636   0.648   1.092   5.826
 1165SOL    HW120637   0.654   1.114   5.733
 1165SOL    HW220638   0.649   1.177   5.871
 1166SOL     OW20639   5.295   6.036   7.667
 1166SOL    HW120640   5.221   5.989   7.630
 1166SOL    HW220641   5.309   6.110   7.609
 1167SOL     OW20642   4.308   0.138   1.055
 1167SOL    HW120643   4.346   0.057   1.021
 1167SOL    HW220644   4.219   0.113   1.082
 1168SOL     OW20645   1.940   4.589   5.554
 1168SOL    HW120646   1.908   4.522   5.615
 1168SOL    HW220647   1.903   4.671   5.588
 1169SOL     OW20648   5.585   4.394   7.698
 1169SOL    HW120649   5.626   4.438   7.624
 1169SOL    HW220650   5.500   4.436   7.707
 1170SOL     OW20651   1.799   1.245   6.600
 1170SOL    HW120652   1.793   1.250   6.696
 1170SOL    HW220653   1.727   1.299   6.569
 1171SOL     OW20654   1.933   5.957   6.348
 1171SOL    HW120655   1.909   6.038   6.391
 1171SOL    HW220656   1.850   5.916   6.324
 1172SOL     OW20657   0.721   5.622   7.225
 1172SOL    HW120658   0.806   5.595   7.190
 1172SOL    HW220659   0.719   5.583   7.313
 1173SOL     OW20660   0.634   0.693   0.893
 1173SOL    HW120661   0.574   0.630   0.852
 1173SOL    HW220662   0.580   0.739   0.957
 1174SOL     OW20663   6.426   5.778   6.522
 1174SOL    HW120664   6.464   5.769   6.609
 1174SOL    HW220665   6.396   5.690   6.499
 1175SOL     OW20666   5.192   2.791   1.405
 1175SOL    HW120667   5.157   2.717   1.454
 1175SOL    HW220668   5.151   2.868   1.446
 1176SOL     OW20669   1.179   1.626   1.039
 1176SOL    HW120670   1.116   1.608   1.109
 1176SOL    HW220671   1.150   1.569   0.967
 1177SOL     OW20672   1.645   0.198   6.460
 1177SOL    HW120673   1.660   0.103   6.462
 1177SOL    HW220674   1.732   0.236   6.451
 1178SOL     OW20675   6.015   2.918   0.103
 1178SOL    HW120676   6.029   2.965   0.021
 1178SOL    HW220677   5.929   2.948   0.134
 1179SOL     OW20678   3.022   2.187   1.200
 1179SOL    HW120679   3.025   2.208   1.294
 1179SOL    HW220680   3.014   2.091   1.198
 1180SOL     OW20681   4.316   3.399   7.798
 1180SOL    HW120682   4.244   3.420   7.739
 1180SOL    HW220683   4.381   3.467   7.784
 1181SOL     OW20684   0.272   6.272  -0.002
 1181SOL    HW120685   0.239   6.229   0.077
 1181SOL    HW220686   0.358   6.306   0.024
 1182SOL     OW20687   4.480   1.103   1.762
 1182SOL    HW120688   4.500   1.013   1.736
 1182SOL    HW220689   4.564   1.140   1.788
 1183SOL     OW20690   5.222   0.039   0.553
 1183SOL    HW120691   5.272  -0.007   0.486
 1183SOL    HW220692   5.283   0.049   0.626
 1184SOL     OW20693   2.409   1.781   0.458
 1184SOL    HW120694   2.322   1.752   0.431
 1184SOL    HW220695   2.421   1.744   0.546
 1185SOL     OW20696   5.183   1.846   7.442
 1185SOL    HW120697   5.250   1.890   7.390
 1185SOL    HW220698   5.230   1.776   7.488
 1186SOL     OW20699   4.580   2.280   0.954
 1186SOL    HW120700   4.607   2.231   1.031
 1186SOL    HW220701   4.511   2.226   0.915
 1187SOL     OW20702   0.153   1.927   6.166
 1187SOL    HW120703   0.076   1.958   6.118
 1187SOL    HW220704   0.174   1.998   6.226
 1188SOL     OW20705   0.633   0.968   2.353
 1188SOL    HW120706   0.559   0.914   2.382
 1188SOL    HW220707   0.694   0.905   2.315
 1189SOL     OW20708   5.356   4.556   7.718
 1189SOL    HW120709   5.397   4.626   7.667
 1189SOL    HW220710   5.282   4.527   7.663
 1190SOL     OW20711   5.259   2.624   6.722
 1190SOL    HW120712   5.235   2.536   6.751
 1190SOL    HW220713   5.338   2.644   6.772
 1191SOL     OW20714   3.542   4.878   1.595
 1191SOL    HW120715   3.574   4.872   1.505
 1191SOL    HW220716   3.618   4.856   1.648
 1192SOL     OW20717   2.589   0.798   5.997
 1192SOL    HW120718   2.677   0.762   5.984
 1192SOL    HW220719   2.587   0.824   6.089
 1193SOL     OW20720   4.318   3.448   1.358
 1193SOL    HW120721   4.329   3.377   1.422
 1193SOL    HW220722   4.223   3.456   1.349
 1194SOL     OW20723   1.465   4.751   1.198
 1194SOL    HW120724   1.549   4.706   1.195
 1194SOL    HW220725   1.401   4.683   1.218
 1195SOL     OW20726   4.080   0.879   1.497
 1195SOL    HW120727   4.077   0.974   1.493
 1195SOL    HW220728   4.084   0.859   1.591
 1196SOL     OW20729   3.165   5.874   7.169
 1196SOL    HW120730   3.168   5.797   7.113
 1196SOL    HW220731   3.088   5.923   7.140
 1197SOL     OW20732   1.572   4.806   0.431
 1197SOL    HW120733   1.622   4.748   0.373
 1197SOL    HW220734   1.616   4.798   0.516
 1198SOL     OW20735   1.929   5.527   6.458
 1198SOL    HW120736   1.990   5.549   6.388
 1198SOL    HW220737   1.846   5.508   6.413
 1199SOL     OW20738   5.045   5.526   7.247
 1199SOL    HW120739   5.102   5.597   7.217
 1199SOL    HW220740   4.957   5.565   7.249
 1200SOL     OW20741   1.806   2.476   0.658
 1200SOL    HW120742   1.723   2.439   0.627
 1200SOL    HW220743   1.782   2.529   0.733
 1201SOL     OW20744   2.910   5.448   7.519
 1201SOL    HW120745   2.992   5.477   7.479
 1201SOL    HW220746   2.847   5.448   7.447
 1202SOL     OW20747   1.038   3.489   0.227
 1202SOL    HW120748   0.948   3.480   0.198
 1202SOL    HW220749   1.090   3.449   0.159
 1203SOL     OW20750   2.619   3.510   6.890
 1203SOL    HW120751   2.678   3.453   6.938
 1203SOL    HW220752   2.675   3.577   6.852
 1204SOL     OW20753   4.917   6.354   0.710
 1204SOL    HW120754   4.911   6.309   0.794
 1204SOL    HW220755   5.006   6.338   0.679
 1205SOL     OW20756   4.903   3.969   7.170
 1205SOL    HW120757   4.831   3.951   7.230
 1205SOL    HW220758   4.943   3.883   7.154
 1206SOL     OW20759   1.441   0.312   0.907
 1206SOL    HW120760   1.512   0.312   0.844
 1206SOL    HW220761   1.476   0.359   0.983
 1207SOL     OW20762   3.050   3.980   6.694
 1207SOL    HW120763   3.136   3.988   6.653
 1207SOL    HW220764   3.069   3.960   6.786
 1208SOL     OW20765   1.818   2.860   7.347
 1208SOL    HW120766   1.830   2.928   7.281
 1208SOL    HW220767   1.777   2.788   7.300
 1209SOL     OW20768   2.628   2.742   7.118
 1209SOL    HW120769   2.669   2.661   7.089
 1209SOL    HW220770   2.535   2.730   7.102
 1210SOL     OW20771   2.562   3.302   7.166
 1210SOL    HW120772   2.621   3.246   7.216
 1210SOL    HW220773   2.532   3.246   7.094
 1211SOL     OW20774   5.159   0.536   6.678
 1211SOL    HW120775   5.094   0.531   6.608
 1211SOL    HW220776   5.155   0.450   6.720
 1212SOL     OW20777   2.984   2.379   7.399
 1212SOL    HW120778   2.971   2.310   7.334
 1212SOL    HW220779   2.977   2.461   7.350
 1213SOL     OW20780   4.085   3.696   1.192
 1213SOL    HW120781   4.108   3.628   1.130
 1213SOL    HW220782   4.014   3.658   1.244
 1214SOL     OW20783   2.449   0.350   6.735
 1214SOL    HW120784   2.367   0.368   6.780
 1214SOL    HW220785   2.493   0.435   6.730
 1215SOL     OW20786   1.157   5.017   0.361
 1215SOL    HW120787   1.184   4.932   0.397
 1215SOL    HW220788   1.192   5.081   0.422
 1216SOL     OW20789   0.366   4.003   7.475
 1216SOL    HW120790   0.431   3.980   7.540
 1216SOL    HW220791   0.367   3.931   7.412
 1217SOL     OW20792   2.235   2.160   6.564
 1217SOL    HW120793   2.264   2.178   6.474
 1217SOL    HW220794   2.179   2.083   6.557
 1218SOL     OW20795   6.142   5.991   1.872
 1218SOL    HW120796   6.054   5.994   1.910
 1218SOL    HW220797   6.139   5.917   1.811
 1219SOL     OW20798   5.310   4.211   7.133
 1219SOL    HW120799   5.360   4.249   7.061
 1219SOL    HW220800   5.309   4.117   7.114
 1220SOL     OW20801   5.844   6.002   0.315
 1220SOL    HW120802   5.931   5.996   0.276
 1220SOL    HW220803   5.798   5.924   0.282
 1221SOL     OW20804   3.295   5.534   0.369
 1221SOL    HW120805   3.354   5.597   0.411
 1221SOL    HW220806   3.208   5.571   0.382
 1222SOL     OW20807   3.800   1.559   0.730
 1222SOL    HW120808   3.791   1.653   0.746
 1222SOL    HW220809   3.828   1.553   0.639
 1223SOL     OW20810   0.086   0.898   0.681
 1223SOL    HW120811   0.161   0.840   0.694
 1223SOL    HW220812   0.122   0.972   0.632
 1224SOL     OW20813   3.215   6.406   1.193
 1224SOL    HW120814   3.208   6.500   1.207
 1224SOL    HW220815   3.139   6.369   1.238
 1225SOL     OW20816   4.456   5.127   6.997
 1225SOL    HW120817   4.433   5.140   6.905
 1225SOL    HW220818   4.471   5.033   7.005
 1226SOL     OW20819   0.244   4.860   6.269
 1226SOL    HW120820   0.269   4.785   6.216
 1226SOL    HW220821   0.317   4.873   6.329
 1227SOL     OW20822   6.245   0.461   6.926
 1227SOL    HW120823   6.305   0.439   6.997
 1227SOL    HW220824   6.301   0.490   6.855
 1228SOL     OW20825   0.786   3.464   0.899
 1228SOL    HW120826   0.863   3.409   0.885
 1228SOL    HW220827   0.712   3.407   0.879
 1229SOL     OW20828   6.357   4.890   2.428
 1229SOL    HW120829   6.340   4.801   2.396
 1229SOL    HW220830   6.277   4.939   2.406
 1230SOL     OW20831   2.595   1.018   1.206
 1230SOL    HW120832   2.648   0.953   1.252
 1230SOL    HW220833   2.628   1.102   1.238
 1231SOL     OW20834   3.320   6.051   0.458
 1231SOL    HW120835   3.328   6.145   0.478
 1231SOL    HW220836   3.290   6.048   0.368
 1232SOL     OW20837   3.227   5.294   7.323
 1232SOL    HW120838   3.210   5.367   7.382
 1232SOL    HW220839   3.145   5.282   7.275
 1233SOL     OW20840   4.978   3.186   7.306
 1233SOL    HW120841   5.037   3.199   7.231
 1233SOL    HW220842   5.026   3.126   7.363
 1234SOL     OW20843   3.434   3.865   2.062
 1234SOL    HW120844   3.458   3.803   1.993
 1234SOL    HW220845   3.357   3.911   2.028
 1235SOL     OW20846   0.844   3.009   5.867
 1235SOL    HW120847   0.790   3.005   5.946
 1235SOL    HW220848   0.826   2.927   5.821
 1236SOL     OW20849   2.191   0.703   1.031
 1236SOL    HW120850   2.217   0.778   1.084
 1236SOL    HW220851   2.271   0.653   1.017
 1237SOL     OW20852   4.384   3.198   1.526
 1237SOL    HW120853   4.469   3.158   1.545
 1237SOL    HW220854   4.357   3.157   1.444
 1238SOL     OW20855   2.500   5.007   0.723
 1238SOL    HW120856   2.461   4.975   0.805
 1238SOL    HW220857   2.461   5.094   0.710
 1239SOL     OW20858   2.979   3.148   6.608
 1239SOL    HW120859   2.896   3.188   6.634
 1239SOL    HW220860   2.976   3.060   6.646
 1240SOL     OW20861   1.290   4.289   0.473
 1240SOL    HW120862   1.325   4.324   0.555
 1240SOL    HW220863   1.314   4.354   0.407
 1241SOL     OW20864   1.668   1.015   5.605
 1241SOL    HW120865   1.748   1.017   5.658
 1241SOL    HW220866   1.623   1.096   5.627
 1242SOL     OW20867   2.918   2.813   6.799
 1242SOL    HW120868   2.828   2.825   6.768
 1242SOL    HW220869   2.957   2.751   6.738
 1243SOL     OW20870   4.188   1.982   1.870
 1243SOL    HW120871   4.097   1.967   1.843
 1243SOL    HW220872   4.207   1.909   1.929
 1244SOL     OW20873   0.826   2.862   0.052
 1244SOL    HW120874   0.830   2.920  -0.024
 1244SOL    HW220875   0.804   2.920   0.125
 1245SOL     OW20876   5.598   1.403   0.052
 1245SOL    HW120877   5.650   1.425   0.130
 1245SOL    HW220878   5.512   1.442   0.070
 1246SOL     OW20879   4.398   6.325   0.196
 1246SOL    HW120880   4.425   6.274   0.120
 1246SOL    HW220881   4.354   6.402   0.160
 1247SOL     OW20882   3.387   5.627   7.235
 1247SOL    HW120883   3.352   5.633   7.324
 1247SOL    HW220884   3.466   5.574   7.245
 1248SOL     OW20885   5.317   6.279   0.349
 1248SOL    HW120886   5.346   6.209   0.407
 1248SOL    HW220887   5.375   6.273   0.273
 1249SOL     OW20888   4.945   4.338   0.570
 1249SOL    HW120889   4.874   4.379   0.619
 1249SOL    HW220890   4.926   4.244   0.575
 1250SOL     OW20891   4.482   6.273   7.561
 1250SOL    HW120892   4.426   6.225   7.623
 1250SOL    HW220893   4.539   6.205   7.524
 1251SOL     OW20894   1.994   1.451   1.991
 1251SOL    HW120895   2.047   1.430   1.915
 1251SOL    HW220896   1.990   1.370   2.042
 1252SOL     OW20897   0.192   4.785   6.848
 1252SOL    HW120898   0.103   4.815   6.870
 1252SOL    HW220899   0.247   4.862   6.863
 1253SOL     OW20900   4.345   3.489   0.335
 1253SOL    HW120901   4.367   3.579   0.312
 1253SOL    HW220902   4.260   3.474   0.294
 1254SOL     OW20903   1.212   0.282   7.111
 1254SOL    HW120904   1.236   0.227   7.037
 1254SOL    HW220905   1.155   0.227   7.164
 1255SOL     OW20906   4.054   1.337   1.228
 1255SOL    HW120907   4.097   1.365   1.308
 1255SOL    HW220908   4.121   1.347   1.160
 1256SOL     OW20909   0.219   0.419   7.737
 1256SOL    HW120910   0.139   0.459   7.773
 1256SOL    HW220911   0.205   0.419   7.643
 1257SOL     OW20912   1.878   0.974   7.113
 1257SOL    HW120913   1.920   0.888   7.122
 1257SOL    HW220914   1.868   0.985   7.018
 1258SOL     OW20915   1.616   2.643   1.305
 1258SOL    HW120916   1.688   2.686   1.258
 1258SOL    HW220917   1.659   2.598   1.378
 1259SOL     OW20918   1.541   4.811   6.821
 1259SOL    HW120919   1.515   4.848   6.905
 1259SOL    HW220920   1.502   4.870   6.756
 1260SOL     OW20921   0.086   2.492   1.775
 1260SOL    HW120922   0.169   2.535   1.753
 1260SOL    HW220923   0.082   2.493   1.870
 1261SOL     OW20924   3.411   1.520   0.221
 1261SOL    HW120925   3.388   1.427   0.222
 1261SOL    HW220926   3.414   1.545   0.313
 1262SOL     OW20927   5.332   5.247   5.298
 1262SOL    HW120928   5.389   5.170   5.302
 1262SOL    HW220929   5.385   5.319   5.332
 1263SOL     OW20930   6.159   0.856   2.417
 1263SOL    HW120931   6.234   0.819   2.370
 1263SOL    HW220932   6.129   0.785   2.474
 1264SOL     OW20933   2.847   5.312   5.900
 1264SOL    HW120934   2.782   5.279   5.962
 1264SOL    HW220935   2.920   5.250   5.907
 1265SOL     OW20936   2.403   2.022   2.291
 1265SOL    HW120937   2.429   1.942   2.336
 1265SOL    HW220938   2.356   1.992   2.214
 1266SOL     OW20939   2.059   0.240   0.091
 1266SOL    HW120940   2.115   0.244   0.014
 1266SOL    HW220941   2.105   0.293   0.157
 1267SOL     OW20942   4.678   1.475   6.955
 1267SOL    HW120943   4.722   1.461   6.872
 1267SOL    HW220944   4.594   1.429   6.946
 1268SOL     OW20945   1.270   0.432   6.848
 1268SOL    HW120946   1.257   0.345   6.811
 1268SOL    HW220947   1.342   0.421   6.910
 1269SOL     OW20948   5.205   6.089   6.015
 1269SOL    HW120949   5.251   6.105   6.097
 1269SOL    HW220950   5.273   6.053   5.957
 1270SOL     OW20951   4.190   0.812   0.945
 1270SOL    HW120952   4.201   0.894   0.993
 1270SOL    HW220953   4.272   0.802   0.896
 1271SOL     OW20954   4.243   0.138   7.185
 1271SOL    HW120955   4.314   0.085   7.219
 1271SOL    HW220956   4.244   0.217   7.239
 1272SOL     OW20957   4.514   0.721   0.315
 1272SOL    HW120958   4.464   0.663   0.257
 1272SOL    HW220959   4.547   0.664   0.384
 1273SOL     OW20960   5.205   1.035   2.255
 1273SOL    HW120961   5.275   1.004   2.313
 1273SOL    HW220962   5.136   0.968   2.263
 1274SOL     OW20963   3.095   5.711   0.448
 1274SOL    HW120964   3.116   5.752   0.532
 1274SOL    HW220965   3.059   5.782   0.394
 1275SOL     OW20966   1.729   1.481   1.145
 1275SOL    HW120967   1.642   1.482   1.104
 1275SOL    HW220968   1.757   1.390   1.138
 1276SOL     OW20969   2.501   5.487   0.157
 1276SOL    HW120970   2.451   5.414   0.121
 1276SOL    HW220971   2.592   5.465   0.137
 1277SOL     OW20972   2.525   1.461   0.113
 1277SOL    HW120973   2.505   1.524   0.044
 1277SOL    HW220974   2.439   1.436   0.148
 1278SOL     OW20975   0.662   0.848   1.307
 1278SOL    HW120976   0.619   0.819   1.388
 1278SOL    HW220977   0.752   0.815   1.314
 1279SOL     OW20978   1.595   3.837   0.384
 1279SOL    HW120979   1.660   3.801   0.323
 1279SOL    HW220980   1.624   3.807   0.470
 1280SOL     OW20981   2.947   5.521   0.111
 1280SOL    HW120982   2.969   5.457   0.043
 1280SOL    HW220983   2.992   5.601   0.084
 1281SOL     OW20984   3.025   4.579   5.582
 1281SOL    HW120985   2.947   4.613   5.537
 1281SOL    HW220986   3.084   4.554   5.511
 1282SOL     OW20987   5.924   1.651   0.011
 1282SOL    HW120988   5.831   1.634   0.001
 1282SOL    HW220989   5.966   1.567  -0.006
 1283SOL     OW20990   0.348   3.224   0.607
 1283SOL    HW120991   0.392   3.203   0.525
 1283SOL    HW220992   0.332   3.318   0.602
 1284SOL     OW20993   0.244   3.601   1.862
 1284SOL    HW120994   0.299   3.679   1.854
 1284SOL    HW220995   0.234   3.589   1.957
 1285SOL     OW20996   6.178   2.011   7.322
 1285SOL    HW120997   6.208   2.044   7.407
 1285SOL    HW220998   6.114   2.077   7.293
 1286SOL     OW20999   2.993   2.256   0.951
 1286SOL    HW121000   3.077   2.234   0.910
 1286SOL    HW221001   3.007   2.239   1.044
 1287SOL     OW21002   1.430   5.312   6.265
 1287SOL    HW121003   1.491   5.275   6.328
 1287SOL    HW221004   1.441   5.257   6.187
 1288SOL     OW21005   0.700   2.411   5.761
 1288SOL    HW121006   0.650   2.358   5.699
 1288SOL    HW221007   0.783   2.428   5.716
 1289SOL     OW21008   5.197   6.430   6.403
 1289SOL    HW121009   5.128   6.494   6.387
 1289SOL    HW221010   5.275   6.483   6.420
 1290SOL     OW21011   0.457   6.063   2.145
 1290SOL    HW121012   0.468   5.976   2.183
 1290SOL    HW221013   0.536   6.077   2.094
 1291SOL     OW21014   2.818   0.936   1.384
 1291SOL    HW121015   2.889   0.888   1.427
 1291SOL    HW221016   2.758   0.960   1.455
 1292SOL     OW21017   0.581   0.804   1.549
 1292SOL    HW121018   0.619   0.880   1.593
 1292SOL    HW221019   0.514   0.772   1.609
 1293SOL     OW21020   4.382   4.764   6.382
 1293SOL    HW121021   4.350   4.735   6.297
 1293SOL    HW221022   4.316   4.734   6.444
 1294SOL     OW21023   0.765   4.100   2.314
 1294SOL    HW121024   0.714   4.173   2.348
 1294SOL    HW221025   0.705   4.055   2.254
 1295SOL     OW21026   4.993   6.375   7.195
 1295SOL    HW121027   5.003   6.454   7.249
 1295SOL    HW221028   5.013   6.404   7.106
 1296SOL     OW21029   4.208   4.327   6.057
 1296SOL    HW121030   4.249   4.257   6.108
 1296SOL    HW221031   4.272   4.399   6.061
 1297SOL     OW21032   5.059   3.209   0.839
 1297SOL    HW121033   5.033   3.274   0.774
 1297SOL    HW221034   4.982   3.154   0.850
 1298SOL     OW21035   1.140   3.171   6.150
 1298SOL    HW121036   1.092   3.165   6.067
 1298SOL    HW221037   1.078   3.137   6.216
 1299SOL     OW21038   4.236   0.498   1.508
 1299SOL    HW121039   4.241   0.404   1.525
 1299SOL    HW221040   4.324   0.531   1.528
 1300SOL     OW21041   5.642   2.005   6.324
 1300SOL    HW121042   5.665   2.025   6.414
 1300SOL    HW221043   5.700   1.933   6.299
 1301SOL     OW21044   5.676   3.930   0.313
 1301SOL    HW121045   5.748   3.948   0.252
 1301SOL    HW221046   5.634   4.015   0.325
 1302SOL     OW21047   5.172   2.076   1.845
 1302SOL    HW121048   5.200   2.157   1.801
 1302SOL    HW221049   5.253   2.026   1.856
 1303SOL     OW21050   0.578   4.632   1.004
 1303SOL    HW121051   0.590   4.646   0.910
 1303SOL    HW221052   0.620   4.547   1.021
 1304SOL     OW21053   5.380   6.250   7.495
 1304SOL    HW121054   5.471   6.277   7.493
 1304SOL    HW221055   5.354   6.245   7.403
 1305SOL     OW21056   6.362   1.539   7.778
 1305SOL    HW121057   6.419   1.465   7.798
 1305SOL    HW221058   6.393   1.609   7.835
 1306SOL     OW21059   0.751   2.703   0.342
 1306SOL    HW121060   0.692   2.632   0.318
 1306SOL    HW221061   0.831   2.658   0.370
 1307SOL     OW21062   3.432   2.022   6.600
 1307SOL    HW121063   3.383   2.030   6.681
 1307SOL    HW221064   3.417   2.105   6.554
 1308SOL     OW21065   5.997   0.109   6.844
 1308SOL    HW121066   6.078   0.101   6.893
 1308SOL    HW221067   5.929   0.085   6.907
 1309SOL     OW21068   6.366   3.024   5.811
 1309SOL    HW121069   6.446   2.978   5.836
 1309SOL    HW221070   6.336   2.978   5.733
 1310SOL     OW21071   4.807   4.730   2.290
 1310SOL    HW121072   4.880   4.684   2.330
 1310SOL    HW221073   4.768   4.780   2.361
 1311SOL     OW21074   5.922   1.925   7.751
 1311SOL    HW121075   5.934   1.840   7.792
 1311SOL    HW221076   5.940   1.988   7.821
 1312SOL     OW21077   0.296   4.035   6.001
 1312SOL    HW121078   0.211   4.077   5.988
 1312SOL    HW221079   0.344   4.053   5.920
 1313SOL     OW21080   3.011   3.027   0.713
 1313SOL    HW121081   3.057   2.944   0.704
 1313SOL    HW221082   3.039   3.061   0.798
 1314SOL     OW21083   0.108   1.862   7.153
 1314SOL    HW121084   0.113   1.913   7.073
 1314SOL    HW221085   0.024   1.816   7.147
 1315SOL     OW21086   0.455   5.598   6.907
 1315SOL    HW121087   0.494   5.575   6.822
 1315SOL    HW221088   0.530   5.625   6.961
 1316SOL     OW21089   5.882   2.470   6.604
 1316SOL    HW121090   5.900   2.413   6.529
 1316SOL    HW221091   5.882   2.411   6.679
 1317SOL     OW21092   6.166   1.099   2.570
 1317SOL    HW121093   6.162   1.089   2.665
 1317SOL    HW221094   6.171   1.009   2.536
 1318SOL     OW21095   6.027   4.737   6.790
 1318SOL    HW121096   6.035   4.786   6.709
 1318SOL    HW221097   6.069   4.653   6.771
 1319SOL     OW21098   4.854   2.864   7.402
 1319SOL    HW121099   4.928   2.913   7.438
 1319SOL    HW221100   4.867   2.868   7.307
 1320SOL     OW21101   5.035   2.306   6.716
 1320SOL    HW121102   5.073   2.271   6.636
 1320SOL    HW221103   5.080   2.260   6.786
 1321SOL     OW21104   2.004   2.953   0.475
 1321SOL    HW121105   2.094   2.947   0.507
 1321SOL    HW221106   2.007   2.915   0.387
 1322SOL     OW21107   4.612   6.141   0.924
 1322SOL    HW121108   4.641   6.118   0.836
 1322SOL    HW221109   4.658   6.222   0.945
 1323SOL     OW21110   3.385   4.618   0.385
 1323SOL    HW121111   3.380   4.576   0.471
 1323SOL    HW221112   3.461   4.675   0.390
 1324SOL     OW21113   1.093   0.542   1.523
 1324SOL    HW121114   1.008   0.570   1.488
 1324SOL    HW221115   1.092   0.573   1.613
 1325SOL     OW21116   0.846   0.035   2.653
 1325SOL    HW121117   0.845   0.099   2.581
 1325SOL    HW221118   0.898  -0.038   2.619
 1326SOL     OW21119   5.943   4.392   5.988
 1326SOL    HW121120   5.980   4.423   5.906
 1326SOL    HW221121   6.016   4.390   6.049
 1327SOL     OW21122   3.200   6.081   0.881
 1327SOL    HW121123   3.122   6.094   0.935
 1327SOL    HW221124   3.216   6.167   0.840
 1328SOL     OW21125   3.774   0.945   6.469
 1328SOL    HW121126   3.701   0.992   6.509
 1328SOL    HW221127   3.789   0.992   6.386
 1329SOL     OW21128   0.887   5.680   0.065
 1329SOL    HW121129   0.810   5.670   0.121
 1329SOL    HW221130   0.891   5.774   0.047
 1330SOL     OW21131   0.831   4.791   5.552
 1330SOL    HW121132   0.786   4.805   5.469
 1330SOL    HW221133   0.772   4.827   5.619
 1331SOL     OW21134   1.250   4.037   0.511
 1331SOL    HW121135   1.175   3.999   0.464
 1331SOL    HW221136   1.257   4.126   0.477
 1332SOL     OW21137   0.918   0.171   1.356
 1332SOL    HW121138   0.841   0.124   1.322
 1332SOL    HW221139   0.883   0.228   1.424
 1333SOL     OW21140   5.610   5.440   6.287
 1333SOL    HW121141   5.549   5.514   6.289
 1333SOL    HW221142   5.555   5.364   6.269
 1334SOL     OW21143   0.891   0.185   2.426
 1334SOL    HW121144   0.980   0.203   2.395
 1334SOL    HW221145   0.835   0.235   2.367
 1335SOL     OW21146   3.831   4.574   6.733
 1335SOL    HW121147   3.899   4.526   6.779
 1335SOL    HW221148   3.749   4.543   6.771
 1336SOL     OW21149   0.280   1.290   1.036
 1336SOL    HW121150   0.254   1.358   1.098
 1336SOL    HW221151   0.210   1.224   1.042
 1337SOL     OW21152   3.216   1.150   0.399
 1337SOL    HW121153   3.275   1.218   0.432
 1337SOL    HW221154   3.139   1.198   0.367
 1338SOL     OW21155   6.299   3.272   6.848
 1338SOL    HW121156   6.224   3.230   6.807
 1338SOL    HW221157   6.331   3.335   6.782
 1339SOL     OW21158   0.183   4.064   0.987
 1339SOL    HW121159   0.224   3.984   0.954
 1339SOL    HW221160   0.130   4.035   1.061
 1340SOL     OW21161   4.064   0.662   6.895
 1340SOL    HW121162   4.036   0.607   6.822
 1340SOL    HW221163   4.062   0.603   6.971
 1341SOL     OW21164   0.409   3.999   1.708
 1341SOL    HW121165   0.452   3.918   1.735
 1341SOL    HW221166   0.329   4.002   1.760
 1342SOL     OW21167   3.530   1.523   0.914
 1342SOL    HW121168   3.441   1.556   0.897
 1342SOL    HW221169   3.585   1.601   0.916
 1343SOL     OW21170   0.733   5.944   7.754
 1343SOL    HW121171   0.652   5.923   7.706
 1343SOL    HW221172   0.703   5.981   7.837
 1344SOL     OW21173   0.895   3.582   1.152
 1344SOL    HW121174   0.856   3.596   1.066
 1344SOL    HW221175   0.960   3.652   1.160
 1345SOL     OW21176   6.352   0.897   6.709
 1345SOL    HW121177   6.386   0.929   6.625
 1345SOL    HW221178   6.430   0.872   6.758
 1346SOL     OW21179   4.780   2.068   0.419
 1346SOL    HW121180   4.707   2.055   0.480
 1346SOL    HW221181   4.738   2.076   0.333
 1347SOL     OW21182   4.441   5.985   1.249
 1347SOL    HW121183   4.419   5.894   1.228
 1347SOL    HW221184   4.377   6.010   1.315
 1348SOL     OW21185   5.391   4.449   0.214
 1348SOL    HW121186   5.353   4.457   0.126
 1348SOL    HW221187   5.360   4.364   0.246
 1349SOL     OW21188   2.645   2.615   5.893
 1349SOL    HW121189   2.647   2.552   5.964
 1349SOL    HW221190   2.653   2.700   5.936
 1350SOL     OW21191   5.734   1.897   5.823
 1350SOL    HW121192   5.725   1.878   5.730
 1350SOL    HW221193   5.709   1.989   5.832
 1351SOL     OW21194   4.243   2.387   1.179
 1351SOL    HW121195   4.240   2.335   1.098
 1351SOL    HW221196   4.332   2.376   1.212
 1352SOL     OW21197   3.768   2.349   0.724
 1352SOL    HW121198   3.834   2.364   0.792
 1352SOL    HW221199   3.723   2.270   0.752
 1353SOL     OW21200   2.963   2.279   1.454
 1353SOL    HW121201   2.889   2.311   1.505
 1353SOL    HW221202   3.038   2.285   1.514
 1354SOL     OW21203   0.935   3.622   6.493
 1354SOL    HW121204   0.945   3.642   6.400
 1354SOL    HW221205   0.850   3.659   6.516
 1355SOL     OW21206   0.220   0.138   0.021
 1355SOL    HW121207   0.308   0.115  -0.008
 1355SOL    HW221208   0.211   0.231  -0.001
 1356SOL     OW21209   1.106   1.058   7.483
 1356SOL    HW121210   1.195   1.044   7.449
 1356SOL    HW221211   1.079   0.973   7.516
 1357SOL     OW21212   1.482   0.627   1.329
 1357SOL    HW121213   1.443   0.676   1.402
 1357SOL    HW221214   1.473   0.535   1.354
 1358SOL     OW21215   5.521   3.106   6.464
 1358SOL    HW121216   5.573   3.167   6.515
 1358SOL    HW221217   5.499   3.153   6.384
 1359SOL     OW21218   0.768   3.697   0.240
 1359SOL    HW121219   0.824   3.652   0.304
 1359SOL    HW221220   0.679   3.672   0.264
 1360SOL     OW21221   0.613   5.741   0.652
 1360SOL    HW121222   0.587   5.822   0.608
 1360SOL    HW221223   0.638   5.768   0.740
 1361SOL     OW21224   4.017   2.278   0.522
 1361SOL    HW121225   4.074   2.334   0.471
 1361SOL    HW221226   3.967   2.228   0.457
 1362SOL     OW21227   2.804   5.829   7.425
 1362SOL    HW121228   2.771   5.849   7.512
 1362SOL    HW221229   2.899   5.820   7.436
 1363SOL     OW21230   4.639   6.084   7.430
 1363SOL    HW121231   4.590   6.026   7.372
 1363SOL    HW221232   4.723   6.096   7.387
 1364SOL     OW21233   0.801   5.859   1.617
 1364SOL    HW121234   0.785   5.937   1.670
 1364SOL    HW221235   0.873   5.814   1.661
 1365SOL     OW21236   5.544   3.138   1.603
 1365SOL    HW121237   5.550   3.190   1.683
 1365SOL    HW221238   5.633   3.106   1.588
 1366SOL     OW21239   5.530   4.239   5.775
 1366SOL    HW121240   5.513   4.310   5.713
 1366SOL    HW221241   5.617   4.207   5.751
 1367SOL     OW21242   0.476   1.857   5.789
 1367SOL    HW121243   0.471   1.948   5.758
 1367SOL    HW221244   0.485   1.805   5.710
 1368SOL     OW21245   5.194   5.682   2.215
 1368SOL    HW121246   5.122   5.627   2.182
 1368SOL    HW221247   5.227   5.727   2.137
 1369SOL     OW21248   4.671   2.394   0.655
 1369SOL    HW121249   4.648   2.474   0.703
 1369SOL    HW221250   4.709   2.425   0.573
 1370SOL     OW21251   4.831   0.177   0.903
 1370SOL    HW121252   4.813   0.158   0.811
 1370SOL    HW221253   4.920   0.144   0.918
 1371SOL     OW21254   6.311   1.782   6.267
 1371SOL    HW121255   6.406   1.769   6.273
 1371SOL    HW221256   6.298   1.821   6.181
 1372SOL     OW21257   2.117   0.142   6.784
 1372SOL    HW121258   2.078   0.135   6.697
 1372SOL    HW221259   2.207   0.114   6.771
 1373SOL     OW21260   2.106   2.547   7.395
 1373SOL    HW121261   2.106   2.452   7.399
 1373SOL    HW221262   2.049   2.568   7.321
 1374SOL     OW21263   1.555   4.527   6.934
 1374SOL    HW121264   1.532   4.611   6.896
 1374SOL    HW221265   1.541   4.538   7.029
 1375SOL     OW21266   4.999   2.284   1.626
 1375SOL    HW121267   5.068   2.336   1.667
 1375SOL    HW221268   4.920   2.336   1.637
 1376SOL     OW21269   6.265   0.808   0.736
 1376SOL    HW121270   6.269   0.713   0.747
 1376SOL    HW221271   6.357   0.835   0.726
 1377SOL     OW21272   1.324   2.362   6.073
 1377SOL    HW121273   1.359   2.451   6.075
 1377SOL    HW221274   1.398   2.307   6.101
 1378SOL     OW21275   1.982   0.744   6.460
 1378SOL    HW121276   1.931   0.681   6.512
 1378SOL    HW221277   1.941   0.829   6.479
 1379SOL     OW21278   4.889   3.066   7.676
 1379SOL    HW121279   4.931   2.980   7.680
 1379SOL    HW221280   4.962   3.128   7.687
 1380SOL     OW21281   1.719   0.636   6.208
 1380SOL    HW121282   1.673   0.570   6.157
 1380SOL    HW221283   1.801   0.594   6.234
 1381SOL     OW21284   3.223   3.206   6.494
 1381SOL    HW121285   3.150   3.172   6.544
 1381SOL    HW221286   3.210   3.301   6.494
 1382SOL     OW21287   5.186   2.455   7.036
 1382SOL    HW121288   5.160   2.377   6.988
 1382SOL    HW221289   5.108   2.480   7.085
 1383SOL     OW21290   1.944   2.348   1.084
 1383SOL    HW121291   1.962   2.409   1.155
 1383SOL    HW221292   2.028   2.338   1.039
 1384SOL     OW21293   4.835   3.453   1.410
 1384SOL    HW121294   4.928   3.439   1.428
 1384SOL    HW221295   4.813   3.384   1.346
 1385SOL     OW21296   5.780   2.914   1.290
 1385SOL    HW121297   5.764   2.900   1.197
 1385SOL    HW221298   5.843   2.986   1.293
 1386SOL     OW21299   2.925   3.942   5.939
 1386SOL    HW121300   3.014   3.931   5.974
 1386SOL    HW221301   2.911   4.036   5.938
 1387SOL     OW21302   0.901   2.422   1.722
 1387SOL    HW121303   0.973   2.359   1.715
 1387SOL    HW221304   0.880   2.423   1.815
 1388SOL     OW21305   1.098   3.683   6.696
 1388SOL    HW121306   1.040   3.642   6.631
 1388SOL    HW221307   1.186   3.667   6.663
 1389SOL     OW21308   6.331   0.632   1.547
 1389SOL    HW121309   6.276   0.560   1.518
 1389SOL    HW221310   6.277   0.710   1.534
 1390SOL     OW21311   3.934   1.341   7.565
 1390SOL    HW121312   3.948   1.408   7.632
 1390SOL    HW221313   3.856   1.370   7.518
 1391SOL     OW21314   2.287   4.635   7.062
 1391SOL    HW121315   2.349   4.573   7.101
 1391SOL    HW221316   2.304   4.630   6.968
 1392SOL     OW21317   1.258   2.764   1.578
 1392SOL    HW121318   1.284   2.758   1.669
 1392SOL    HW221319   1.224   2.678   1.556
 1393SOL     OW21320   1.782   3.070   7.182
 1393SOL    HW121321   1.739   3.110   7.107
 1393SOL    HW221322   1.847   3.134   7.210
 1394SOL     OW21323   0.886   1.182   5.978
 1394SOL    HW121324   0.922   1.100   5.945
 1394SOL    HW221325   0.898   1.244   5.906
 1395SOL     OW21326   2.090   5.734   7.263
 1395SOL    HW121327   2.072   5.650   7.306
 1395SOL    HW221328   2.178   5.724   7.228
 1396SOL     OW21329   4.523   0.826   1.433
 1396SOL    HW121330   4.457   0.803   1.498
 1396SOL    HW221331   4.586   0.880   1.481
 1397SOL     OW21332   2.824   1.744   0.790
 1397SOL    HW121333   2.855   1.821   0.743
 1397SOL    HW221334   2.798   1.777   0.876
 1398SOL     OW21335   3.082   0.157   1.359
 1398SOL    HW121336   3.077   0.227   1.423
 1398SOL    HW221337   3.099   0.201   1.276
 1399SOL     OW21338   5.406   4.081   6.409
 1399SOL    HW121339   5.321   4.115   6.438
 1399SOL    HW221340   5.415   3.997   6.455
 1400SOL     OW21341   2.803   3.188   0.679
 1400SOL    HW121342   2.886   3.144   0.694
 1400SOL    HW221343   2.736   3.122   0.697
 1401SOL     OW21344   5.801   1.875   7.249
 1401SOL    HW121345   5.805   1.851   7.342
 1401SOL    HW221346   5.751   1.805   7.208
 1402SOL     OW21347   1.997   4.787   2.010
 1402SOL    HW121348   2.087   4.800   2.038
 1402SOL    HW221349   1.989   4.692   1.997
 1403SOL     OW21350   4.674   4.336   1.541
 1403SOL    HW121351   4.590   4.339   1.495
 1403SOL    HW221352   4.737   4.370   1.478
 1404SOL     OW21353   1.446   6.138   1.928
 1404SOL    HW121354   1.534   6.136   1.890
 1404SOL    HW221355   1.451   6.078   2.002
 1405SOL     OW21356   2.876   5.474   6.382
 1405SOL    HW121357   2.958   5.505   6.422
 1405SOL    HW221358   2.808   5.524   6.426
 1406SOL     OW21359   4.167   4.365   1.146
 1406SOL    HW121360   4.183   4.321   1.229
 1406SOL    HW221361   4.075   4.347   1.127
 1407SOL     OW21362   6.154   1.132   6.406
 1407SOL    HW121363   6.134   1.140   6.499
 1407SOL    HW221364   6.072   1.104   6.366
 1408SOL     OW21365   2.511   4.672   6.533
 1408SOL    HW121366   2.467   4.596   6.573
 1408SOL    HW221367   2.594   4.637   6.501
 1409SOL     OW21368   5.951   3.810   0.324
 1409SOL    HW121369   5.930   3.889   0.274
 1409SOL    HW221370   6.029   3.775   0.282
 1410SOL     OW21371   3.566   0.762   6.709
 1410SOL    HW121372   3.499   0.812   6.662
 1410SOL    HW221373   3.565   0.798   6.797
 1411SOL     OW21374   1.433   1.812   2.152
 1411SOL    HW121375   1.490   1.854   2.088
 1411SOL    HW221376   1.345   1.819   2.114
 1412SOL     OW21377   5.715   3.140   6.190
 1412SOL    HW121378   5.624   3.162   6.171
 1412SOL    HW221379   5.757   3.136   6.104
 1413SOL     OW21380   2.168   1.590   5.983
 1413SOL    HW121381   2.198   1.629   5.901
 1413SOL    HW221382   2.116   1.658   6.024
 1414SOL     OW21383   5.154   2.624   0.880
 1414SOL    HW121384   5.129   2.703   0.833
 1414SOL    HW221385   5.098   2.555   0.843
 1415SOL     OW21386   6.264   4.183   7.040
 1415SOL    HW121387   6.170   4.201   7.038
 1415SOL    HW221388   6.284   4.151   6.952
 1416SOL     OW21389   1.812   2.307   5.842
 1416SOL    HW121390   1.725   2.271   5.826
 1416SOL    HW221391   1.797   2.384   5.897
 1417SOL     OW21392   5.200   0.995   1.071
 1417SOL    HW121393   5.219   0.957   1.157
 1417SOL    HW221394   5.237   1.083   1.075
 1418SOL     OW21395   5.915   2.044   7.061
 1418SOL    HW121396   5.864   1.993   7.124
 1418SOL    HW221397   5.906   1.997   6.978
 1419SOL     OW21398   6.005   1.572   7.520
 1419SOL    HW121399   6.089   1.618   7.515
 1419SOL    HW221400   6.021   1.501   7.582
 1420SOL     OW21401   0.759   6.324   0.967
 1420SOL    HW121402   0.739   6.371   0.886
 1420SOL    HW221403   0.801   6.243   0.938
 1421SOL     OW21404   3.689   1.448   1.770
 1421SOL    HW121405   3.759   1.421   1.830
 1421SOL    HW221406   3.711   1.406   1.687
 1422SOL     OW21407   0.454   1.719   6.073
 1422SOL    HW121408   0.468   1.806   6.036
 1422SOL    HW221409   0.420   1.737   6.161
 1423SOL     OW21410   4.456   2.069   6.292
 1423SOL    HW121411   4.372   2.111   6.276
 1423SOL    HW221412   4.504   2.081   6.209
 1424SOL     OW21413   0.697   4.749   6.401
 1424SOL    HW121414   0.679   4.737   6.308
 1424SOL    HW221415   0.786   4.786   6.403
 1425SOL     OW21416   3.534   3.665   0.938
 1425SOL    HW121417   3.497   3.736   0.885
 1425SOL    HW221418   3.460   3.606   0.954
 1426SOL     OW21419   4.844   0.970   6.421
 1426SOL    HW121420   4.766   1.018   6.397
 1426SOL    HW221421   4.856   0.906   6.350
 1427SOL     OW21422   4.846   2.859   5.964
 1427SOL    HW121423   4.933   2.897   5.953
 1427SOL    HW221424   4.839   2.794   5.893
 1428SOL     OW21425   5.970   1.785   6.634
 1428SOL    HW121426   5.891   1.823   6.596
 1428SOL    HW221427   6.039   1.805   6.570
 1429SOL     OW21428   1.918   3.556   6.405
 1429SOL    HW121429   1.933   3.491   6.337
 1429SOL    HW221430   1.985   3.537   6.471
 1430SOL     OW21431   3.113   2.655   6.645
 1430SOL    HW121432   3.113   2.725   6.579
 1430SOL    HW221433   3.085   2.577   6.597
 1431SOL     OW21434   5.024   0.857   0.368
 1431SOL    HW121435   5.044   0.799   0.295
 1431SOL    HW221436   5.053   0.809   0.445
 1432SOL     OW21437   5.924   3.241   7.428
 1432SOL    HW121438   5.874   3.236   7.347
 1432SOL    HW221439   5.912   3.330   7.459
 1433SOL     OW21440   6.146   3.771   6.971
 1433SOL    HW121441   6.075   3.723   7.013
 1433SOL    HW221442   6.101   3.840   6.921
 1434SOL     OW21443   3.141   0.289   1.102
 1434SOL    HW121444   3.183   0.362   1.057
 1434SOL    HW221445   3.124   0.225   1.032
 1435SOL     OW21446   1.583   0.899   1.502
 1435SOL    HW121447   1.523   0.861   1.566
 1435SOL    HW221448   1.622   0.974   1.547
 1436SOL     OW21449   4.597   2.870   6.517
 1436SOL    HW121450   4.622   2.926   6.591
 1436SOL    HW221451   4.661   2.890   6.449
 1437SOL     OW21452   0.984   5.977   1.294
 1437SOL    HW121453   1.031   6.027   1.227
 1437SOL    HW221454   0.927   6.040   1.337
 1438SOL     OW21455   3.404   2.202   7.423
 1438SOL    HW121456   3.490   2.187   7.384
 1438SOL    HW221457   3.385   2.294   7.404
 1439SOL     OW21458   3.179   2.379   7.584
 1439SOL    HW121459   3.103   2.388   7.526
 1439SOL    HW221460   3.252   2.357   7.526
 1440SOL     OW21461   5.479   5.751   1.888
 1440SOL    HW121462   5.468   5.734   1.794
 1440SOL    HW221463   5.391   5.770   1.920
 1441SOL     OW21464   4.367   5.625   7.548
 1441SOL    HW121465   4.320   5.649   7.468
 1441SOL    HW221466   4.413   5.544   7.525
 1442SOL     OW21467   2.011   6.234   6.081
 1442SOL    HW121468   2.099   6.246   6.045
 1442SOL    HW221469   1.955   6.221   6.005
 1443SOL     OW21470   5.381   4.814   7.623
 1443SOL    HW121471   5.405   4.903   7.594
 1443SOL    HW221472   5.290   4.803   7.593
 1444SOL     OW21473   4.356   3.375   0.954
 1444SOL    HW121474   4.431   3.369   1.012
 1444SOL    HW221475   4.386   3.337   0.871
 1445SOL     OW21476   5.839   2.991   5.891
 1445SOL    HW121477   5.835   2.918   5.952
 1445SOL    HW221478   5.896   2.961   5.820
 1446SOL     OW21479   2.777   1.688   6.143
 1446SOL    HW121480   2.828   1.690   6.062
 1446SOL    HW221481   2.841   1.705   6.212
 1447SOL     OW21482   0.376   2.542   1.330
 1447SOL    HW121483   0.353   2.452   1.308
 1447SOL    HW221484   0.471   2.540   1.343
 1448SOL     OW21485   5.564   5.832   0.776
 1448SOL    HW121486   5.599   5.920   0.791
 1448SOL    HW221487   5.534   5.803   0.862
 1449SOL     OW21488   4.742   0.112   0.673
 1449SOL    HW121489   4.802   0.038   0.675
 1449SOL    HW221490   4.722   0.124   0.581
 1450SOL     OW21491   6.320   5.527   6.454
 1450SOL    HW121492   6.362   5.451   6.412
 1450SOL    HW221493   6.226   5.513   6.439
 1451SOL     OW21494   4.007   4.886   7.075
 1451SOL    HW121495   4.100   4.908   7.078
 1451SOL    HW221496   3.984   4.868   7.166
 1452SOL     OW21497   1.944   1.638   6.497
 1452SOL    HW121498   1.877   1.629   6.430
 1452SOL    HW221499   1.940   1.556   6.547
 1453SOL     OW21500   1.737   1.159   1.104
 1453SOL    HW121501   1.778   1.074   1.120
 1453SOL    HW221502   1.659   1.159   1.159
 1454SOL     OW21503   5.808   0.509   1.351
 1454SOL    HW121504   5.714   0.514   1.363
 1454SOL    HW221505   5.843   0.581   1.404
 1455SOL     OW21506   4.493   4.405   1.155
 1455SOL    HW121507   4.575   4.356   1.166
 1455SOL    HW221508   4.436   4.346   1.105
 1456SOL     OW21509   1.430   1.179   7.034
 1456SOL    HW121510   1.470   1.093   7.046
 1456SOL    HW221511   1.502   1.237   7.011
 1457SOL     OW21512   4.609   0.100   7.131
 1457SOL    HW121513   4.585   0.078   7.041
 1457SOL    HW221514   4.566   0.033   7.185
 1458SOL     OW21515   4.035   2.456   0.123
 1458SOL    HW121516   4.063   2.372   0.159
 1458SOL    HW221517   3.977   2.492   0.190
 1459SOL     OW21518   0.893   0.715   1.891
 1459SOL    HW121519   0.919   0.775   1.961
 1459SOL    HW221520   0.797   0.718   1.891
 1460SOL     OW21521   0.419   3.542   7.139
 1460SOL    HW121522   0.347   3.605   7.142
 1460SOL    HW221523   0.426   3.510   7.229
 1461SOL     OW21524   3.607   0.204   7.045
 1461SOL    HW121525   3.656   0.160   6.976
 1461SOL    HW221526   3.521   0.162   7.043
 1462SOL     OW21527   5.650   2.161   5.818
 1462SOL    HW121528   5.659   2.218   5.741
 1462SOL    HW221529   5.575   2.196   5.865
 1463SOL     OW21530   3.270   5.556   0.035
 1463SOL    HW121531   3.337   5.585   0.097
 1463SOL    HW221532   3.256   5.464   0.056
 1464SOL     OW21533   3.900   1.415   1.940
 1464SOL    HW121534   3.939   1.494   1.977
 1464SOL    HW221535   3.915   1.347   2.006
 1465SOL     OW21536   4.186   5.160   5.760
 1465SOL    HW121537   4.220   5.247   5.737
 1465SOL    HW221538   4.262   5.111   5.790
 1466SOL     OW21539   4.684   1.775   6.940
 1466SOL    HW121540   4.686   1.680   6.949
 1466SOL    HW221541   4.764   1.805   6.983
 1467SOL     OW21542   3.480   3.091   1.332
 1467SOL    HW121543   3.508   3.167   1.282
 1467SOL    HW221544   3.549   3.025   1.317
 1468SOL     OW21545   4.614   4.394   7.528
 1468SOL    HW121546   4.661   4.396   7.445
 1468SOL    HW221547   4.539   4.337   7.512
 1469SOL     OW21548   5.296   3.206   6.760
 1469SOL    HW121549   5.367   3.244   6.811
 1469SOL    HW221550   5.317   3.227   6.669
 1470SOL     OW21551   0.294   1.919   1.390
 1470SOL    HW121552   0.220   1.979   1.397
 1470SOL    HW221553   0.302   1.881   1.477
 1471SOL     OW21554   6.170   1.146   1.366
 1471SOL    HW121555   6.192   1.232   1.402
 1471SOL    HW221556   6.087   1.159   1.320
 1472SOL     OW21557   1.864   2.962   1.203
 1472SOL    HW121558   1.862   2.868   1.223
 1472SOL    HW221559   1.954   2.978   1.174
 1473SOL     OW21560   1.929   5.833   0.185
 1473SOL    HW121561   1.840   5.802   0.168
 1473SOL    HW221562   1.923   5.881   0.267
 1474SOL     OW21563   5.126   0.362   7.665
 1474SOL    HW121564   5.073   0.441   7.675
 1474SOL    HW221565   5.067   0.299   7.624
 1475SOL     OW21566   1.730   4.049   7.524
 1475SOL    HW121567   1.639   4.067   7.500
 1475SOL    HW221568   1.781   4.069   7.445
 1476SOL     OW21569   5.734   1.934   0.301
 1476SOL    HW121570   5.666   1.875   0.269
 1476SOL    HW221571   5.816   1.893   0.273
 1477SOL     OW21572   3.232   5.693   1.235
 1477SOL    HW121573   3.225   5.709   1.141
 1477SOL    HW221574   3.142   5.683   1.265
 1478SOL     OW21575   5.199   4.602   1.198
 1478SOL    HW121576   5.260   4.529   1.187
 1478SOL    HW221577   5.216   4.635   1.286
 1479SOL     OW21578   5.984   2.476   0.053
 1479SOL    HW121579   6.045   2.548   0.037
 1479SOL    HW221580   5.953   2.490   0.143
 1480SOL     OW21581   1.697   6.223   7.037
 1480SOL    HW121582   1.729   6.154   6.980
 1480SOL    HW221583   1.602   6.226   7.020
 1481SOL     OW21584   0.266   3.792   1.099
 1481SOL    HW121585   0.342   3.769   1.045
 1481SOL    HW221586   0.194   3.741   1.061
 1482SOL     OW21587   4.835   3.074   0.921
 1482SOL    HW121588   4.747   3.058   0.888
 1482SOL    HW221589   4.844   3.015   0.996
 1483SOL     OW21590   1.145   0.510   6.475
 1483SOL    HW121591   1.081   0.469   6.417
 1483SOL    HW221592   1.230   0.490   6.435
 1484SOL     OW21593   1.426   5.808   6.950
 1484SOL    HW121594   1.480   5.732   6.929
 1484SOL    HW221595   1.411   5.801   7.044
 1485SOL     OW21596   3.746   0.187   0.658
 1485SOL    HW121597   3.841   0.192   0.672
 1485SOL    HW221598   3.709   0.239   0.729
 1486SOL     OW21599   6.390   0.781   7.045
 1486SOL    HW121600   6.307   0.812   7.007
 1486SOL    HW221601   6.438   0.745   6.971
 1487SOL     OW21602   5.715   5.063   6.931
 1487SOL    HW121603   5.667   4.981   6.922
 1487SOL    HW221604   5.698   5.091   7.021
 1488SOL     OW21605   1.105   5.432   1.083
 1488SOL    HW121606   1.163   5.440   1.159
 1488SOL    HW221607   1.107   5.340   1.060
 1489SOL     OW21608   0.873   0.519   2.380
 1489SOL    HW121609   0.849   0.518   2.472
 1489SOL    HW221610   0.931   0.445   2.368
 1490SOL     OW21611   5.045   5.798   5.934
 1490SOL    HW121612   5.122   5.800   5.877
 1490SOL    HW221613   5.060   5.722   5.991
 1491SOL     OW21614   0.898   0.394   2.640
 1491SOL    HW121615   0.974   0.449   2.660
 1491SOL    HW221616   0.935   0.312   2.609
 1492SOL     OW21617   4.391   2.757   6.670
 1492SOL    HW121618   4.476   2.765   6.627
 1492SOL    HW221619   4.338   2.705   6.609
 1493SOL     OW21620   4.028   2.010   7.546
 1493SOL    HW121621   4.035   2.097   7.584
 1493SOL    HW221622   4.119   1.981   7.534
 1494SOL     OW21623   1.138   6.175   0.329
 1494SOL    HW121624   1.199   6.141   0.395
 1494SOL    HW221625   1.063   6.206   0.380
 1495SOL     OW21626   5.660   4.057   5.246
 1495SOL    HW121627   5.616   4.121   5.302
 1495SOL    HW221628   5.739   4.103   5.216
 1496SOL     OW21629   2.660   1.739   5.673
 1496SOL    HW121630   2.748   1.745   5.637
 1496SOL    HW221631   2.632   1.649   5.653
 1497SOL     OW21632   4.400   5.509   1.035
 1497SOL    HW121633   4.402   5.603   1.048
 1497SOL    HW221634   4.372   5.474   1.120
 1498SOL     OW21635   4.775   2.853   6.880
 1498SOL    HW121636   4.710   2.783   6.871
 1498SOL    HW221637   4.851   2.822   6.831
 1499SOL     OW21638   4.089   5.153   0.969
 1499SOL    HW121639   3.998   5.160   0.943
 1499SOL    HW221640   4.116   5.065   0.940
 1500SOL     OW21641   2.134   2.303   0.891
 1500SOL    HW121642   2.138   2.212   0.862
 1500SOL    HW221643   2.205   2.312   0.953
 1501SOL     OW21644   4.563   4.167   0.735
 1501SOL    HW121645   4.627   4.164   0.806
 1501SOL    HW221646   4.581   4.251   0.691
 1502SOL     OW21647   5.244   0.102   1.361
 1502SOL    HW121648   5.290   0.146   1.432
 1502SOL    HW221649   5.208   0.173   1.308
 1503SOL     OW21650   2.376   0.086   1.591
 1503SOL    HW121651   2.432   0.023   1.546
 1503SOL    HW221652   2.380   0.060   1.684
 1504SOL     OW21653   2.491   3.483   1.925
 1504SOL    HW121654   2.568   3.433   1.951
 1504SOL    HW221655   2.467   3.532   2.004
 1505SOL     OW21656   3.664   2.364   1.103
 1505SOL    HW121657   3.616   2.287   1.072
 1505SOL    HW221658   3.733   2.376   1.038
 1506SOL     OW21659   5.597   1.582   0.507
 1506SOL    HW121660   5.539   1.527   0.560
 1506SOL    HW221661   5.587   1.670   0.544
 1507SOL     OW21662   2.926   1.486   6.759
 1507SOL    HW121663   2.959   1.418   6.818
 1507SOL    HW221664   2.868   1.439   6.700
 1508SOL     OW21665   5.624   0.848   7.297
 1508SOL    HW121666   5.577   0.864   7.379
 1508SOL    HW221667   5.632   0.753   7.292
 1509SOL     OW21668   1.027   0.916   6.618
 1509SOL    HW121669   1.116   0.898   6.587
 1509SOL    HW221670   0.971   0.894   6.543
 1510SOL     OW21671   3.515   4.119   2.103
 1510SOL    HW121672   3.484   4.029   2.108
 1510SOL    HW221673   3.594   4.115   2.049
 1511SOL     OW21674   1.376   2.130   0.290
 1511SOL    HW121675   1.378   2.220   0.323
 1511SOL    HW221676   1.363   2.139   0.196
 1512SOL     OW21677   5.510   5.705   7.484
 1512SOL    HW121678   5.533   5.653   7.561
 1512SOL    HW221679   5.537   5.651   7.410
 1513SOL     OW21680   0.163   0.245   2.042
 1513SOL    HW121681   0.199   0.160   2.065
 1513SOL    HW221682   0.221   0.308   2.085
 1514SOL     OW21683   1.867   1.000   2.138
 1514SOL    HW121684   1.777   0.971   2.124
 1514SOL    HW221685   1.920   0.945   2.081
 1515SOL     OW21686   5.763   1.764   7.523
 1515SOL    HW121687   5.855   1.737   7.527
 1515SOL    HW221688   5.738   1.779   7.614
 1516SOL     OW21689   5.715   6.134   1.816
 1516SOL    HW121690   5.767   6.107   1.892
 1516SOL    HW221691   5.746   6.078   1.745
 1517SOL     OW21692   1.546   6.231   7.473
 1517SOL    HW121693   1.529   6.266   7.560
 1517SOL    HW221694   1.612   6.289   7.435
 1518SOL     OW21695   4.893   3.922   2.140
 1518SOL    HW121696   4.947   3.844   2.125
 1518SOL    HW221697   4.807   3.887   2.165
 1519SOL     OW21698   1.429   5.561   7.366
 1519SOL    HW121699   1.447   5.655   7.355
 1519SOL    HW221700   1.335   5.557   7.382
 1520SOL     OW21701   5.787   3.444   0.682
 1520SOL    HW121702   5.712   3.426   0.626
 1520SOL    HW221703   5.757   3.425   0.771
 1521SOL     OW21704   4.811   3.236   1.243
 1521SOL    HW121705   4.904   3.216   1.232
 1521SOL    HW221706   4.766   3.154   1.227
 1522SOL     OW21707   5.695   4.271   0.378
 1522SOL    HW121708   5.646   4.343   0.417
 1522SOL    HW221709   5.709   4.298   0.287
 1523SOL     OW21710   1.276   4.264   6.319
 1523SOL    HW121711   1.329   4.307   6.253
 1523SOL    HW221712   1.339   4.224   6.378
 1524SOL     OW21713   5.810   5.090   1.586
 1524SOL    HW121714   5.887   5.044   1.555
 1524SOL    HW221715   5.834   5.183   1.583
 1525SOL     OW21716   5.738   4.164   6.708
 1525SOL    HW121717   5.694   4.228   6.763
 1525SOL    HW221718   5.706   4.182   6.620
 1526SOL     OW21719   4.964   4.099  -0.002
 1526SOL    HW121720   5.056   4.092   0.022
 1526SOL    HW221721   4.919   4.039   0.058
 1527SOL     OW21722   1.521   2.246   5.565
 1527SOL    HW121723   1.427   2.259   5.568
 1527SOL    HW221724   1.546   2.226   5.655
 1528SOL     OW21725   4.908   4.568   0.228
 1528SOL    HW121726   4.918   4.611   0.314
 1528SOL    HW221727   4.903   4.475   0.249
 1529SOL     OW21728   3.590   5.364   7.005
 1529SOL    HW121729   3.534   5.310   7.062
 1529SOL    HW221730   3.601   5.446   7.052
 1530SOL     OW21731   2.863   6.275   0.490
 1530SOL    HW121732   2.891   6.188   0.519
 1530SOL    HW221733   2.768   6.268   0.479
 1531SOL     OW21734   5.955   0.974   0.340
 1531SOL    HW121735   5.989   1.045   0.287
 1531SOL    HW221736   6.031   0.940   0.387
 1532SOL     OW21737   2.504   0.158   0.172
 1532SOL    HW121738   2.479   0.231   0.116
 1532SOL    HW221739   2.497   0.081   0.115
 1533SOL     OW21740   3.894   2.803   0.567
 1533SOL    HW121741   3.817   2.771   0.615
 1533SOL    HW221742   3.967   2.756   0.605
 1534SOL     OW21743   3.045   1.933   6.593
 1534SOL    HW121744   2.994   1.851   6.597
 1534SOL    HW221745   3.081   1.942   6.681
 1535SOL     OW21746   4.491   4.187   0.437
 1535SOL    HW121747   4.440   4.142   0.504
 1535SOL    HW221748   4.514   4.270   0.477
 1536SOL     OW21749   4.231   1.536   6.784
 1536SOL    HW121750   4.269   1.618   6.751
 1536SOL    HW221751   4.138   1.543   6.765
 1537SOL     OW21752   6.252   3.889   7.587
 1537SOL    HW121753   6.279   3.828   7.518
 1537SOL    HW221754   6.260   3.975   7.546
 1538SOL     OW21755   6.080   1.693   7.220
 1538SOL    HW121756   5.999   1.741   7.203
 1538SOL    HW221757   6.058   1.633   7.291
 1539SOL     OW21758   4.020   2.341   7.028
 1539SOL    HW121759   3.960   2.306   6.963
 1539SOL    HW221760   3.978   2.324   7.112
 1540SOL     OW21761   2.914   6.011   7.198
 1540SOL    HW121762   2.842   6.060   7.159
 1540SOL    HW221763   2.872   5.945   7.253
 1541SOL     OW21764   2.571   4.759   0.985
 1541SOL    HW121765   2.662   4.767   1.015
 1541SOL    HW221766   2.555   4.665   0.980
 1542SOL     OW21767   5.700   2.665   0.817
 1542SOL    HW121768   5.783   2.627   0.843
 1542SOL    HW221769   5.701   2.664   0.721
 1543SOL     OW21770   1.303   1.234   5.992
 1543SOL    HW121771   1.298   1.257   5.900
 1543SOL    HW221772   1.397   1.232   6.011
 1544SOL     OW21773   2.786   3.706   7.240
 1544SOL    HW121774   2.806   3.682   7.330
 1544SOL    HW221775   2.696   3.675   7.227
 1545SOL     OW21776   5.972   3.652   5.356
 1545SOL    HW121777   5.876   3.654   5.350
 1545SOL    HW221778   5.997   3.745   5.360
 1546SOL     OW21779   0.292   6.410   1.548
 1546SOL    HW121780   0.284   6.350   1.621
 1546SOL    HW221781   0.217   6.391   1.492
 1547SOL     OW21782   5.956   5.229   7.487
 1547SOL    HW121783   5.995   5.308   7.524
 1547SOL    HW221784   5.861   5.244   7.493
 1548SOL     OW21785   0.455   5.240   6.600
 1548SOL    HW121786   0.366   5.273   6.612
 1548SOL    HW221787   0.509   5.296   6.655
 1549SOL     OW21788   3.784   5.600   6.780
 1549SOL    HW121789   3.818   5.647   6.704
 1549SOL    HW221790   3.776   5.666   6.848
 1550SOL     OW21791   2.390   1.853   1.372
 1550SOL    HW121792   2.312   1.885   1.418
 1550SOL    HW221793   2.457   1.919   1.391
 1551SOL     OW21794   5.007   1.714   6.795
 1551SOL    HW121795   4.920   1.674   6.793
 1551SOL    HW221796   4.995   1.799   6.753
 1552SOL     OW21797   4.017   3.758   7.143
 1552SOL    HW121798   3.989   3.667   7.145
 1552SOL    HW221799   4.108   3.755   7.114
 1553SOL     OW21800   6.000   0.132   5.764
 1553SOL    HW121801   6.065   0.166   5.703
 1553SOL    HW221802   6.041   0.139   5.850
 1554SOL     OW21803   4.960   5.405   1.398
 1554SOL    HW121804   4.908   5.477   1.433
 1554SOL    HW221805   5.048   5.418   1.434
 1555SOL     OW21806   2.682   5.353   0.500
 1555SOL    HW121807   2.723   5.268   0.481
 1555SOL    HW221808   2.741   5.417   0.458
 1556SOL     OW21809   5.680   6.170   0.731
 1556SOL    HW121810   5.659   6.254   0.689
 1556SOL    HW221811   5.686   6.109   0.658
 1557SOL     OW21812   2.572   2.119   0.737
 1557SOL    HW121813   2.489   2.126   0.690
 1557SOL    HW221814   2.639   2.133   0.670
 1558SOL     OW21815   3.802   2.341   6.617
 1558SOL    HW121816   3.735   2.344   6.549
 1558SOL    HW221817   3.781   2.263   6.669
 1559SOL     OW21818   2.103   3.101   0.884
 1559SOL    HW121819   2.168   3.149   0.934
 1559SOL    HW221820   2.038   3.167   0.859
 1560SOL     OW21821   5.733   0.644   7.629
 1560SOL    HW121822   5.827   0.638   7.610
 1560SOL    HW221823   5.690   0.612   7.550
 1561SOL     OW21824   6.161   2.259   1.026
 1561SOL    HW121825   6.085   2.312   1.004
 1561SOL    HW221826   6.232   2.322   1.039
 1562SOL     OW21827   3.057   4.197   5.767
 1562SOL    HW121828   2.972   4.207   5.809
 1562SOL    HW221829   3.119   4.187   5.839
 1563SOL     OW21830   2.059   1.487   5.651
 1563SOL    HW121831   1.964   1.497   5.648
 1563SOL    HW221832   2.092   1.577   5.642
 1564SOL     OW21833   2.030   2.819   6.495
 1564SOL    HW121834   1.980   2.748   6.455
 1564SOL    HW221835   2.088   2.850   6.425
 1565SOL     OW21836   0.819   4.737   7.713
 1565SOL    HW121837   0.751   4.769   7.771
 1565SOL    HW221838   0.787   4.754   7.625
 1566SOL     OW21839   1.570   2.191   5.821
 1566SOL    HW121840   1.612   2.126   5.877
 1566SOL    HW221841   1.482   2.200   5.858
 1567SOL     OW21842   1.700   5.693   7.506
 1567SOL    HW121843   1.730   5.642   7.431
 1567SOL    HW221844   1.737   5.781   7.492
 1568SOL     OW21845   5.183   5.626   6.508
 1568SOL    HW121846   5.221   5.658   6.426
 1568SOL    HW221847   5.116   5.564   6.480
 1569SOL     OW21848   1.240   2.822   7.181
 1569SOL    HW121849   1.165   2.807   7.238
 1569SOL    HW221850   1.316   2.803   7.237
 1570SOL     OW21851   2.771   1.665   0.271
 1570SOL    HW121852   2.856   1.684   0.230
 1570SOL    HW221853   2.768   1.570   0.277
 1571SOL     OW21854   4.071   0.648   7.289
 1571SOL    HW121855   4.010   0.668   7.361
 1571SOL    HW221856   4.028   0.577   7.241
 1572SOL     OW21857   4.784   1.308   0.444
 1572SOL    HW121858   4.689   1.300   0.436
 1572SOL    HW221859   4.819   1.230   0.402
 1573SOL     OW21860   3.408   1.210   2.016
 1573SOL    HW121861   3.410   1.288   1.961
 1573SOL    HW221862   3.330   1.162   1.988
 1574SOL     OW21863   2.011   3.336   6.931
 1574SOL    HW121864   1.956   3.332   6.853
 1574SOL    HW221865   2.049   3.424   6.930
 1575SOL     OW21866   0.454   3.777   2.058
 1575SOL    HW121867   0.496   3.758   1.974
 1575SOL    HW221868   0.498   3.718   2.120
 1576SOL     OW21869   2.693   3.476   1.647
 1576SOL    HW121870   2.744   3.431   1.714
 1576SOL    HW221871   2.603   3.473   1.678
 1577SOL     OW21872   4.353   4.705   0.836
 1577SOL    HW121873   4.354   4.718   0.742
 1577SOL    HW221874   4.262   4.681   0.857
 1578SOL     OW21875   5.095   1.347   7.369
 1578SOL    HW121876   5.083   1.442   7.363
 1578SOL    HW221877   5.190   1.334   7.366
 1579SOL     OW21878   2.052   4.011   1.875
 1579SOL    HW121879   2.141   3.983   1.894
 1579SOL    HW221880   1.999   3.932   1.881
 1580SOL     OW21881   3.682   5.927   6.226
 1580SOL    HW121882   3.651   5.843   6.193
 1580SOL    HW221883   3.622   5.949   6.297
 1581SOL     OW21884   0.268   5.596   1.008
 1581SOL    HW121885   0.248   5.643   0.927
 1581SOL    HW221886   0.194   5.616   1.066
 1582SOL     OW21887   3.372   2.465   7.378
 1582SOL    HW121888   3.446   2.474   7.439
 1582SOL    HW221889   3.369   2.549   7.332
 1583SOL     OW21890   0.887   6.327   5.619
 1583SOL    HW121891   0.948   6.307   5.689
 1583SOL    HW221892   0.910   6.416   5.592
 1584SOL     OW21893   2.357   2.217   1.017
 1584SOL    HW121894   2.434   2.263   0.987
 1584SOL    HW221895   2.391   2.137   1.058
 1585SOL     OW21896   1.982   4.259   2.030
 1585SOL    HW121897   1.928   4.236   2.106
 1585SOL    HW221898   1.999   4.175   1.987
 1586SOL     OW21899   3.134   5.060   7.666
 1586SOL    HW121900   3.204   5.040   7.603
 1586SOL    HW221901   3.170   5.035   7.751
 1587SOL     OW21902   5.076   5.400   6.410
 1587SOL    HW121903   5.089   5.319   6.459
 1587SOL    HW221904   5.010   5.378   6.344
 1588SOL     OW21905   0.743   5.405   0.830
 1588SOL    HW121906   0.685   5.330   0.842
 1588SOL    HW221907   0.739   5.452   0.913
 1589SOL     OW21908   0.293   2.222   0.289
 1589SOL    HW121909   0.351   2.249   0.360
 1589SOL    HW221910   0.235   2.157   0.329
 1590SOL     OW21911   5.369   1.632   0.990
 1590SOL    HW121912   5.452   1.633   0.943
 1590SOL    HW221913   5.358   1.722   1.021
 1591SOL     OW21914   1.629   5.399   0.252
 1591SOL    HW121915   1.586   5.364   0.331
 1591SOL    HW221916   1.599   5.343   0.181
 1592SOL     OW21917   2.411   0.082   6.761
 1592SOL    HW121918   2.428   0.074   6.855
 1592SOL    HW221919   2.440   0.171   6.739
 1593SOL     OW21920   2.029   0.108   5.893
 1593SOL    HW121921   2.070   0.185   5.854
 1593SOL    HW221922   1.944   0.138   5.925
 1594SOL     OW21923   0.433   5.601   5.541
 1594SOL    HW121924   0.362   5.665   5.545
 1594SOL    HW221925   0.498   5.640   5.483
 1595SOL     OW21926   2.153   4.524   6.411
 1595SOL    HW121927   2.226   4.481   6.454
 1595SOL    HW221928   2.192   4.584   6.349
 1596SOL     OW21929   4.265   1.897   6.001
 1596SOL    HW121930   4.336   1.844   6.039
 1596SOL    HW221931   4.311   1.964   5.949
 1597SOL     OW21932   5.727   4.545   0.879
 1597SOL    HW121933   5.638   4.526   0.851
 1597SOL    HW221934   5.782   4.489   0.825
 1598SOL     OW21935   2.594   0.766   1.460
 1598SOL    HW121936   2.506   0.745   1.430
 1598SOL    HW221937   2.651   0.737   1.389
 1599SOL     OW21938   0.338   1.582   0.339
 1599SOL    HW121939   0.385   1.546   0.414
 1599SOL    HW221940   0.403   1.585   0.269
 1600SOL     OW21941   3.167   0.558   1.752
 1600SOL    HW121942   3.179   0.652   1.737
 1600SOL    HW221943   3.223   0.516   1.688
 1601SOL     OW21944   2.990   1.831   1.594
 1601SOL    HW121945   2.950   1.833   1.681
 1601SOL    HW221946   3.079   1.864   1.607
 1602SOL     OW21947   6.233   4.335   6.069
 1602SOL    HW121948   6.299   4.398   6.099
 1602SOL    HW221949   6.235   4.341   5.974
 1603SOL     OW21950   0.870   0.493   1.208
 1603SOL    HW121951   0.925   0.419   1.236
 1603SOL    HW221952   0.845   0.472   1.118
 1604SOL     OW21953   1.421   1.370   7.230
 1604SOL    HW121954   1.456   1.437   7.171
 1604SOL    HW221955   1.421   1.290   7.177
 1605SOL     OW21956   6.306   3.685   5.846
 1605SOL    HW121957   6.308   3.764   5.792
 1605SOL    HW221958   6.216   3.680   5.878
 1606SOL     OW21959   2.253   3.509   6.167
 1606SOL    HW121960   2.216   3.589   6.205
 1606SOL    HW221961   2.274   3.455   6.242
 1607SOL     OW21962   2.719   5.720   7.725
 1607SOL    HW121963   2.801   5.676   7.747
 1607SOL    HW221964   2.655   5.649   7.717
 1608SOL     OW21965   6.435   4.694   7.553
 1608SOL    HW121966   6.504   4.635   7.584
 1608SOL    HW221967   6.363   4.681   7.615
 1609SOL     OW21968   2.352   0.021   7.304
 1609SOL    HW121969   2.316  -0.060   7.339
 1609SOL    HW221970   2.281   0.085   7.315
 1610SOL     OW21971   4.516   0.914   6.749
 1610SOL    HW121972   4.610   0.896   6.752
 1610SOL    HW221973   4.503   0.983   6.814
 1611SOL     OW21974   1.556   1.246   1.519
 1611SOL    HW121975   1.487   1.195   1.561
 1611SOL    HW221976   1.512   1.325   1.488
 1612SOL     OW21977   1.776   3.860   6.980
 1612SOL    HW121978   1.867   3.860   7.010
 1612SOL    HW221979   1.746   3.949   6.996
 1613SOL     OW21980   2.785   3.886   7.691
 1613SOL    HW121981   2.757   3.904   7.781
 1613SOL    HW221982   2.817   3.796   7.693
 1614SOL     OW21983   2.382   3.220   6.976
 1614SOL    HW121984   2.301   3.170   6.972
 1614SOL    HW221985   2.377   3.279   6.900
 1615SOL     OW21986   4.180   4.943   0.852
 1615SOL    HW121987   4.125   4.969   0.778
 1615SOL    HW221988   4.266   4.978   0.831
 1616SOL     OW21989   6.261   4.454   1.760
 1616SOL    HW121990   6.261   4.501   1.843
 1616SOL    HW221991   6.178   4.407   1.758
 1617SOL     OW21992   2.297   1.378   0.212
 1617SOL    HW121993   2.262   1.303   0.260
 1617SOL    HW221994   2.228   1.401   0.150
 1618SOL     OW21995   3.276   3.969   1.023
 1618SOL    HW121996   3.261   3.913   0.946
 1618SOL    HW221997   3.288   3.908   1.095
 1619SOL     OW21998   2.746   2.253   2.335
 1619SOL    HW121999   2.827   2.267   2.286
 1619SOL    HW222000   2.716   2.341   2.356
 1620SOL     OW22001   4.687   1.654   7.655
 1620SOL    HW122002   4.710   1.601   7.579
 1620SOL    HW222003   4.632   1.596   7.708
 1621SOL     OW22004   3.723   0.479   0.091
 1621SOL    HW122005   3.688   0.554   0.140
 1621SOL    HW222006   3.800   0.452   0.140
 1622SOL     OW22007   2.137   1.829   7.734
 1622SOL    HW122008   2.170   1.852   7.647
 1622SOL    HW222009   2.153   1.908   7.787
 1623SOL     OW22010   6.159   5.221   6.729
 1623SOL    HW122011   6.083   5.177   6.769
 1623SOL    HW222012   6.141   5.314   6.741
 1624SOL     OW22013   4.152   2.246   7.655
 1624SOL    HW122014   4.136   2.318   7.594
 1624SOL    HW222015   4.214   2.189   7.609
 1625SOL     OW22016   3.898   1.064   5.991
 1625SOL    HW122017   3.899   1.150   5.948
 1625SOL    HW222018   3.891   1.085   6.084
 1626SOL     OW22019   5.293   0.150   0.971
 1626SOL    HW122020   5.372   0.102   0.994
 1626SOL    HW222021   5.266   0.193   1.052
 1627SOL     OW22022   3.450   0.830   7.228
 1627SOL    HW122023   3.435   0.740   7.257
 1627SOL    HW222024   3.412   0.884   7.298
 1628SOL     OW22025   2.123   6.194   0.269
 1628SOL    HW122026   2.124   6.176   0.175
 1628SOL    HW222027   2.088   6.282   0.276
 1629SOL     OW22028   0.034   3.577   1.251
 1629SOL    HW122029  -0.001   3.544   1.334
 1629SOL    HW222030   0.105   3.516   1.229
 1630SOL     OW22031   5.387   0.188   1.578
 1630SOL    HW122032   5.427   0.225   1.656
 1630SOL    HW222033   5.460   0.156   1.525
 1631SOL     OW22034   5.496   4.402   1.569
 1631SOL    HW122035   5.558   4.412   1.496
 1631SOL    HW222036   5.499   4.487   1.614
 1632SOL     OW22037   0.741   2.549   0.976
 1632SOL    HW122038   0.679   2.550   1.049
 1632SOL    HW222039   0.709   2.616   0.916
 1633SOL     OW22040   0.186   5.783   7.721
 1633SOL    HW122041   0.213   5.699   7.685
 1633SOL    HW222042   0.127   5.761   7.793
 1634SOL     OW22043   2.060   0.641   0.286
 1634SOL    HW122044   1.966   0.658   0.294
 1634SOL    HW222045   2.075   0.632   0.192
 1635SOL     OW22046   0.254   2.595   7.218
 1635SOL    HW122047   0.169   2.552   7.226
 1635SOL    HW222048   0.233   2.688   7.218
 1636SOL     OW22049   5.177   6.070   0.828
 1636SOL    HW122050   5.111   6.099   0.892
 1636SOL    HW222051   5.244   6.138   0.831
 1637SOL     OW22052   3.599   0.015   6.844
 1637SOL    HW122053   3.658   0.079   6.805
 1637SOL    HW222054   3.512   0.037   6.809
 1638SOL     OW22055   4.944   4.673   7.786
 1638SOL    HW122056   4.942   4.638   7.875
 1638SOL    HW222057   4.856   4.706   7.770
 1639SOL     OW22058   5.905   5.070   0.930
 1639SOL    HW122059   5.938   5.036   0.847
 1639SOL    HW222060   5.833   5.127   0.905
 1640SOL     OW22061   1.816   4.396   0.732
 1640SOL    HW122062   1.908   4.407   0.756
 1640SOL    HW222063   1.784   4.328   0.791
 1641SOL     OW22064   4.529   4.863   7.362
 1641SOL    HW122065   4.578   4.909   7.293
 1641SOL    HW222066   4.498   4.783   7.320
 1642SOL     OW22067   0.575   2.454   0.384
 1642SOL    HW122068   0.537   2.382   0.433
 1642SOL    HW222069   0.655   2.476   0.431
 1643SOL     OW22070   5.307   3.322   0.842
 1643SOL    HW122071   5.334   3.301   0.931
 1643SOL    HW222072   5.223   3.278   0.831
 1644SOL     OW22073   1.736   4.338   6.880
 1644SOL    HW122074   1.681   4.414   6.894
 1644SOL    HW222075   1.817   4.357   6.929
 1645SOL     OW22076   3.947   4.817   7.654
 1645SOL    HW122077   4.032   4.823   7.698
 1645SOL    HW222078   3.898   4.893   7.687
 1646SOL     OW22079   5.752   5.319   6.489
 1646SOL    HW122080   5.659   5.303   6.509
 1646SOL    HW222081   5.751   5.393   6.429
 1647SOL     OW22082   3.591   5.529   6.618
 1647SOL    HW122083   3.511   5.555   6.663
 1647SOL    HW222084   3.661   5.541   6.682
 1648SOL     OW22085   0.535   5.605   1.038
 1648SOL    HW122086   0.443   5.607   1.010
 1648SOL    HW222087   0.543   5.524   1.088
 1649SOL     OW22088   1.386   0.527   0.421
 1649SOL    HW122089   1.372   0.603   0.364
 1649SOL    HW222090   1.299   0.503   0.451
 1650SOL     OW22091   1.722   0.330   0.792
 1650SOL    HW122092   1.670   0.340   0.712
 1650SOL    HW222093   1.787   0.264   0.769
 1651SOL     OW22094   1.845   5.177   1.064
 1651SOL    HW122095   1.806   5.261   1.042
 1651SOL    HW222096   1.802   5.151   1.145
 1652SOL     OW22097   6.439   4.288   0.281
 1652SOL    HW122098   6.383   4.318   0.353
 1652SOL    HW222099   6.379   4.260   0.212
 1653SOL     OW22100   2.410   5.749   0.563
 1653SOL    HW122101   2.471   5.753   0.636
 1653SOL    HW222102   2.464   5.758   0.485
 1654SOL     OW22103   3.750   4.755   1.762
 1654SOL    HW122104   3.783   4.668   1.740
 1654SOL    HW222105   3.704   4.743   1.845
 1655SOL     OW22106   2.996   5.337   0.787
 1655SOL    HW122107   3.074   5.368   0.834
 1655SOL    HW222108   2.963   5.265   0.840
 1656SOL     OW22109   5.808   3.872   7.175
 1656SOL    HW122110   5.788   3.959   7.209
 1656SOL    HW222111   5.885   3.843   7.225
 1657SOL     OW22112   4.618   4.822   0.952
 1657SOL    HW122113   4.615   4.777   1.037
 1657SOL    HW222114   4.529   4.815   0.918
 1658SOL     OW22115   2.492   6.046   6.321
 1658SOL    HW122116   2.481   5.951   6.326
 1658SOL    HW222117   2.451   6.071   6.238
 1659SOL     OW22118   2.917   1.569   1.864
 1659SOL    HW122119   3.011   1.551   1.876
 1659SOL    HW222120   2.911   1.664   1.863
 1660SOL     OW22121   1.343   0.517   2.467
 1660SOL    HW122122   1.370   0.581   2.532
 1660SOL    HW222123   1.333   0.567   2.386
 1661SOL     OW22124   5.513   2.233   6.188
 1661SOL    HW122125   5.558   2.165   6.237
 1661SOL    HW222126   5.421   2.205   6.186
 1662SOL     OW22127   3.847   4.180   7.385
 1662SOL    HW122128   3.784   4.251   7.371
 1662SOL    HW222129   3.808   4.128   7.455
 1663SOL     OW22130   5.543   3.057   5.583
 1663SOL    HW122131   5.527   3.147   5.612
 1663SOL    HW222132   5.636   3.055   5.561
 1664SOL     OW22133   0.875   1.358   0.615
 1664SOL    HW122134   0.891   1.449   0.588
 1664SOL    HW222135   0.962   1.324   0.635
 1665SOL     OW22136   3.561   1.740   1.111
 1665SOL    HW122137   3.641   1.691   1.130
 1665SOL    HW222138   3.579   1.784   1.028
 1666SOL     OW22139   3.190   4.097   0.792
 1666SOL    HW122140   3.217   4.082   0.883
 1666SOL    HW222141   3.269   4.083   0.741
 1667SOL     OW22142   5.407   2.908   6.633
 1667SOL    HW122143   5.315   2.931   6.647
 1667SOL    HW222144   5.436   2.964   6.562
 1668SOL     OW22145   4.133   6.418   7.604
 1668SOL    HW122146   4.073   6.382   7.670
 1668SOL    HW222147   4.199   6.349   7.592
 1669SOL     OW22148   3.445   5.194   7.170
 1669SOL    HW122149   3.394   5.130   7.120
 1669SOL    HW222150   3.379   5.247   7.214
 1670SOL     OW22151   5.822   1.637   6.999
 1670SOL    HW122152   5.897   1.693   6.979
 1670SOL    HW222153   5.752   1.669   6.942
 1671SOL     OW22154   0.913   2.442   2.337
 1671SOL    HW122155   0.925   2.524   2.386
 1671SOL    HW222156   0.997   2.397   2.345
 1672SOL     OW22157   1.734   3.698   0.193
 1672SOL    HW122158   1.768   3.736   0.112
 1672SOL    HW222159   1.654   3.653   0.167
 1673SOL     OW22160   4.280   5.288   7.367
 1673SOL    HW122161   4.284   5.354   7.298
 1673SOL    HW222162   4.364   5.243   7.363
 1674SOL     OW22163   4.730   2.403   7.323
 1674SOL    HW122164   4.806   2.419   7.267
 1674SOL    HW222165   4.741   2.464   7.396
 1675SOL     OW22166   4.112   2.453   7.492
 1675SOL    HW122167   4.027   2.454   7.447
 1675SOL    HW222168   4.176   2.473   7.424
 1676SOL     OW22169   1.998   0.380   1.987
 1676SOL    HW122170   2.049   0.453   2.022
 1676SOL    HW222171   2.064   0.322   1.948
 1677SOL     OW22172   2.191   6.104   0.552
 1677SOL    HW122173   2.167   6.129   0.463
 1677SOL    HW222174   2.182   6.009   0.553
 1678SOL     OW22175   1.293   0.550   7.193
 1678SOL    HW122176   1.286   0.455   7.196
 1678SOL    HW222177   1.203   0.580   7.205
 1679SOL     OW22178   1.417   4.947   7.664
 1679SOL    HW122179   1.346   4.984   7.716
 1679SOL    HW222180   1.374   4.886   7.604
 1680SOL     OW22181   0.882   4.881   6.692
 1680SOL    HW122182   0.896   4.910   6.602
 1680SOL    HW222183   0.966   4.842   6.718
 1681SOL     OW22184   0.836   3.978   7.642
 1681SOL    HW122185   0.838   4.074   7.645
 1681SOL    HW222186   0.883   3.951   7.720
 1682SOL     OW22187   2.794   2.581   6.939
 1682SOL    HW122188   2.849   2.650   6.902
 1682SOL    HW222189   2.752   2.540   6.863
 1683SOL     OW22190   3.566   1.959   0.524
 1683SOL    HW122191   3.487   1.972   0.472
 1683SOL    HW222192   3.621   1.901   0.470
 1684SOL     OW22193   1.893   2.291   6.642
 1684SOL    HW122194   1.862   2.382   6.633
 1684SOL    HW222195   1.979   2.291   6.602
 1685SOL     OW22196   1.627   4.476   6.128
 1685SOL    HW122197   1.685   4.522   6.189
 1685SOL    HW222198   1.539   4.496   6.159
 1686SOL     OW22199   5.988   4.850   0.315
 1686SOL    HW122200   5.918   4.829   0.377
 1686SOL    HW222201   5.942   4.875   0.235
 1687SOL     OW22202   2.686   6.418   1.780
 1687SOL    HW122203   2.739   6.344   1.748
 1687SOL    HW222204   2.719   6.493   1.732
 1688SOL     OW22205   2.094   0.903   1.803
 1688SOL    HW122206   2.080   0.855   1.884
 1688SOL    HW222207   2.142   0.981   1.829
 1689SOL     OW22208   1.627   5.204   6.470
 1689SOL    HW122209   1.663   5.250   6.546
 1689SOL    HW222210   1.695   5.211   6.403
 1690SOL     OW22211   3.788   6.261   6.525
 1690SOL    HW122212   3.788   6.295   6.615
 1690SOL    HW222213   3.876   6.276   6.493
 1691SOL     OW22214   3.038   4.011   6.293
 1691SOL    HW122215   3.015   4.086   6.237
 1691SOL    HW222216   3.121   4.036   6.333
 1692SOL     OW22217   5.960   4.379   0.801
 1692SOL    HW122218   5.993   4.448   0.744
 1692SOL    HW222219   6.036   4.352   0.853
 1693SOL     OW22220   5.173   4.294   0.050
 1693SOL    HW122221   5.090   4.302   0.097
 1693SOL    HW222222   5.163   4.352  -0.026
 1694SOL     OW22223   1.375   0.861   6.811
 1694SOL    HW122224   1.322   0.807   6.753
 1694SOL    HW222225   1.355   0.830   6.899
 1695SOL     OW22226   3.491   3.050   7.375
 1695SOL    HW122227   3.519   2.985   7.440
 1695SOL    HW222228   3.536   3.025   7.295
 1696SOL     OW22229   1.922   6.243   1.934
 1696SOL    HW122230   1.985   6.174   1.912
 1696SOL    HW222231   1.838   6.210   1.904
 1697SOL     OW22232   0.643   5.273   6.021
 1697SOL    HW122233   0.736   5.293   6.014
 1697SOL    HW222234   0.625   5.215   5.948
 1698SOL     OW22235   6.288   0.726   1.226
 1698SOL    HW122236   6.253   0.774   1.150
 1698SOL    HW222237   6.215   0.719   1.286
 1699SOL     OW22238   5.640   4.490   6.968
 1699SOL    HW122239   5.676   4.463   7.053
 1699SOL    HW222240   5.707   4.465   6.904
 1700SOL     OW22241   6.068   3.168   1.470
 1700SOL    HW122242   6.063   3.074   1.455
 1700SOL    HW222243   6.078   3.177   1.564
 1701SOL     OW22244   2.027   2.034   6.377
 1701SOL    HW122245   2.072   1.970   6.321
 1701SOL    HW222246   2.016   1.988   6.460
 1702SOL     OW22247   5.202   1.412   0.313
 1702SOL    HW122248   5.147   1.335   0.326
 1702SOL    HW222249   5.210   1.451   0.400
 1703SOL     OW22250   3.755   1.088   0.899
 1703SOL    HW122251   3.838   1.043   0.913
 1703SOL    HW222252   3.730   1.066   0.809
 1704SOL     OW22253   4.103   4.367   5.809
 1704SOL    HW122254   4.173   4.402   5.754
 1704SOL    HW222255   4.141   4.359   5.896
 1705SOL     OW22256   4.754   4.115   0.367
 1705SOL    HW122257   4.791   4.185   0.313
 1705SOL    HW222258   4.675   4.154   0.405
 1706SOL     OW22259   0.139   5.885   5.723
 1706SOL    HW122260   0.179   5.840   5.649
 1706SOL    HW222261   0.068   5.937   5.684
 1707SOL     OW22262   6.020   4.955   5.841
 1707SOL    HW122263   6.008   4.995   5.755
 1707SOL    HW222264   5.975   5.015   5.902
 1708SOL     OW22265   0.793   0.764   0.354
 1708SOL    HW122266   0.743   0.720   0.285
 1708SOL    HW222267   0.806   0.696   0.420
 1709SOL     OW22268   4.762   3.114   6.597
 1709SOL    HW122269   4.839   3.071   6.559
 1709SOL    HW222270   4.730   3.172   6.529
 1710SOL     OW22271   3.806   5.169   0.600
 1710SOL    HW122272   3.764   5.085   0.614
 1710SOL    HW222273   3.739   5.234   0.622
 1711SOL     OW22274   0.749   1.450   1.359
 1711SOL    HW122275   0.741   1.418   1.269
 1711SOL    HW222276   0.672   1.505   1.372
 1712SOL     OW22277   4.760   5.519   2.044
 1712SOL    HW122278   4.726   5.603   2.075
 1712SOL    HW222279   4.719   5.505   1.959
 1713SOL     OW22280   4.341   5.943   0.728
 1713SOL    HW122281   4.339   6.001   0.804
 1713SOL    HW222282   4.432   5.912   0.724
 1714SOL     OW22283   0.220   0.500   0.920
 1714SOL    HW122284   0.165   0.430   0.954
 1714SOL    HW222285   0.265   0.536   0.997
 1715SOL     OW22286   3.802   5.913   1.262
 1715SOL    HW122287   3.755   5.970   1.201
 1715SOL    HW222288   3.847   5.850   1.205
 1716SOL     OW22289   2.105   4.431   6.824
 1716SOL    HW122290   2.036   4.399   6.882
 1716SOL    HW222291   2.177   4.371   6.838
 1717SOL     OW22292   0.248   4.539   6.724
 1717SOL    HW122293   0.263   4.628   6.756
 1717SOL    HW222294   0.154   4.525   6.734
 1718SOL     OW22295   3.211   2.037   7.790
 1718SOL    HW122296   3.255   2.042   7.705
 1718SOL    HW222297   3.120   2.060   7.771
 1719SOL     OW22298   4.686   6.157   2.497
 1719SOL    HW122299   4.704   6.248   2.476
 1719SOL    HW222300   4.674   6.114   2.413
 1720SOL     OW22301   3.267   3.686   7.227
 1720SOL    HW122302   3.188   3.651   7.187
 1720SOL    HW222303   3.263   3.781   7.211
 1721SOL     OW22304   1.808   0.347   0.190
 1721SOL    HW122305   1.821   0.282   0.258
 1721SOL    HW222306   1.885   0.338   0.133
 1722SOL     OW22307   1.727   0.393   7.181
 1722SOL    HW122308   1.785   0.467   7.169
 1722SOL    HW222309   1.785   0.318   7.194
 1723SOL     OW22310   5.741   3.251   5.877
 1723SOL    HW122311   5.754   3.157   5.884
 1723SOL    HW222312   5.646   3.262   5.880
 1724SOL     OW22313   6.390   5.742   7.412
 1724SOL    HW122314   6.312   5.719   7.362
 1724SOL    HW222315   6.457   5.680   7.383
 1725SOL     OW22316   1.723   4.763   5.232
 1725SOL    HW122317   1.742   4.820   5.157
 1725SOL    HW222318   1.716   4.823   5.307
 1726SOL     OW22319   3.097   0.071   6.597
 1726SOL    HW122320   3.044   0.129   6.652
 1726SOL    HW222321   3.148   0.130   6.543
 1727SOL     OW22322   4.194   3.197   0.263
 1727SOL    HW122323   4.193   3.107   0.234
 1727SOL    HW222324   4.287   3.217   0.277
 1728SOL     OW22325   3.713   3.213   1.770
 1728SOL    HW122326   3.769   3.149   1.726
 1728SOL    HW222327   3.731   3.296   1.725
 1729SOL     OW22328   0.146   0.787   6.811
 1729SOL    HW122329   0.219   0.846   6.826
 1729SOL    HW222330   0.172   0.706   6.855
 1730SOL     OW22331   4.029   1.972   0.441
 1730SOL    HW122332   3.970   2.046   0.431
 1730SOL    HW222333   4.115   2.012   0.455
 1731SOL     OW22334   4.481   3.506   6.310
 1731SOL    HW122335   4.406   3.511   6.251
 1731SOL    HW222336   4.556   3.529   6.255
 1732SOL     OW22337   0.936   2.471   6.499
 1732SOL    HW122338   0.945   2.470   6.595
 1732SOL    HW222339   0.895   2.387   6.478
 1733SOL     OW22340   3.055   3.598   7.101
 1733SOL    HW122341   3.073   3.585   7.008
 1733SOL    HW222342   2.961   3.581   7.110
 1734SOL     OW22343   3.799   5.990   7.758
 1734SOL    HW122344   3.888   5.963   7.779
 1734SOL    HW222345   3.748   5.909   7.756
 1735SOL     OW22346   5.692   5.589   5.935
 1735SOL    HW122347   5.682   5.668   5.987
 1735SOL    HW222348   5.752   5.534   5.984
 1736SOL     OW22349   2.980   1.030   0.492
 1736SOL    HW122350   3.074   1.025   0.508
 1736SOL    HW222351   2.971   1.015   0.398
 1737SOL     OW22352   5.842   4.590   1.117
 1737SOL    HW122353   5.833   4.588   1.021
 1737SOL    HW222354   5.936   4.582   1.132
 1738SOL     OW22355   4.067   2.596   1.116
 1738SOL    HW122356   4.124   2.538   1.165
 1738SOL    HW222357   4.117   2.618   1.037
 1739SOL     OW22358   4.541   4.248   6.422
 1739SOL    HW122359   4.527   4.343   6.424
 1739SOL    HW222360   4.484   4.217   6.352
 1740SOL     OW22361   2.149   3.047   7.606
 1740SOL    HW122362   2.122   2.960   7.577
 1740SOL    HW222363   2.178   3.091   7.527
 1741SOL     OW22364   5.249   2.157   6.174
 1741SOL    HW122365   5.172   2.134   6.225
 1741SOL    HW222366   5.219   2.225   6.114
 1742SOL     OW22367   1.337   5.345   6.628
 1742SOL    HW122368   1.388   5.356   6.548
 1742SOL    HW222369   1.401   5.354   6.699
 1743SOL     OW22370   6.160   4.865   0.737
 1743SOL    HW122371   6.150   4.787   0.682
 1743SOL    HW222372   6.099   4.928   0.700
 1744SOL     OW22373   1.987   3.259   7.204
 1744SOL    HW122374   2.080   3.271   7.222
 1744SOL    HW222375   1.980   3.269   7.109
 1745SOL     OW22376   5.943   3.169   0.703
 1745SOL    HW122377   5.976   3.259   0.700
 1745SOL    HW222378   5.850   3.177   0.682
 1746SOL     OW22379   3.945   1.288   5.443
 1746SOL    HW122380   3.897   1.227   5.500
 1746SOL    HW222381   3.977   1.356   5.502
 1747SOL     OW22382   5.743   5.379   7.162
 1747SOL    HW122383   5.702   5.353   7.245
 1747SOL    HW222384   5.832   5.343   7.168
 1748SOL     OW22385   3.978   2.788   7.789
 1748SOL    HW122386   3.956   2.826   7.703
 1748SOL    HW222387   4.054   2.733   7.771
 1749SOL     OW22388   3.943   0.522   5.516
 1749SOL    HW122389   4.007   0.453   5.534
 1749SOL    HW222390   3.934   0.522   5.420
 1750SOL     OW22391   0.313   2.181   6.081
 1750SOL    HW122392   0.282   2.141   5.999
 1750SOL    HW222393   0.300   2.275   6.067
 1751SOL     OW22394   1.362   0.512   6.323
 1751SOL    HW122395   1.401   0.431   6.290
 1751SOL    HW222396   1.348   0.566   6.245
 1752SOL     OW22397   2.950   4.396   0.573
 1752SOL    HW122398   2.941   4.459   0.644
 1752SOL    HW222399   3.045   4.387   0.561
 1753SOL     OW22400   3.238   1.810   6.874
 1753SOL    HW122401   3.282   1.725   6.873
 1753SOL    HW222402   3.144   1.789   6.878
 1754SOL     OW22403   0.881   6.343   7.010
 1754SOL    HW122404   0.870   6.410   6.942
 1754SOL    HW222405   0.958   6.293   6.981
 1755SOL     OW22406   1.228   2.509   1.505
 1755SOL    HW122407   1.147   2.459   1.517
 1755SOL    HW222408   1.237   2.515   1.410
 1756SOL     OW22409   5.522   3.114   0.203
 1756SOL    HW122410   5.472   3.101   0.284
 1756SOL    HW222411   5.503   3.204   0.177
 1757SOL     OW22412   5.532   4.643   1.701
 1757SOL    HW122413   5.458   4.636   1.761
 1757SOL    HW222414   5.532   4.735   1.674
 1758SOL     OW22415   6.063   4.775   7.062
 1758SOL    HW122416   6.124   4.846   7.083
 1758SOL    HW222417   6.059   4.775   6.967
 1759SOL     OW22418   6.175   0.875   0.484
 1759SOL    HW122419   6.197   0.894   0.576
 1759SOL    HW222420   6.164   0.780   0.482
 1760SOL     OW22421   0.435   0.163   1.416
 1760SOL    HW122422   0.397   0.251   1.405
 1760SOL    HW222423   0.372   0.117   1.471
 1761SOL     OW22424   3.876   3.299   0.578
 1761SOL    HW122425   3.879   3.373   0.517
 1761SOL    HW222426   3.918   3.227   0.531
 1762SOL     OW22427   3.798   4.637   0.726
 1762SOL    HW122428   3.826   4.710   0.782
 1762SOL    HW222429   3.871   4.623   0.666
 1763SOL     OW22430   2.683   4.310   1.988
 1763SOL    HW122431   2.588   4.300   1.985
 1763SOL    HW222432   2.701   4.381   1.926
 1764SOL     OW22433   3.686   2.059   0.745
 1764SOL    HW122434   3.651   2.032   0.660
 1764SOL    HW222435   3.778   2.034   0.743
 1765SOL     OW22436   6.087   2.705   0.439
 1765SOL    HW122437   6.058   2.777   0.494
 1765SOL    HW222438   6.177   2.687   0.467
 1766SOL     OW22439   2.948   6.438   1.067
 1766SOL    HW122440   3.027   6.490   1.049
 1766SOL    HW222441   2.980   6.349   1.078
 1767SOL     OW22442   5.011   1.711   6.255
 1767SOL    HW122443   5.053   1.683   6.336
 1767SOL    HW222444   5.078   1.699   6.187
 1768SOL     OW22445   6.173   5.494   1.496
 1768SOL    HW122446   6.246   5.513   1.556
 1768SOL    HW222447   6.208   5.515   1.409
 1769SOL     OW22448   1.237   2.119   2.244
 1769SOL    HW122449   1.269   2.091   2.158
 1769SOL    HW222450   1.218   2.037   2.290
 1770SOL     OW22451   5.289   0.475   1.460
 1770SOL    HW122452   5.372   0.519   1.445
 1770SOL    HW222453   5.309   0.408   1.525
 1771SOL     OW22454   5.564   3.265   1.838
 1771SOL    HW122455   5.498   3.261   1.907
 1771SOL    HW222456   5.631   3.202   1.865
 1772SOL     OW22457   2.656   5.128   1.632
 1772SOL    HW122458   2.617   5.132   1.545
 1772SOL    HW222459   2.744   5.092   1.617
 1773SOL     OW22460   5.212   3.719   2.077
 1773SOL    HW122461   5.265   3.716   2.157
 1773SOL    HW222462   5.276   3.732   2.007
 1774SOL     OW22463   4.207   3.261   7.358
 1774SOL    HW122464   4.299   3.282   7.367
 1774SOL    HW222465   4.197   3.238   7.265
 1775SOL     OW22466   6.235   2.572   1.783
 1775SOL    HW122467   6.286   2.520   1.721
 1775SOL    HW222468   6.224   2.514   1.858
 1776SOL     OW22469   1.970   5.550   7.445
 1776SOL    HW122470   1.919   5.470   7.457
 1776SOL    HW222471   2.059   5.526   7.470
 1777SOL     OW22472   1.247   4.560   1.913
 1777SOL    HW122473   1.219   4.484   1.965
 1777SOL    HW222474   1.198   4.633   1.950
 1778SOL     OW22475   6.067   3.086   7.715
 1778SOL    HW122476   6.127   3.123   7.651
 1778SOL    HW222477   6.050   3.158   7.776
 1779SOL     OW22478   3.494   4.717   0.793
 1779SOL    HW122479   3.420   4.672   0.832
 1779SOL    HW222480   3.568   4.658   0.808
 1780SOL     OW22481   2.872   5.514   0.386
 1780SOL    HW122482   2.865   5.541   0.294
 1780SOL    HW222483   2.948   5.561   0.419
 1781SOL     OW22484   4.628   3.015   2.312
 1781SOL    HW122485   4.689   3.078   2.351
 1781SOL    HW222486   4.659   2.930   2.344
 1782SOL     OW22487   3.755   0.076   1.349
 1782SOL    HW122488   3.724   0.112   1.266
 1782SOL    HW222489   3.704  -0.004   1.360
 1783SOL     OW22490   0.116   6.337   7.006
 1783SOL    HW122491   0.143   6.357   6.916
 1783SOL    HW222492   0.197   6.316   7.051
 1784SOL     OW22493   0.567   5.012   6.145
 1784SOL    HW122494   0.544   5.099   6.113
 1784SOL    HW222495   0.604   5.027   6.232
 1785SOL     OW22496   5.646   3.546   1.470
 1785SOL    HW122497   5.710   3.506   1.411
 1785SOL    HW222498   5.646   3.638   1.446
 1786SOL     OW22499   1.854   1.025   0.219
 1786SOL    HW122500   1.803   1.070   0.151
 1786SOL    HW222501   1.888   1.095   0.274
 1787SOL     OW22502   2.355   0.629   0.643
 1787SOL    HW122503   2.293   0.562   0.672
 1787SOL    HW222504   2.394   0.663   0.724
 1788SOL     OW22505   4.330   1.023   7.680
 1788SOL    HW122506   4.407   1.053   7.633
 1788SOL    HW222507   4.288   0.961   7.620
 1789SOL     OW22508   3.362   4.834   7.281
 1789SOL    HW122509   3.433   4.787   7.325
 1789SOL    HW222510   3.288   4.774   7.282
 1790SOL     OW22511   5.300   4.879   2.788
 1790SOL    HW122512   5.248   4.939   2.735
 1790SOL    HW222513   5.348   4.935   2.849
 1791SOL     OW22514   4.574   5.737   2.061
 1791SOL    HW122515   4.528   5.675   2.004
 1791SOL    HW222516   4.505   5.775   2.115
 1792SOL     OW22517   4.651   3.449   1.623
 1792SOL    HW122518   4.705   3.465   1.546
 1792SOL    HW222519   4.695   3.377   1.668
 1793SOL     OW22520   4.954   3.285   6.453
 1793SOL    HW122521   4.974   3.262   6.543
 1793SOL    HW222522   4.878   3.342   6.459
 1794SOL     OW22523   4.582   5.381   7.559
 1794SOL    HW122524   4.672   5.350   7.543
 1794SOL    HW222525   4.547   5.319   7.623
 1795SOL     OW22526   0.829   4.572   6.695
 1795SOL    HW122527   0.879   4.631   6.638
 1795SOL    HW222528   0.752   4.549   6.644
 1796SOL     OW22529   4.033   5.476   0.079
 1796SOL    HW122530   3.990   5.453  -0.004
 1796SOL    HW222531   4.070   5.393   0.110
 1797SOL     OW22532   2.017   4.005   6.235
 1797SOL    HW122533   1.957   4.043   6.299
 1797SOL    HW222534   2.088   4.069   6.229
 1798SOL     OW22535   4.393   0.817   1.696
 1798SOL    HW122536   4.305   0.787   1.717
 1798SOL    HW222537   4.443   0.736   1.683
 1799SOL     OW22538   3.342   4.433   6.839
 1799SOL    HW122539   3.282   4.481   6.897
 1799SOL    HW222540   3.335   4.342   6.867
 1800SOL     OW22541   3.317   5.927   7.718
 1800SOL    HW122542   3.231   5.967   7.716
 1800SOL    HW222543   3.338   5.918   7.812
 1801SOL     OW22544   5.154   2.900   5.393
 1801SOL    HW122545   5.214   2.963   5.431
 1801SOL    HW222546   5.180   2.893   5.301
 1802SOL     OW22547   3.024   4.467   1.605
 1802SOL    HW122548   3.003   4.410   1.678
 1802SOL    HW222549   2.997   4.554   1.634
 1803SOL     OW22550   4.849   3.710   0.350
 1803SOL    HW122551   4.838   3.692   0.443
 1803SOL    HW222552   4.789   3.649   0.307
 1804SOL     OW22553   5.616   5.371   1.301
 1804SOL    HW122554   5.643   5.382   1.210
 1804SOL    HW222555   5.631   5.279   1.321
 1805SOL     OW22556   3.156   3.629   0.158
 1805SOL    HW122557   3.248   3.641   0.135
 1805SOL    HW222558   3.131   3.711   0.201
 1806SOL     OW22559   0.199   2.165   6.360
 1806SOL    HW122560   0.201   2.210   6.276
 1806SOL    HW222561   0.279   2.193   6.404
 1807SOL     OW22562   6.204   1.228   7.589
 1807SOL    HW122563   6.224   1.160   7.525
 1807SOL    HW222564   6.250   1.306   7.556
 1808SOL     OW22565   5.951   4.212   0.509
 1808SOL    HW122566   5.878   4.235   0.451
 1808SOL    HW222567   5.952   4.282   0.575
 1809SOL     OW22568   1.983   1.906   0.887
 1809SOL    HW122569   1.955   1.878   0.974
 1809SOL    HW222570   1.911   1.880   0.829
 1810SOL     OW22571   1.693   3.509   5.484
 1810SOL    HW122572   1.760   3.550   5.429
 1810SOL    HW222573   1.742   3.474   5.559
 1811SOL     OW22574   4.861   2.928   1.149
 1811SOL    HW122575   4.841   2.923   1.242
 1811SOL    HW222576   4.951   2.896   1.142
 1812SOL     OW22577   3.270   2.235   6.491
 1812SOL    HW122578   3.183   2.238   6.530
 1812SOL    HW222579   3.293   2.326   6.475
 1813SOL     OW22580   2.556   3.103   7.790
 1813SOL    HW122581   2.622   3.037   7.810
 1813SOL    HW222582   2.474   3.064   7.818
 1814SOL     OW22583   0.725   4.188   6.203
 1814SOL    HW122584   0.739   4.146   6.118
 1814SOL    HW222585   0.782   4.142   6.263
 1815SOL     OW22586   6.135   4.844   7.576
 1815SOL    HW122587   6.124   4.764   7.627
 1815SOL    HW222588   6.142   4.814   7.485
 1816SOL     OW22589   4.009   1.810   6.843
 1816SOL    HW122590   3.992   1.732   6.791
 1816SOL    HW222591   3.927   1.859   6.841
 1817SOL     OW22592   6.158   0.669   2.183
 1817SOL    HW122593   6.096   0.670   2.110
 1817SOL    HW222594   6.118   0.610   2.247
 1818SOL     OW22595   3.517   0.731   5.985
 1818SOL    HW122596   3.546   0.801   5.927
 1818SOL    HW222597   3.473   0.668   5.927
 1819SOL     OW22598   1.773   6.140   7.653
 1819SOL    HW122599   1.819   6.192   7.718
 1819SOL    HW222600   1.740   6.205   7.590
 1820SOL     OW22601   5.836   2.739   7.126
 1820SOL    HW122602   5.814   2.710   7.214
 1820SOL    HW222603   5.912   2.796   7.137
 1821SOL     OW22604   5.770   0.310   5.489
 1821SOL    HW122605   5.688   0.358   5.479
 1821SOL    HW222606   5.792   0.280   5.401
 1822SOL     OW22607   4.130   0.353   5.558
 1822SOL    HW122608   4.215   0.327   5.523
 1822SOL    HW222609   4.118   0.300   5.637
 1823SOL     OW22610   3.783   5.213   1.230
 1823SOL    HW122611   3.751   5.303   1.225
 1823SOL    HW222612   3.704   5.160   1.244
 1824SOL     OW22613   4.026   3.192   7.782
 1824SOL    HW122614   4.099   3.132   7.796
 1824SOL    HW222615   4.017   3.239   7.865
 1825SOL     OW22616   4.990   2.005   6.308
 1825SOL    HW122617   4.985   1.922   6.260
 1825SOL    HW222618   4.903   2.016   6.346
 1826SOL     OW22619   1.717   3.863   7.723
 1826SOL    HW122620   1.731   3.933   7.660
 1826SOL    HW222621   1.622   3.856   7.731
 1827SOL     OW22622   0.998   0.169   1.646
 1827SOL    HW122623   1.093   0.161   1.643
 1827SOL    HW222624   0.983   0.248   1.698
 1828SOL     OW22625   5.690   1.543   7.220
 1828SOL    HW122626   5.730   1.584   7.143
 1828SOL    HW222627   5.758   1.486   7.255
 1829SOL     OW22628   0.033   6.111   1.664
 1829SOL    HW122629   0.054   6.018   1.676
 1829SOL    HW222630  -0.003   6.116   1.575
 1830SOL     OW22631   2.857   4.047   6.494
 1830SOL    HW122632   2.919   4.023   6.426
 1830SOL    HW222633   2.899   4.021   6.576
 1831SOL     OW22634   3.564   4.255   2.356
 1831SOL    HW122635   3.552   4.196   2.281
 1831SOL    HW222636   3.614   4.328   2.321
 1832SOL     OW22637   5.460   3.603   7.069
 1832SOL    HW122638   5.396   3.622   7.000
 1832SOL    HW222639   5.510   3.529   7.035
 1833SOL     OW22640   4.119   5.228   0.070
 1833SOL    HW122641   4.134   5.137   0.095
 1833SOL    HW222642   4.186   5.247   0.005
 1834SOL     OW22643   0.709   3.036   6.106
 1834SOL    HW122644   0.769   3.039   6.180
 1834SOL    HW222645   0.650   3.110   6.121
 1835SOL     OW22646   2.826   5.039   0.157
 1835SOL    HW122647   2.830   5.120   0.106
 1835SOL    HW222648   2.911   5.034   0.201
 1836SOL     OW22649   5.338   1.691   7.619
 1836SOL    HW122650   5.407   1.628   7.599
 1836SOL    HW222651   5.298   1.659   7.700
 1837SOL     OW22652   6.095   1.166   0.196
 1837SOL    HW122653   6.077   1.128   0.110
 1837SOL    HW222654   6.177   1.124   0.223
 1838SOL     OW22655   5.198   2.318   0.140
 1838SOL    HW122656   5.249   2.347   0.064
 1838SOL    HW222657   5.197   2.222   0.133
 1839SOL     OW22658   6.402   0.038   6.727
 1839SOL    HW122659   6.381  -0.053   6.707
 1839SOL    HW222660   6.494   0.037   6.753
 1840SOL     OW22661   5.836   4.621   6.569
 1840SOL    HW122662   5.742   4.638   6.555
 1840SOL    HW222663   5.853   4.541   6.520
 1841SOL     OW22664   4.814   3.206   2.409
 1841SOL    HW122665   4.833   3.290   2.451
 1841SOL    HW222666   4.888   3.150   2.433
 1842SOL     OW22667   5.393   2.250   5.872
 1842SOL    HW122668   5.352   2.283   5.953
 1842SOL    HW222669   5.345   2.292   5.802
 1843SOL     OW22670   5.539   2.489   6.287
 1843SOL    HW122671   5.569   2.469   6.376
 1843SOL    HW222672   5.528   2.404   6.245
 1844SOL     OW22673   1.643   0.182   6.959
 1844SOL    HW122674   1.714   0.216   7.013
 1844SOL    HW222675   1.612   0.257   6.909
 1845SOL     OW22676   5.799   3.477   1.199
 1845SOL    HW122677   5.730   3.518   1.147
 1845SOL    HW222678   5.878   3.524   1.176
 1846SOL     OW22679   1.414   6.196   6.386
 1846SOL    HW122680   1.454   6.216   6.301
 1846SOL    HW222681   1.365   6.116   6.372
 1847SOL     OW22682   1.693   2.145   7.202
 1847SOL    HW122683   1.696   2.231   7.244
 1847SOL    HW222684   1.721   2.162   7.112
 1848SOL     OW22685   6.228   1.421   0.246
 1848SOL    HW122686   6.153   1.402   0.189
 1848SOL    HW222687   6.277   1.339   0.248
 1849SOL     OW22688   5.659   5.221   1.821
 1849SOL    HW122689   5.740   5.196   1.866
 1849SOL    HW222690   5.640   5.147   1.763
 1850SOL     OW22691   1.749   6.344   6.761
 1850SOL    HW122692   1.806   6.368   6.833
 1850SOL    HW222693   1.748   6.248   6.762
 1851SOL     OW22694   5.354   6.268   6.944
 1851SOL    HW122695   5.379   6.197   6.885
 1851SOL    HW222696   5.379   6.348   6.897
 1852SOL     OW22697   3.544   6.410   0.046
 1852SOL    HW122698   3.452   6.429   0.031
 1852SOL    HW222699   3.579   6.490   0.087
 1853SOL     OW22700   0.443   0.824   0.438
 1853SOL    HW122701   0.440   0.831   0.534
 1853SOL    HW222702   0.422   0.733   0.420
 1854SOL     OW22703   0.835   3.417   0.054
 1854SOL    HW122704   0.896   3.390  -0.014
 1854SOL    HW222705   0.806   3.503   0.027
 1855SOL     OW22706   2.653   4.573   1.585
 1855SOL    HW122707   2.703   4.551   1.665
 1855SOL    HW222708   2.567   4.534   1.600
 1856SOL     OW22709   5.636   3.295   7.284
 1856SOL    HW122710   5.589   3.222   7.244
 1856SOL    HW222711   5.697   3.324   7.215
 1857SOL     OW22712   1.537   3.264   1.893
 1857SOL    HW122713   1.586   3.213   1.957
 1857SOL    HW222714   1.464   3.207   1.867
 1858SOL     OW22715   2.937   1.148   1.214
 1858SOL    HW122716   2.898   1.090   1.148
 1858SOL    HW222717   2.917   1.106   1.298
 1859SOL     OW22718   5.152   5.845   0.486
 1859SOL    HW122719   5.206   5.863   0.562
 1859SOL    HW222720   5.205   5.788   0.431
 1860SOL     OW22721   3.923   2.330   7.317
 1860SOL    HW122722   3.972   2.254   7.287
 1860SOL    HW222723   3.831   2.301   7.314
 1861SOL     OW22724   6.338   5.961   6.116
 1861SOL    HW122725   6.371   5.882   6.073
 1861SOL    HW222726   6.400   5.978   6.187
 1862SOL     OW22727   4.787   5.598   1.474
 1862SOL    HW122728   4.780   5.635   1.562
 1862SOL    HW222729   4.716   5.535   1.469
 1863SOL     OW22730   1.978   3.305   6.219
 1863SOL    HW122731   1.890   3.279   6.190
 1863SOL    HW222732   2.034   3.284   6.144
 1864SOL     OW22733   2.005   1.763   1.131
 1864SOL    HW122734   2.082   1.709   1.152
 1864SOL    HW222735   2.030   1.851   1.159
 1865SOL     OW22736   3.366   1.354   0.570
 1865SOL    HW122737   3.419   1.434   0.564
 1865SOL    HW222738   3.276   1.386   0.578
 1866SOL     OW22739   6.280   2.971   6.902
 1866SOL    HW122740   6.356   2.981   6.959
 1866SOL    HW222741   6.236   3.056   6.904
 1867SOL     OW22742   5.406   4.942   1.306
 1867SOL    HW122743   5.353   5.016   1.277
 1867SOL    HW222744   5.490   4.980   1.330
 1868SOL     OW22745   1.595   2.962   1.103
 1868SOL    HW122746   1.574   2.972   1.010
 1868SOL    HW222747   1.679   2.918   1.104
 1869SOL     OW22748   3.631   3.925   6.790
 1869SOL    HW122749   3.665   3.996   6.845
 1869SOL    HW222750   3.653   3.951   6.701
 1870SOL     OW22751   3.909   6.370   7.431
 1870SOL    HW122752   3.832   6.386   7.484
 1870SOL    HW222753   3.962   6.310   7.484
 1871SOL     OW22754   6.444   2.576   0.393
 1871SOL    HW122755   6.416   2.635   0.464
 1871SOL    HW222756   6.432   2.627   0.313
 1872SOL     OW22757   3.338   0.415   0.269
 1872SOL    HW122758   3.366   0.325   0.288
 1872SOL    HW222759   3.243   0.409   0.258
 1873SOL     OW22760   4.681   5.453   1.220
 1873SOL    HW122761   4.727   5.409   1.148
 1873SOL    HW222762   4.686   5.391   1.293
 1874SOL     OW22763   6.116   4.605   1.059
 1874SOL    HW122764   6.133   4.608   0.965
 1874SOL    HW222765   6.189   4.555   1.095
 1875SOL     OW22766   5.277   5.689   0.036
 1875SOL    HW122767   5.210   5.731  -0.017
 1875SOL    HW222768   5.356   5.741   0.022
 1876SOL     OW22769   6.071   5.921   7.553
 1876SOL    HW122770   6.072   5.986   7.483
 1876SOL    HW222771   6.010   5.854   7.522
 1877SOL     OW22772   5.472   4.799   2.027
 1877SOL    HW122773   5.416   4.872   2.000
 1877SOL    HW222774   5.561   4.835   2.025
 1878SOL     OW22775   4.423   2.493   0.867
 1878SOL    HW122776   4.501   2.444   0.892
 1878SOL    HW222777   4.372   2.432   0.814
 1879SOL     OW22778   5.956   3.295   0.124
 1879SOL    HW122779   5.899   3.369   0.102
 1879SOL    HW222780   6.020   3.331   0.186
 1880SOL     OW22781   4.890   4.133   6.660
 1880SOL    HW122782   4.937   4.058   6.623
 1880SOL    HW222783   4.923   4.209   6.613
 1881SOL     OW22784   3.743   3.958   0.332
 1881SOL    HW122785   3.705   3.872   0.312
 1881SOL    HW222786   3.777   3.949   0.421
 1882SOL     OW22787   0.449   4.839   6.434
 1882SOL    HW122788   0.543   4.823   6.424
 1882SOL    HW222789   0.439   4.866   6.526
 1883SOL     OW22790   4.907   0.445   1.324
 1883SOL    HW122791   4.941   0.485   1.244
 1883SOL    HW222792   4.856   0.370   1.293
 1884SOL     OW22793   3.566   2.351   6.474
 1884SOL    HW122794   3.501   2.400   6.423
 1884SOL    HW222795   3.533   2.353   6.563
 1885SOL     OW22796   5.972   3.787   7.355
 1885SOL    HW122797   5.947   3.743   7.436
 1885SOL    HW222798   6.062   3.758   7.339
 1886SOL     OW22799   0.166   3.074   6.749
 1886SOL    HW122800   0.160   2.979   6.760
 1886SOL    HW222801   0.258   3.090   6.730
 1887SOL     OW22802   0.857   1.684   0.117
 1887SOL    HW122803   0.769   1.719   0.104
 1887SOL    HW222804   0.880   1.644   0.033
 1888SOL     OW22805   2.311   5.127   1.436
 1888SOL    HW122806   2.257   5.160   1.508
 1888SOL    HW222807   2.368   5.061   1.476
 1889SOL     OW22808   0.381   4.936   0.857
 1889SOL    HW122809   0.445   5.006   0.840
 1889SOL    HW222810   0.424   4.857   0.824
 1890SOL     OW22811   1.958   1.775   0.233
 1890SOL    HW122812   1.944   1.743   0.144
 1890SOL    HW222813   1.891   1.842   0.245
 1891SOL     OW22814   4.117   4.366   7.087
 1891SOL    HW122815   4.024   4.386   7.093
 1891SOL    HW222816   4.147   4.362   7.178
 1892SOL     OW22817   6.323   4.091   1.254
 1892SOL    HW122818   6.307   4.042   1.336
 1892SOL    HW222819   6.358   4.026   1.194
 1893SOL     OW22820   6.037   2.051   0.170
 1893SOL    HW122821   6.071   1.982   0.227
 1893SOL    HW222822   6.115   2.101   0.145
 1894SOL     OW22823   1.413   0.529   0.131
 1894SOL    HW122824   1.402   0.613   0.176
 1894SOL    HW222825   1.328   0.514   0.090
 1895SOL     OW22826   1.746   1.150   0.802
 1895SOL    HW122827   1.724   1.064   0.767
 1895SOL    HW222828   1.765   1.135   0.895
 1896SOL     OW22829   0.875   0.606   0.846
 1896SOL    HW122830   0.787   0.642   0.851
 1896SOL    HW222831   0.933   0.683   0.849
 1897SOL     OW22832   0.575   4.682   6.931
 1897SOL    HW122833   0.553   4.638   6.849
 1897SOL    HW222834   0.500   4.664   6.989
 1898SOL     OW22835   5.133   5.118   2.210
 1898SOL    HW122836   5.195   5.184   2.178
 1898SOL    HW222837   5.105   5.152   2.295
 1899SOL     OW22838   1.101   5.374   5.073
 1899SOL    HW122839   1.134   5.399   5.159
 1899SOL    HW222840   1.100   5.278   5.074
 1900SOL     OW22841   3.386   5.963   6.483
 1900SOL    HW122842   3.375   6.048   6.525
 1900SOL    HW222843   3.481   5.955   6.470
 1901SOL     OW22844   0.886   0.362   0.957
 1901SOL    HW122845   0.870   0.448   0.919
 1901SOL    HW222846   0.979   0.363   0.981
 1902SOL     OW22847   5.780   0.708   6.884
 1902SOL    HW122848   5.690   0.731   6.863
 1902SOL    HW222849   5.795   0.625   6.840
 1903SOL     OW22850   3.649   5.929   0.246
 1903SOL    HW122851   3.672   5.905   0.156
 1903SOL    HW222852   3.609   6.015   0.238
 1904SOL     OW22853   4.788   2.914   6.310
 1904SOL    HW122854   4.857   2.850   6.294
 1904SOL    HW222855   4.817   2.992   6.261
 1905SOL     OW22856   5.001   3.039   2.031
 1905SOL    HW122857   5.072   3.096   2.063
 1905SOL    HW222858   4.971   2.992   2.108
 1906SOL     OW22859   5.382   4.407   1.108
 1906SOL    HW122860   5.476   4.412   1.126
 1906SOL    HW222861   5.368   4.318   1.076
 1907SOL     OW22862   5.426   5.771   6.294
 1907SOL    HW122863   5.333   5.789   6.289
 1907SOL    HW222864   5.468   5.854   6.273
 1908SOL     OW22865   1.670   0.792   0.426
 1908SOL    HW122866   1.628   0.737   0.493
 1908SOL    HW222867   1.699   0.730   0.360
 1909SOL     OW22868   5.378   2.869   1.221
 1909SOL    HW122869   5.439   2.849   1.291
 1909SOL    HW222870   5.292   2.849   1.258
 1910SOL     OW22871   5.928   0.551   2.321
 1910SOL    HW122872   5.857   0.497   2.288
 1910SOL    HW222873   5.889   0.638   2.334
 1911SOL     OW22874   5.870   1.530   1.514
 1911SOL    HW122875   5.777   1.547   1.499
 1911SOL    HW222876   5.896   1.473   1.442
 1912SOL     OW22877   4.823   3.384   6.987
 1912SOL    HW122878   4.811   3.290   6.979
 1912SOL    HW222879   4.745   3.415   7.032
 1913SOL     OW22880   5.161   1.689   7.188
 1913SOL    HW122881   5.097   1.644   7.244
 1913SOL    HW222882   5.157   1.781   7.216
 1914SOL     OW22883   5.310   3.579   1.012
 1914SOL    HW122884   5.256   3.553   1.086
 1914SOL    HW222885   5.345   3.497   0.977
 1915SOL     OW22886   3.919   1.502   5.054
 1915SOL    HW122887   3.890   1.438   5.120
 1915SOL    HW222888   3.945   1.449   4.979
 1916SOL     OW22889   5.105   0.852   7.651
 1916SOL    HW122890   5.156   0.772   7.645
 1916SOL    HW222891   5.117   0.895   7.566
 1917SOL     OW22892   1.094   2.388   0.206
 1917SOL    HW122893   1.160   2.357   0.145
 1917SOL    HW222894   1.078   2.479   0.179
 1918SOL     OW22895   3.505   4.356   0.305
 1918SOL    HW122896   3.457   4.412   0.244
 1918SOL    HW222897   3.462   4.271   0.298
 1919SOL     OW22898   3.376   3.797   0.045
 1919SOL    HW122899   3.358   3.857  -0.027
 1919SOL    HW222900   3.348   3.844   0.124
 1920SOL     OW22901   0.143   5.375   6.637
 1920SOL    HW122902   0.092   5.318   6.580
 1920SOL    HW222903   0.162   5.452   6.583
 1921SOL     OW22904   2.551   6.127   0.718
 1921SOL    HW122905   2.578   6.038   0.693
 1921SOL    HW222906   2.562   6.179   0.638
 1922SOL     OW22907   2.750   1.643   7.465
 1922SOL    HW122908   2.769   1.689   7.546
 1922SOL    HW222909   2.816   1.574   7.460
 1923SOL     OW22910   0.287   0.476   2.106
 1923SOL    HW122911   0.353   0.541   2.130
 1923SOL    HW222912   0.293   0.470   2.011
 1924SOL     OW22913   4.738   5.183   6.911
 1924SOL    HW122914   4.813   5.163   6.967
 1924SOL    HW222915   4.684   5.104   6.913
 1925SOL     OW22916   0.689   2.265   6.158
 1925SOL    HW122917   0.667   2.224   6.074
 1925SOL    HW222918   0.784   2.276   6.155
 1926SOL     OW22919   2.045   5.568   5.978
 1926SOL    HW122920   1.971   5.511   5.999
 1926SOL    HW222921   2.016   5.615   5.899
 1927SOL     OW22922   4.411   3.386   1.731
 1927SOL    HW122923   4.393   3.313   1.671
 1927SOL    HW222924   4.498   3.417   1.705
 1928SOL     OW22925   4.364   4.804   1.936
 1928SOL    HW122926   4.286   4.784   1.989
 1928SOL    HW222927   4.437   4.777   1.992
 1929SOL     OW22928   4.796   0.708   0.126
 1929SOL    HW122929   4.715   0.720   0.177
 1929SOL    HW222930   4.779   0.631   0.072
 1930SOL     OW22931   6.170   4.003   0.179
 1930SOL    HW122932   6.104   3.982   0.113
 1930SOL    HW222933   6.254   3.997   0.133
 1931SOL     OW22934   1.943   2.896   6.174
 1931SOL    HW122935   1.861   2.849   6.190
 1931SOL    HW222936   2.010   2.828   6.180
 1932SOL     OW22937   3.713   3.438   7.715
 1932SOL    HW122938   3.644   3.503   7.720
 1932SOL    HW222939   3.694   3.378   7.788
 1933SOL     OW22940   4.923   4.547   2.470
 1933SOL    HW122941   4.841   4.552   2.519
 1933SOL    HW222942   4.927   4.456   2.440
 1934SOL     OW22943   5.554   2.833   7.571
 1934SOL    HW122944   5.541   2.897   7.642
 1934SOL    HW222945   5.581   2.753   7.616
 1935SOL     OW22946   0.597   0.420   6.035
 1935SOL    HW122947   0.575   0.505   5.998
 1935SOL    HW222948   0.602   0.435   6.130
 1936SOL     OW22949   5.877   5.046   1.200
 1936SOL    HW122950   5.900   5.068   1.110
 1936SOL    HW222951   5.920   4.962   1.215
 1937SOL     OW22952   3.600   4.493   2.013
 1937SOL    HW122953   3.597   4.588   1.999
 1937SOL    HW222954   3.638   4.483   2.101
 1938SOL     OW22955   0.813   6.032   6.357
 1938SOL    HW122956   0.829   5.954   6.410
 1938SOL    HW222957   0.862   6.101   6.401
 1939SOL     OW22958   3.603   0.375   6.479
 1939SOL    HW122959   3.581   0.340   6.566
 1939SOL    HW222960   3.568   0.310   6.418
 1940SOL     OW22961   4.706   3.416   0.031
 1940SOL    HW122962   4.790   3.409  -0.015
 1940SOL    HW222963   4.660   3.486  -0.014
 1941SOL     OW22964   6.065   0.117   1.831
 1941SOL    HW122965   6.008   0.104   1.755
 1941SOL    HW222966   6.078   0.028   1.866
 1942SOL     OW22967   1.585   5.159   0.452
 1942SOL    HW122968   1.556   5.097   0.385
 1942SOL    HW222969   1.678   5.170   0.436
 1943SOL     OW22970   0.281   1.793   1.650
 1943SOL    HW122971   0.353   1.737   1.678
 1943SOL    HW222972   0.204   1.737   1.656
 1944SOL     OW22973   4.272   1.045   6.086
 1944SOL    HW122974   4.259   1.078   6.176
 1944SOL    HW222975   4.352   1.088   6.056
 1945SOL     OW22976   2.280   4.818   5.383
 1945SOL    HW122977   2.238   4.894   5.342
 1945SOL    HW222978   2.235   4.743   5.345
 1946SOL     OW22979   0.381   4.711   7.344
 1946SOL    HW122980   0.405   4.661   7.266
 1946SOL    HW222981   0.286   4.711   7.345
 1947SOL     OW22982   1.676   5.257   6.103
 1947SOL    HW122983   1.621   5.179   6.104
 1947SOL    HW222984   1.653   5.301   6.021
 1948SOL     OW22985   2.188   4.926   0.804
 1948SOL    HW122986   2.185   5.020   0.787
 1948SOL    HW222987   2.260   4.915   0.867
 1949SOL     OW22988   3.792   0.108   2.410
 1949SOL    HW122989   3.886   0.091   2.411
 1949SOL    HW222990   3.782   0.184   2.352
 1950SOL     OW22991   0.985   4.345   6.555
 1950SOL    HW122992   0.975   4.335   6.460
 1950SOL    HW222993   0.930   4.276   6.593
 1951SOL     OW22994   0.544   0.409   6.332
 1951SOL    HW122995   0.593   0.420   6.414
 1951SOL    HW222996   0.549   0.315   6.314
 1952SOL     OW22997   1.347   2.111   1.983
 1952SOL    HW122998   1.340   2.096   1.889
 1952SOL    HW222999   1.441   2.108   2.001
 1953SOL     OW23000   2.061   4.224   1.692
 1953SOL    HW123001   2.155   4.243   1.686
 1953SOL    HW223002   2.054   4.159   1.761
 1954SOL     OW23003   6.340   2.388   1.344
 1954SOL    HW123004   6.376   2.370   1.431
 1954SOL    HW223005   6.247   2.405   1.360
 1955SOL     OW23006   3.906   1.600   7.324
 1955SOL    HW123007   3.984   1.655   7.320
 1955SOL    HW223008   3.936   1.514   7.294
 1956SOL     OW23009   3.859   0.765   5.804
 1956SOL    HW123010   3.778   0.817   5.801
 1956SOL    HW223011   3.831   0.676   5.786
 1957SOL     OW23012   0.932   2.110   0.551
 1957SOL    HW123013   0.981   2.186   0.519
 1957SOL    HW223014   0.997   2.057   0.597
 1958SOL     OW23015   2.848   1.170   1.852
 1958SOL    HW123016   2.831   1.196   1.943
 1958SOL    HW223017   2.941   1.187   1.839
 1959SOL     OW23018   2.780   1.423   1.687
 1959SOL    HW123019   2.831   1.483   1.742
 1959SOL    HW223020   2.779   1.341   1.736
 1960SOL     OW23021   4.876   4.522   7.089
 1960SOL    HW123022   4.891   4.463   7.015
 1960SOL    HW223023   4.947   4.587   7.083
 1961SOL     OW23024   2.917   4.209   6.805
 1961SOL    HW123025   2.960   4.135   6.849
 1961SOL    HW223026   2.980   4.238   6.739
 1962SOL     OW23027   4.692   6.040   6.836
 1962SOL    HW123028   4.672   5.949   6.860
 1962SOL    HW223029   4.760   6.033   6.769
 1963SOL     OW23030   5.260   5.936   1.307
 1963SOL    HW123031   5.180   5.965   1.263
 1963SOL    HW223032   5.230   5.877   1.376
 1964SOL     OW23033   4.241   3.017   0.013
 1964SOL    HW123034   4.278   2.929   0.007
 1964SOL    HW223035   4.317   3.076   0.009
 1965SOL     OW23036   1.417   2.821   0.557
 1965SOL    HW123037   1.362   2.886   0.601
 1965SOL    HW223038   1.497   2.868   0.535
 1966SOL     OW23039   1.736   1.730   1.000
 1966SOL    HW123040   1.812   1.715   1.056
 1966SOL    HW223041   1.690   1.646   0.998
 1967SOL     OW23042   2.723   4.330   6.997
 1967SOL    HW123043   2.813   4.312   6.969
 1967SOL    HW223044   2.733   4.382   7.077
 1968SOL     OW23045   1.166   1.845   6.493
 1968SOL    HW123046   1.217   1.922   6.519
 1968SOL    HW223047   1.231   1.775   6.487
 1969SOL     OW23048   3.272   1.804   0.405
 1969SOL    HW123049   3.267   1.797   0.309
 1969SOL    HW223050   3.295   1.896   0.421
 1970SOL     OW23051   4.150   5.174   1.692
 1970SOL    HW123052   4.169   5.121   1.615
 1970SOL    HW223053   4.144   5.110   1.764
 1971SOL     OW23054   1.872   0.238   0.419
 1971SOL    HW123055   1.963   0.261   0.440
 1971SOL    HW223056   1.820   0.292   0.478
 1972SOL     OW23057   5.099   6.424   6.952
 1972SOL    HW123058   5.087   6.415   6.857
 1972SOL    HW223059   5.176   6.371   6.972
 1973SOL     OW23060   1.591   5.360   5.820
 1973SOL    HW123061   1.639   5.443   5.820
 1973SOL    HW223062   1.609   5.322   5.734
 1974SOL     OW23063   0.530   4.442   0.171
 1974SOL    HW123064   0.442   4.434   0.207
 1974SOL    HW223065   0.518   4.449   0.076
 1975SOL     OW23066   5.689   4.339   1.123
 1975SOL    HW123067   5.769   4.388   1.104
 1975SOL    HW223068   5.685   4.273   1.054
 1976SOL     OW23069   0.025   5.015   1.451
 1976SOL    HW123070  -0.015   5.083   1.505
 1976SOL    HW223071  -0.013   5.028   1.364
 1977SOL     OW23072   6.224   2.130   5.901
 1977SOL    HW123073   6.246   2.055   5.846
 1977SOL    HW223074   6.149   2.170   5.858
 1978SOL     OW23075   6.182   2.662   0.070
 1978SOL    HW123076   6.266   2.685   0.110
 1978SOL    HW223077   6.121   2.729   0.101
 1979SOL     OW23078   5.070   5.426   1.736
 1979SOL    HW123079   5.126   5.438   1.660
 1979SOL    HW223080   5.034   5.513   1.754
 1980SOL     OW23081   5.728   5.379   6.876
 1980SOL    HW123082   5.723   5.393   6.971
 1980SOL    HW223083   5.729   5.283   6.867
 1981SOL     OW23084   4.617   1.274   0.716
 1981SOL    HW123085   4.668   1.353   0.732
 1981SOL    HW223086   4.612   1.267   0.620
 1982SOL     OW23087   1.051   4.340   5.559
 1982SOL    HW123088   0.998   4.307   5.487
 1982SOL    HW223089   1.126   4.382   5.517
 1983SOL     OW23090   6.045   0.233   7.732
 1983SOL    HW123091   6.096   0.217   7.653
 1983SOL    HW223092   5.961   0.192   7.715
 1984SOL     OW23093   6.296   3.612   6.200
 1984SOL    HW123094   6.378   3.619   6.150
 1984SOL    HW223095   6.247   3.543   6.155
 1985SOL     OW23096   0.063   0.425   0.726
 1985SOL    HW123097   0.077   0.331   0.726
 1985SOL    HW223098   0.117   0.458   0.797
 1986SOL     OW23099   5.379   0.891   0.557
 1986SOL    HW123100   5.309   0.827   0.566
 1986SOL    HW223101   5.404   0.911   0.648
 1987SOL     OW23102   3.284   2.821   0.961
 1987SOL    HW123103   3.370   2.780   0.951
 1987SOL    HW223104   3.231   2.783   0.890
 1988SOL     OW23105   4.433   5.219   6.200
 1988SOL    HW123106   4.482   5.234   6.120
 1988SOL    HW223107   4.401   5.129   6.193
 1989SOL     OW23108   4.090   1.059   0.755
 1989SOL    HW123109   4.042   0.993   0.705
 1989SOL    HW223110   4.026   1.129   0.769
 1990SOL     OW23111   0.884   4.345   7.641
 1990SOL    HW123112   0.943   4.413   7.672
 1990SOL    HW223113   0.802   4.361   7.687
 1991SOL     OW23114   1.701   4.568   1.561
 1991SOL    HW123115   1.610   4.566   1.589
 1991SOL    HW223116   1.744   4.501   1.615
 1992SOL     OW23117   6.362   2.951   6.343
 1992SOL    HW123118   6.270   2.964   6.365
 1992SOL    HW223119   6.386   3.028   6.292
 1993SOL     OW23120   3.821   4.506   5.960
 1993SOL    HW123121   3.729   4.490   5.939
 1993SOL    HW223122   3.869   4.448   5.902
 1994SOL     OW23123   3.221   6.074   0.188
 1994SOL    HW123124   3.137   6.048   0.225
 1994SOL    HW223125   3.206   6.162   0.152
 1995SOL     OW23126   0.267   0.683   0.672
 1995SOL    HW123127   0.337   0.617   0.670
 1995SOL    HW223128   0.206   0.656   0.605
 1996SOL     OW23129   0.795   2.410   0.523
 1996SOL    HW123130   0.829   2.432   0.609
 1996SOL    HW223131   0.873   2.393   0.470
 1997SOL     OW23132   0.468   5.852   7.694
 1997SOL    HW123133   0.372   5.848   7.696
 1997SOL    HW223134   0.493   5.863   7.786
 1998SOL     OW23135   3.032   0.660   6.707
 1998SOL    HW123136   3.067   0.676   6.620
 1998SOL    HW223137   3.070   0.729   6.762
 1999SOL     OW23138   3.525   3.551   7.374
 1999SOL    HW123139   3.492   3.494   7.443
 1999SOL    HW223140   3.620   3.544   7.380
 2000SOL     OW23141   5.148   5.810   7.602
 2000SOL    HW123142   5.188   5.817   7.515
 2000SOL    HW223143   5.068   5.759   7.588
 2001SOL     OW23144   3.186   4.981   0.113
 2001SOL    HW123145   3.198   4.969   0.207
 2001SOL    HW223146   3.166   4.894   0.080
 2002SOL     OW23147   1.703   1.316   6.290
 2002SOL    HW123148   1.682   1.237   6.240
 2002SOL    HW223149   1.797   1.328   6.278
 2003SOL     OW23150   0.000   4.578   6.355
 2003SOL    HW123151  -0.036   4.490   6.346
 2003SOL    HW223152   0.095   4.565   6.359
 2004SOL     OW23153   3.354   2.615   1.244
 2004SOL    HW123154   3.340   2.579   1.156
 2004SOL    HW223155   3.404   2.547   1.289
 2005SOL     OW23156   3.377   1.517   7.730
 2005SOL    HW123157   3.325   1.582   7.684
 2005SOL    HW223158   3.360   1.534   7.823
 2006SOL     OW23159   6.237   1.960   7.058
 2006SOL    HW123160   6.240   1.992   7.148
 2006SOL    HW223161   6.260   1.867   7.065
 2007SOL     OW23162   0.653   0.073   7.361
 2007SOL    HW123163   0.679  -0.001   7.415
 2007SOL    HW223164   0.631   0.142   7.424
 2008SOL     OW23165   0.990   4.620   0.984
 2008SOL    HW123166   0.985   4.716   0.987
 2008SOL    HW223167   1.083   4.601   0.987
 2009SOL     OW23168   5.067   5.141   6.592
 2009SOL    HW123169   5.157   5.162   6.620
 2009SOL    HW223170   5.011   5.189   6.653
 2010SOL     OW23171   1.792   0.985   0.552
 2010SOL    HW123172   1.772   1.056   0.491
 2010SOL    HW223173   1.745   0.909   0.517
 2011SOL     OW23174   6.206   5.116   0.979
 2011SOL    HW123175   6.148   5.071   1.042
 2011SOL    HW223176   6.148   5.178   0.934
 2012SOL     OW23177   4.945   2.244   7.672
 2012SOL    HW123178   4.860   2.260   7.631
 2012SOL    HW223179   4.973   2.159   7.636
 2013SOL     OW23180   6.030   4.723   0.025
 2013SOL    HW123181   5.969   4.695   0.093
 2013SOL    HW223182   5.983   4.710  -0.057
 2014SOL     OW23183   6.303   2.934   1.300
 2014SOL    HW123184   6.323   2.841   1.289
 2014SOL    HW223185   6.276   2.942   1.392
 2015SOL     OW23186   4.899   3.136   5.822
 2015SOL    HW123187   4.936   3.157   5.908
 2015SOL    HW223188   4.959   3.072   5.784
 2016SOL     OW23189   2.415   2.894   7.421
 2016SOL    HW123190   2.407   2.878   7.515
 2016SOL    HW223191   2.368   2.821   7.381
 2017SOL     OW23192   3.502   0.081   0.926
 2017SOL    HW123193   3.471  -0.006   0.950
 2017SOL    HW223194   3.494   0.132   1.006
 2018SOL     OW23195   5.810   2.821   6.099
 2018SOL    HW123196   5.779   2.861   6.180
 2018SOL    HW223197   5.803   2.727   6.114
 2019SOL     OW23198   2.019   4.992   6.475
 2019SOL    HW123199   2.064   5.058   6.421
 2019SOL    HW223200   2.083   4.922   6.486
 2020SOL     OW23201   2.197   1.521   7.721
 2020SOL    HW123202   2.260   1.590   7.741
 2020SOL    HW223203   2.112   1.564   7.727
 2021SOL     OW23204   5.667   6.256   7.487
 2021SOL    HW123205   5.745   6.299   7.522
 2021SOL    HW223206   5.641   6.194   7.555
 2022SOL     OW23207   5.664   5.356   7.436
 2022SOL    HW123208   5.669   5.421   7.506
 2022SOL    HW223209   5.665   5.271   7.481
 2023SOL     OW23210   5.135   5.918   6.543
 2023SOL    HW123211   5.150   5.828   6.513
 2023SOL    HW223212   5.152   5.972   6.466
 2024SOL     OW23213   4.012   1.660   2.051
 2024SOL    HW123214   4.075   1.730   2.034
 2024SOL    HW223215   3.944   1.701   2.104
 2025SOL     OW23216   4.612   1.027   0.009
 2025SOL    HW123217   4.702   1.001   0.026
 2025SOL    HW223218   4.602   1.020  -0.086
 2026SOL     OW23219   1.676   6.026   1.140
 2026SOL    HW123220   1.713   6.111   1.116
 2026SOL    HW223221   1.623   6.044   1.217
 2027SOL     OW23222   4.860   0.214   7.208
 2027SOL    HW123223   4.774   0.183   7.181
 2027SOL    HW223224   4.841   0.288   7.265
 2028SOL     OW23225   5.224   3.965   0.449
 2028SOL    HW123226   5.191   3.989   0.536
 2028SOL    HW223227   5.164   3.897   0.418
 2029SOL     OW23228   0.820   3.704   6.254
 2029SOL    HW123229   0.858   3.616   6.246
 2029SOL    HW223230   0.743   3.692   6.310
 2030SOL     OW23231   4.251   1.702   1.718
 2030SOL    HW123232   4.336   1.718   1.676
 2030SOL    HW223233   4.274   1.657   1.800
 2031SOL     OW23234   3.620   1.111   2.214
 2031SOL    HW123235   3.563   1.150   2.147
 2031SOL    HW223236   3.560   1.070   2.275
 2032SOL     OW23237   0.300   0.831   7.207
 2032SOL    HW123238   0.361   0.840   7.134
 2032SOL    HW223239   0.318   0.745   7.244
 2033SOL     OW23240   1.521   2.619   2.310
 2033SOL    HW123241   1.534   2.712   2.290
 2033SOL    HW223242   1.509   2.578   2.225
 2034SOL     OW23243   5.230   1.685   6.929
 2034SOL    HW123244   5.156   1.708   6.872
 2034SOL    HW223245   5.198   1.701   7.018
 2035SOL     OW23246   4.615   0.223   2.222
 2035SOL    HW123247   4.708   0.203   2.233
 2035SOL    HW223248   4.571   0.139   2.237
 2036SOL     OW23249   1.683   3.026   2.001
 2036SOL    HW123250   1.716   2.939   1.982
 2036SOL    HW223251   1.718   3.047   2.088
 2037SOL     OW23252   1.963   2.357   0.164
 2037SOL    HW123253   1.900   2.290   0.192
 2037SOL    HW223254   2.000   2.323   0.083
 2038SOL     OW23255   2.513   2.713   0.324
 2038SOL    HW123256   2.561   2.687   0.402
 2038SOL    HW223257   2.538   2.649   0.258
 2039SOL     OW23258   6.377   4.921   7.210
 2039SOL    HW123259   6.322   4.978   7.156
 2039SOL    HW223260   6.375   4.961   7.297
 2040SOL     OW23261   1.447   3.068   5.227
 2040SOL    HW123262   1.524   3.012   5.226
 2040SOL    HW223263   1.469   3.138   5.289
 2041SOL     OW23264   1.720   2.282   7.699
 2041SOL    HW123265   1.772   2.207   7.729
 2041SOL    HW223266   1.657   2.245   7.637
 2042SOL     OW23267   4.627   0.479   0.090
 2042SOL    HW123268   4.539   0.510   0.112
 2042SOL    HW223269   4.655   0.427   0.165
 2043SOL     OW23270   1.447   0.588   0.698
 2043SOL    HW123271   1.356   0.580   0.726
 2043SOL    HW223272   1.456   0.526   0.626
 2044SOL     OW23273   4.222   3.890   7.459
 2044SOL    HW123274   4.197   3.798   7.457
 2044SOL    HW223275   4.309   3.890   7.499
 2045SOL     OW23276   4.969   3.876   6.516
 2045SOL    HW123277   5.013   3.915   6.440
 2045SOL    HW223278   4.920   3.803   6.479
 2046SOL     OW23279   6.167   0.483   7.259
 2046SOL    HW123280   6.132   0.548   7.198
 2046SOL    HW223281   6.250   0.520   7.288
 2047SOL     OW23282   4.836   5.981   6.583
 2047SOL    HW123283   4.777   6.049   6.550
 2047SOL    HW223284   4.917   5.995   6.534
 2048SOL     OW23285   4.251   3.227   6.745
 2048SOL    HW123286   4.258   3.141   6.788
 2048SOL    HW223287   4.191   3.212   6.672
 2049SOL     OW23288   4.792   1.479   2.038
 2049SOL    HW123289   4.816   1.571   2.053
 2049SOL    HW223290   4.836   1.456   1.956
 2050SOL     OW23291   0.060   1.362   7.353
 2050SOL    HW123292   0.023   1.391   7.436
 2050SOL    HW223293   0.074   1.268   7.364
 2051SOL     OW23294   5.041   6.303   1.938
 2051SOL    HW123295   5.056   6.371   1.873
 2051SOL    HW223296   5.116   6.243   1.929
 2052SOL     OW23297   4.888   1.730   2.066
 2052SOL    HW123298   4.982   1.718   2.084
 2052SOL    HW223299   4.862   1.803   2.122
 2053SOL     OW23300   2.754   5.762   5.667
 2053SOL    HW123301   2.757   5.696   5.737
 2053SOL    HW223302   2.765   5.712   5.586
 2054SOL     OW23303   4.770   5.487   6.956
 2054SOL    HW123304   4.802   5.523   6.873
 2054SOL    HW223305   4.767   5.393   6.941
 2055SOL     OW23306   5.868   0.937   7.142
 2055SOL    HW123307   5.778   0.936   7.174
 2055SOL    HW223308   5.916   0.880   7.201
 2056SOL     OW23309   5.620   1.646   6.818
 2056SOL    HW123310   5.568   1.661   6.739
 2056SOL    HW223311   5.575   1.575   6.864
 2057SOL     OW23312   3.652   2.767   2.151
 2057SOL    HW123313   3.691   2.805   2.230
 2057SOL    HW223314   3.708   2.691   2.131
 2058SOL     OW23315   0.558   2.690   7.562
 2058SOL    HW123316   0.525   2.607   7.530
 2058SOL    HW223317   0.584   2.673   7.652
 2059SOL     OW23318   0.747   4.700   1.380
 2059SOL    HW123319   0.675   4.679   1.320
 2059SOL    HW223320   0.711   4.682   1.467
 2060SOL     OW23321   3.420   2.450   0.511
 2060SOL    HW123322   3.351   2.387   0.526
 2060SOL    HW223323   3.401   2.522   0.571
 2061SOL     OW23324   0.586   1.969   7.642
 2061SOL    HW123325   0.605   1.908   7.713
 2061SOL    HW223326   0.625   2.052   7.670
 2062SOL     OW23327   1.440   5.633   0.252
 2062SOL    HW123328   1.532   5.647   0.232
 2062SOL    HW223329   1.431   5.539   0.264
 2063SOL     OW23330   1.345   3.098   1.783
 2063SOL    HW123331   1.267   3.054   1.816
 2063SOL    HW223332   1.349   3.074   1.690
 2064SOL     OW23333   4.053   6.404   7.086
 2064SOL    HW123334   4.137   6.449   7.094
 2064SOL    HW223335   3.997   6.447   7.150
 2065SOL     OW23336   4.689   4.214   5.791
 2065SOL    HW123337   4.639   4.253   5.863
 2065SOL    HW223338   4.622   4.184   5.729
 2066SOL     OW23339   3.725   1.275   1.542
 2066SOL    HW123340   3.756   1.312   1.460
 2066SOL    HW223341   3.687   1.190   1.517
 2067SOL     OW23342   6.147   6.290   6.491
 2067SOL    HW123343   6.103   6.374   6.503
 2067SOL    HW223344   6.085   6.225   6.524
 2068SOL     OW23345   1.151   6.258   7.627
 2068SOL    HW123346   1.059   6.262   7.603
 2068SOL    HW223347   1.151   6.227   7.718
 2069SOL     OW23348   0.876   3.099   0.858
 2069SOL    HW123349   0.831   3.125   0.939
 2069SOL    HW223350   0.821   3.031   0.820
 2070SOL     OW23351   1.815   5.341   6.635
 2070SOL    HW123352   1.877   5.277   6.671
 2070SOL    HW223353   1.863   5.383   6.564
 2071SOL     OW23354   3.354   5.587   6.781
 2071SOL    HW123355   3.274   5.614   6.737
 2071SOL    HW223356   3.366   5.651   6.851
 2072SOL     OW23357   3.662   2.191   7.320
 2072SOL    HW123358   3.692   2.170   7.232
 2072SOL    HW223359   3.692   2.119   7.375
 2073SOL     OW23360   2.883   5.746   1.154
 2073SOL    HW123361   2.823   5.759   1.227
 2073SOL    HW223362   2.884   5.651   1.139
 2074SOL     OW23363   5.238   4.431   6.519
 2074SOL    HW123364   5.259   4.453   6.428
 2074SOL    HW223365   5.214   4.338   6.516
 2075SOL     OW23366   0.588   4.184   0.994
 2075SOL    HW123367   0.520   4.168   0.928
 2075SOL    HW223368   0.667   4.204   0.942
 2076SOL     OW23369   6.219   4.124   5.809
 2076SOL    HW123370   6.128   4.127   5.839
 2076SOL    HW223371   6.248   4.215   5.808
 2077SOL     OW23372   2.790   5.625   7.132
 2077SOL    HW123373   2.806   5.709   7.175
 2077SOL    HW223374   2.872   5.606   7.085
 2078SOL     OW23375   4.922   3.031   1.782
 2078SOL    HW123376   4.844   2.976   1.788
 2078SOL    HW223377   4.950   3.043   1.873
 2079SOL     OW23378   4.392   2.403   6.758
 2079SOL    HW123379   4.305   2.384   6.722
 2079SOL    HW223380   4.386   2.377   6.850
 2080SOL     OW23381   0.928   4.896   6.388
 2080SOL    HW123382   1.022   4.906   6.398
 2080SOL    HW223383   0.895   4.986   6.379
 2081SOL     OW23384   0.940   2.545   7.639
 2081SOL    HW123385   1.011   2.506   7.587
 2081SOL    HW223386   0.984   2.609   7.695
 2082SOL     OW23387   0.165   5.033   6.091
 2082SOL    HW123388   0.180   4.973   6.164
 2082SOL    HW223389   0.243   5.024   6.036
 2083SOL     OW23390   2.387   3.289   6.355
 2083SOL    HW123391   2.462   3.259   6.408
 2083SOL    HW223392   2.316   3.300   6.419
 2084SOL     OW23393   2.948   5.270   7.720
 2084SOL    HW123394   2.966   5.338   7.655
 2084SOL    HW223395   3.005   5.197   7.695
 2085SOL     OW23396   5.032   1.803   1.788
 2085SOL    HW123397   5.069   1.835   1.871
 2085SOL    HW223398   5.023   1.709   1.800
 2086SOL     OW23399   6.083   0.692   0.104
 2086SOL    HW123400   6.136   0.620   0.070
 2086SOL    HW223401   5.994   0.657   0.108
 2087SOL     OW23402   6.069   5.328   0.717
 2087SOL    HW123403   6.070   5.389   0.791
 2087SOL    HW223404   6.036   5.381   0.644
 2088SOL     OW23405   3.652   3.602   6.512
 2088SOL    HW123406   3.721   3.547   6.474
 2088SOL    HW223407   3.677   3.611   6.604
 2089SOL     OW23408   6.421   0.826   2.287
 2089SOL    HW123409   6.470   0.789   2.360
 2089SOL    HW223410   6.436   0.765   2.215
 2090SOL     OW23411   3.920   4.107   7.124
 2090SOL    HW123412   4.006   4.136   7.154
 2090SOL    HW223413   3.865   4.109   7.202
 2091SOL     OW23414   5.784   2.922   0.453
 2091SOL    HW123415   5.747   2.990   0.398
 2091SOL    HW223416   5.879   2.929   0.440
 2092SOL     OW23417   6.125   0.701   5.945
 2092SOL    HW123418   6.217   0.727   5.951
 2092SOL    HW223419   6.120   0.651   5.864
 2093SOL     OW23420   4.496   3.387   2.244
 2093SOL    HW123421   4.429   3.337   2.290
 2093SOL    HW223422   4.521   3.331   2.170
 2094SOL     OW23423   4.352   2.788   7.370
 2094SOL    HW123424   4.434   2.826   7.400
 2094SOL    HW223425   4.284   2.844   7.406
 2095SOL     OW23426   4.702   5.205   1.363
 2095SOL    HW123427   4.782   5.162   1.394
 2095SOL    HW223428   4.633   5.173   1.422
 2096SOL     OW23429   4.468   4.999   2.609
 2096SOL    HW123430   4.484   5.047   2.690
 2096SOL    HW223431   4.430   5.064   2.550
 2097SOL     OW23432   1.209   4.729   7.211
 2097SOL    HW123433   1.225   4.724   7.117
 2097SOL    HW223434   1.120   4.694   7.223
 2098SOL     OW23435   1.917   4.350   7.634
 2098SOL    HW123436   1.877   4.434   7.655
 2098SOL    HW223437   1.842   4.292   7.618
 2099SOL     OW23438   0.382   2.471   1.595
 2099SOL    HW123439   0.339   2.530   1.656
 2099SOL    HW223440   0.384   2.520   1.513
 2100SOL     OW23441   0.716   0.161   1.631
 2100SOL    HW123442   0.720   0.236   1.571
 2100SOL    HW223443   0.808   0.141   1.650
 2101SOL     OW23444   0.073   4.733   1.434
 2101SOL    HW123445   0.167   4.738   1.453
 2101SOL    HW223446   0.039   4.818   1.460
 2102SOL     OW23447   5.058   4.509   0.973
 2102SOL    HW123448   5.132   4.468   0.929
 2102SOL    HW223449   5.093   4.538   1.057
 2103SOL     OW23450   4.372   4.158   7.212
 2103SOL    HW123451   4.365   4.087   7.148
 2103SOL    HW223452   4.293   4.151   7.265
 2104SOL     OW23453   3.234   3.181   1.425
 2104SOL    HW123454   3.329   3.176   1.411
 2104SOL    HW223455   3.214   3.108   1.483
 2105SOL     OW23456   0.526   3.240   1.267
 2105SOL    HW123457   0.533   3.335   1.257
 2105SOL    HW223458   0.475   3.212   1.190
 2106SOL     OW23459   2.475   5.970   0.143
 2106SOL    HW123460   2.522   5.913   0.204
 2106SOL    HW223461   2.395   5.921   0.121
 2107SOL     OW23462   5.980   5.462   1.120
 2107SOL    HW123463   6.030   5.483   1.041
 2107SOL    HW223464   6.045   5.462   1.190
 2108SOL     OW23465   0.890   5.167   6.382
 2108SOL    HW123466   0.883   5.246   6.435
 2108SOL    HW223467   0.969   5.180   6.330
 2109SOL     OW23468   5.379   5.468   2.254
 2109SOL    HW123469   5.457   5.517   2.281
 2109SOL    HW223470   5.318   5.535   2.225
 2110SOL     OW23471   5.477   0.024   6.384
 2110SOL    HW123472   5.510  -0.015   6.303
 2110SOL    HW223473   5.555   0.056   6.429
 2111SOL     OW23474   4.041   1.230   2.338
 2111SOL    HW123475   4.047   1.318   2.299
 2111SOL    HW223476   4.127   1.217   2.379
 2112SOL     OW23477   0.185   0.037   7.263
 2112SOL    HW123478   0.273   0.059   7.232
 2112SOL    HW223479   0.182  -0.059   7.258
 2113SOL     OW23480   0.959   0.900   0.731
 2113SOL    HW123481   0.955   0.992   0.757
 2113SOL    HW223482   1.008   0.857   0.802
 2114SOL     OW23483   4.366   2.742   7.100
 2114SOL    HW123484   4.273   2.725   7.090
 2114SOL    HW223485   4.372   2.798   7.178
 2115SOL     OW23486   6.205   6.116   0.526
 2115SOL    HW123487   6.282   6.060   0.511
 2115SOL    HW223488   6.239   6.205   0.523
 2116SOL     OW23489   2.573   4.491   0.983
 2116SOL    HW123490   2.627   4.427   0.937
 2116SOL    HW223491   2.541   4.446   1.061
 2117SOL     OW23492   4.324   0.576   2.386
 2117SOL    HW123493   4.317   0.505   2.450
 2117SOL    HW223494   4.285   0.651   2.430
 2118SOL     OW23495   1.065   2.884   6.390
 2118SOL    HW123496   1.153   2.848   6.404
 2118SOL    HW223497   1.009   2.836   6.451
 2119SOL     OW23498   6.065   2.928   5.362
 2119SOL    HW123499   6.081   2.838   5.336
 2119SOL    HW223500   6.134   2.948   5.425
 2120SOL     OW23501   5.981   4.534   1.812
 2120SOL    HW123502   5.983   4.596   1.884
 2120SOL    HW223503   6.000   4.449   1.852
 2121SOL     OW23504   5.404   0.795   2.529
 2121SOL    HW123505   5.435   0.802   2.438
 2121SOL    HW223506   5.474   0.834   2.581
 2122SOL     OW23507   4.030   1.982   6.174
 2122SOL    HW123508   3.973   2.030   6.114
 2122SOL    HW223509   4.111   1.968   6.125
 2123SOL     OW23510   1.854   1.118   1.782
 2123SOL    HW123511   1.927   1.057   1.792
 2123SOL    HW223512   1.896   1.202   1.764
 2124SOL     OW23513   5.238   1.606   1.688
 2124SOL    HW123514   5.331   1.602   1.710
 2124SOL    HW223515   5.218   1.699   1.685
 2125SOL     OW23516   2.263   3.773   7.493
 2125SOL    HW123517   2.180   3.819   7.502
 2125SOL    HW223518   2.325   3.826   7.543
 2126SOL     OW23519   3.069   1.751   1.346
 2126SOL    HW123520   3.037   1.754   1.436
 2126SOL    HW223521   3.011   1.810   1.297
 2127SOL     OW23522   3.915   1.158   0.006
 2127SOL    HW123523   3.983   1.154   0.074
 2127SOL    HW223524   3.962   1.187  -0.073
 2128SOL     OW23525   3.643   1.039   1.482
 2128SOL    HW123526   3.693   0.984   1.422
 2128SOL    HW223527   3.552   1.028   1.454
 2129SOL     OW23528   2.196   0.611   1.801
 2129SOL    HW123529   2.152   0.577   1.879
 2129SOL    HW223530   2.237   0.692   1.830
 2130SOL     OW23531   3.828   3.826   7.796
 2130SOL    HW123532   3.760   3.831   7.863
 2130SOL    HW223533   3.824   3.735   7.765
 2131SOL     OW23534   0.123   1.973   7.403
 2131SOL    HW123535   0.109   1.971   7.308
 2131SOL    HW223536   0.210   1.935   7.415
 2132SOL     OW23537   0.493   2.440   6.187
 2132SOL    HW123538   0.549   2.368   6.217
 2132SOL    HW223539   0.510   2.446   6.093
 2133SOL     OW23540   5.450   1.226   1.269
 2133SOL    HW123541   5.471   1.182   1.351
 2133SOL    HW223542   5.364   1.265   1.284
 2134SOL     OW23543   3.091   1.297   6.926
 2134SOL    HW123544   3.171   1.299   6.874
 2134SOL    HW223545   3.086   1.207   6.958
 2135SOL     OW23546   1.726   0.760   7.341
 2135SOL    HW123547   1.795   0.784   7.403
 2135SOL    HW223548   1.672   0.696   7.388
 2136SOL     OW23549   4.217   2.190   0.974
 2136SOL    HW123550   4.177   2.108   1.004
 2136SOL    HW223551   4.296   2.162   0.929
 2137SOL     OW23552   6.285   6.116   1.426
 2137SOL    HW123553   6.205   6.107   1.477
 2137SOL    HW223554   6.257   6.109   1.335
 2138SOL     OW23555   1.927   1.104   7.350
 2138SOL    HW123556   2.021   1.092   7.368
 2138SOL    HW223557   1.914   1.061   7.265
 2139SOL     OW23558   2.329   6.181   7.285
 2139SOL    HW123559   2.257   6.124   7.313
 2139SOL    HW223560   2.405   6.150   7.333
 2140SOL     OW23561   3.679   1.747   0.375
 2140SOL    HW123562   3.772   1.741   0.397
 2140SOL    HW223563   3.674   1.723   0.283
 2141SOL     OW23564   4.284   2.918   0.325
 2141SOL    HW123565   4.304   2.895   0.234
 2141SOL    HW223566   4.200   2.877   0.343
 2142SOL     OW23567   3.099   0.857   6.238
 2142SOL    HW123568   3.046   0.846   6.316
 2142SOL    HW223569   3.176   0.802   6.252
 2143SOL     OW23570   4.689   0.098   0.100
 2143SOL    HW123571   4.595   0.108   0.087
 2143SOL    HW223572   4.698   0.020   0.155
 2144SOL     OW23573   0.979   3.301   1.197
 2144SOL    HW123574   0.938   3.387   1.210
 2144SOL    HW223575   0.906   3.239   1.194
 2145SOL     OW23576   2.117   2.455   6.441
 2145SOL    HW123577   2.038   2.411   6.410
 2145SOL    HW223578   2.177   2.449   6.367
 2146SOL     OW23579   1.248   0.859   7.679
 2146SOL    HW123580   1.170   0.805   7.696
 2146SOL    HW223581   1.299   0.807   7.617
 2147SOL     OW23582   3.827   5.514   1.250
 2147SOL    HW123583   3.884   5.492   1.177
 2147SOL    HW223584   3.791   5.600   1.228
 2148SOL     OW23585   2.323   4.875   7.208
 2148SOL    HW123586   2.316   4.793   7.159
 2148SOL    HW223587   2.271   4.938   7.158
 2149SOL     OW23588   5.707   0.613   6.572
 2149SOL    HW123589   5.643   0.669   6.616
 2149SOL    HW223590   5.740   0.667   6.500
 2150SOL     OW23591   4.299   1.041   7.379
 2150SOL    HW123592   4.222   1.074   7.426
 2150SOL    HW223593   4.307   1.097   7.302
 2151SOL     OW23594   4.331   5.515   0.014
 2151SOL    HW123595   4.311   5.449  -0.053
 2151SOL    HW223596   4.349   5.595  -0.036
 2152SOL     OW23597   5.791   1.073   0.589
 2152SOL    HW123598   5.795   1.047   0.497
 2152SOL    HW223599   5.711   1.126   0.596
 2153SOL     OW23600   5.812   4.638   0.167
 2153SOL    HW123601   5.783   4.546   0.167
 2153SOL    HW223602   5.748   4.683   0.113
 2154SOL     OW23603   2.661   4.106   6.741
 2154SOL    HW123604   2.617   4.122   6.825
 2154SOL    HW223605   2.747   4.145   6.751
 2155SOL     OW23606   0.620   3.089   1.468
 2155SOL    HW123607   0.586   3.137   1.392
 2155SOL    HW223608   0.705   3.131   1.486
 2156SOL     OW23609   2.811   2.056   1.659
 2156SOL    HW123610   2.774   2.118   1.597
 2156SOL    HW223611   2.906   2.072   1.655
 2157SOL     OW23612   2.818   2.468   0.960
 2157SOL    HW123613   2.882   2.397   0.965
 2157SOL    HW223614   2.860   2.542   1.003
 2158SOL     OW23615   0.018   4.396   7.022
 2158SOL    HW123616   0.110   4.373   7.033
 2158SOL    HW223617  -0.029   4.315   7.042
 2159SOL     OW23618   3.542   2.857   7.007
 2159SOL    HW123619   3.476   2.925   7.000
 2159SOL    HW223620   3.625   2.905   7.011
 2160SOL     OW23621   3.734   6.076   7.493
 2160SOL    HW123622   3.760   6.075   7.586
 2160SOL    HW223623   3.639   6.085   7.495
 2161SOL     OW23624   5.353   5.377   0.549
 2161SOL    HW123625   5.362   5.295   0.598
 2161SOL    HW223626   5.424   5.432   0.582
 2162SOL     OW23627   2.588   3.967   0.121
 2162SOL    HW123628   2.539   4.014   0.189
 2162SOL    HW223629   2.532   3.894   0.096
 2163SOL     OW23630   5.568   2.981   7.346
 2163SOL    HW123631   5.504   3.052   7.355
 2163SOL    HW223632   5.566   2.937   7.432
 2164SOL     OW23633   6.427   3.483   0.193
 2164SOL    HW123634   6.433   3.439   0.109
 2164SOL    HW223635   6.443   3.575   0.172
 2165SOL     OW23636   0.384   6.428   0.410
 2165SOL    HW123637   0.424   6.478   0.481
 2165SOL    HW223638   0.445   6.436   0.337
 2166SOL     OW23639   0.424   0.880   6.914
 2166SOL    HW123640   0.391   0.963   6.881
 2166SOL    HW223641   0.512   0.899   6.945
 2167SOL     OW23642   0.710   2.111   0.363
 2167SOL    HW123643   0.762   2.124   0.283
 2167SOL    HW223644   0.771   2.129   0.434
 2168SOL     OW23645   4.729   1.735   5.984
 2168SOL    HW123646   4.719   1.640   5.979
 2168SOL    HW223647   4.647   1.770   5.948
 2169SOL     OW23648   5.121   0.457   0.983
 2169SOL    HW123649   5.101   0.545   0.953
 2169SOL    HW223650   5.099   0.400   0.909
 2170SOL     OW23651   5.585   3.843   6.157
 2170SOL    HW123652   5.527   3.779   6.198
 2170SOL    HW223653   5.569   3.834   6.063
 2171SOL     OW23654   2.501   0.546   5.901
 2171SOL    HW123655   2.525   0.635   5.925
 2171SOL    HW223656   2.568   0.490   5.939
 2172SOL     OW23657   3.042   4.506   0.050
 2172SOL    HW123658   3.046   4.479  -0.041
 2172SOL    HW223659   3.112   4.571   0.059
 2173SOL     OW23660   1.197   0.155   0.061
 2173SOL    HW123661   1.240   0.178   0.143
 2173SOL    HW223662   1.139   0.229   0.043
 2174SOL     OW23663   5.766   1.911   0.836
 2174SOL    HW123664   5.841   1.929   0.779
 2174SOL    HW223665   5.761   1.987   0.895
 2175SOL     OW23666   1.376   4.419   1.532
 2175SOL    HW123667   1.307   4.353   1.539
 2175SOL    HW223668   1.397   4.442   1.622
 2176SOL     OW23669   4.979   4.270   2.419
 2176SOL    HW123670   5.032   4.298   2.344
 2176SOL    HW223671   5.030   4.199   2.459
 2177SOL     OW23672   1.517   5.261   0.004
 2177SOL    HW123673   1.432   5.297  -0.019
 2177SOL    HW223674   1.511   5.168  -0.017
 2178SOL     OW23675   4.914   0.194   0.025
 2178SOL    HW123676   4.916   0.194  -0.070
 2178SOL    HW223677   4.822   0.180   0.048
 2179SOL     OW23678   5.560   2.891   1.424
 2179SOL    HW123679   5.649   2.887   1.389
 2179SOL    HW223680   5.566   2.953   1.497
 2180SOL     OW23681   0.051   5.797   1.726
 2180SOL    HW123682  -0.006   5.786   1.649
 2180SOL    HW223683  -0.005   5.777   1.801
 2181SOL     OW23684   2.795   0.211   6.479
 2181SOL    HW123685   2.856   0.278   6.449
 2181SOL    HW223686   2.809   0.206   6.574
 2182SOL     OW23687   0.803   4.477   6.235
 2182SOL    HW123688   0.861   4.401   6.246
 2182SOL    HW223689   0.861   4.550   6.218
 2183SOL     OW23690   4.398   2.342   7.008
 2183SOL    HW123691   4.444   2.410   7.057
 2183SOL    HW223692   4.354   2.289   7.074
 2184SOL     OW23693   4.871   5.784   0.804
 2184SOL    HW123694   4.846   5.736   0.883
 2184SOL    HW223695   4.937   5.729   0.762
 2185SOL     OW23696   0.730   0.718   2.270
 2185SOL    HW123697   0.798   0.775   2.234
 2185SOL    HW223698   0.779   0.649   2.315
 2186SOL     OW23699   6.350   2.322   0.465
 2186SOL    HW123700   6.369   2.406   0.424
 2186SOL    HW223701   6.320   2.344   0.553
 2187SOL     OW23702   1.283   5.834   0.750
 2187SOL    HW123703   1.246   5.768   0.809
 2187SOL    HW223704   1.318   5.783   0.676
 2188SOL     OW23705   3.627   4.226   7.683
 2188SOL    HW123706   3.640   4.174   7.762
 2188SOL    HW223707   3.622   4.162   7.612
 2189SOL     OW23708   1.908   1.243   0.381
 2189SOL    HW123709   1.839   1.283   0.434
 2189SOL    HW223710   1.976   1.217   0.443
 2190SOL     OW23711   2.436   2.754   1.345
 2190SOL    HW123712   2.483   2.708   1.414
 2190SOL    HW223713   2.480   2.729   1.264
 2191SOL     OW23714   3.436   0.470   0.653
 2191SOL    HW123715   3.485   0.525   0.715
 2191SOL    HW223716   3.486   0.477   0.571
 2192SOL     OW23717   5.786   4.838   5.984
 2192SOL    HW123718   5.785   4.892   6.063
 2192SOL    HW223719   5.872   4.797   5.985
 2193SOL     OW23720   1.149   6.430   6.258
 2193SOL    HW123721   1.113   6.515   6.232
 2193SOL    HW223722   1.236   6.449   6.291
 2194SOL     OW23723   1.353   3.040   1.517
 2194SOL    HW123724   1.356   2.949   1.487
 2194SOL    HW223725   1.362   3.091   1.436
 2195SOL     OW23726   1.193   0.574   0.816
 2195SOL    HW123727   1.118   0.523   0.784
 2195SOL    HW223728   1.153   0.650   0.858
 2196SOL     OW23729   0.070   3.730   7.706
 2196SOL    HW123730   0.029   3.644   7.704
 2196SOL    HW223731   0.151   3.721   7.657
 2197SOL     OW23732   1.406   0.718   1.654
 2197SOL    HW123733   1.441   0.691   1.739
 2197SOL    HW223734   1.312   0.705   1.661
 2198SOL     OW23735   2.679   3.248   7.581
 2198SOL    HW123736   2.705   3.336   7.609
 2198SOL    HW223737   2.630   3.213   7.655
 2199SOL     OW23738   4.405   1.864   1.117
 2199SOL    HW123739   4.380   1.809   1.044
 2199SOL    HW223740   4.351   1.834   1.190
 2200SOL     OW23741   1.349   3.269   5.992
 2200SOL    HW123742   1.336   3.364   5.995
 2200SOL    HW223743   1.269   3.232   6.028
 2201SOL     OW23744   4.815   3.654   6.406
 2201SOL    HW123745   4.762   3.640   6.328
 2201SOL    HW223746   4.791   3.583   6.465
 2202SOL     OW23747   1.186   2.022   1.309
 2202SOL    HW123748   1.106   2.005   1.360
 2202SOL    HW223749   1.255   2.028   1.375
 2203SOL     OW23750   5.095   5.457   7.534
 2203SOL    HW123751   5.025   5.522   7.529
 2203SOL    HW223752   5.131   5.453   7.446
 2204SOL     OW23753   0.499   4.933   1.190
 2204SOL    HW123754   0.587   4.909   1.161
 2204SOL    HW223755   0.446   4.856   1.174
 2205SOL     OW23756   1.640   0.348   7.695
 2205SOL    HW123757   1.677   0.403   7.764
 2205SOL    HW223758   1.564   0.396   7.664
 2206SOL     OW23759   5.613   6.341   1.271
 2206SOL    HW123760   5.660   6.277   1.324
 2206SOL    HW223761   5.535   6.294   1.240
 2207SOL     OW23762   3.767   1.545   6.932
 2207SOL    HW123763   3.838   1.571   6.872
 2207SOL    HW223764   3.722   1.627   6.953
 2208SOL     OW23765   3.667   0.596   7.349
 2208SOL    HW123766   3.574   0.610   7.368
 2208SOL    HW223767   3.667   0.525   7.284
 2209SOL     OW23768   2.973   4.849   1.247
 2209SOL    HW123769   2.946   4.823   1.335
 2209SOL    HW223770   2.962   4.944   1.246
 2210SOL     OW23771   1.024   4.744   7.495
 2210SOL    HW123772   1.000   4.791   7.575
 2210SOL    HW223773   1.007   4.806   7.424
 2211SOL     OW23774   3.537   4.847   0.325
 2211SOL    HW123775   3.584   4.899   0.259
 2211SOL    HW223776   3.449   4.884   0.326
 2212SOL     OW23777   0.293   4.327   7.107
 2212SOL    HW123778   0.341   4.301   7.185
 2212SOL    HW223779   0.318   4.263   7.040
 2213SOL     OW23780   3.667   3.064   6.541
 2213SOL    HW123781   3.668   3.057   6.636
 2213SOL    HW223782   3.589   3.116   6.521
 2214SOL     OW23783   5.593   4.737   1.026
 2214SOL    HW123784   5.656   4.674   0.991
 2214SOL    HW223785   5.635   4.770   1.106
 2215SOL     OW23786   6.164   0.107   0.164
 2215SOL    HW123787   6.108   0.162   0.110
 2215SOL    HW223788   6.233   0.078   0.104
 2216SOL     OW23789   4.661   3.269   6.397
 2216SOL    HW123790   4.692   3.293   6.310
 2216SOL    HW223791   4.584   3.324   6.412
 2217SOL     OW23792   4.708   2.541   0.021
 2217SOL    HW123793   4.664   2.467   0.061
 2217SOL    HW223794   4.659   2.557  -0.060
 2218SOL     OW23795   4.626   0.788   1.161
 2218SOL    HW123796   4.604   0.771   1.253
 2218SOL    HW223797   4.556   0.745   1.111
 2219SOL     OW23798   1.443   0.289   7.351
 2219SOL    HW123799   1.423   0.200   7.380
 2219SOL    HW223800   1.510   0.278   7.283
 2220SOL     OW23801   1.830   4.945   6.207
 2220SOL    HW123802   1.898   4.881   6.187
 2220SOL    HW223803   1.752   4.892   6.227
 2221SOL     OW23804   2.982   2.159   5.659
 2221SOL    HW123805   3.041   2.190   5.727
 2221SOL    HW223806   2.919   2.103   5.705
 2222SOL     OW23807   1.394   2.245   0.599
 2222SOL    HW123808   1.341   2.279   0.671
 2222SOL    HW223809   1.413   2.155   0.624
 2223SOL     OW23810   0.193   5.443   0.222
 2223SOL    HW123811   0.278   5.427   0.262
 2223SOL    HW223812   0.146   5.497   0.285
 2224SOL     OW23813   1.765   0.762   5.879
 2224SOL    HW123814   1.782   0.856   5.877
 2224SOL    HW223815   1.758   0.737   5.786
 2225SOL     OW23816   3.088   4.715   0.355
 2225SOL    HW123817   3.144   4.720   0.278
 2225SOL    HW223818   3.142   4.747   0.426
 2226SOL     OW23819   1.020   1.908   1.507
 2226SOL    HW123820   0.969   1.838   1.467
 2226SOL    HW223821   1.067   1.865   1.579
 2227SOL     OW23822   3.739   4.672   7.200
 2227SOL    HW123823   3.713   4.707   7.115
 2227SOL    HW223824   3.818   4.721   7.223
 2228SOL     OW23825   6.416   1.425   0.534
 2228SOL    HW123826   6.355   1.489   0.571
 2228SOL    HW223827   6.478   1.409   0.605
 2229SOL     OW23828   5.143   1.132   5.525
 2229SOL    HW123829   5.235   1.115   5.508
 2229SOL    HW223830   5.121   1.074   5.598
 2230SOL     OW23831   0.625   5.247   0.363
 2230SOL    HW123832   0.697   5.290   0.316
 2230SOL    HW223833   0.628   5.284   0.451
 2231SOL     OW23834   6.044   3.431   0.641
 2231SOL    HW123835   6.062   3.511   0.594
 2231SOL    HW223836   5.951   3.414   0.624
 2232SOL     OW23837   1.515   1.729   1.487
 2232SOL    HW123838   1.601   1.724   1.444
 2232SOL    HW223839   1.457   1.680   1.429
 2233SOL     OW23840   1.347   4.369   6.679
 2233SOL    HW123841   1.352   4.282   6.717
 2233SOL    HW223842   1.437   4.395   6.664
 2234SOL     OW23843   3.518   5.643   0.131
 2234SOL    HW123844   3.506   5.663   0.223
 2234SOL    HW223845   3.610   5.665   0.113
 2235SOL     OW23846   0.003   3.179   6.221
 2235SOL    HW123847   0.042   3.260   6.255
 2235SOL    HW223848  -0.030   3.203   6.134
 2236SOL     OW23849   0.077   2.683   7.488
 2236SOL    HW123850   0.112   2.606   7.534
 2236SOL    HW223851   0.047   2.741   7.558
 2237SOL     OW23852   6.282   0.176   0.688
 2237SOL    HW123853   6.354   0.115   0.702
 2237SOL    HW223854   6.299   0.214   0.602
 2238SOL     OW23855   1.468   3.143   1.251
 2238SOL    HW123856   1.404   3.168   1.185
 2238SOL    HW223857   1.529   3.085   1.204
 2239SOL     OW23858   5.782   1.111   6.282
 2239SOL    HW123859   5.771   1.045   6.214
 2239SOL    HW223860   5.771   1.064   6.364
 2240SOL     OW23861   4.945   3.838   7.644
 2240SOL    HW123862   4.914   3.929   7.647
 2240SOL    HW223863   4.998   3.833   7.565
 2241SOL     OW23864   1.725   5.858   2.122
 2241SOL    HW123865   1.787   5.893   2.058
 2241SOL    HW223866   1.742   5.764   2.122
 2242SOL     OW23867   5.453   3.264   6.180
 2242SOL    HW123868   5.444   3.268   6.085
 2242SOL    HW223869   5.364   3.279   6.213
 2243SOL     OW23870   3.560   1.442   5.470
 2243SOL    HW123871   3.599   1.414   5.552
 2243SOL    HW223872   3.516   1.525   5.491
 2244SOL     OW23873   4.923   6.230   1.318
 2244SOL    HW123874   4.966   6.146   1.305
 2244SOL    HW223875   4.830   6.212   1.306
 2245SOL     OW23876   5.942   5.420   6.668
 2245SOL    HW123877   5.880   5.386   6.604
 2245SOL    HW223878   5.898   5.409   6.752
 2246SOL     OW23879   1.035   0.632   2.166
 2246SOL    HW123880   1.005   0.722   2.152
 2246SOL    HW223881   0.966   0.593   2.220
 2247SOL     OW23882   1.418   4.300   5.833
 2247SOL    HW123883   1.503   4.342   5.845
 2247SOL    HW223884   1.399   4.310   5.740
 2248SOL     OW23885   2.750   1.866   1.452
 2248SOL    HW123886   2.834   1.866   1.499
 2248SOL    HW223887   2.721   1.958   1.455
 2249SOL     OW23888   4.859   1.219   7.409
 2249SOL    HW123889   4.853   1.138   7.358
 2249SOL    HW223890   4.952   1.238   7.414
 2250SOL     OW23891   3.857   6.105   1.426
 2250SOL    HW123892   3.855   6.029   1.368
 2250SOL    HW223893   3.914   6.168   1.381
 2251SOL     OW23894   3.507   3.348   1.267
 2251SOL    HW123895   3.511   3.371   1.174
 2251SOL    HW223896   3.436   3.401   1.302
 2252SOL     OW23897   5.020   0.363   0.721
 2252SOL    HW123898   4.964   0.292   0.750
 2252SOL    HW223899   4.964   0.416   0.664
 2253SOL     OW23900   0.335   3.593   6.102
 2253SOL    HW123901   0.326   3.560   6.012
 2253SOL    HW223902   0.246   3.617   6.128
 2254SOL     OW23903   1.162   5.417   5.338
 2254SOL    HW123904   1.206   5.335   5.359
 2254SOL    HW223905   1.189   5.478   5.408
 2255SOL     OW23906   1.080   1.217   1.605
 2255SOL    HW123907   1.121   1.278   1.666
 2255SOL    HW223908   1.026   1.160   1.660
 2256SOL     OW23909   0.554   1.240   2.426
 2256SOL    HW123910   0.629   1.195   2.465
 2256SOL    HW223911   0.477   1.193   2.458
 2257SOL     OW23912   4.518   6.299   0.672
 2257SOL    HW123913   4.560   6.219   0.640
 2257SOL    HW223914   4.508   6.354   0.594
 2258SOL     OW23915   1.035   4.687   6.199
 2258SOL    HW123916   1.034   4.739   6.119
 2258SOL    HW223917   0.976   4.735   6.258
 2259SOL     OW23918   1.281   6.280   1.442
 2259SOL    HW123919   1.330   6.314   1.517
 2259SOL    HW223920   1.196   6.325   1.447
 2260SOL     OW23921   4.308   4.244   6.939
 2260SOL    HW123922   4.255   4.184   6.886
 2260SOL    HW223923   4.246   4.278   7.004
 2261SOL     OW23924   0.155   3.213   6.489
 2261SOL    HW123925   0.152   3.181   6.579
 2261SOL    HW223926   0.180   3.137   6.437
 2262SOL     OW23927   4.603   2.852   7.498
 2262SOL    HW123928   4.688   2.864   7.456
 2262SOL    HW223929   4.613   2.889   7.585
 2263SOL     OW23930   5.145   0.857   2.527
 2263SOL    HW123931   5.139   0.774   2.574
 2263SOL    HW223932   5.237   0.867   2.506
 2264SOL     OW23933   0.066   1.147   0.976
 2264SOL    HW123934  -0.028   1.143   0.991
 2264SOL    HW223935   0.079   1.098   0.895
 2265SOL     OW23936   5.583   5.606   6.707
 2265SOL    HW123937   5.639   5.540   6.748
 2265SOL    HW223938   5.496   5.590   6.742
 2266SOL     OW23939   4.051   6.280   1.293
 2266SOL    HW123940   4.046   6.342   1.220
 2266SOL    HW223941   4.053   6.336   1.371
 2267SOL     OW23942   1.049   1.973   0.011
 2267SOL    HW123943   1.069   1.881   0.029
 2267SOL    HW223944   1.130   2.009  -0.025
 2268SOL     OW23945   6.433   2.103   6.065
 2268SOL    HW123946   6.352   2.114   6.016
 2268SOL    HW223947   6.490   2.173   6.032
 2269SOL     OW23948   5.137   3.141   2.394
 2269SOL    HW123949   5.209   3.198   2.422
 2269SOL    HW223950   5.163   3.112   2.306
 2270SOL     OW23951   5.298   3.120   5.480
 2270SOL    HW123952   5.361   3.062   5.522
 2270SOL    HW223953   5.337   3.207   5.487
 2271SOL     OW23954   3.401   4.456   1.653
 2271SOL    HW123955   3.394   4.541   1.697
 2271SOL    HW223956   3.479   4.416   1.690
 2272SOL     OW23957   2.077   1.294   2.347
 2272SOL    HW123958   2.169   1.313   2.338
 2272SOL    HW223959   2.052   1.254   2.264
 2273SOL     OW23960   0.606   3.293   0.163
 2273SOL    HW123961   0.609   3.246   0.080
 2273SOL    HW223962   0.690   3.340   0.166
 2274SOL     OW23963   4.265   3.703   7.056
 2274SOL    HW123964   4.259   3.614   7.020
 2274SOL    HW223965   4.358   3.725   7.049
 2275SOL     OW23966   2.118   2.345   1.447
 2275SOL    HW123967   2.121   2.413   1.515
 2275SOL    HW223968   2.037   2.362   1.399
 2276SOL     OW23969   2.714   1.019   5.640
 2276SOL    HW123970   2.668   0.980   5.715
 2276SOL    HW223971   2.644   1.043   5.580
 2277SOL     OW23972   5.292   0.339   0.620
 2277SOL    HW123973   5.198   0.355   0.635
 2277SOL    HW223974   5.298   0.322   0.526
 2278SOL     OW23975   1.279   0.939   6.489
 2278SOL    HW123976   1.246   0.996   6.419
 2278SOL    HW223977   1.356   0.985   6.523
 2279SOL     OW23978   4.344   2.206   1.501
 2279SOL    HW123979   4.338   2.122   1.547
 2279SOL    HW223980   4.365   2.270   1.569
 2280SOL     OW23981   5.891   2.561   0.302
 2280SOL    HW123982   5.874   2.497   0.371
 2280SOL    HW223983   5.964   2.613   0.336
 2281SOL     OW23984   4.934   1.445   0.206
 2281SOL    HW123985   4.893   1.367   0.243
 2281SOL    HW223986   5.017   1.453   0.254
 2282SOL     OW23987   6.186   3.852   0.895
 2282SOL    HW123988   6.105   3.885   0.857
 2282SOL    HW223989   6.182   3.758   0.881
 2283SOL     OW23990   4.352   4.089   0.892
 2283SOL    HW123991   4.437   4.109   0.851
 2283SOL    HW223992   4.288   4.134   0.837
 2284SOL     OW23993   4.967   0.145   0.456
 2284SOL    HW123994   5.055   0.123   0.485
 2284SOL    HW223995   4.931   0.062   0.423
 2285SOL     OW23996   1.259   2.789   6.646
 2285SOL    HW123997   1.194   2.804   6.714
 2285SOL    HW223998   1.301   2.707   6.670
 2286SOL     OW23999   0.009   2.260   6.992
 2286SOL    HW124000  -0.072   2.208   6.997
 2286SOL    HW224001   0.058   2.220   6.921
 2287SOL     OW24002   6.088   2.261   1.578
 2287SOL    HW124003   6.151   2.225   1.641
 2287SOL    HW224004   6.099   2.207   1.500
 2288SOL     OW24005   5.515   0.557   1.030
 2288SOL    HW124006   5.550   0.504   1.101
 2288SOL    HW224007   5.453   0.500   0.986
 2289SOL     OW24008   2.318   1.626   6.222
 2289SOL    HW124009   2.384   1.661   6.163
 2289SOL    HW224010   2.251   1.589   6.164
 2290SOL     OW24011   4.152   2.903   1.103
 2290SOL    HW124012   4.189   2.946   1.025
 2290SOL    HW224013   4.143   2.811   1.077
 2291SOL     OW24014   1.630   3.480   0.716
 2291SOL    HW124015   1.691   3.528   0.660
 2291SOL    HW224016   1.580   3.548   0.761
 2292SOL     OW24017   5.372   4.895   5.554
 2292SOL    HW124018   5.312   4.828   5.521
 2292SOL    HW224019   5.354   4.898   5.648
 2293SOL     OW24020   4.396   0.513   6.438
 2293SOL    HW124021   4.366   0.559   6.516
 2293SOL    HW224022   4.381   0.575   6.366
 2294SOL     OW24023   1.065   5.813   5.644
 2294SOL    HW124024   1.085   5.813   5.737
 2294SOL    HW224025   1.150   5.803   5.601
 2295SOL     OW24026   2.954   0.848   6.483
 2295SOL    HW124027   2.864   0.823   6.504
 2295SOL    HW224028   2.977   0.912   6.551
 2296SOL     OW24029   0.069   1.711   6.699
 2296SOL    HW124030   0.084   1.659   6.620
 2296SOL    HW224031  -0.002   1.771   6.674
 2297SOL     OW24032   2.819   4.163   2.142
 2297SOL    HW124033   2.756   4.210   2.087
 2297SOL    HW224034   2.903   4.175   2.098
 2298SOL     OW24035   1.743   4.792   0.132
 2298SOL    HW124036   1.839   4.791   0.136
 2298SOL    HW224037   1.717   4.716   0.185
 2299SOL     OW24038   1.456   2.326   6.946
 2299SOL    HW124039   1.403   2.399   6.915
 2299SOL    HW224040   1.399   2.249   6.939
 2300SOL     OW24041   3.053   3.863   0.294
 2300SOL    HW124042   3.094   3.934   0.245
 2300SOL    HW224043   2.972   3.900   0.328
 2301SOL     OW24044   4.524   5.332   0.576
 2301SOL    HW124045   4.499   5.354   0.667
 2301SOL    HW224046   4.515   5.415   0.529
 2302SOL     OW24047   5.958   2.230   6.500
 2302SOL    HW124048   5.933   2.210   6.409
 2302SOL    HW224049   6.032   2.172   6.518
 2303SOL     OW24050   0.846   0.195   6.583
 2303SOL    HW124051   0.904   0.133   6.539
 2303SOL    HW224052   0.902   0.269   6.605
 2304SOL     OW24053   3.835   2.589   1.667
 2304SOL    HW124054   3.821   2.525   1.737
 2304SOL    HW224055   3.906   2.644   1.699
 2305SOL     OW24056   2.082   4.440   1.288
 2305SOL    HW124057   2.081   4.517   1.232
 2305SOL    HW224058   2.169   4.438   1.325
 2306SOL     OW24059   2.757   4.623   0.724
 2306SOL    HW124060   2.704   4.562   0.673
 2306SOL    HW224061   2.707   4.636   0.805
 2307SOL     OW24062   2.710   3.595   2.177
 2307SOL    HW124063   2.720   3.511   2.132
 2307SOL    HW224064   2.616   3.613   2.174
 2308SOL     OW24065   3.435   4.028   0.288
 2308SOL    HW124066   3.439   3.998   0.379
 2308SOL    HW224067   3.521   4.006   0.252
 2309SOL     OW24068   0.565   5.747   5.881
 2309SOL    HW124069   0.557   5.785   5.793
 2309SOL    HW224070   0.659   5.746   5.898
 2310SOL     OW24071   4.419   5.222   6.758
 2310SOL    HW124072   4.346   5.284   6.766
 2310SOL    HW224073   4.496   5.278   6.745
 2311SOL     OW24074   2.164   5.104   7.442
 2311SOL    HW124075   2.083   5.089   7.395
 2311SOL    HW224076   2.232   5.092   7.376
 2312SOL     OW24077   5.148   6.285   5.526
 2312SOL    HW124078   5.123   6.252   5.439
 2312SOL    HW224079   5.243   6.294   5.521
 2313SOL     OW24080   2.264   0.537   7.283
 2313SOL    HW124081   2.212   0.616   7.298
 2313SOL    HW224082   2.298   0.513   7.370
 2314SOL     OW24083   3.796   1.337   5.231
 2314SOL    HW124084   3.861   1.327   5.301
 2314SOL    HW224085   3.733   1.268   5.247
 2315SOL     OW24086   1.074   3.830   1.162
 2315SOL    HW124087   1.063   3.858   1.253
 2315SOL    HW224088   1.020   3.891   1.112
 2316SOL     OW24089   5.849   0.567   0.111
 2316SOL    HW124090   5.847   0.485   0.162
 2316SOL    HW224091   5.782   0.555   0.044
 2317SOL     OW24092   3.702   6.047   6.828
 2317SOL    HW124093   3.794   6.064   6.810
 2317SOL    HW224094   3.668   6.129   6.863
 2318SOL     OW24095   1.403   1.915   7.688
 2318SOL    HW124096   1.384   1.877   7.774
 2318SOL    HW224097   1.495   1.893   7.672
 2319SOL     OW24098   0.877   4.284   0.471
 2319SOL    HW124099   0.830   4.338   0.407
 2319SOL    HW224100   0.933   4.346   0.519
 2320SOL     OW24101   0.510   4.742   0.347
 2320SOL    HW124102   0.566   4.683   0.398
 2320SOL    HW224103   0.481   4.807   0.410
 2321SOL     OW24104   2.220   3.338   0.524
 2321SOL    HW124105   2.162   3.304   0.456
 2321SOL    HW224106   2.250   3.422   0.490
 2322SOL     OW24107   5.915   6.296   0.412
 2322SOL    HW124108   5.820   6.294   0.428
 2322SOL    HW224109   5.953   6.251   0.487
 2323SOL     OW24110   3.204   5.492   5.450
 2323SOL    HW124111   3.289   5.509   5.410
 2323SOL    HW224112   3.224   5.430   5.521
 2324SOL     OW24113   2.525   0.957   7.209
 2324SOL    HW124114   2.486   0.870   7.203
 2324SOL    HW224115   2.469   1.005   7.270
 2325SOL     OW24116   0.283   3.159   7.018
 2325SOL    HW124117   0.250   3.145   6.930
 2325SOL    HW224118   0.212   3.204   7.064
 2326SOL     OW24119   1.203   1.887   2.404
 2326SOL    HW124120   1.119   1.914   2.440
 2326SOL    HW224121   1.182   1.813   2.347
 2327SOL     OW24122   2.037   0.930   0.656
 2327SOL    HW124123   2.018   0.878   0.734
 2327SOL    HW224124   1.951   0.959   0.625
 2328SOL     OW24125   4.599   4.436   0.893
 2328SOL    HW124126   4.522   4.475   0.854
 2328SOL    HW224127   4.576   4.424   0.985
 2329SOL     OW24128   4.751   1.540   0.581
 2329SOL    HW124129   4.780   1.475   0.518
 2329SOL    HW224130   4.792   1.622   0.553
 2330SOL     OW24131   1.856   0.382   6.883
 2330SOL    HW124132   1.776   0.401   6.833
 2330SOL    HW224133   1.914   0.456   6.866
 2331SOL     OW24134   4.174   1.778   0.236
 2331SOL    HW124135   4.221   1.848   0.191
 2331SOL    HW224136   4.088   1.816   0.255
 2332SOL     OW24137   3.477   1.594   0.488
 2332SOL    HW124138   3.557   1.644   0.477
 2332SOL    HW224139   3.412   1.658   0.517
 2333SOL     OW24140   1.510   3.819   2.534
 2333SOL    HW124141   1.547   3.734   2.511
 2333SOL    HW224142   1.519   3.871   2.454
 2334SOL     OW24143   1.567   5.359   6.801
 2334SOL    HW124144   1.613   5.279   6.826
 2334SOL    HW224145   1.502   5.373   6.870
 2335SOL     OW24146   2.863   1.971   5.847
 2335SOL    HW124147   2.834   1.883   5.872
 2335SOL    HW224148   2.924   1.997   5.916
 2336SOL     OW24149   2.449   5.661   1.326
 2336SOL    HW124150   2.397   5.725   1.277
 2336SOL    HW224151   2.522   5.711   1.362
 2337SOL     OW24152   0.081   1.564   1.391
 2337SOL    HW124153   0.068   1.577   1.485
 2337SOL    HW224154   0.018   1.496   1.368
 2338SOL     OW24155   1.133   3.419   6.474
 2338SOL    HW124156   1.111   3.468   6.395
 2338SOL    HW224157   1.209   3.464   6.511
 2339SOL     OW24158   1.003   5.822   6.873
 2339SOL    HW124159   0.934   5.763   6.844
 2339SOL    HW224160   1.005   5.813   6.968
 2340SOL     OW24161   6.200   4.571   0.720
 2340SOL    HW124162   6.271   4.573   0.656
 2340SOL    HW224163   6.245   4.574   0.805
 2341SOL     OW24164   1.775   4.834   6.553
 2341SOL    HW124165   1.812   4.907   6.504
 2341SOL    HW224166   1.849   4.776   6.569
 2342SOL     OW24167   2.775   0.605   1.316
 2342SOL    HW124168   2.868   0.618   1.294
 2342SOL    HW224169   2.765   0.510   1.321
 2343SOL     OW24170   5.172   0.736   0.633
 2343SOL    HW124171   5.093   0.685   0.648
 2343SOL    HW224172   5.219   0.732   0.716
 2344SOL     OW24173   2.813   3.974   0.376
 2344SOL    HW124174   2.795   4.018   0.292
 2344SOL    HW224175   2.782   4.035   0.442
 2345SOL     OW24176   6.288   1.331   1.922
 2345SOL    HW124177   6.331   1.374   1.848
 2345SOL    HW224178   6.296   1.394   1.994
 2346SOL     OW24179   0.835   5.921   0.466
 2346SOL    HW124180   0.843   5.883   0.554
 2346SOL    HW224181   0.781   5.999   0.479
 2347SOL     OW24182   3.115   3.448   0.417
 2347SOL    HW124183   3.148   3.487   0.336
 2347SOL    HW224184   3.172   3.373   0.431
 2348SOL     OW24185   3.007   0.643   7.241
 2348SOL    HW124186   2.920   0.644   7.200
 2348SOL    HW224187   3.029   0.550   7.247
 2349SOL     OW24188   2.665   3.137   5.921
 2349SOL    HW124189   2.619   3.168   5.843
 2349SOL    HW224190   2.674   3.215   5.976
 2350SOL     OW24191   4.741   3.773   1.827
 2350SOL    HW124192   4.663   3.735   1.785
 2350SOL    HW224193   4.706   3.839   1.887
 2351SOL     OW24194   0.693   2.253   7.421
 2351SOL    HW124195   0.720   2.223   7.508
 2351SOL    HW224196   0.775   2.278   7.378
 2352SOL     OW24197   2.721   4.992   6.281
 2352SOL    HW124198   2.801   4.966   6.326
 2352SOL    HW224199   2.651   4.975   6.344
 2353SOL     OW24200   2.809   0.236   6.777
 2353SOL    HW124201   2.818   0.253   6.871
 2353SOL    HW224202   2.778   0.318   6.740
 2354SOL     OW24203   0.097   1.222   2.581
 2354SOL    HW124204   0.107   1.174   2.664
 2354SOL    HW224205   0.175   1.198   2.530
 2355SOL     OW24206   1.421   2.029   1.149
 2355SOL    HW124207   1.388   1.963   1.088
 2355SOL    HW224208   1.343   2.062   1.192
 2356SOL     OW24209   2.341   5.530   7.224
 2356SOL    HW124210   2.298   5.506   7.307
 2356SOL    HW224211   2.359   5.446   7.181
 2357SOL     OW24212   3.223   1.684   0.653
 2357SOL    HW124213   3.136   1.648   0.672
 2357SOL    HW224214   3.217   1.713   0.562
 2358SOL     OW24215   4.424   0.254   6.468
 2358SOL    HW124216   4.445   0.240   6.560
 2358SOL    HW224217   4.447   0.345   6.451
 2359SOL     OW24218   3.947   4.083   0.605
 2359SOL    HW124219   4.040   4.102   0.614
 2359SOL    HW224220   3.913   4.153   0.549
 2360SOL     OW24221   2.567   3.088   1.085
 2360SOL    HW124222   2.628   3.036   1.138
 2360SOL    HW224223   2.488   3.035   1.081
 2361SOL     OW24224   0.880   0.232   6.167
 2361SOL    HW124225   0.806   0.210   6.110
 2361SOL    HW224226   0.899   0.150   6.214
 2362SOL     OW24227   4.631   5.716   6.619
 2362SOL    HW124228   4.695   5.777   6.583
 2362SOL    HW224229   4.639   5.725   6.714
 2363SOL     OW24230   5.342   1.288   1.713
 2363SOL    HW124231   5.322   1.374   1.750
 2363SOL    HW224232   5.434   1.292   1.689
 2364SOL     OW24233   2.016   3.859   5.268
 2364SOL    HW124234   2.057   3.911   5.198
 2364SOL    HW224235   2.071   3.875   5.345
 2365SOL     OW24236   1.274   1.642   6.162
 2365SOL    HW124237   1.223   1.685   6.094
 2365SOL    HW224238   1.218   1.569   6.190
 2366SOL     OW24239   1.389   5.173   7.480
 2366SOL    HW124240   1.413   5.101   7.538
 2366SOL    HW224241   1.297   5.157   7.458
 2367SOL     OW24242   6.344   0.919   6.388
 2367SOL    HW124243   6.280   0.989   6.384
 2367SOL    HW224244   6.297   0.842   6.356
 2368SOL     OW24245   2.671   5.521   6.550
 2368SOL    HW124246   2.576   5.515   6.563
 2368SOL    HW224247   2.707   5.454   6.608
 2369SOL     OW24248   2.086   3.341   0.264
 2369SOL    HW124249   2.070   3.253   0.229
 2369SOL    HW224250   2.001   3.384   0.256
 2370SOL     OW24251   4.822   5.348   6.251
 2370SOL    HW124252   4.741   5.351   6.302
 2370SOL    HW224253   4.795   5.319   6.165
 2371SOL     OW24254   0.944   2.809   1.120
 2371SOL    HW124255   0.854   2.831   1.146
 2371SOL    HW224256   0.983   2.771   1.199
 2372SOL     OW24257   2.494   1.780   2.332
 2372SOL    HW124258   2.418   1.736   2.293
 2372SOL    HW224259   2.560   1.778   2.263
 2373SOL     OW24260   1.095   2.280   7.706
 2373SOL    HW124261   1.008   2.314   7.729
 2373SOL    HW224262   1.119   2.327   7.627
 2374SOL     OW24263   6.181   6.157   0.869
 2374SOL    HW124264   6.099   6.135   0.914
 2374SOL    HW224265   6.155   6.213   0.797
 2375SOL     OW24266   1.727   0.639   6.654
 2375SOL    HW124267   1.660   0.675   6.595
 2375SOL    HW224268   1.687   0.559   6.689
 2376SOL     OW24269   3.490   5.119   6.653
 2376SOL    HW124270   3.564   5.163   6.610
 2376SOL    HW224271   3.466   5.178   6.724
 2377SOL     OW24272   4.854   4.376   6.067
 2377SOL    HW124273   4.857   4.334   6.153
 2377SOL    HW224274   4.789   4.326   6.018
 2378SOL     OW24275   6.121   2.659   7.215
 2378SOL    HW124276   6.117   2.754   7.202
 2378SOL    HW224277   6.183   2.648   7.287
 2379SOL     OW24278   2.296   4.557   0.265
 2379SOL    HW124279   2.311   4.469   0.230
 2379SOL    HW224280   2.382   4.599   0.260
 2380SOL     OW24281   3.895   0.425   1.303
 2380SOL    HW124282   3.931   0.512   1.323
 2380SOL    HW224283   3.844   0.401   1.380
 2381SOL     OW24284   3.200   4.042   0.133
 2381SOL    HW124285   3.262   4.038   0.206
 2381SOL    HW224286   3.210   4.131   0.099
 2382SOL     OW24287   4.735   1.486   1.058
 2382SOL    HW124288   4.780   1.452   0.981
 2382SOL    HW224289   4.804   1.527   1.110
 2383SOL     OW24290   1.080   6.014   1.730
 2383SOL    HW124291   1.006   6.026   1.790
 2383SOL    HW224292   1.065   6.078   1.661
 2384SOL     OW24293   5.884   1.399   7.319
 2384SOL    HW124294   5.899   1.462   7.389
 2384SOL    HW224295   5.948   1.330   7.335
 2385SOL     OW24296   3.947   2.797   6.851
 2385SOL    HW124297   3.954   2.807   6.756
 2385SOL    HW224298   4.037   2.784   6.881
 2386SOL     OW24299   2.703   5.056   7.297
 2386SOL    HW124300   2.650   5.013   7.365
 2386SOL    HW224301   2.788   5.070   7.338
 2387SOL     OW24302   5.534   4.764   5.982
 2387SOL    HW124303   5.624   4.778   5.953
 2387SOL    HW224304   5.487   4.738   5.903
 2388SOL     OW24305   3.036   6.005   7.703
 2388SOL    HW124306   3.030   6.052   7.620
 2388SOL    HW224307   2.968   6.044   7.758
 2389SOL     OW24308   5.522   0.625   1.395
 2389SOL    HW124309   5.531   0.706   1.346
 2389SOL    HW224310   5.570   0.640   1.477
 2390SOL     OW24311   4.782   1.001   0.467
 2390SOL    HW124312   4.787   0.987   0.562
 2390SOL    HW224313   4.861   0.960   0.432
 2391SOL     OW24314   3.926   3.587   1.402
 2391SOL    HW124315   3.843   3.539   1.398
 2391SOL    HW224316   3.976   3.541   1.469
 2392SOL     OW24317   1.598   0.792   7.618
 2392SOL    HW124318   1.522   0.781   7.561
 2392SOL    HW224319   1.630   0.880   7.600
 2393SOL     OW24320   0.298   1.976   1.115
 2393SOL    HW124321   0.243   2.046   1.081
 2393SOL    HW224322   0.270   1.964   1.206
 2394SOL     OW24323   5.210   3.834   6.622
 2394SOL    HW124324   5.202   3.756   6.677
 2394SOL    HW224325   5.136   3.828   6.562
 2395SOL     OW24326   1.351   1.686   1.277
 2395SOL    HW124327   1.273   1.740   1.267
 2395SOL    HW224328   1.333   1.608   1.224
 2396SOL     OW24329   2.084   5.350   7.008
 2396SOL    HW124330   2.007   5.320   7.057
 2396SOL    HW224331   2.152   5.285   7.027
 2397SOL     OW24332   6.064   2.927   6.698
 2397SOL    HW124333   6.099   2.895   6.615
 2397SOL    HW224334   6.137   2.918   6.760
 2398SOL     OW24335   3.604   2.365   7.531
 2398SOL    HW124336   3.630   2.301   7.464
 2398SOL    HW224337   3.652   2.339   7.609
 2399SOL     OW24338   6.250   0.018   1.225
 2399SOL    HW124339   6.231   0.108   1.199
 2399SOL    HW224340   6.175  -0.008   1.279
 2400SOL     OW24341   5.705   4.727   1.288
 2400SOL    HW124342   5.745   4.670   1.222
 2400SOL    HW224343   5.778   4.781   1.321
 2401SOL     OW24344   3.300   3.386   0.739
 2401SOL    HW124345   3.330   3.332   0.666
 2401SOL    HW224346   3.207   3.401   0.722
 2402SOL     OW24347   0.089   4.515   1.729
 2402SOL    HW124348  -0.004   4.493   1.725
 2402SOL    HW224349   0.096   4.577   1.801
 2403SOL     OW24350   5.890   5.521   2.018
 2403SOL    HW124351   5.945   5.499   2.093
 2403SOL    HW224352   5.800   5.511   2.051
 2404SOL     OW24353   2.448   3.956   7.259
 2404SOL    HW124354   2.453   3.897   7.184
 2404SOL    HW224355   2.497   3.911   7.328
 2405SOL     OW24356   1.366   5.144   0.601
 2405SOL    HW124357   1.375   5.144   0.697
 2405SOL    HW224358   1.453   5.122   0.569
 2406SOL     OW24359   1.191   0.105   1.276
 2406SOL    HW124360   1.107   0.099   1.322
 2406SOL    HW224361   1.234   0.181   1.315
 2407SOL     OW24362   6.232   0.229   6.641
 2407SOL    HW124363   6.290   0.304   6.632
 2407SOL    HW224364   6.289   0.159   6.674
 2408SOL     OW24365   4.783   5.669   7.271
 2408SOL    HW124366   4.691   5.644   7.281
 2408SOL    HW224367   4.781   5.743   7.210
 2409SOL     OW24368   4.816   6.281   6.204
 2409SOL    HW124369   4.752   6.332   6.153
 2409SOL    HW224370   4.870   6.238   6.137
 2410SOL     OW24371   0.487   0.636   6.793
 2410SOL    HW124372   0.464   0.718   6.838
 2410SOL    HW224373   0.496   0.662   6.701
 2411SOL     OW24374   3.803   0.326   1.543
 2411SOL    HW124375   3.741   0.258   1.519
 2411SOL    HW224376   3.759   0.376   1.612
 2412SOL     OW24377   3.795   3.921   1.352
 2412SOL    HW124378   3.712   3.915   1.304
 2412SOL    HW224379   3.786   3.856   1.422
 2413SOL     OW24380   3.475   2.608   6.897
 2413SOL    HW124381   3.554   2.553   6.900
 2413SOL    HW224382   3.501   2.689   6.941
 2414SOL     OW24383   3.188   3.464   6.458
 2414SOL    HW124384   3.277   3.488   6.431
 2414SOL    HW224385   3.164   3.531   6.521
 2415SOL     OW24386   0.730   0.259   6.979
 2415SOL    HW124387   0.678   0.187   6.944
 2415SOL    HW224388   0.714   0.331   6.919
 2416SOL     OW24389   3.596   3.135   7.661
 2416SOL    HW124390   3.559   3.057   7.619
 2416SOL    HW224391   3.684   3.143   7.625
 2417SOL     OW24392   1.183   0.016   6.597
 2417SOL    HW124393   1.211   0.092   6.649
 2417SOL    HW224394   1.249   0.008   6.529
 2418SOL     OW24395   5.446   4.032   7.582
 2418SOL    HW124396   5.362   4.023   7.538
 2418SOL    HW224397   5.423   4.050   7.674
 2419SOL     OW24398   3.740   1.639   7.541
 2419SOL    HW124399   3.808   1.638   7.473
 2419SOL    HW224400   3.764   1.711   7.599
 2420SOL     OW24401   3.673   1.336   7.322
 2420SOL    HW124402   3.630   1.328   7.407
 2420SOL    HW224403   3.632   1.268   7.268
 2421SOL     OW24404   5.881   4.615   7.204
 2421SOL    HW124405   5.911   4.649   7.120
 2421SOL    HW224406   5.809   4.672   7.230
 2422SOL     OW24407   4.112   2.170   0.119
 2422SOL    HW124408   4.121   2.220   0.038
 2422SOL    HW224409   4.194   2.121   0.127
 2423SOL     OW24410   6.047   5.316   5.836
 2423SOL    HW124411   6.128   5.320   5.785
 2423SOL    HW224412   5.978   5.333   5.771
 2424SOL     OW24413   6.249   0.886   0.233
 2424SOL    HW124414   6.196   0.807   0.221
 2424SOL    HW224415   6.255   0.897   0.328
 2425SOL     OW24416   1.410   2.569   6.774
 2425SOL    HW124417   1.326   2.545   6.815
 2425SOL    HW224418   1.415   2.511   6.698
 2426SOL     OW24419   1.563   3.856   6.341
 2426SOL    HW124420   1.527   3.788   6.284
 2426SOL    HW224421   1.617   3.809   6.404
 2427SOL     OW24422   4.964   5.013   1.084
 2427SOL    HW124423   4.896   5.019   1.017
 2427SOL    HW224424   4.946   4.931   1.130
 2428SOL     OW24425   1.999   4.657   7.566
 2428SOL    HW124426   1.977   4.619   7.481
 2428SOL    HW224427   1.936   4.619   7.627
 2429SOL     OW24428   1.623   3.353   6.585
 2429SOL    HW124429   1.598   3.316   6.500
 2429SOL    HW224430   1.573   3.303   6.649
 2430SOL     OW24431   4.066   5.762   1.367
 2430SOL    HW124432   4.006   5.791   1.298
 2430SOL    HW224433   4.071   5.837   1.427
 2431SOL     OW24434   4.452   2.236   7.351
 2431SOL    HW124435   4.540   2.272   7.367
 2431SOL    HW224436   4.393   2.304   7.383
 2432SOL     OW24437   0.345   4.766   1.484
 2432SOL    HW124438   0.421   4.747   1.430
 2432SOL    HW224439   0.379   4.824   1.553
 2433SOL     OW24440   5.207   3.313   6.319
 2433SOL    HW124441   5.214   3.385   6.382
 2433SOL    HW224442   5.116   3.284   6.325
 2434SOL     OW24443   4.325   3.101   1.255
 2434SOL    HW124444   4.276   3.026   1.223
 2434SOL    HW224445   4.413   3.090   1.220
 2435SOL     OW24446   4.673   4.672   0.639
 2435SOL    HW124447   4.760   4.704   0.616
 2435SOL    HW224448   4.675   4.665   0.735
 2436SOL     OW24449   1.785   5.888   0.945
 2436SOL    HW124450   1.759   5.796   0.955
 2436SOL    HW224451   1.728   5.936   1.005
 2437SOL     OW24452   1.835   3.442   0.302
 2437SOL    HW124453   1.815   3.497   0.377
 2437SOL    HW224454   1.828   3.499   0.226
 2438SOL     OW24455   1.638   4.855   0.811
 2438SOL    HW124456   1.656   4.773   0.764
 2438SOL    HW224457   1.724   4.897   0.819
 2439SOL     OW24458   3.340   0.211   0.687
 2439SOL    HW124459   3.369   0.162   0.764
 2439SOL    HW224460   3.361   0.302   0.707
 2440SOL     OW24461   1.151   0.477   0.059
 2440SOL    HW124462   1.135   0.554   0.112
 2440SOL    HW224463   1.065   0.437   0.048
 2441SOL     OW24464   1.032   6.190   5.424
 2441SOL    HW124465   1.072   6.263   5.377
 2441SOL    HW224466   0.968   6.231   5.482
 2442SOL     OW24467   5.904   3.718   7.619
 2442SOL    HW124468   5.900   3.814   7.619
 2442SOL    HW224469   5.986   3.698   7.663
 2443SOL     OW24470   1.333   1.046   7.312
 2443SOL    HW124471   1.411   1.014   7.267
 2443SOL    HW224472   1.273   1.071   7.242
 2444SOL     OW24473   5.635   2.878   6.343
 2444SOL    HW124474   5.618   2.959   6.391
 2444SOL    HW224475   5.688   2.826   6.404
 2445SOL     OW24476   3.687   0.587   6.917
 2445SOL    HW124477   3.731   0.660   6.960
 2445SOL    HW224478   3.610   0.626   6.875
 2446SOL     OW24479   3.726   4.002   7.552
 2446SOL    HW124480   3.697   3.961   7.634
 2446SOL    HW224481   3.786   3.939   7.513
 2447SOL     OW24482   2.016   4.701   6.987
 2447SOL    HW124483   2.015   4.638   6.916
 2447SOL    HW224484   2.105   4.698   7.022
 2448SOL     OW24485   5.633   3.477   0.403
 2448SOL    HW124486   5.586   3.403   0.439
 2448SOL    HW224487   5.566   3.545   0.394
 2449SOL     OW24488   3.646   0.238   0.407
 2449SOL    HW124489   3.647   0.333   0.409
 2449SOL    HW224490   3.708   0.212   0.476
 2450SOL     OW24491   3.569   2.811   0.984
 2450SOL    HW124492   3.627   2.813   1.060
 2450SOL    HW224493   3.628   2.820   0.909
 2451SOL     OW24494   1.105   2.334   0.493
 2451SOL    HW124495   1.102   2.334   0.397
 2451SOL    HW224496   1.193   2.303   0.514
 2452SOL     OW24497   2.517   0.928   6.233
 2452SOL    HW124498   2.566   0.867   6.288
 2452SOL    HW224499   2.451   0.966   6.291
 2453SOL     OW24500   1.315   3.054   0.738
 2453SOL    HW124501   1.227   3.091   0.741
 2453SOL    HW224502   1.332   3.024   0.827
 2454SOL     OW24503   3.876   5.812   6.585
 2454SOL    HW124504   3.879   5.743   6.519
 2454SOL    HW224505   3.823   5.882   6.545
 2455SOL     OW24506   3.445   0.631   0.173
 2455SOL    HW124507   3.406   0.682   0.244
 2455SOL    HW224508   3.407   0.544   0.183
 2456SOL     OW24509   5.450   5.132   0.749
 2456SOL    HW124510   5.417   5.057   0.700
 2456SOL    HW224511   5.381   5.152   0.812
 2457SOL     OW24512   2.688   3.252   5.479
 2457SOL    HW124513   2.780   3.256   5.453
 2457SOL    HW224514   2.652   3.178   5.430
 2458SOL     OW24515   1.370   4.524   6.162
 2458SOL    HW124516   1.293   4.473   6.135
 2458SOL    HW224517   1.334   4.591   6.220
 2459SOL     OW24518   2.751   4.569   5.794
 2459SOL    HW124519   2.723   4.638   5.853
 2459SOL    HW224520   2.731   4.488   5.840
 2460SOL     OW24521   2.931   0.170   0.716
 2460SOL    HW124522   2.929   0.264   0.699
 2460SOL    HW224523   2.851   0.153   0.765
 2461SOL     OW24524   4.362   1.235   1.205
 2461SOL    HW124525   4.343   1.149   1.242
 2461SOL    HW224526   4.457   1.234   1.190
 2462SOL     OW24527   2.159   5.996   6.121
 2462SOL    HW124528   2.141   5.955   6.206
 2462SOL    HW224529   2.112   6.079   6.124
 2463SOL     OW24530   5.474   2.514   7.270
 2463SOL    HW124531   5.549   2.470   7.231
 2463SOL    HW224532   5.400   2.489   7.214
 2464SOL     OW24533   4.748   4.321   1.213
 2464SOL    HW124534   4.749   4.243   1.267
 2464SOL    HW224535   4.795   4.296   1.133
 2465SOL     OW24536   2.683   0.447   0.912
 2465SOL    HW124537   2.639   0.391   0.976
 2465SOL    HW224538   2.637   0.431   0.830
 2466SOL     OW24539   0.105   0.014   2.350
 2466SOL    HW124540   0.191   0.005   2.308
 2466SOL    HW224541   0.047  -0.043   2.300
 2467SOL     OW24542   1.870   5.951   7.477
 2467SOL    HW124543   1.859   6.007   7.554
 2467SOL    HW224544   1.876   6.013   7.404
 2468SOL     OW24545   0.073   3.639   6.008
 2468SOL    HW124546  -0.005   3.657   5.955
 2468SOL    HW224547   0.145   3.640   5.944
 2469SOL     OW24548   2.125   2.449   7.681
 2469SOL    HW124549   2.097   2.522   7.736
 2469SOL    HW224550   2.206   2.419   7.720
 2470SOL     OW24551   2.477   2.152   0.108
 2470SOL    HW124552   2.540   2.140   0.037
 2470SOL    HW224553   2.523   2.124   0.187
 2471SOL     OW24554   2.218   2.042   1.815
 2471SOL    HW124555   2.221   2.020   1.908
 2471SOL    HW224556   2.189   2.133   1.813
 2472SOL     OW24557   5.242   3.501   5.745
 2472SOL    HW124558   5.178   3.434   5.724
 2472SOL    HW224559   5.327   3.459   5.731
 2473SOL     OW24560   4.625   4.160   1.710
 2473SOL    HW124561   4.645   4.228   1.646
 2473SOL    HW224562   4.663   4.080   1.673
 2474SOL     OW24563   1.181   3.745   6.338
 2474SOL    HW124564   1.149   3.672   6.284
 2474SOL    HW224565   1.260   3.710   6.379
 2475SOL     OW24566   2.919   3.993   1.127
 2475SOL    HW124567   2.955   4.041   1.052
 2475SOL    HW224568   2.824   3.991   1.111
 2476SOL     OW24569   1.796   1.625   6.267
 2476SOL    HW124570   1.741   1.572   6.208
 2476SOL    HW224571   1.860   1.665   6.209
 2477SOL     OW24572   0.358   2.043   2.019
 2477SOL    HW124573   0.319   2.126   2.048
 2477SOL    HW224574   0.306   2.019   1.942
 2478SOL     OW24575   1.716   2.580   1.586
 2478SOL    HW124576   1.765   2.567   1.667
 2478SOL    HW224577   1.630   2.543   1.603
 2479SOL     OW24578   5.899   1.985   0.514
 2479SOL    HW124579   5.863   2.051   0.573
 2479SOL    HW224580   5.833   1.975   0.446
 2480SOL     OW24581   2.957   2.955   7.044
 2480SOL    HW124582   2.938   2.914   6.960
 2480SOL    HW224583   2.875   2.950   7.092
 2481SOL     OW24584   3.357   3.413   7.225
 2481SOL    HW124585   3.445   3.422   7.261
 2481SOL    HW224586   3.320   3.500   7.229
 2482SOL     OW24587   1.606   2.693   7.173
 2482SOL    HW124588   1.578   2.781   7.149
 2482SOL    HW224589   1.546   2.635   7.127
 2483SOL     OW24590   3.661   2.033   7.071
 2483SOL    HW124591   3.707   1.959   7.111
 2483SOL    HW224592   3.572   2.029   7.107
 2484SOL     OW24593   1.827   3.575   0.539
 2484SOL    HW124594   1.882   3.543   0.610
 2484SOL    HW224595   1.863   3.662   0.519
 2485SOL     OW24596   3.571   2.482   0.060
 2485SOL    HW124597   3.631   2.556   0.068
 2485SOL    HW224598   3.525   2.497  -0.023
 2486SOL     OW24599   2.343   0.641   1.447
 2486SOL    HW124600   2.346   0.551   1.478
 2486SOL    HW224601   2.250   0.663   1.446
 2487SOL     OW24602   2.996   4.215   6.111
 2487SOL    HW124603   3.073   4.196   6.058
 2487SOL    HW224604   2.922   4.197   6.052
 2488SOL     OW24605   5.308   1.870   0.399
 2488SOL    HW124606   5.399   1.872   0.429
 2488SOL    HW224607   5.313   1.883   0.305
 2489SOL     OW24608   0.427   5.810   2.251
 2489SOL    HW124609   0.335   5.786   2.263
 2489SOL    HW224610   0.471   5.727   2.233
 2490SOL     OW24611   4.096   1.420   1.532
 2490SOL    HW124612   4.053   1.476   1.596
 2490SOL    HW224613   4.189   1.433   1.547
 2491SOL     OW24614   6.279   4.635   1.567
 2491SOL    HW124615   6.257   4.559   1.621
 2491SOL    HW224616   6.369   4.620   1.539
 2492SOL     OW24617   3.573   5.763   1.999
 2492SOL    HW124618   3.666   5.751   1.982
 2492SOL    HW224619   3.570   5.822   2.074
 2493SOL     OW24620   4.511   5.118   1.520
 2493SOL    HW124621   4.510   5.054   1.591
 2493SOL    HW224622   4.419   5.125   1.493
 2494SOL     OW24623   4.246   4.274   7.638
 2494SOL    HW124624   4.310   4.246   7.572
 2494SOL    HW224625   4.246   4.370   7.632
 2495SOL     OW24626   4.169   4.262   0.347
 2495SOL    HW124627   4.183   4.168   0.335
 2495SOL    HW224628   4.211   4.302   0.272
 2496SOL     OW24629   5.576   0.301   7.404
 2496SOL    HW124630   5.494   0.345   7.379
 2496SOL    HW224631   5.548   0.220   7.446
 2497SOL     OW24632   2.525   0.565   2.277
 2497SOL    HW124633   2.529   0.576   2.371
 2497SOL    HW224634   2.517   0.654   2.242
 2498SOL     OW24635   1.221   4.359   6.010
 2498SOL    HW124636   1.142   4.319   5.975
 2498SOL    HW224637   1.288   4.343   5.943
 2499SOL     OW24638   2.549   6.031   7.360
 2499SOL    HW124639   2.643   6.021   7.347
 2499SOL    HW224640   2.516   5.942   7.369
 2500SOL     OW24641   1.835   1.821   0.642
 2500SOL    HW124642   1.901   1.753   0.652
 2500SOL    HW224643   1.880   1.892   0.596
 2501SOL     OW24644   3.142   3.417   5.746
 2501SOL    HW124645   3.051   3.388   5.756
 2501SOL    HW224646   3.156   3.475   5.820
 2502SOL     OW24647   5.840   0.902   5.476
 2502SOL    HW124648   5.799   0.818   5.453
 2502SOL    HW224649   5.825   0.911   5.570
 2503SOL     OW24650   3.786   2.993   0.791
 2503SOL    HW124651   3.877   3.020   0.773
 2503SOL    HW224652   3.753   3.062   0.849
 2504SOL     OW24653   1.174   5.879   0.039
 2504SOL    HW124654   1.210   5.823  -0.031
 2504SOL    HW224655   1.152   5.817   0.109
 2505SOL     OW24656   4.081   5.093   0.640
 2505SOL    HW124657   4.112   5.182   0.626
 2505SOL    HW224658   3.992   5.093   0.605
 2506SOL     OW24659   0.790   4.429   6.920
 2506SOL    HW124660   0.867   4.448   6.867
 2506SOL    HW224661   0.726   4.496   6.895
 2507SOL     OW24662   4.530   1.589   1.378
 2507SOL    HW124663   4.487   1.522   1.432
 2507SOL    HW224664   4.623   1.570   1.386
 2508SOL     OW24665   3.020   6.060   1.088
 2508SOL    HW124666   3.007   5.976   1.132
 2508SOL    HW224667   3.059   6.116   1.155
 2509SOL     OW24668   4.144   1.747   6.556
 2509SOL    HW124669   4.073   1.807   6.532
 2509SOL    HW224670   4.125   1.667   6.507
 2510SOL     OW24671   2.471   5.217   5.799
 2510SOL    HW124672   2.498   5.200   5.709
 2510SOL    HW224673   2.502   5.142   5.849
 2511SOL     OW24674   3.585   5.705   6.084
 2511SOL    HW124675   3.596   5.620   6.126
 2511SOL    HW224676   3.610   5.690   5.992
 2512SOL     OW24677   1.547   2.308   1.801
 2512SOL    HW124678   1.524   2.258   1.879
 2512SOL    HW224679   1.595   2.384   1.834
 2513SOL     OW24680   6.319   0.941   5.798
 2513SOL    HW124681   6.397   0.932   5.743
 2513SOL    HW224682   6.248   0.955   5.736
 2514SOL     OW24683   5.723   2.519   5.772
 2514SOL    HW124684   5.691   2.450   5.714
 2514SOL    HW224685   5.817   2.521   5.757
 2515SOL     OW24686   3.185   5.864   0.668
 2515SOL    HW124687   3.242   5.927   0.624
 2515SOL    HW224688   3.199   5.881   0.761
 2516SOL     OW24689   4.315   0.455   0.941
 2516SOL    HW124690   4.328   0.360   0.939
 2516SOL    HW224691   4.398   0.490   0.975
 2517SOL     OW24692   1.506   2.813   7.591
 2517SOL    HW124693   1.475   2.885   7.536
 2517SOL    HW224694   1.549   2.857   7.665
 2518SOL     OW24695   4.649   0.688   0.736
 2518SOL    HW124696   4.618   0.775   0.761
 2518SOL    HW224697   4.672   0.646   0.818
 2519SOL     OW24698   2.229   3.645   1.399
 2519SOL    HW124699   2.246   3.561   1.442
 2519SOL    HW224700   2.252   3.710   1.465
 2520SOL     OW24701   0.204   6.197   1.982
 2520SOL    HW124702   0.180   6.133   2.048
 2520SOL    HW224703   0.123   6.243   1.961
 2521SOL     OW24704   2.172   3.549   5.906
 2521SOL    HW124705   2.245   3.591   5.861
 2521SOL    HW224706   2.196   3.551   5.999
 2522SOL     OW24707   1.760   0.588   0.987
 2522SOL    HW124708   1.733   0.524   0.921
 2522SOL    HW224709   1.772   0.537   1.067
 2523SOL     OW24710   3.939   1.358   7.230
 2523SOL    HW124711   3.952   1.306   7.151
 2523SOL    HW224712   3.849   1.338   7.257
 2524SOL     OW24713   0.518   0.613   2.138
 2524SOL    HW124714   0.566   0.615   2.055
 2524SOL    HW224715   0.576   0.658   2.200
 2525SOL     OW24716   1.918   0.939   6.796
 2525SOL    HW124717   1.901   0.980   6.711
 2525SOL    HW224718   1.831   0.917   6.830
 2526SOL     OW24719   2.177   3.061   7.030
 2526SOL    HW124720   2.099   3.059   6.976
 2526SOL    HW224721   2.148   3.040   7.118
 2527SOL     OW24722   6.316   1.386   1.011
 2527SOL    HW124723   6.367   1.444   0.955
 2527SOL    HW224724   6.238   1.366   0.960
 2528SOL     OW24725   6.210   0.974   7.457
 2528SOL    HW124726   6.142   0.915   7.490
 2528SOL    HW224727   6.289   0.920   7.455
 2529SOL     OW24728   2.069   2.422   0.662
 2529SOL    HW124729   2.083   2.379   0.747
 2529SOL    HW224730   1.974   2.431   0.655
 2530SOL     OW24731   6.206   0.085   7.559
 2530SOL    HW124732   6.181   0.052   7.473
 2530SOL    HW224733   6.242   0.009   7.604
 2531SOL     OW24734   0.741   6.286   6.078
 2531SOL    HW124735   0.737   6.322   5.990
 2531SOL    HW224736   0.661   6.234   6.086
 2532SOL     OW24737   3.681   5.538   0.949
 2532SOL    HW124738   3.753   5.536   0.886
 2532SOL    HW224739   3.659   5.631   0.957
 2533SOL     OW24740   1.380   2.359   7.620
 2533SOL    HW124741   1.432   2.429   7.580
 2533SOL    HW224742   1.413   2.279   7.579
 2534SOL     OW24743   5.699   5.254   0.806
 2534SOL    HW124744   5.697   5.283   0.714
 2534SOL    HW224745   5.631   5.186   0.811
 2535SOL     OW24746   4.236   1.352   0.169
 2535SOL    HW124747   4.232   1.327   0.077
 2535SOL    HW224748   4.156   1.403   0.183
 2536SOL     OW24749   2.705   3.543   1.365
 2536SOL    HW124750   2.799   3.535   1.352
 2536SOL    HW224751   2.690   3.509   1.454
 2537SOL     OW24752   3.714   3.471   1.673
 2537SOL    HW124753   3.677   3.556   1.697
 2537SOL    HW224754   3.720   3.474   1.577
 2538SOL     OW24755   1.789   4.637   6.304
 2538SOL    HW124756   1.861   4.662   6.246
 2538SOL    HW224757   1.830   4.625   6.390
 2539SOL     OW24758   5.873   3.385   6.800
 2539SOL    HW124759   5.947   3.435   6.766
 2539SOL    HW224760   5.796   3.439   6.781
 2540SOL     OW24761   4.387   5.021   2.218
 2540SOL    HW124762   4.299   4.988   2.200
 2540SOL    HW224763   4.375   5.086   2.288
 2541SOL     OW24764   2.760   4.992   6.621
 2541SOL    HW124765   2.816   4.915   6.623
 2541SOL    HW224766   2.819   5.065   6.608
 2542SOL     OW24767   1.368   5.840   0.414
 2542SOL    HW124768   1.450   5.889   0.424
 2542SOL    HW224769   1.394   5.761   0.367
 2543SOL     OW24770   0.686   1.025   1.653
 2543SOL    HW124771   0.677   1.092   1.585
 2543SOL    HW224772   0.764   1.051   1.703
 2544SOL     OW24773   3.548   4.701   7.423
 2544SOL    HW124774   3.613   4.706   7.492
 2544SOL    HW224775   3.597   4.674   7.345
 2545SOL     OW24776   1.185   4.498   7.539
 2545SOL    HW124777   1.142   4.502   7.625
 2545SOL    HW224778   1.126   4.546   7.481
 2546SOL     OW24779   3.478   1.139   0.944
 2546SOL    HW124780   3.570   1.115   0.944
 2546SOL    HW224781   3.446   1.110   0.858
 2547SOL     OW24782   2.256   4.761   7.539
 2547SOL    HW124783   2.167   4.731   7.554
 2547SOL    HW224784   2.266   4.759   7.444
 2548SOL     OW24785   6.309   4.443   0.471
 2548SOL    HW124786   6.255   4.490   0.408
 2548SOL    HW224787   6.361   4.511   0.515
 2549SOL     OW24788   5.496   3.804   5.707
 2549SOL    HW124789   5.526   3.718   5.678
 2549SOL    HW224790   5.570   3.862   5.694
 2550SOL     OW24791   6.163   3.385   6.091
 2550SOL    HW124792   6.114   3.305   6.110
 2550SOL    HW224793   6.228   3.358   6.026
 2551SOL     OW24794   4.888   1.074   6.052
 2551SOL    HW124795   4.952   1.010   6.022
 2551SOL    HW224796   4.826   1.081   5.980
 2552SOL     OW24797   5.066   5.931   6.962
 2552SOL    HW124798   5.075   5.858   6.901
 2552SOL    HW224799   5.094   6.008   6.912
 2553SOL     OW24800   4.019   4.383   6.788
 2553SOL    HW124801   4.036   4.365   6.881
 2553SOL    HW224802   4.087   4.335   6.741
 2554SOL     OW24803   0.839   5.531   1.081
 2554SOL    HW124804   0.934   5.531   1.095
 2554SOL    HW224805   0.808   5.604   1.133
 2555SOL     OW24806   0.010   1.239   5.703
 2555SOL    HW124807   0.037   1.166   5.647
 2555SOL    HW224808  -0.083   1.248   5.686
 2556SOL     OW24809   0.557   5.004   0.557
 2556SOL    HW124810   0.539   4.919   0.599
 2556SOL    HW224811   0.475   5.024   0.511
 2557SOL     OW24812   2.284   2.202   1.295
 2557SOL    HW124813   2.290   2.248   1.211
 2557SOL    HW224814   2.218   2.250   1.344
 2558SOL     OW24815   1.943   3.652   2.132
 2558SOL    HW124816   1.897   3.718   2.081
 2558SOL    HW224817   1.887   3.574   2.126
 2559SOL     OW24818   6.120   3.342   0.328
 2559SOL    HW124819   6.044   3.399   0.341
 2559SOL    HW224820   6.192   3.387   0.373
 2560SOL     OW24821   5.310   0.664   7.610
 2560SOL    HW124822   5.301   0.575   7.574
 2560SOL    HW224823   5.372   0.707   7.552
 2561SOL     OW24824   0.075   1.078   2.228
 2561SOL    HW124825   0.057   1.126   2.146
 2561SOL    HW224826   0.037   0.991   2.213
 2562SOL     OW24827   1.227   0.935   0.158
 2562SOL    HW124828   1.229   1.029   0.176
 2562SOL    HW224829   1.237   0.929   0.063
 2563SOL     OW24830   1.385   4.392   7.202
 2563SOL    HW124831   1.292   4.402   7.181
 2563SOL    HW224832   1.409   4.308   7.164
 2564SOL     OW24833   0.079   2.085   1.469
 2564SOL    HW124834   0.044   2.059   1.555
 2564SOL    HW224835   0.072   2.180   1.469
 2565SOL     OW24836   3.569   5.432   7.715
 2565SOL    HW124837   3.477   5.451   7.734
 2565SOL    HW224838   3.607   5.413   7.801
 2566SOL     OW24839   4.840   3.916   0.200
 2566SOL    HW124840   4.861   3.836   0.248
 2566SOL    HW224841   4.801   3.974   0.265
 2567SOL     OW24842   5.034   5.292   6.010
 2567SOL    HW124843   4.939   5.289   6.003
 2567SOL    HW224844   5.060   5.366   5.954
 2568SOL     OW24845   2.607   5.570   1.662
 2568SOL    HW124846   2.620   5.659   1.632
 2568SOL    HW224847   2.694   5.538   1.683
 2569SOL     OW24848   6.131   2.533   6.972
 2569SOL    HW124849   6.072   2.465   7.005
 2569SOL    HW224850   6.114   2.609   7.027
 2570SOL     OW24851   1.003   2.689   0.684
 2570SOL    HW124852   1.094   2.690   0.714
 2570SOL    HW224853   1.008   2.706   0.590
 2571SOL     OW24854   3.782   2.604   6.390
 2571SOL    HW124855   3.742   2.689   6.371
 2571SOL    HW224856   3.733   2.542   6.337
 2572SOL     OW24857   2.204   4.252   7.154
 2572SOL    HW124858   2.213   4.172   7.206
 2572SOL    HW224859   2.293   4.288   7.150
 2573SOL     OW24860   0.033   0.060   6.238
 2573SOL    HW124861   0.126   0.041   6.252
 2573SOL    HW224862   0.021   0.054   6.144
 2574SOL     OW24863   0.001   4.321   1.283
 2574SOL    HW124864   0.093   4.318   1.309
 2574SOL    HW224865  -0.033   4.233   1.302
 2575SOL     OW24866   4.937   3.166   6.207
 2575SOL    HW124867   4.952   3.178   6.301
 2575SOL    HW224868   4.866   3.226   6.186
 2576SOL     OW24869   6.030   4.789   6.447
 2576SOL    HW124870   5.992   4.877   6.457
 2576SOL    HW224871   5.963   4.731   6.482
 2577SOL     OW24872   6.030   5.084   5.567
 2577SOL    HW124873   6.109   5.083   5.512
 2577SOL    HW224874   5.977   5.155   5.531
 2578SOL     OW24875   0.417   0.378   1.159
 2578SOL    HW124876   0.408   0.467   1.125
 2578SOL    HW224877   0.476   0.387   1.234
 2579SOL     OW24878   4.880   2.744   1.947
 2579SOL    HW124879   4.814   2.805   1.913
 2579SOL    HW224880   4.909   2.784   2.029
 2580SOL     OW24881   3.625   1.049   5.969
 2580SOL    HW124882   3.717   1.054   5.995
 2580SOL    HW224883   3.625   0.991   5.892
 2581SOL     OW24884   4.951   4.536   2.830
 2581SOL    HW124885   4.863   4.498   2.827
 2581SOL    HW224886   4.999   4.489   2.762
 2582SOL     OW24887   1.800   1.378   0.676
 2582SOL    HW124888   1.725   1.394   0.618
 2582SOL    HW224889   1.776   1.298   0.724
 2583SOL     OW24890   1.517   1.107   0.331
 2583SOL    HW124891   1.608   1.083   0.313
 2583SOL    HW224892   1.490   1.158   0.254
 2584SOL     OW24893   2.561   2.350   0.912
 2584SOL    HW124894   2.568   2.289   0.838
 2584SOL    HW224895   2.648   2.388   0.920
 2585SOL     OW24896   2.353   2.893   6.544
 2585SOL    HW124897   2.338   2.800   6.562
 2585SOL    HW224898   2.327   2.905   6.452
 2586SOL     OW24899   2.108   3.803   0.544
 2586SOL    HW124900   2.118   3.881   0.489
 2586SOL    HW224901   2.018   3.810   0.578
 2587SOL     OW24902   3.933   3.893   6.502
 2587SOL    HW124903   3.918   3.854   6.416
 2587SOL    HW224904   3.962   3.820   6.557
 2588SOL     OW24905   4.046   0.632   1.390
 2588SOL    HW124906   4.054   0.720   1.427
 2588SOL    HW224907   4.115   0.581   1.434
 2589SOL     OW24908   1.552   5.211   1.319
 2589SOL    HW124909   1.519   5.224   1.229
 2589SOL    HW224910   1.476   5.227   1.374
 2590SOL     OW24911   6.030   5.576   0.548
 2590SOL    HW124912   5.971   5.536   0.485
 2590SOL    HW224913   6.116   5.574   0.506
 2591SOL     OW24914   0.512   6.184   1.380
 2591SOL    HW124915   0.528   6.192   1.286
 2591SOL    HW224916   0.530   6.271   1.415
 2592SOL     OW24917   1.774   2.475   6.965
 2592SOL    HW124918   1.772   2.381   6.948
 2592SOL    HW224919   1.689   2.507   6.935
 2593SOL     OW24920   2.640   3.553   0.376
 2593SOL    HW124921   2.649   3.550   0.281
 2593SOL    HW224922   2.715   3.505   0.409
 2594SOL     OW24923   3.558   0.488   1.277
 2594SOL    HW124924   3.617   0.554   1.314
 2594SOL    HW224925   3.489   0.478   1.344
 2595SOL     OW24926   1.399   1.497   0.676
 2595SOL    HW124927   1.448   1.419   0.703
 2595SOL    HW224928   1.455   1.570   0.700
 2596SOL     OW24929   6.305   4.119   7.472
 2596SOL    HW124930   6.383   4.174   7.479
 2596SOL    HW224931   6.244   4.170   7.418
 2597SOL     OW24932   5.784   3.323   6.469
 2597SOL    HW124933   5.854   3.333   6.533
 2597SOL    HW224934   5.807   3.382   6.397
 2598SOL     OW24935   5.731   3.883   5.583
 2598SOL    HW124936   5.728   3.831   5.502
 2598SOL    HW224937   5.812   3.854   5.626
 2599SOL     OW24938   3.037   0.353   0.259
 2599SOL    HW124939   2.975   0.299   0.308
 2599SOL    HW224940   3.000   0.442   0.264
 2600SOL     OW24941   4.727   6.027   2.726
 2600SOL    HW124942   4.731   6.051   2.634
 2600SOL    HW224943   4.783   6.091   2.771
 2601SOL     OW24944   1.540   1.645   2.375
 2601SOL    HW124945   1.499   1.713   2.321
 2601SOL    HW224946   1.496   1.652   2.459
 2602SOL     OW24947   2.588   3.048   0.776
 2602SOL    HW124948   2.505   3.093   0.759
 2602SOL    HW224949   2.601   3.057   0.870
 2603SOL     OW24950   0.054   5.178   0.221
 2603SOL    HW124951   0.060   5.202   0.314
 2603SOL    HW224952   0.132   5.217   0.182
 2604SOL     OW24953   6.292   1.104   7.168
 2604SOL    HW124954   6.341   1.056   7.234
 2604SOL    HW224955   6.300   1.050   7.089
 2605SOL     OW24956   2.985   4.579   6.455
 2605SOL    HW124957   3.042   4.582   6.532
 2605SOL    HW224958   3.029   4.518   6.395
 2606SOL     OW24959   5.907   0.583   1.057
 2606SOL    HW124960   5.903   0.677   1.076
 2606SOL    HW224961   5.910   0.542   1.143
 2607SOL     OW24962   6.115   4.699   7.334
 2607SOL    HW124963   6.198   4.662   7.302
 2607SOL    HW224964   6.050   4.669   7.270
 2608SOL     OW24965   0.471   2.932   7.492
 2608SOL    HW124966   0.508   2.849   7.521
 2608SOL    HW224967   0.547   2.983   7.463
 2609SOL     OW24968   5.087   2.390   0.399
 2609SOL    HW124969   5.109   2.337   0.323
 2609SOL    HW224970   5.064   2.327   0.468
 2610SOL     OW24971   1.279   0.269   2.104
 2610SOL    HW124972   1.266   0.358   2.073
 2610SOL    HW224973   1.334   0.228   2.037
 2611SOL     OW24974   0.350   0.637   1.140
 2611SOL    HW124975   0.264   0.674   1.158
 2611SOL    HW224976   0.405   0.713   1.119
 2612SOL     OW24977   4.826   1.695   5.733
 2612SOL    HW124978   4.748   1.652   5.699
 2612SOL    HW224979   4.801   1.728   5.819
 2613SOL     OW24980   4.641   1.358   7.637
 2613SOL    HW124981   4.665   1.323   7.723
 2613SOL    HW224982   4.692   1.306   7.575
 2614SOL     OW24983   0.739   1.140   7.170
 2614SOL    HW124984   0.831   1.136   7.198
 2614SOL    HW224985   0.738   1.206   7.101
 2615SOL     OW24986   5.894   2.345   1.371
 2615SOL    HW124987   5.931   2.395   1.298
 2615SOL    HW224988   5.964   2.343   1.436
 2616SOL     OW24989   4.531   6.050   5.917
 2616SOL    HW124990   4.591   6.049   5.842
 2616SOL    HW224991   4.542   6.136   5.956
 2617SOL     OW24992   1.203   6.002   6.542
 2617SOL    HW124993   1.195   5.911   6.571
 2617SOL    HW224994   1.270   6.039   6.599
 2618SOL     OW24995   0.012   1.463   6.184
 2618SOL    HW124996  -0.041   1.440   6.107
 2618SOL    HW224997  -0.009   1.396   6.248
 2619SOL     OW24998   5.955   1.373   0.296
 2619SOL    HW124999   5.968   1.300   0.236
 2619SOL    HW225000   6.023   1.361   0.363
 2620SOL     OW25001   4.133   2.491   1.744
 2620SOL    HW125002   4.093   2.578   1.745
 2620SOL    HW225003   4.168   2.479   1.832
 2621SOL     OW25004   5.860   1.398   5.433
 2621SOL    HW125005   5.775   1.355   5.425
 2621SOL    HW225006   5.923   1.335   5.401
 2622SOL     OW25007   6.200   3.586   0.911
 2622SOL    HW125008   6.277   3.584   0.855
 2622SOL    HW225009   6.143   3.518   0.877
 2623SOL     OW25010   1.993   4.743   6.131
 2623SOL    HW125011   2.074   4.700   6.159
 2623SOL    HW225012   1.984   4.718   6.038
 2624SOL     OW25013   2.714   0.851   0.463
 2624SOL    HW125014   2.751   0.931   0.426
 2624SOL    HW225015   2.619   0.865   0.461
 2625SOL     OW25016   2.988   5.937   0.306
 2625SOL    HW125017   2.979   5.981   0.390
 2625SOL    HW225018   2.924   5.981   0.249
 2626SOL     OW25019   2.682   3.769   2.374
 2626SOL    HW125020   2.741   3.844   2.361
 2626SOL    HW225021   2.699   3.713   2.299
 2627SOL     OW25022   0.260   2.435   6.040
 2627SOL    HW125023   0.343   2.477   6.059
 2627SOL    HW225024   0.226   2.480   5.963
 2628SOL     OW25025   5.084   3.177   1.139
 2628SOL    HW125026   5.146   3.108   1.119
 2628SOL    HW225027   5.016   3.168   1.073
 2629SOL     OW25028   1.116   3.562   6.158
 2629SOL    HW125029   1.197   3.557   6.107
 2629SOL    HW225030   1.048   3.533   6.097
 2630SOL     OW25031   6.428   2.688   5.500
 2630SOL    HW125032   6.456   2.691   5.409
 2630SOL    HW225033   6.467   2.607   5.535
 2631SOL     OW25034   1.324   3.678   7.232
 2631SOL    HW125035   1.292   3.650   7.146
 2631SOL    HW225036   1.420   3.676   7.223
 2632SOL     OW25037   2.804   4.464   0.204
 2632SOL    HW125038   2.867   4.506   0.145
 2632SOL    HW225039   2.806   4.517   0.284
 2633SOL     OW25040   1.167   1.277   6.901
 2633SOL    HW125041   1.235   1.215   6.928
 2633SOL    HW225042   1.109   1.225   6.845
 2634SOL     OW25043   5.919   6.287   7.280
 2634SOL    HW125044   5.895   6.344   7.352
 2634SOL    HW225045   6.007   6.256   7.303
 2635SOL     OW25046   1.547   5.378   7.515
 2635SOL    HW125047   1.497   5.441   7.463
 2635SOL    HW225048   1.493   5.299   7.516
 2636SOL     OW25049   5.823   6.336   0.143
 2636SOL    HW125050   5.842   6.429   0.130
 2636SOL    HW225051   5.854   6.316   0.231
 2637SOL     OW25052   0.884   4.770   0.312
 2637SOL    HW125053   0.949   4.821   0.264
 2637SOL    HW225054   0.855   4.828   0.383
 2638SOL     OW25055   6.168   0.592   0.503
 2638SOL    HW125056   6.201   0.572   0.590
 2638SOL    HW225057   6.224   0.542   0.444
 2639SOL     OW25058   6.008   3.918   0.679
 2639SOL    HW125059   5.923   3.910   0.636
 2639SOL    HW225060   6.052   3.990   0.633
 2640SOL     OW25061   3.948   2.736   6.184
 2640SOL    HW125062   3.905   2.715   6.101
 2640SOL    HW225063   3.876   2.760   6.242
 2641SOL     OW25064   5.200   5.737   7.148
 2641SOL    HW125065   5.138   5.808   7.163
 2641SOL    HW225066   5.255   5.768   7.076
 2642SOL     OW25067   0.949   5.666   1.730
 2642SOL    HW125068   0.939   5.591   1.789
 2642SOL    HW225069   0.998   5.631   1.655
 2643SOL     OW25070   5.321   0.920   1.604
 2643SOL    HW125071   5.246   0.970   1.636
 2643SOL    HW225072   5.349   0.867   1.679
 2644SOL     OW25073   6.103   6.042   0.280
 2644SOL    HW125074   6.070   6.054   0.370
 2644SOL    HW225075   6.125   6.130   0.251
 2645SOL     OW25076   5.797   0.439   2.081
 2645SOL    HW125077   5.748   0.381   2.023
 2645SOL    HW225078   5.730   0.493   2.123
 2646SOL     OW25079   3.007   1.355   7.196
 2646SOL    HW125080   2.923   1.366   7.151
 2646SOL    HW225081   3.070   1.337   7.126
 2647SOL     OW25082   2.382   5.736   0.896
 2647SOL    HW125083   2.389   5.680   0.973
 2647SOL    HW225084   2.289   5.735   0.874
 2648SOL     OW25085   3.030   5.729   7.763
 2648SOL    HW125086   3.125   5.723   7.772
 2648SOL    HW225087   3.014   5.821   7.740
 2649SOL     OW25088   3.684   3.444   7.020
 2649SOL    HW125089   3.682   3.360   7.066
 2649SOL    HW225090   3.627   3.500   7.072
 2650SOL     OW25091   1.558   4.122   0.320
 2650SOL    HW125092   1.532   4.162   0.403
 2650SOL    HW225093   1.580   4.032   0.343
 2651SOL     OW25094   0.066   1.678   0.186
 2651SOL    HW125095   0.108   1.592   0.193
 2651SOL    HW225096   0.138   1.738   0.165
 2652SOL     OW25097   0.227   5.445   2.268
 2652SOL    HW125098   0.216   5.387   2.192
 2652SOL    HW225099   0.322   5.459   2.273
 2653SOL     OW25100   5.085   0.206   6.666
 2653SOL    HW125101   5.055   0.121   6.699
 2653SOL    HW225102   5.175   0.213   6.696
 2654SOL     OW25103   2.326   4.017   1.811
 2654SOL    HW125104   2.334   4.097   1.759
 2654SOL    HW225105   2.307   3.949   1.747
 2655SOL     OW25106   4.138   6.137   7.030
 2655SOL    HW125107   4.067   6.074   7.023
 2655SOL    HW225108   4.106   6.203   7.092
 2656SOL     OW25109   2.521   3.587   7.171
 2656SOL    HW125110   2.540   3.577   7.078
 2656SOL    HW225111   2.520   3.498   7.205
 2657SOL     OW25112   4.636   2.969   7.095
 2657SOL    HW125113   4.694   2.931   7.030
 2657SOL    HW225114   4.663   2.929   7.178
 2658SOL     OW25115   2.709   6.132   7.106
 2658SOL    HW125116   2.707   6.227   7.119
 2658SOL    HW225117   2.682   6.120   7.014
 2659SOL     OW25118   5.899   4.064   0.195
 2659SOL    HW125119   5.990   4.088   0.209
 2659SOL    HW225120   5.861   4.137   0.147
 2660SOL     OW25121   0.436   0.914   1.966
 2660SOL    HW125122   0.445   0.891   2.058
 2660SOL    HW225123   0.354   0.874   1.939
 2661SOL     OW25124   0.148   5.553   7.333
 2661SOL    HW125125   0.145   5.568   7.239
 2661SOL    HW225126   0.087   5.481   7.348
 2662SOL     OW25127   5.803   3.909   6.671
 2662SOL    HW125128   5.797   3.908   6.576
 2662SOL    HW225129   5.774   3.996   6.696
 2663SOL     OW25130   4.811   2.838   1.416
 2663SOL    HW125131   4.800   2.753   1.459
 2663SOL    HW225132   4.869   2.887   1.475
 2664SOL     OW25133   3.831   3.191   6.322
 2664SOL    HW125134   3.798   3.123   6.381
 2664SOL    HW225135   3.917   3.159   6.293
 2665SOL     OW25136   4.945   5.274   7.058
 2665SOL    HW125137   4.963   5.364   7.085
 2665SOL    HW225138   5.017   5.223   7.095
 2666SOL     OW25139   1.480   1.032   1.271
 2666SOL    HW125140   1.535   0.979   1.329
 2666SOL    HW225141   1.399   1.046   1.320
 2667SOL     OW25142   1.693   3.324   5.944
 2667SOL    HW125143   1.690   3.257   6.013
 2667SOL    HW225144   1.633   3.291   5.877
 2668SOL     OW25145   0.484   2.641   6.380
 2668SOL    HW125146   0.491   2.562   6.327
 2668SOL    HW225147   0.564   2.642   6.433
 2669SOL     OW25148   0.446   1.778   1.023
 2669SOL    HW125149   0.406   1.850   1.071
 2669SOL    HW225150   0.378   1.711   1.018
 2670SOL     OW25151   4.157   5.799   0.593
 2670SOL    HW125152   4.212   5.834   0.663
 2670SOL    HW225153   4.074   5.845   0.602
 2671SOL     OW25154   0.239   6.341   1.023
 2671SOL    HW125155   0.148   6.334   1.050
 2671SOL    HW225156   0.272   6.417   1.071
 2672SOL     OW25157   4.682   2.163   7.581
 2672SOL    HW125158   4.656   2.071   7.585
 2672SOL    HW225159   4.678   2.184   7.487
 2673SOL     OW25160   0.006   2.728   0.166
 2673SOL    HW125161   0.081   2.714   0.107
 2673SOL    HW225162   0.008   2.822   0.184
 2674SOL     OW25163   1.749   2.739   6.335
 2674SOL    HW125164   1.683   2.715   6.270
 2674SOL    HW225165   1.752   2.664   6.395
 2675SOL     OW25166   2.481   3.823   0.705
 2675SOL    HW125167   2.538   3.787   0.637
 2675SOL    HW225168   2.425   3.885   0.659
 2676SOL     OW25169   0.506   1.266   6.859
 2676SOL    HW125170   0.522   1.325   6.932
 2676SOL    HW225171   0.590   1.221   6.845
 2677SOL     OW25172   0.552   1.022   0.249
 2677SOL    HW125173   0.556   1.110   0.286
 2677SOL    HW225174   0.535   0.966   0.324
 2678SOL     OW25175   5.845   0.217   0.537
 2678SOL    HW125176   5.844   0.303   0.578
 2678SOL    HW225177   5.910   0.167   0.587
 2679SOL     OW25178   3.322   0.908   7.779
 2679SOL    HW125179   3.395   0.846   7.785
 2679SOL    HW225180   3.249   0.856   7.745
 2680SOL     OW25181   1.554   1.554   6.113
 2680SOL    HW125182   1.549   1.459   6.099
 2680SOL    HW225183   1.464   1.580   6.131
 2681SOL     OW25184   0.648   4.515   7.206
 2681SOL    HW125185   0.646   4.482   7.117
 2681SOL    HW225186   0.678   4.441   7.259
 2682SOL     OW25187   2.398   3.910   6.947
 2682SOL    HW125188   2.422   4.003   6.940
 2682SOL    HW225189   2.467   3.865   6.898
 2683SOL     OW25190   2.064   4.162   6.688
 2683SOL    HW125191   2.018   4.087   6.723
 2683SOL    HW225192   2.146   4.166   6.739
 2684SOL     OW25193   1.384   1.216   1.053
 2684SOL    HW125194   1.427   1.186   1.133
 2684SOL    HW225195   1.292   1.228   1.078
 2685SOL     OW25196   4.828   0.187   6.201
 2685SOL    HW125197   4.768   0.244   6.249
 2685SOL    HW225198   4.772   0.120   6.161
 2686SOL     OW25199   3.416   3.569   6.795
 2686SOL    HW125200   3.449   3.603   6.878
 2686SOL    HW225201   3.404   3.648   6.741
 2687SOL     OW25202   5.125   4.056   0.718
 2687SOL    HW125203   5.038   4.050   0.678
 2687SOL    HW225204   5.128   3.984   0.780
 2688SOL     OW25205   2.827   3.388   7.052
 2688SOL    HW125206   2.894   3.325   7.023
 2688SOL    HW225207   2.793   3.351   7.133
 2689SOL     OW25208   2.194   2.169   0.310
 2689SOL    HW125209   2.257   2.137   0.374
 2689SOL    HW225210   2.178   2.260   0.335
 2690SOL     OW25211   2.542   4.840   5.435
 2690SOL    HW125212   2.448   4.848   5.422
 2690SOL    HW225213   2.565   4.918   5.486
 2691SOL     OW25214   5.039   0.696   7.269
 2691SOL    HW125215   5.067   0.606   7.286
 2691SOL    HW225216   5.117   0.738   7.232
 2692SOL     OW25217   2.207   5.188   0.760
 2692SOL    HW125218   2.274   5.242   0.719
 2692SOL    HW225219   2.131   5.199   0.705
 2693SOL     OW25220   3.695   3.665   1.211
 2693SOL    HW125221   3.674   3.695   1.123
 2693SOL    HW225222   3.761   3.727   1.243
 2694SOL     OW25223   4.630   5.771   6.890
 2694SOL    HW125224   4.548   5.760   6.938
 2694SOL    HW225225   4.689   5.706   6.928
 2695SOL     OW25226   4.551   3.206   2.033
 2695SOL    HW125227   4.576   3.127   2.081
 2695SOL    HW225228   4.533   3.175   1.944
 2696SOL     OW25229   4.232   3.953   0.524
 2696SOL    HW125230   4.312   3.912   0.558
 2696SOL    HW225231   4.164   3.927   0.587
 2697SOL     OW25232   3.436   4.764   7.741
 2697SOL    HW125233   3.480   4.679   7.730
 2697SOL    HW225234   3.508   4.824   7.762
 2698SOL     OW25235   0.923   1.636   7.269
 2698SOL    HW125236   0.869   1.658   7.345
 2698SOL    HW225237   0.948   1.545   7.282
 2699SOL     OW25238   1.639   4.223   6.579
 2699SOL    HW125239   1.650   4.200   6.671
 2699SOL    HW225240   1.688   4.305   6.568
 2700SOL     OW25241   0.726   4.675   7.426
 2700SOL    HW125242   0.811   4.683   7.383
 2700SOL    HW225243   0.666   4.644   7.358
 2701SOL     OW25244   2.779   4.606   0.421
 2701SOL    HW125245   2.872   4.620   0.439
 2701SOL    HW225246   2.747   4.557   0.496
 2702SOL     OW25247   5.204   4.648   6.760
 2702SOL    HW125248   5.250   4.732   6.748
 2702SOL    HW225249   5.233   4.594   6.687
 2703SOL     OW25250   2.369   0.817   1.218
 2703SOL    HW125251   2.457   0.854   1.219
 2703SOL    HW225252   2.350   0.798   1.310
 2704SOL     OW25253   2.881   0.346   7.520
 2704SOL    HW125254   2.919   0.419   7.571
 2704SOL    HW225255   2.847   0.286   7.586
 2705SOL     OW25256   2.942   5.415   1.243
 2705SOL    HW125257   2.963   5.496   1.289
 2705SOL    HW225258   2.848   5.420   1.228
 2706SOL     OW25259   1.403   1.978   1.484
 2706SOL    HW125260   1.479   2.001   1.430
 2706SOL    HW225261   1.414   1.885   1.502
 2707SOL     OW25262   4.369   0.662   6.695
 2707SOL    HW125263   4.440   0.721   6.721
 2707SOL    HW225264   4.322   0.644   6.776
 2708SOL     OW25265   6.247   3.330   0.765
 2708SOL    HW125266   6.199   3.315   0.847
 2708SOL    HW225267   6.188   3.384   0.713
 2709SOL     OW25268   6.388   4.908   0.154
 2709SOL    HW125269   6.439   4.845   0.103
 2709SOL    HW225270   6.453   4.974   0.181
 2710SOL     OW25271   5.383   2.688   0.117
 2710SOL    HW125272   5.359   2.667   0.207
 2710SOL    HW225273   5.478   2.678   0.115
 2711SOL     OW25274   5.420   1.879   7.000
 2711SOL    HW125275   5.392   1.893   7.090
 2711SOL    HW225276   5.362   1.810   6.967
 2712SOL     OW25277   5.295   4.314   6.248
 2712SOL    HW125278   5.309   4.219   6.253
 2712SOL    HW225279   5.380   4.349   6.221
 2713SOL     OW25280   0.032   2.001   0.880
 2713SOL    HW125281   0.000   1.928   0.934
 2713SOL    HW225282   0.080   1.958   0.810
 2714SOL     OW25283   4.945   5.685   1.824
 2714SOL    HW125284   4.850   5.683   1.826
 2714SOL    HW225285   4.969   5.755   1.885
 2715SOL     OW25286   2.784   5.154   1.915
 2715SOL    HW125287   2.794   5.138   1.821
 2715SOL    HW225288   2.694   5.184   1.925
 2716SOL     OW25289   5.884   0.977   7.632
 2716SOL    HW125290   5.959   0.996   7.688
 2716SOL    HW225291   5.919   0.919   7.564
 2717SOL     OW25292   1.166   1.808   2.021
 2717SOL    HW125293   1.095   1.866   1.993
 2717SOL    HW225294   1.124   1.742   2.075
 2718SOL     OW25295   1.693   2.957   6.555
 2718SOL    HW125296   1.743   2.888   6.512
 2718SOL    HW225297   1.739   3.038   6.532
 2719SOL     OW25298   1.555   2.555   7.537
 2719SOL    HW125299   1.645   2.532   7.558
 2719SOL    HW225300   1.542   2.641   7.578
 2720SOL     OW25301   3.264   5.434   0.908
 2720SOL    HW125302   3.341   5.446   0.853
 2720SOL    HW225303   3.298   5.397   0.990
 2721SOL     OW25304   5.088   5.107   0.114
 2721SOL    HW125305   5.035   5.169   0.164
 2721SOL    HW225306   5.077   5.134   0.023
 2722SOL     OW25307   4.556   4.414   1.858
 2722SOL    HW125308   4.538   4.393   1.950
 2722SOL    HW225309   4.555   4.329   1.814
 2723SOL     OW25310   5.294   4.874   5.845
 2723SOL    HW125311   5.231   4.830   5.788
 2723SOL    HW225312   5.271   4.845   5.933
 2724SOL     OW25313   3.363   0.588   7.324
 2724SOL    HW125314   3.285   0.570   7.273
 2724SOL    HW225315   3.339   0.566   7.414
 2725SOL     OW25316   2.955   6.001   0.581
 2725SOL    HW125317   3.028   5.966   0.634
 2725SOL    HW225318   2.890   5.930   0.582
 2726SOL     OW25319   3.153   4.225   5.519
 2726SOL    HW125320   3.237   4.179   5.525
 2726SOL    HW225321   3.118   4.224   5.608
 2727SOL     OW25322   4.029   0.057   1.046
 2727SOL    HW125323   3.936   0.072   1.067
 2727SOL    HW225324   4.027   0.003   0.967
 2728SOL     OW25325   5.856   0.192   7.427
 2728SOL    HW125326   5.906   0.176   7.347
 2728SOL    HW225327   5.774   0.231   7.396
 2729SOL     OW25328   5.539   2.675   6.675
 2729SOL    HW125329   5.555   2.681   6.769
 2729SOL    HW225330   5.495   2.757   6.653
 2730SOL     OW25331   2.328   3.606   1.038
 2730SOL    HW125332   2.413   3.636   1.004
 2730SOL    HW225333   2.350   3.543   1.106
 2731SOL     OW25334   0.298   5.897   7.062
 2731SOL    HW125335   0.327   5.848   7.139
 2731SOL    HW225336   0.335   5.984   7.074
 2732SOL     OW25337   5.895   0.597   0.542
 2732SOL    HW125338   5.981   0.578   0.505
 2732SOL    HW225339   5.848   0.641   0.472
 2733SOL     OW25340   3.022   2.446   0.521
 2733SOL    HW125341   3.041   2.462   0.428
 2733SOL    HW225342   2.951   2.506   0.542
 2734SOL     OW25343   1.132   0.671   0.244
 2734SOL    HW125344   1.102   0.666   0.335
 2734SOL    HW225345   1.163   0.761   0.233
 2735SOL     OW25346   5.495   5.633   1.371
 2735SOL    HW125347   5.436   5.619   1.297
 2735SOL    HW225348   5.561   5.564   1.363
 2736SOL     OW25349   5.634   0.447   2.709
 2736SOL    HW125350   5.626   0.467   2.803
 2736SOL    HW225351   5.712   0.392   2.703
 2737SOL     OW25352   2.635   2.862   0.114
 2737SOL    HW125353   2.588   2.850   0.197
 2737SOL    HW225354   2.716   2.812   0.124
 2738SOL     OW25355   1.227   5.562   5.543
 2738SOL    HW125356   1.244   5.505   5.618
 2738SOL    HW225357   1.274   5.643   5.563
 2739SOL     OW25358   0.307   5.392   0.600
 2739SOL    HW125359   0.402   5.400   0.588
 2739SOL    HW225360   0.295   5.392   0.695
 2740SOL     OW25361   5.737   1.521   0.255
 2740SOL    HW125362   5.738   1.542   0.349
 2740SOL    HW225363   5.820   1.475   0.240
 2741SOL     OW25364   0.914   3.696   5.847
 2741SOL    HW125365   0.845   3.739   5.796
 2741SOL    HW225366   0.983   3.677   5.783
 2742SOL     OW25367   3.658   5.666   7.559
 2742SOL    HW125368   3.750   5.643   7.570
 2742SOL    HW225369   3.611   5.605   7.616
 2743SOL     OW25370   0.060   4.251   5.723
 2743SOL    HW125371   0.153   4.261   5.742
 2743SOL    HW225372   0.016   4.273   5.806
 2744SOL     OW25373   1.900   2.710   1.284
 2744SOL    HW125374   1.852   2.632   1.313
 2744SOL    HW225375   1.992   2.688   1.298
 2745SOL     OW25376   3.319   0.305   5.821
 2745SOL    HW125377   3.355   0.237   5.765
 2745SOL    HW225378   3.265   0.259   5.884
 2746SOL     OW25379   3.818   4.732   0.317
 2746SOL    HW125380   3.726   4.757   0.323
 2746SOL    HW225381   3.817   4.642   0.285
 2747SOL     OW25382   2.804   1.208   0.602
 2747SOL    HW125383   2.806   1.291   0.554
 2747SOL    HW225384   2.853   1.147   0.546
 2748SOL     OW25385   5.710   1.012   6.512
 2748SOL    HW125386   5.634   0.974   6.467
 2748SOL    HW225387   5.673   1.078   6.571
 2749SOL     OW25388   3.562   6.389   2.386
 2749SOL    HW125389   3.514   6.450   2.330
 2749SOL    HW225390   3.631   6.443   2.425
 2750SOL     OW25391   0.246   2.689   0.010
 2750SOL    HW125392   0.226   2.604  -0.030
 2750SOL    HW225393   0.317   2.669   0.072
 2751SOL     OW25394   0.194   5.333   7.755
 2751SOL    HW125395   0.182   5.401   7.688
 2751SOL    HW225396   0.153   5.370   7.833
 2752SOL     OW25397   3.654   6.387   7.593
 2752SOL    HW125398   3.632   6.414   7.682
 2752SOL    HW225399   3.593   6.316   7.573
 2753SOL     OW25400   2.430   0.406   1.256
 2753SOL    HW125401   2.521   0.379   1.249
 2753SOL    HW225402   2.409   0.395   1.349
 2754SOL     OW25403   2.263   2.783   6.058
 2754SOL    HW125404   2.341   2.750   6.102
 2754SOL    HW225405   2.296   2.833   5.983
 2755SOL     OW25406   2.882   2.964   0.338
 2755SOL    HW125407   2.882   2.989   0.246
 2755SOL    HW225408   2.791   2.974   0.366
 2756SOL     OW25409   0.204   4.676   0.349
 2756SOL    HW125410   0.171   4.633   0.270
 2756SOL    HW225411   0.294   4.699   0.328
 2757SOL     OW25412   4.524   1.949   0.505
 2757SOL    HW125413   4.535   1.911   0.592
 2757SOL    HW225414   4.509   1.874   0.447
 2758SOL     OW25415   1.338   2.899   6.403
 2758SOL    HW125416   1.325   2.863   6.491
 2758SOL    HW225417   1.381   2.829   6.354
 2759SOL     OW25418   1.469   3.602   6.235
 2759SOL    HW125419   1.541   3.592   6.173
 2759SOL    HW225420   1.478   3.527   6.295
 2760SOL     OW25421   5.168   2.394   5.960
 2760SOL    HW125422   5.105   2.391   5.888
 2760SOL    HW225423   5.153   2.480   6.001
 2761SOL     OW25424   1.873   2.604   6.671
 2761SOL    HW125425   1.816   2.639   6.739
 2761SOL    HW225426   1.954   2.656   6.678
 2762SOL     OW25427   4.962   5.286   1.082
 2762SOL    HW125428   4.974   5.305   1.175
 2762SOL    HW225429   4.978   5.192   1.075
 2763SOL     OW25430   4.245   4.289   6.642
 2763SOL    HW125431   4.297   4.358   6.685
 2763SOL    HW225432   4.263   4.301   6.549
 2764SOL     OW25433   0.409   0.470   5.769
 2764SOL    HW125434   0.440   0.380   5.760
 2764SOL    HW225435   0.475   0.514   5.822
 2765SOL     OW25436   1.552   2.120   7.574
 2765SOL    HW125437   1.570   2.066   7.497
 2765SOL    HW225438   1.472   2.083   7.612
 2766SOL     OW25439   3.235   3.169   7.619
 2766SOL    HW125440   3.323   3.208   7.617
 2766SOL    HW225441   3.227   3.130   7.706
 2767SOL     OW25442   3.927   1.767   1.462
 2767SOL    HW125443   3.938   1.702   1.532
 2767SOL    HW225444   3.845   1.811   1.483
 2768SOL     OW25445   6.266   2.195   7.534
 2768SOL    HW125446   6.202   2.189   7.605
 2768SOL    HW225447   6.256   2.284   7.500
 2769SOL     OW25448   4.295   1.122   1.971
 2769SOL    HW125449   4.335   1.099   1.887
 2769SOL    HW225450   4.278   1.216   1.964
 2770SOL     OW25451   3.645   0.174   0.165
 2770SOL    HW125452   3.583   0.242   0.138
 2770SOL    HW225453   3.644   0.178   0.261
 2771SOL     OW25454   4.046   4.904   5.370
 2771SOL    HW125455   3.964   4.871   5.334
 2771SOL    HW225456   4.040   4.999   5.361
 2772SOL     OW25457   3.434   1.365   5.923
 2772SOL    HW125458   3.344   1.335   5.908
 2772SOL    HW225459   3.480   1.345   5.841
 2773SOL     OW25460   4.328   4.059   1.180
 2773SOL    HW125461   4.327   4.067   1.085
 2773SOL    HW225462   4.249   4.011   1.201
 2774SOL     OW25463   1.688   5.960   5.774
 2774SOL    HW125464   1.779   5.933   5.780
 2774SOL    HW225465   1.646   5.891   5.722
 2775SOL     OW25466   3.656   4.359   1.737
 2775SOL    HW125467   3.716   4.433   1.727
 2775SOL    HW225468   3.645   4.350   1.832
 2776SOL     OW25469   0.517   0.867   1.094
 2776SOL    HW125470   0.476   0.953   1.088
 2776SOL    HW225471   0.571   0.871   1.173
 2777SOL     OW25472   4.097   0.730   1.739
 2777SOL    HW125473   4.094   0.639   1.709
 2777SOL    HW225474   4.099   0.724   1.834
 2778SOL     OW25475   6.221   5.419   0.943
 2778SOL    HW125476   6.234   5.502   0.897
 2778SOL    HW225477   6.267   5.354   0.890
 2779SOL     OW25478   1.800   5.659   7.233
 2779SOL    HW125479   1.838   5.747   7.229
 2779SOL    HW225480   1.858   5.610   7.291
 2780SOL     OW25481   2.503   0.982   0.901
 2780SOL    HW125482   2.516   1.060   0.847
 2780SOL    HW225483   2.542   1.004   0.985
 2781SOL     OW25484   2.285   2.499   6.225
 2781SOL    HW125485   2.334   2.433   6.176
 2781SOL    HW225486   2.344   2.575   6.230
 2782SOL     OW25487   4.947   1.989   6.739
 2782SOL    HW125488   4.863   2.009   6.699
 2782SOL    HW225489   5.012   2.025   6.678
 2783SOL     OW25490   3.209   2.672   6.068
 2783SOL    HW125491   3.129   2.710   6.104
 2783SOL    HW225492   3.198   2.577   6.081
 2784SOL     OW25493   0.859   0.131   7.196
 2784SOL    HW125494   0.791   0.082   7.242
 2784SOL    HW225495   0.812   0.199   7.148
 2785SOL     OW25496   6.119   1.322   1.613
 2785SOL    HW125497   6.139   1.413   1.589
 2785SOL    HW225498   6.054   1.329   1.682
 2786SOL     OW25499   5.450   0.053   1.837
 2786SOL    HW125500   5.536   0.048   1.796
 2786SOL    HW225501   5.449  -0.017   1.902
 2787SOL     OW25502   2.216   4.521   0.562
 2787SOL    HW125503   2.240   4.613   0.577
 2787SOL    HW225504   2.223   4.510   0.467
 2788SOL     OW25505   5.112   3.723   0.057
 2788SOL    HW125506   5.202   3.745   0.037
 2788SOL    HW225507   5.062   3.750  -0.020
 2789SOL     OW25508   5.696   5.837   0.182
 2789SOL    HW125509   5.701   5.742   0.199
 2789SOL    HW225510   5.622   5.847   0.122
 2790SOL     OW25511   2.039   3.965   5.890
 2790SOL    HW125512   1.946   3.950   5.877
 2790SOL    HW225513   2.050   4.059   5.875
 2791SOL     OW25514   1.784   5.417   1.836
 2791SOL    HW125515   1.733   5.352   1.886
 2791SOL    HW225516   1.801   5.375   1.752
 2792SOL     OW25517   4.487   0.299   0.715
 2792SOL    HW125518   4.517   0.378   0.761
 2792SOL    HW225519   4.560   0.238   0.723
 2793SOL     OW25520   0.356   0.159   6.589
 2793SOL    HW125521   0.289   0.226   6.606
 2793SOL    HW225522   0.439   0.201   6.612
 2794SOL     OW25523   0.266   2.006   0.486
 2794SOL    HW125524   0.191   1.996   0.546
 2794SOL    HW225525   0.230   1.983   0.400
 2795SOL     OW25526   1.480   4.140   1.423
 2795SOL    HW125527   1.465   4.110   1.513
 2795SOL    HW225528   1.393   4.162   1.390
 2796SOL     OW25529   3.338   4.954   0.789
 2796SOL    HW125530   3.399   4.881   0.800
 2796SOL    HW225531   3.319   4.983   0.878
 2797SOL     OW25532   3.877   5.835   0.374
 2797SOL    HW125533   3.799   5.862   0.326
 2797SOL    HW225534   3.936   5.800   0.308
 2798SOL     OW25535   0.655   3.030   7.289
 2798SOL    HW125536   0.640   2.937   7.270
 2798SOL    HW225537   0.677   3.069   7.204
 2799SOL     OW25538   1.778   6.427   1.410
 2799SOL    HW125539   1.813   6.365   1.347
 2799SOL    HW225540   1.820   6.404   1.493
 2800SOL     OW25541   6.381   5.490   0.100
 2800SOL    HW125542   6.424   5.436   0.166
 2800SOL    HW225543   6.376   5.577   0.140
 2801SOL     OW25544   1.113   0.823   0.942
 2801SOL    HW125545   1.109   0.789   1.032
 2801SOL    HW225546   1.201   0.860   0.935
 2802SOL     OW25547   4.020   0.118   1.386
 2802SOL    HW125548   4.014   0.201   1.338
 2802SOL    HW225549   3.929   0.097   1.407
 2803SOL     OW25550   4.500   3.491   7.077
 2803SOL    HW125551   4.474   3.500   6.985
 2803SOL    HW225552   4.508   3.398   7.091
 2804SOL     OW25553   2.875   2.732   1.703
 2804SOL    HW125554   2.847   2.671   1.770
 2804SOL    HW225555   2.903   2.810   1.751
 2805SOL     OW25556   3.918   3.752   6.256
 2805SOL    HW125557   3.958   3.774   6.172
 2805SOL    HW225558   3.861   3.678   6.237
 2806SOL     OW25559   4.575   2.097   6.050
 2806SOL    HW125560   4.621   2.166   6.002
 2806SOL    HW225561   4.499   2.077   5.995
 2807SOL     OW25562   1.135   3.133   7.419
 2807SOL    HW125563   1.057   3.165   7.464
 2807SOL    HW225564   1.103   3.102   7.334
 2808SOL     OW25565   4.485   2.236   0.338
 2808SOL    HW125566   4.490   2.151   0.381
 2808SOL    HW225567   4.575   2.270   0.342
 2809SOL     OW25568   0.618   2.504   1.997
 2809SOL    HW125569   0.582   2.502   2.086
 2809SOL    HW225570   0.698   2.451   2.002
 2810SOL     OW25571   1.296   2.050   6.592
 2810SOL    HW125572   1.366   2.115   6.587
 2810SOL    HW225573   1.307   2.010   6.678
 2811SOL     OW25574   0.337   2.277   1.243
 2811SOL    HW125575   0.421   2.255   1.203
 2811SOL    HW225576   0.272   2.233   1.188
 2812SOL     OW25577   3.221   5.408   1.421
 2812SOL    HW125578   3.135   5.388   1.385
 2812SOL    HW225579   3.213   5.391   1.515
 2813SOL     OW25580   0.288   0.376   1.500
 2813SOL    HW125581   0.349   0.339   1.564
 2813SOL    HW225582   0.201   0.352   1.532
 2814SOL     OW25583   1.883   5.579   1.060
 2814SOL    HW125584   1.937   5.549   1.133
 2814SOL    HW225585   1.808   5.519   1.060
 2815SOL     OW25586   5.457   6.392   0.102
 2815SOL    HW125587   5.504   6.328   0.047
 2815SOL    HW225588   5.393   6.431   0.043
 2816SOL     OW25589   4.036   2.798   0.269
 2816SOL    HW125590   4.046   2.780   0.175
 2816SOL    HW225591   4.011   2.714   0.307
 2817SOL     OW25592   1.196   0.623   1.253
 2817SOL    HW125593   1.167   0.622   1.344
 2817SOL    HW225594   1.265   0.690   1.251
 2818SOL     OW25595   5.730   3.202   0.365
 2818SOL    HW125596   5.815   3.236   0.339
 2818SOL    HW225597   5.686   3.183   0.282
 2819SOL     OW25598   3.280   5.926   1.388
 2819SOL    HW125599   3.198   5.903   1.431
 2819SOL    HW225600   3.297   5.854   1.327
 2820SOL     OW25601   3.814   0.982   6.943
 2820SOL    HW125602   3.844   0.931   6.868
 2820SOL    HW225603   3.871   0.954   7.015
 2821SOL     OW25604   0.593   1.631   1.947
 2821SOL    HW125605   0.681   1.669   1.944
 2821SOL    HW225606   0.553   1.670   2.025
 2822SOL     OW25607   6.078   0.624   2.577
 2822SOL    HW125608   6.172   0.607   2.582
 2822SOL    HW225609   6.058   0.621   2.484
 2823SOL     OW25610   3.250   1.961   1.350
 2823SOL    HW125611   3.187   1.889   1.338
 2823SOL    HW225612   3.261   1.967   1.445
 2824SOL     OW25613   2.196   1.942   1.564
 2824SOL    HW125614   2.193   2.026   1.519
 2824SOL    HW225615   2.199   1.964   1.657
 2825SOL     OW25616   6.183   4.300   7.338
 2825SOL    HW125617   6.232   4.381   7.346
 2825SOL    HW225618   6.173   4.286   7.244
 2826SOL     OW25619   2.874   3.852   7.023
 2826SOL    HW125620   2.865   3.786   7.092
 2826SOL    HW225621   2.837   3.810   6.945
 2827SOL     OW25622   4.547   5.694   1.220
 2827SOL    HW125623   4.573   5.602   1.223
 2827SOL    HW225624   4.488   5.704   1.294
 2828SOL     OW25625   5.710   2.608   7.670
 2828SOL    HW125626   5.714   2.614   7.766
 2828SOL    HW225627   5.800   2.629   7.642
 2829SOL     OW25628   4.524   1.828   6.426
 2829SOL    HW125629   4.485   1.901   6.378
 2829SOL    HW225630   4.597   1.868   6.474
 2830SOL     OW25631   3.205   2.417   1.890
 2830SOL    HW125632   3.298   2.415   1.866
 2830SOL    HW225633   3.198   2.488   1.953
 2831SOL     OW25634   5.314   5.620   6.754
 2831SOL    HW125635   5.293   5.704   6.795
 2831SOL    HW225636   5.259   5.616   6.676
 2832SOL     OW25637   6.021   0.096   6.572
 2832SOL    HW125638   5.993   0.077   6.661
 2832SOL    HW225639   6.091   0.160   6.582
 2833SOL     OW25640   0.329   2.941   7.785
 2833SOL    HW125641   0.315   2.850   7.758
 2833SOL    HW225642   0.349   2.935   7.878
 2834SOL     OW25643   5.120   1.278   6.445
 2834SOL    HW125644   5.092   1.243   6.530
 2834SOL    HW225645   5.139   1.201   6.392
 2835SOL     OW25646   5.312   2.344   7.699
 2835SOL    HW125647   5.402   2.351   7.669
 2835SOL    HW225648   5.276   2.268   7.653
 2836SOL     OW25649   1.959   4.381   7.053
 2836SOL    HW125650   1.907   4.430   7.116
 2836SOL    HW225651   2.013   4.322   7.106
 2837SOL     OW25652   6.358   6.253   6.322
 2837SOL    HW125653   6.402   6.337   6.316
 2837SOL    HW225654   6.306   6.259   6.402
 2838SOL     OW25655   2.963   0.464   6.930
 2838SOL    HW125656   3.031   0.400   6.908
 2838SOL    HW225657   2.982   0.539   6.873
 2839SOL     OW25658   6.323   3.503   0.451
 2839SOL    HW125659   6.368   3.511   0.367
 2839SOL    HW225660   6.262   3.577   0.454
 2840SOL     OW25661   0.619   6.256   0.700
 2840SOL    HW125662   0.698   6.205   0.712
 2840SOL    HW225663   0.618   6.278   0.607
 2841SOL     OW25664   6.204   2.013   0.920
 2841SOL    HW125665   6.295   2.029   0.895
 2841SOL    HW225666   6.179   2.091   0.969
 2842SOL     OW25667   5.025   3.344   5.707
 2842SOL    HW125668   4.977   3.352   5.624
 2842SOL    HW225669   4.994   3.261   5.743
 2843SOL     OW25670   3.137   4.780   1.653
 2843SOL    HW125671   3.081   4.703   1.645
 2843SOL    HW225672   3.216   4.750   1.696
 2844SOL     OW25673   5.810   6.126   6.960
 2844SOL    HW125674   5.893   6.079   6.952
 2844SOL    HW225675   5.793   6.130   7.054
 2845SOL     OW25676   1.570   5.520   1.299
 2845SOL    HW125677   1.650   5.523   1.352
 2845SOL    HW225678   1.596   5.476   1.218
 2846SOL     OW25679   4.946   4.384   6.548
 2846SOL    HW125680   4.914   4.446   6.614
 2846SOL    HW225681   5.041   4.394   6.549
 2847SOL     OW25682   3.495   4.369   1.110
 2847SOL    HW125683   3.497   4.341   1.019
 2847SOL    HW225684   3.586   4.393   1.130
 2848SOL     OW25685   0.151   1.259   0.019
 2848SOL    HW125686   0.187   1.211   0.094
 2848SOL    HW225687   0.144   1.194  -0.050
 2849SOL     OW25688   5.308   2.082   7.628
 2849SOL    HW125689   5.256   2.010   7.665
 2849SOL    HW225690   5.361   2.041   7.559
 2850SOL     OW25691   3.326   2.367   5.851
 2850SOL    HW125692   3.237   2.356   5.883
 2850SOL    HW225693   3.342   2.289   5.798
 2851SOL     OW25694   4.304   4.535   6.859
 2851SOL    HW125695   4.272   4.624   6.843
 2851SOL    HW225696   4.257   4.507   6.938
 2852SOL     OW25697   5.651   5.100   1.340
 2852SOL    HW125698   5.690   5.086   1.426
 2852SOL    HW225699   5.724   5.095   1.279
 2853SOL     OW25700   3.855   0.407   1.042
 2853SOL    HW125701   3.874   0.409   1.136
 2853SOL    HW225702   3.900   0.483   1.006
 2854SOL     OW25703   1.971   3.009   6.856
 2854SOL    HW125704   1.913   3.063   6.802
 2854SOL    HW225705   1.912   2.955   6.909
 2855SOL     OW25706   0.772   1.541   7.632
 2855SOL    HW125707   0.775   1.631   7.601
 2855SOL    HW225708   0.851   1.500   7.595
 2856SOL     OW25709   6.010   3.826   5.639
 2856SOL    HW125710   6.088   3.878   5.656
 2856SOL    HW225711   5.997   3.775   5.719
 2857SOL     OW25712   6.396   0.194   1.854
 2857SOL    HW125713   6.468   0.211   1.914
 2857SOL    HW225714   6.416   0.108   1.816
 2858SOL     OW25715   5.368   6.237   1.170
 2858SOL    HW125716   5.388   6.271   1.082
 2858SOL    HW225717   5.274   6.249   1.179
 2859SOL     OW25718   0.988   2.601   0.413
 2859SOL    HW125719   1.035   2.623   0.333
 2859SOL    HW225720   1.043   2.537   0.457
 2860SOL     OW25721   1.929   4.658   5.878
 2860SOL    HW125722   1.919   4.575   5.832
 2860SOL    HW225723   1.894   4.723   5.817
 2861SOL     OW25724   6.357   5.591   2.081
 2861SOL    HW125725   6.354   5.536   2.159
 2861SOL    HW225726   6.402   5.537   2.016
 2862SOL     OW25727   1.334   6.296   5.931
 2862SOL    HW125728   1.333   6.206   5.965
 2862SOL    HW225729   1.426   6.313   5.910
 2863SOL     OW25730   3.613   4.432   6.860
 2863SOL    HW125731   3.532   4.400   6.819
 2863SOL    HW225732   3.597   4.526   6.872
 2864SOL     OW25733   3.264   6.333   0.757
 2864SOL    HW125734   3.351   6.343   0.718
 2864SOL    HW225735   3.203   6.340   0.684
 2865SOL     OW25736   1.033   5.133   5.221
 2865SOL    HW125737   1.012   5.040   5.227
 2865SOL    HW225738   1.088   5.150   5.297
 2866SOL     OW25739   0.526   2.736   0.579
 2866SOL    HW125740   0.594   2.775   0.526
 2866SOL    HW225741   0.500   2.657   0.532
 2867SOL     OW25742   4.469   1.363   6.750
 2867SOL    HW125743   4.410   1.435   6.731
 2867SOL    HW225744   4.526   1.357   6.673
 2868SOL     OW25745   0.417   1.974   5.067
 2868SOL    HW125746   0.405   1.910   5.137
 2868SOL    HW225747   0.494   1.944   5.020
 2869SOL     OW25748   1.085   1.427   0.891
 2869SOL    HW125749   1.077   1.398   0.801
 2869SOL    HW225750   1.065   1.349   0.943
 2870SOL     OW25751   0.504   3.337   6.695
 2870SOL    HW125752   0.438   3.373   6.755
 2870SOL    HW225753   0.473   3.247   6.678
 2871SOL     OW25754   1.263   0.878   1.893
 2871SOL    HW125755   1.184   0.913   1.934
 2871SOL    HW225756   1.321   0.857   1.966
 2872SOL     OW25757   4.626   3.819   2.144
 2872SOL    HW125758   4.563   3.752   2.118
 2872SOL    HW225759   4.596   3.898   2.099
 2873SOL     OW25760   6.253   3.280   7.510
 2873SOL    HW125761   6.225   3.363   7.471
 2873SOL    HW225762   6.297   3.234   7.438
 2874SOL     OW25763   1.493   1.297   6.765
 2874SOL    HW125764   1.440   1.312   6.686
 2874SOL    HW225765   1.475   1.373   6.821
 2875SOL     OW25766   4.866   2.640   5.796
 2875SOL    HW125767   4.901   2.551   5.790
 2875SOL    HW225768   4.818   2.653   5.714
 2876SOL     OW25769   0.110   3.915   6.986
 2876SOL    HW125770   0.196   3.902   6.945
 2876SOL    HW225771   0.050   3.928   6.912
 2877SOL     OW25772   4.802   0.213   1.199
 2877SOL    HW125773   4.825   0.177   1.114
 2877SOL    HW225774   4.718   0.257   1.185
 2878SOL     OW25775   0.971   4.236   2.210
 2878SOL    HW125776   0.943   4.325   2.231
 2878SOL    HW225777   0.901   4.180   2.243
 2879SOL     OW25778   0.485   0.232   1.795
 2879SOL    HW125779   0.516   0.189   1.875
 2879SOL    HW225780   0.545   0.201   1.727
 2880SOL     OW25781   1.618   1.562   7.556
 2880SOL    HW125782   1.547   1.572   7.619
 2880SOL    HW225783   1.626   1.468   7.544
 2881SOL     OW25784   5.065   6.270   7.512
 2881SOL    HW125785   5.156   6.243   7.518
 2881SOL    HW225786   5.067   6.351   7.462
 2882SOL     OW25787   2.390   2.036   7.362
 2882SOL    HW125788   2.422   2.122   7.390
 2882SOL    HW225789   2.438   2.018   7.282
 2883SOL     OW25790   0.900   2.170   0.147
 2883SOL    HW125791   0.940   2.091   0.112
 2883SOL    HW225792   0.974   2.227   0.169
 2884SOL     OW25793   4.928   1.789   1.437
 2884SOL    HW125794   4.999   1.787   1.372
 2884SOL    HW225795   4.893   1.700   1.438
 2885SOL     OW25796   0.437   3.637   0.023
 2885SOL    HW125797   0.359   3.693   0.028
 2885SOL    HW225798   0.449   3.606   0.112
 2886SOL     OW25799   1.001   2.089   0.950
 2886SOL    HW125800   0.922   2.122   0.992
 2886SOL    HW225801   0.983   2.098   0.856
 2887SOL     OW25802   3.216   3.322   1.188
 2887SOL    HW125803   3.268   3.272   1.126
 2887SOL    HW225804   3.221   3.273   1.270
 2888SOL     OW25805   0.125   0.756   1.223
 2888SOL    HW125806   0.037   0.744   1.258
 2888SOL    HW225807   0.146   0.847   1.243
 2889SOL     OW25808   4.420   4.873   1.333
 2889SOL    HW125809   4.398   4.794   1.283
 2889SOL    HW225810   4.508   4.857   1.367
 2890SOL     OW25811   1.178   2.508   6.908
 2890SOL    HW125812   1.162   2.452   6.984
 2890SOL    HW225813   1.101   2.495   6.852
 2891SOL     OW25814   3.114   0.078   5.938
 2891SOL    HW125815   3.044   0.049   5.880
 2891SOL    HW225816   3.188   0.020   5.917
 2892SOL     OW25817   5.571   0.611   5.762
 2892SOL    HW125818   5.642   0.621   5.827
 2892SOL    HW225819   5.604   0.546   5.701
 2893SOL     OW25820   2.168   4.685   6.714
 2893SOL    HW125821   2.245   4.724   6.757
 2893SOL    HW225822   2.172   4.592   6.738
 2894SOL     OW25823   3.991   0.511   2.471
 2894SOL    HW125824   4.054   0.564   2.520
 2894SOL    HW225825   4.045   0.448   2.423
 2895SOL     OW25826   5.935   4.078   5.784
 2895SOL    HW125827   5.893   4.141   5.725
 2895SOL    HW225828   5.934   3.995   5.736
 2896SOL     OW25829   4.537   4.344   6.856
 2896SOL    HW125830   4.563   4.261   6.816
 2896SOL    HW225831   4.450   4.327   6.891
 2897SOL     OW25832   4.844   4.644   1.826
 2897SOL    HW125833   4.899   4.688   1.761
 2897SOL    HW225834   4.755   4.671   1.802
 2898SOL     OW25835   2.813   4.412   6.172
 2898SOL    HW125836   2.893   4.367   6.145
 2898SOL    HW225837   2.759   4.413   6.093
 2899SOL     OW25838   0.943   0.388   1.809
 2899SOL    HW125839   0.875   0.397   1.875
 2899SOL    HW225840   1.014   0.446   1.840
 2900SOL     OW25841   3.758   6.226   0.096
 2900SOL    HW125842   3.806   6.151   0.061
 2900SOL    HW225843   3.678   6.230   0.043
 2901SOL     OW25844   4.964   3.364   6.757
 2901SOL    HW125845   4.980   3.270   6.755
 2901SOL    HW225846   4.912   3.378   6.836
 2902SOL     OW25847   0.734   6.046   7.243
 2902SOL    HW125848   0.779   5.997   7.312
 2902SOL    HW225849   0.794   6.117   7.220
 2903SOL     OW25850   3.196   2.546   0.033
 2903SOL    HW125851   3.139   2.620   0.011
 2903SOL    HW225852   3.189   2.488  -0.043
 2904SOL     OW25853   3.263   4.750   7.530
 2904SOL    HW125854   3.319   4.797   7.468
 2904SOL    HW225855   3.318   4.740   7.608
 2905SOL     OW25856   4.411   0.147   2.514
 2905SOL    HW125857   4.431   0.094   2.437
 2905SOL    HW225858   4.431   0.089   2.588
 2906SOL     OW25859   6.155   4.622   0.328
 2906SOL    HW125860   6.240   4.667   0.322
 2906SOL    HW225861   6.091   4.690   0.304
 2907SOL     OW25862   5.616   4.721   7.769
 2907SOL    HW125863   5.577   4.720   7.857
 2907SOL    HW225864   5.542   4.741   7.711
 2908SOL     OW25865   6.236   4.320   2.184
 2908SOL    HW125866   6.225   4.373   2.262
 2908SOL    HW225867   6.212   4.231   2.211
 2909SOL     OW25868   5.765   3.877   0.592
 2909SOL    HW125869   5.677   3.868   0.627
 2909SOL    HW225870   5.753   3.883   0.497
 2910SOL     OW25871   3.410   3.993   7.480
 2910SOL    HW125872   3.464   4.027   7.409
 2910SOL    HW225873   3.336   4.054   7.485
 2911SOL     OW25874   0.364   2.209   4.832
 2911SOL    HW125875   0.383   2.134   4.888
 2911SOL    HW225876   0.426   2.277   4.862
 2912SOL     OW25877   3.893   0.691   7.495
 2912SOL    HW125878   3.886   0.616   7.555
 2912SOL    HW225879   3.803   0.708   7.466
 2913SOL     OW25880   2.156   0.394   0.324
 2913SOL    HW125881   2.108   0.477   0.321
 2913SOL    HW225882   2.136   0.358   0.410
 2914SOL     OW25883   0.314   6.211   6.335
 2914SOL    HW125884   0.393   6.183   6.288
 2914SOL    HW225885   0.321   6.306   6.339
 2915SOL     OW25886   4.317   3.046   6.471
 2915SOL    HW125887   4.379   2.981   6.502
 2915SOL    HW225888   4.356   3.130   6.497
 2916SOL     OW25889   5.222   5.121   1.156
 2916SOL    HW125890   5.244   5.157   1.070
 2916SOL    HW225891   5.163   5.048   1.138
 2917SOL     OW25892   1.178   1.373   2.185
 2917SOL    HW125893   1.121   1.443   2.154
 2917SOL    HW225894   1.236   1.415   2.249
 2918SOL     OW25895   2.717   0.279   7.058
 2918SOL    HW125896   2.662   0.282   7.137
 2918SOL    HW225897   2.806   0.272   7.091
 2919SOL     OW25898   5.053   2.453   1.062
 2919SOL    HW125899   5.114   2.489   0.998
 2919SOL    HW225900   4.967   2.478   1.031
 2920SOL     OW25901   5.250   4.024   1.707
 2920SOL    HW125902   5.245   4.114   1.676
 2920SOL    HW225903   5.216   4.028   1.796
 2921SOL     OW25904   0.184   4.853   7.779
 2921SOL    HW125905   0.254   4.814   7.830
 2921SOL    HW225906   0.181   4.800   7.699
 2922SOL     OW25907   0.927   1.704   0.670
 2922SOL    HW125908   0.912   1.752   0.588
 2922SOL    HW225909   0.861   1.739   0.729
 2923SOL     OW25910   3.857   6.213   6.173
 2923SOL    HW125911   3.860   6.132   6.224
 2923SOL    HW225912   3.899   6.278   6.229
 2924SOL     OW25913   3.216   4.979   1.068
 2924SOL    HW125914   3.224   5.032   1.147
 2924SOL    HW225915   3.250   4.893   1.093
 2925SOL     OW25916   4.789   1.957   1.292
 2925SOL    HW125917   4.844   1.903   1.349
 2925SOL    HW225918   4.701   1.948   1.328
 2926SOL     OW25919   1.445   3.615   1.117
 2926SOL    HW125920   1.430   3.541   1.058
 2926SOL    HW225921   1.540   3.625   1.118
 2927SOL     OW25922   1.869   1.322   7.538
 2927SOL    HW125923   1.893   1.258   7.472
 2927SOL    HW225924   1.874   1.275   7.621
 2928SOL     OW25925   0.381   2.599   0.240
 2928SOL    HW125926   0.319   2.606   0.313
 2928SOL    HW225927   0.456   2.552   0.278
 2929SOL     OW25928   5.388   5.577   6.043
 2929SOL    HW125929   5.463   5.632   6.064
 2929SOL    HW225930   5.358   5.610   5.958
 2930SOL     OW25931   4.600   5.992   2.311
 2930SOL    HW125932   4.522   5.961   2.264
 2930SOL    HW225933   4.673   5.965   2.256
 2931SOL     OW25934   0.100   2.799   6.490
 2931SOL    HW125935   0.038   2.856   6.444
 2931SOL    HW225936   0.044   2.734   6.533
 2932SOL     OW25937   6.415   5.091   6.828
 2932SOL    HW125938   6.336   5.131   6.792
 2932SOL    HW225939   6.458   5.163   6.874
 2933SOL     OW25940   5.379   3.186   7.405
 2933SOL    HW125941   5.344   3.154   7.488
 2933SOL    HW225942   5.411   3.274   7.425
 2934SOL     OW25943   5.016   3.404   0.091
 2934SOL    HW125944   4.987   3.475   0.033
 2934SOL    HW225945   5.090   3.441   0.138
 2935SOL     OW25946   0.462   4.369   1.158
 2935SOL    HW125947   0.401   4.382   1.085
 2935SOL    HW225948   0.525   4.305   1.125
 2936SOL     OW25949   0.518   4.522   6.697
 2936SOL    HW125950   0.427   4.493   6.696
 2936SOL    HW225951   0.552   4.499   6.610
 2937SOL     OW25952   5.942   2.606   1.667
 2937SOL    HW125953   5.951   2.517   1.700
 2937SOL    HW225954   5.903   2.654   1.740
 2938SOL     OW25955   0.546   3.545   1.195
 2938SOL    HW125956   0.536   3.603   1.120
 2938SOL    HW225957   0.534   3.601   1.271
 2939SOL     OW25958   5.454   1.099   2.510
 2939SOL    HW125959   5.484   1.076   2.598
 2939SOL    HW225960   5.519   1.061   2.452
 2940SOL     OW25961   0.501   3.931   7.703
 2940SOL    HW125962   0.559   3.998   7.740
 2940SOL    HW225963   0.511   3.856   7.761
 2941SOL     OW25964   1.665   5.422   1.019
 2941SOL    HW125965   1.646   5.489   0.953
 2941SOL    HW225966   1.586   5.369   1.023
 2942SOL     OW25967   0.331   4.603   7.079
 2942SOL    HW125968   0.336   4.512   7.108
 2942SOL    HW225969   0.243   4.612   7.043
 2943SOL     OW25970   4.839   3.162   0.193
 2943SOL    HW125971   4.900   3.230   0.220
 2943SOL    HW225972   4.820   3.181   0.102
 2944SOL     OW25973   4.568   5.272   1.766
 2944SOL    HW125974   4.480   5.236   1.779
 2944SOL    HW225975   4.585   5.259   1.672
 2945SOL     OW25976   1.871   2.727   6.969
 2945SOL    HW125977   1.780   2.750   6.949
 2945SOL    HW225978   1.868   2.633   6.986
 2946SOL     OW25979   3.516   2.155   0.951
 2946SOL    HW125980   3.523   2.126   0.860
 2946SOL    HW225981   3.440   2.108   0.985
 2947SOL     OW25982   3.235   4.306   0.052
 2947SOL    HW125983   3.217   4.299  -0.042
 2947SOL    HW225984   3.188   4.385   0.080
 2948SOL     OW25985   4.849   4.004   2.467
 2948SOL    HW125986   4.851   4.080   2.409
 2948SOL    HW225987   4.835   4.040   2.554
 2949SOL     OW25988   3.598   1.327   6.119
 2949SOL    HW125989   3.506   1.339   6.145
 2949SOL    HW225990   3.597   1.330   6.024
 2950SOL     OW25991   0.071   3.914   0.558
 2950SOL    HW125992   0.045   3.939   0.646
 2950SOL    HW225993  -0.004   3.935   0.503
 2951SOL     OW25994   1.080   1.651   2.223
 2951SOL    HW125995   0.986   1.668   2.217
 2951SOL    HW225996   1.090   1.601   2.304
 2952SOL     OW25997   3.306   2.311   5.470
 2952SOL    HW125998   3.340   2.332   5.383
 2952SOL    HW225999   3.212   2.326   5.464
 2953SOL     OW26000   4.452   0.480   2.663
 2953SOL    HW126001   4.509   0.498   2.588
 2953SOL    HW226002   4.513   0.460   2.734
 2954SOL     OW26003   1.151   3.102   6.893
 2954SOL    HW126004   1.169   3.118   6.801
 2954SOL    HW226005   1.148   3.189   6.933
 2955SOL     OW26006   5.945   0.489   7.481
 2955SOL    HW126007   6.039   0.473   7.471
 2955SOL    HW226008   5.907   0.401   7.484
 2956SOL     OW26009   6.270   6.015   5.377
 2956SOL    HW126010   6.339   5.950   5.395
 2956SOL    HW226011   6.227   6.028   5.462
 2957SOL     OW26012   1.339   6.081   0.516
 2957SOL    HW126013   1.371   6.095   0.605
 2957SOL    HW226014   1.346   5.986   0.502
 2958SOL     OW26015   3.438   6.335   6.359
 2958SOL    HW126016   3.518   6.386   6.365
 2958SOL    HW226017   3.406   6.351   6.270
 2959SOL     OW26018   2.917   0.533   7.774
 2959SOL    HW126019   2.875   0.619   7.774
 2959SOL    HW226020   2.860   0.479   7.829
 2960SOL     OW26021   5.245   4.914   0.699
 2960SOL    HW126022   5.278   4.893   0.787
 2960SOL    HW226023   5.195   4.837   0.673
 2961SOL     OW26024   3.037   3.461   0.763
 2961SOL    HW126025   3.005   3.478   0.851
 2961SOL    HW226026   2.959   3.462   0.708
 2962SOL     OW26027   2.723   5.789   6.168
 2962SOL    HW126028   2.795   5.824   6.220
 2962SOL    HW226029   2.646   5.798   6.225
 2963SOL     OW26030   4.700   6.089   1.241
 2963SOL    HW126031   4.675   6.139   1.163
 2963SOL    HW226032   4.626   6.032   1.258
 2964SOL     OW26033   5.551   5.712   1.613
 2964SOL    HW126034   5.611   5.642   1.640
 2964SOL    HW226035   5.511   5.679   1.533
 2965SOL     OW26036   3.165   3.130   0.083
 2965SOL    HW126037   3.078   3.091   0.072
 2965SOL    HW226038   3.151   3.201   0.146
 2966SOL     OW26039   4.942   2.564   7.208
 2966SOL    HW126040   4.913   2.655   7.210
 2966SOL    HW226041   5.004   2.556   7.280
 2967SOL     OW26042   6.192   0.704   5.610
 2967SOL    HW126043   6.271   0.653   5.625
 2967SOL    HW226044   6.122   0.638   5.605
 2968SOL     OW26045   5.267   5.242   2.769
 2968SOL    HW126046   5.193   5.189   2.739
 2968SOL    HW226047   5.239   5.332   2.754
 2969SOL     OW26048   0.261   3.961   2.094
 2969SOL    HW126049   0.235   3.977   2.003
 2969SOL    HW226050   0.303   3.875   2.091
 2970SOL     OW26051   0.534   2.534   7.235
 2970SOL    HW126052   0.542   2.505   7.326
 2970SOL    HW226053   0.440   2.552   7.224
 2971SOL     OW26054   0.117   4.713   7.325
 2971SOL    HW126055   0.062   4.754   7.258
 2971SOL    HW226056   0.068   4.724   7.406
 2972SOL     OW26057   2.035   4.474   0.131
 2972SOL    HW126058   2.114   4.499   0.179
 2972SOL    HW226059   1.991   4.556   0.112
 2973SOL     OW26060   2.039   1.210   2.093
 2973SOL    HW126061   1.962   1.159   2.118
 2973SOL    HW226062   2.062   1.177   2.006
 2974SOL     OW26063   4.161   5.983   6.111
 2974SOL    HW126064   4.078   5.972   6.156
 2974SOL    HW226065   4.207   6.051   6.160
 2975SOL     OW26066   3.715   5.350   1.608
 2975SOL    HW126067   3.636   5.342   1.555
 2975SOL    HW226068   3.751   5.261   1.611
 2976SOL     OW26069   3.389   1.106   6.791
 2976SOL    HW126070   3.457   1.096   6.858
 2976SOL    HW226071   3.438   1.122   6.710
 2977SOL     OW26072   4.027   0.025   2.294
 2977SOL    HW126073   4.118   0.055   2.296
 2977SOL    HW226074   4.021  -0.036   2.367
 2978SOL     OW26075   6.339   5.225   0.696
 2978SOL    HW126076   6.386   5.275   0.629
 2978SOL    HW226077   6.247   5.235   0.672
 2979SOL     OW26078   6.014   5.928   0.674
 2979SOL    HW126079   6.075   5.964   0.610
 2979SOL    HW226080   6.009   5.996   0.743
 2980SOL     OW26081   3.270   5.220   0.668
 2980SOL    HW126082   3.198   5.279   0.689
 2980SOL    HW226083   3.242   5.134   0.700
 2981SOL     OW26084   3.589   4.606   1.382
 2981SOL    HW126085   3.592   4.691   1.338
 2981SOL    HW226086   3.562   4.627   1.471
 2982SOL     OW26087   2.931   4.065   0.810
 2982SOL    HW126088   3.021   4.083   0.784
 2982SOL    HW226089   2.931   3.972   0.834
 2983SOL     OW26090   5.372   3.193   1.375
 2983SOL    HW126091   5.404   3.208   1.465
 2983SOL    HW226092   5.397   3.102   1.356
 2984SOL     OW26093   2.798   4.618   7.616
 2984SOL    HW126094   2.788   4.704   7.657
 2984SOL    HW226095   2.878   4.625   7.563
 2985SOL     OW26096   0.184   3.734   7.169
 2985SOL    HW126097   0.257   3.768   7.220
 2985SOL    HW226098   0.134   3.812   7.144
 2986SOL     OW26099   0.944   5.528   0.435
 2986SOL    HW126100   0.996   5.501   0.511
 2986SOL    HW226101   0.991   5.605   0.401
 2987SOL     OW26102   4.649   3.948   6.838
 2987SOL    HW126103   4.676   4.016   6.901
 2987SOL    HW226104   4.631   3.996   6.757
 2988SOL     OW26105   2.832   3.604   7.499
 2988SOL    HW126106   2.774   3.586   7.574
 2988SOL    HW226107   2.917   3.624   7.539
 2989SOL     OW26108   3.112   1.020   6.651
 2989SOL    HW126109   3.183   0.960   6.670
 2989SOL    HW226110   3.145   1.106   6.677
 2990SOL     OW26111   5.596   3.363   0.890
 2990SOL    HW126112   5.504   3.364   0.864
 2990SOL    HW226113   5.601   3.298   0.961
 2991SOL     OW26114   5.913   3.919   6.916
 2991SOL    HW126115   5.835   3.900   6.968
 2991SOL    HW226116   5.883   3.918   6.826
 2992SOL     OW26117   1.816   5.150   0.108
 2992SOL    HW126118   1.848   5.229   0.064
 2992SOL    HW226119   1.837   5.079   0.048
 2993SOL     OW26120   6.386   5.183   5.952
 2993SOL    HW126121   6.327   5.190   6.027
 2993SOL    HW226122   6.465   5.140   5.987
 2994SOL     OW26123   2.751   5.616   1.377
 2994SOL    HW126124   2.707   5.693   1.413
 2994SOL    HW226125   2.711   5.542   1.423
 2995SOL     OW26126   0.069   3.080   0.126
 2995SOL    HW126127   0.078   3.050   0.036
 2995SOL    HW226128   0.158   3.076   0.162
 2996SOL     OW26129   3.901   0.194   6.600
 2996SOL    HW126130   3.986   0.166   6.633
 2996SOL    HW226131   3.904   0.176   6.506
 2997SOL     OW26132   1.666   6.219   0.537
 2997SOL    HW126133   1.605   6.231   0.609
 2997SOL    HW226134   1.749   6.194   0.578
 2998SOL     OW26135   4.490   0.488   1.259
 2998SOL    HW126136   4.443   0.556   1.211
 2998SOL    HW226137   4.515   0.530   1.341
 2999SOL     OW26138   1.944   5.213   0.643
 2999SOL    HW126139   1.945   5.164   0.561
 2999SOL    HW226140   1.949   5.305   0.617
 3000SOL     OW26141   5.874   4.612   2.533
 3000SOL    HW126142   5.797   4.616   2.477
 3000SOL    HW226143   5.936   4.557   2.485
 3001SOL     OW26144   5.489   5.832   7.755
 3001SOL    HW126145   5.494   5.802   7.664
 3001SOL    HW226146   5.446   5.918   7.750
 3002SOL     OW26147   4.428   2.116   5.294
 3002SOL    HW126148   4.375   2.066   5.232
 3002SOL    HW226149   4.365   2.170   5.342
 3003SOL     OW26150   0.598   6.319   6.627
 3003SOL    HW126151   0.560   6.238   6.663
 3003SOL    HW226152   0.525   6.360   6.579
 3004SOL     OW26153   0.067   1.643   5.957
 3004SOL    HW126154   0.159   1.647   5.928
 3004SOL    HW226155   0.071   1.605   6.045
 3005SOL     OW26156   1.710   4.267   0.123
 3005SOL    HW126157   1.781   4.210   0.093
 3005SOL    HW226158   1.662   4.215   0.187
 3006SOL     OW26159   6.196   2.133   6.603
 3006SOL    HW126160   6.278   2.165   6.565
 3006SOL    HW226161   6.198   2.162   6.694
 3007SOL     OW26162   5.054   0.588   1.530
 3007SOL    HW126163   4.989   0.554   1.468
 3007SOL    HW226164   5.131   0.534   1.515
 3008SOL     OW26165   4.256   2.763   6.272
 3008SOL    HW126166   4.198   2.839   6.264
 3008SOL    HW226167   4.234   2.725   6.357
 3009SOL     OW26168   1.896   4.061   0.044
 3009SOL    HW126169   1.839   3.990   0.017
 3009SOL    HW226170   1.981   4.041   0.005
 3010SOL     OW26171   1.816   5.773   6.759
 3010SOL    HW126172   1.835   5.680   6.770
 3010SOL    HW226173   1.902   5.813   6.746
 3011SOL     OW26174   4.753   0.833   7.136
 3011SOL    HW126175   4.838   0.841   7.092
 3011SOL    HW226176   4.702   0.906   7.102
 3012SOL     OW26177   4.122   4.605   0.886
 3012SOL    HW126178   4.077   4.662   0.950
 3012SOL    HW226179   4.051   4.573   0.830
 3013SOL     OW26180   3.129   5.752   7.406
 3013SOL    HW126181   3.223   5.753   7.427
 3013SOL    HW226182   3.123   5.794   7.320
 3014SOL     OW26183   3.183   5.509   7.512
 3014SOL    HW126184   3.190   5.531   7.605
 3014SOL    HW226185   3.188   5.594   7.468
 3015SOL     OW26186   0.669   0.388   2.785
 3015SOL    HW126187   0.643   0.297   2.790
 3015SOL    HW226188   0.754   0.386   2.741
 3016SOL     OW26189   6.005   3.969   6.417
 3016SOL    HW126190   6.043   4.022   6.346
 3016SOL    HW226191   5.926   3.931   6.379
 3017SOL     OW26192   1.059   5.260   1.835
 3017SOL    HW126193   1.084   5.168   1.826
 3017SOL    HW226194   1.057   5.293   1.745
 3018SOL     OW26195   1.179   1.545   6.898
 3018SOL    HW126196   1.181   1.451   6.917
 3018SOL    HW226197   1.099   1.576   6.939
 3019SOL     OW26198   3.027   1.673   0.125
 3019SOL    HW126199   3.121   1.688   0.137
 3019SOL    HW226200   3.000   1.738   0.061
 3020SOL     OW26201   1.572   0.317   1.137
 3020SOL    HW126202   1.656   0.284   1.169
 3020SOL    HW226203   1.528   0.350   1.216
 3021SOL     OW26204   2.764   0.116   7.567
 3021SOL    HW126205   2.737   0.029   7.597
 3021SOL    HW226206   2.686   0.153   7.525
 3022SOL     OW26207   4.208   5.817   5.618
 3022SOL    HW126208   4.163   5.861   5.690
 3022SOL    HW226209   4.138   5.770   5.572
 3023SOL     OW26210   2.178   2.502   0.292
 3023SOL    HW126211   2.092   2.474   0.262
 3023SOL    HW226212   2.236   2.478   0.220
 3024SOL     OW26213   1.858   0.413   6.512
 3024SOL    HW126214   1.811   0.496   6.526
 3024SOL    HW226215   1.879   0.413   6.419
 3025SOL     OW26216   3.636   4.307   1.467
 3025SOL    HW126217   3.663   4.335   1.555
 3025SOL    HW226218   3.565   4.367   1.444
 3026SOL     OW26219   0.350   5.333   0.896
 3026SOL    HW126220   0.331   5.411   0.949
 3026SOL    HW226221   0.442   5.312   0.916
 3027SOL     OW26222   5.376   5.904   6.860
 3027SOL    HW126223   5.313   5.951   6.806
 3027SOL    HW226224   5.458   5.952   6.848
 3028SOL     OW26225   6.149   6.056   6.283
 3028SOL    HW126226   6.226   6.112   6.281
 3028SOL    HW226227   6.168   5.985   6.221
 3029SOL     OW26228   1.901   5.072   7.317
 3029SOL    HW126229   1.922   5.122   7.238
 3029SOL    HW226230   1.887   4.983   7.284
 3030SOL     OW26231   1.065   3.997   6.392
 3030SOL    HW126232   1.119   3.927   6.356
 3030SOL    HW226233   1.115   4.077   6.375
 3031SOL     OW26234   0.988   0.379   6.722
 3031SOL    HW126235   1.049   0.415   6.657
 3031SOL    HW226236   1.011   0.424   6.804
 3032SOL     OW26237   0.446   4.965   7.200
 3032SOL    HW126238   0.387   4.996   7.269
 3032SOL    HW226239   0.459   4.872   7.219
 3033SOL     OW26240   4.372   1.332   1.615
 3033SOL    HW126241   4.378   1.265   1.683
 3033SOL    HW226242   4.426   1.298   1.544
 3034SOL     OW26243   6.278   6.250   7.028
 3034SOL    HW126244   6.272   6.163   6.989
 3034SOL    HW226245   6.367   6.279   7.010
 3035SOL     OW26246   5.395   4.647   1.405
 3035SOL    HW126247   5.422   4.737   1.386
 3035SOL    HW226248   5.477   4.598   1.410
 3036SOL     OW26249   0.494   2.735   1.061
 3036SOL    HW126250   0.458   2.709   0.976
 3036SOL    HW226251   0.418   2.736   1.120
 3037SOL     OW26252   3.257   5.286   0.105
 3037SOL    HW126253   3.323   5.294   0.173
 3037SOL    HW226254   3.239   5.192   0.099
 3038SOL     OW26255   1.328   1.097   0.617
 3038SOL    HW126256   1.365   1.072   0.533
 3038SOL    HW226257   1.340   1.019   0.673
 3039SOL     OW26258   4.209   4.530   7.611
 3039SOL    HW126259   4.244   4.618   7.626
 3039SOL    HW226260   4.126   4.529   7.658
 3040SOL     OW26261   6.414   3.233   0.514
 3040SOL    HW126262   6.344   3.201   0.571
 3040SOL    HW226263   6.380   3.314   0.477
 3041SOL     OW26264   0.020   5.843   1.420
 3041SOL    HW126265   0.062   5.910   1.367
 3041SOL    HW226266  -0.063   5.882   1.447
 3042SOL     OW26267   3.205   1.150   1.288
 3042SOL    HW126268   3.112   1.127   1.281
 3042SOL    HW226269   3.221   1.207   1.213
 3043SOL     OW26270   5.730   0.911   6.118
 3043SOL    HW126271   5.650   0.958   6.095
 3043SOL    HW226272   5.739   0.844   6.050
 3044SOL     OW26273   0.912   5.846   0.714
 3044SOL    HW126274   0.980   5.904   0.680
 3044SOL    HW226275   0.915   5.858   0.809
 3045SOL     OW26276   1.796   5.771   1.688
 3045SOL    HW126277   1.829   5.825   1.760
 3045SOL    HW226278   1.798   5.830   1.612
 3046SOL     OW26279   3.528   6.367   1.377
 3046SOL    HW126280   3.491   6.281   1.355
 3046SOL    HW226281   3.452   6.423   1.390
 3047SOL     OW26282   4.871   4.366   6.825
 3047SOL    HW126283   4.798   4.306   6.809
 3047SOL    HW226284   4.943   4.309   6.853
 3048SOL     OW26285   3.332   2.233   2.230
 3048SOL    HW126286   3.351   2.324   2.252
 3048SOL    HW226287   3.410   2.185   2.257
 3049SOL     OW26288   3.661   1.609   6.597
 3049SOL    HW126289   3.642   1.571   6.512
 3049SOL    HW226290   3.698   1.538   6.649
 3050SOL     OW26291   0.862   3.306   7.281
 3050SOL    HW126292   0.782   3.264   7.311
 3050SOL    HW226293   0.911   3.237   7.236
 3051SOL     OW26294   3.379   1.245   6.300
 3051SOL    HW126295   3.400   1.332   6.335
 3051SOL    HW226296   3.300   1.259   6.248
 3052SOL     OW26297   5.072   2.637   6.038
 3052SOL    HW126298   5.033   2.659   6.122
 3052SOL    HW226299   5.033   2.699   5.976
 3053SOL     OW26300   2.085   2.794   7.524
 3053SOL    HW126301   2.004   2.794   7.576
 3053SOL    HW226302   2.105   2.701   7.511
 3054SOL     OW26303   5.137   3.480   6.992
 3054SOL    HW126304   5.064   3.420   6.976
 3054SOL    HW226305   5.191   3.436   7.056
 3055SOL     OW26306   3.913   1.756   5.174
 3055SOL    HW126307   3.922   1.685   5.110
 3055SOL    HW226308   3.849   1.722   5.238
 3056SOL     OW26309   5.854   5.629   7.612
 3056SOL    HW126310   5.778   5.626   7.670
 3056SOL    HW226311   5.927   5.598   7.667
 3057SOL     OW26312   0.912   2.620   1.470
 3057SOL    HW126313   0.947   2.588   1.387
 3057SOL    HW226314   0.940   2.711   1.475
 3058SOL     OW26315   0.005   2.482   7.190
 3058SOL    HW126316  -0.039   2.472   7.275
 3058SOL    HW226317  -0.007   2.397   7.147
 3059SOL     OW26318   5.466   3.438   7.445
 3059SOL    HW126319   5.547   3.425   7.396
 3059SOL    HW226320   5.486   3.510   7.505
 3060SOL     OW26321   6.199   5.680   7.226
 3060SOL    HW126322   6.236   5.615   7.166
 3060SOL    HW226323   6.121   5.637   7.263
 3061SOL     OW26324   4.610   4.096   6.616
 3061SOL    HW126325   4.589   4.155   6.543
 3061SOL    HW226326   4.706   4.098   6.621
 3062SOL     OW26327   2.350   0.364   1.505
 3062SOL    HW126328   2.264   0.350   1.465
 3062SOL    HW226329   2.373   0.278   1.541
 3063SOL     OW26330   0.418   3.398   2.111
 3063SOL    HW126331   0.343   3.445   2.076
 3063SOL    HW226332   0.459   3.458   2.172
 3064SOL     OW26333   0.382   4.973   5.920
 3064SOL    HW126334   0.444   5.034   5.881
 3064SOL    HW226335   0.427   4.888   5.918
 3065SOL     OW26336   0.811   4.989   0.464
 3065SOL    HW126337   0.835   5.076   0.432
 3065SOL    HW226338   0.719   4.997   0.490
 3066SOL     OW26339   1.167   3.906   7.682
 3066SOL    HW126340   1.106   3.833   7.692
 3066SOL    HW226341   1.146   3.964   7.755
 3067SOL     OW26342   1.853   6.087   7.240
 3067SOL    HW126343   1.807   6.158   7.194
 3067SOL    HW226344   1.863   6.018   7.173
 3068SOL     OW26345   5.340   1.551   0.125
 3068SOL    HW126346   5.303   1.486   0.066
 3068SOL    HW226347   5.307   1.527   0.211
 3069SOL     OW26348   3.476   6.114   7.560
 3069SOL    HW126349   3.448   6.056   7.630
 3069SOL    HW226350   3.410   6.103   7.491
 3070SOL     OW26351   5.830   0.679   5.669
 3070SOL    HW126352   5.757   0.682   5.607
 3070SOL    HW226353   5.884   0.606   5.639
 3071SOL     OW26354   1.799   1.163   1.482
 3071SOL    HW126355   1.706   1.184   1.478
 3071SOL    HW226356   1.837   1.235   1.532
 3072SOL     OW26357   0.162   1.931   0.045
 3072SOL    HW126358   0.130   1.998  -0.016
 3072SOL    HW226359   0.243   1.899   0.007
 3073SOL     OW26360   0.783   2.745   5.831
 3073SOL    HW126361   0.690   2.750   5.810
 3073SOL    HW226362   0.820   2.691   5.761
 3074SOL     OW26363   1.240   5.028   5.945
 3074SOL    HW126364   1.178   5.030   6.018
 3074SOL    HW226365   1.190   5.062   5.871
 3075SOL     OW26366   2.699   0.442   0.101
 3075SOL    HW126367   2.648   0.475   0.027
 3075SOL    HW226368   2.636   0.436   0.173
 3076SOL     OW26369   3.216   2.669   6.923
 3076SOL    HW126370   3.306   2.635   6.922
 3076SOL    HW226371   3.182   2.650   6.836
 3077SOL     OW26372   5.838   2.069   5.554
 3077SOL    HW126373   5.912   2.019   5.588
 3077SOL    HW226374   5.765   2.008   5.555
 3078SOL     OW26375   2.588   1.672   6.610
 3078SOL    HW126376   2.524   1.636   6.549
 3078SOL    HW226377   2.569   1.629   6.694
 3079SOL     OW26378   5.674   3.996   7.768
 3079SOL    HW126379   5.623   3.960   7.696
 3079SOL    HW226380   5.765   3.983   7.742
 3080SOL     OW26381   1.220   2.814   1.271
 3080SOL    HW126382   1.267   2.733   1.291
 3080SOL    HW226383   1.279   2.864   1.214
 3081SOL     OW26384   6.232   1.562   1.532
 3081SOL    HW126385   6.256   1.643   1.487
 3081SOL    HW226386   6.310   1.538   1.582
 3082SOL     OW26387   6.324   0.462   5.752
 3082SOL    HW126388   6.317   0.393   5.817
 3082SOL    HW226389   6.418   0.481   5.747
 3083SOL     OW26390   4.057   5.604   7.406
 3083SOL    HW126391   4.073   5.697   7.421
 3083SOL    HW226392   4.115   5.581   7.334
 3084SOL     OW26393   6.197   0.507   1.074
 3084SOL    HW126394   6.257   0.566   1.117
 3084SOL    HW226395   6.151   0.561   1.010
 3085SOL     OW26396   4.681   2.581   6.036
 3085SOL    HW126397   4.741   2.614   5.970
 3085SOL    HW226398   4.646   2.660   6.078
 3086SOL     OW26399   3.333   2.830   5.895
 3086SOL    HW126400   3.264   2.789   5.946
 3086SOL    HW226401   3.393   2.759   5.874
 3087SOL     OW26402   4.640   1.685   5.416
 3087SOL    HW126403   4.657   1.635   5.496
 3087SOL    HW226404   4.562   1.644   5.379
 3088SOL     OW26405   3.886   3.219   6.748
 3088SOL    HW126406   3.807   3.175   6.779
 3088SOL    HW226407   3.919   3.164   6.677
 3089SOL     OW26408   5.047   6.420   1.692
 3089SOL    HW126409   4.992   6.494   1.667
 3089SOL    HW226410   5.002   6.343   1.658
 3090SOL     OW26411   5.766   3.035   7.130
 3090SOL    HW126412   5.735   2.997   7.212
 3090SOL    HW226413   5.802   2.960   7.082
 3091SOL     OW26414   3.232   6.096   6.082
 3091SOL    HW126415   3.218   6.063   5.993
 3091SOL    HW226416   3.287   6.173   6.070
 3092SOL     OW26417   2.777   1.228   2.126
 3092SOL    HW126418   2.853   1.182   2.161
 3092SOL    HW226419   2.704   1.168   2.142
 3093SOL     OW26420   4.927   0.229   6.952
 3093SOL    HW126421   4.991   0.164   6.922
 3093SOL    HW226422   4.902   0.200   7.040
 3094SOL     OW26423   3.605   5.797   0.956
 3094SOL    HW126424   3.674   5.846   1.001
 3094SOL    HW226425   3.525   5.846   0.975
 3095SOL     OW26426   5.563   2.555   1.060
 3095SOL    HW126427   5.561   2.601   0.976
 3095SOL    HW226428   5.656   2.536   1.075
 3096SOL     OW26429   4.822   0.179   1.632
 3096SOL    HW126430   4.831   0.271   1.656
 3096SOL    HW226431   4.737   0.153   1.666
 3097SOL     OW26432   2.266   1.339   6.770
 3097SOL    HW126433   2.206   1.373   6.704
 3097SOL    HW226434   2.239   1.381   6.851
 3098SOL     OW26435   2.625   4.806   1.378
 3098SOL    HW126436   2.713   4.819   1.415
 3098SOL    HW226437   2.566   4.831   1.449
 3099SOL     OW26438   4.975   5.079   5.686
 3099SOL    HW126439   5.038   5.139   5.647
 3099SOL    HW226440   5.024   4.998   5.700
 3100SOL     OW26441   1.009   0.842   1.558
 3100SOL    HW126442   1.026   0.859   1.466
 3100SOL    HW226443   0.952   0.765   1.559
 3101SOL     OW26444   1.197   5.180   6.300
 3101SOL    HW126445   1.249   5.259   6.287
 3101SOL    HW226446   1.138   5.178   6.225
 3102SOL     OW26447   5.339   0.607   7.181
 3102SOL    HW126448   5.424   0.573   7.153
 3102SOL    HW226449   5.280   0.588   7.108
 3103SOL     OW26450   4.869   1.778   0.392
 3103SOL    HW126451   4.817   1.858   0.396
 3103SOL    HW226452   4.839   1.734   0.312
 3104SOL     OW26453   0.825   6.100   0.812
 3104SOL    HW126454   0.828   6.026   0.872
 3104SOL    HW226455   0.874   6.071   0.734
 3105SOL     OW26456   1.725   1.990   5.912
 3105SOL    HW126457   1.816   1.970   5.893
 3105SOL    HW226458   1.687   1.906   5.940
 3106SOL     OW26459   2.734   1.924   0.321
 3106SOL    HW126460   2.759   1.831   0.327
 3106SOL    HW226461   2.809   1.971   0.357
 3107SOL     OW26462   1.570   5.130   0.829
 3107SOL    HW126463   1.603   5.217   0.806
 3107SOL    HW226464   1.620   5.070   0.774
 3108SOL     OW26465   2.156   0.986   7.188
 3108SOL    HW126466   2.213   0.940   7.127
 3108SOL    HW226467   2.113   1.053   7.134
 3109SOL     OW26468   0.884   6.170   7.737
 3109SOL    HW126469   0.865   6.080   7.765
 3109SOL    HW226470   0.945   6.203   7.802
 3110SOL     OW26471   0.501   5.718   0.186
 3110SOL    HW126472   0.476   5.628   0.206
 3110SOL    HW226473   0.587   5.728   0.226
 3111SOL     OW26474   2.081   4.931   7.782
 3111SOL    HW126475   2.018   4.980   7.729
 3111SOL    HW226476   2.121   4.869   7.722
 3112SOL     OW26477   1.167   3.696   0.364
 3112SOL    HW126478   1.112   3.687   0.441
 3112SOL    HW226479   1.142   3.623   0.307
 3113SOL     OW26480   0.198   5.174   7.120
 3113SOL    HW126481   0.218   5.128   7.038
 3113SOL    HW226482   0.129   5.236   7.096
 3114SOL     OW26483   3.738   4.649   7.640
 3114SOL    HW126484   3.805   4.717   7.639
 3114SOL    HW226485   3.785   4.568   7.621
 3115SOL     OW26486   1.474   5.842   7.624
 3115SOL    HW126487   1.521   5.903   7.681
 3115SOL    HW226488   1.544   5.795   7.578
 3116SOL     OW26489   2.666   3.806   1.295
 3116SOL    HW126490   2.660   3.851   1.210
 3116SOL    HW226491   2.691   3.717   1.272
 3117SOL     OW26492   1.739   0.608   0.249
 3117SOL    HW126493   1.696   0.629   0.166
 3117SOL    HW226494   1.757   0.514   0.244
 3118SOL     OW26495   5.660   3.554   6.265
 3118SOL    HW126496   5.660   3.462   6.237
 3118SOL    HW226497   5.751   3.582   6.253
 3119SOL     OW26498   3.941   1.793   7.715
 3119SOL    HW126499   3.953   1.839   7.798
 3119SOL    HW226500   3.943   1.861   7.648
 3120SOL     OW26501   0.547   5.190   7.361
 3120SOL    HW126502   0.475   5.156   7.415
 3120SOL    HW226503   0.503   5.232   7.287
 3121SOL     OW26504   1.883   5.848   6.050
 3121SOL    HW126505   1.895   5.856   5.955
 3121SOL    HW226506   1.953   5.901   6.087
 3122SOL     OW26507   4.345   3.716   0.844
 3122SOL    HW126508   4.378   3.705   0.933
 3122SOL    HW226509   4.262   3.763   0.855
 3123SOL     OW26510   4.797   1.203   6.265
 3123SOL    HW126511   4.832   1.169   6.347
 3123SOL    HW226512   4.832   1.144   6.198
 3124SOL     OW26513   4.362   0.131   0.049
 3124SOL    HW126514   4.360   0.108  -0.044
 3124SOL    HW226515   4.348   0.225   0.051
 3125SOL     OW26516   4.275   4.470   2.173
 3125SOL    HW126517   4.265   4.381   2.140
 3125SOL    HW226518   4.366   4.493   2.153
 3126SOL     OW26519   4.455   2.042   0.894
 3126SOL    HW126520   4.506   1.988   0.834
 3126SOL    HW226521   4.472   2.006   0.981
 3127SOL     OW26522   5.933   1.662   0.565
 3127SOL    HW126523   5.883   1.699   0.493
 3127SOL    HW226524   5.943   1.734   0.628
 3128SOL     OW26525   2.095   0.562   5.578
 3128SOL    HW126526   2.185   0.583   5.598
 3128SOL    HW226527   2.054   0.646   5.560
 3129SOL     OW26528   3.152   5.040   1.524
 3129SOL    HW126529   3.130   4.948   1.538
 3129SOL    HW226530   3.221   5.057   1.588
 3130SOL     OW26531   1.231   0.026   7.410
 3130SOL    HW126532   1.227  -0.050   7.468
 3130SOL    HW226533   1.271  -0.008   7.330
 3131SOL     OW26534   2.099   3.118   6.056
 3131SOL    HW126535   2.046   3.049   6.096
 3131SOL    HW226536   2.188   3.098   6.085
 3132SOL     OW26537   4.743   6.077   0.687
 3132SOL    HW126538   4.834   6.083   0.658
 3132SOL    HW226539   4.706   6.004   0.636
 3133SOL     OW26540   5.783   0.403   5.825
 3133SOL    HW126541   5.872   0.406   5.791
 3133SOL    HW226542   5.788   0.344   5.900
 3134SOL     OW26543   5.279   3.663   7.608
 3134SOL    HW126544   5.260   3.611   7.686
 3134SOL    HW226545   5.332   3.736   7.641
 3135SOL     OW26546   5.842   0.760   1.479
 3135SOL    HW126547   5.850   0.767   1.574
 3135SOL    HW226548   5.807   0.845   1.452
 3136SOL     OW26549   1.003   3.080   0.554
 3136SOL    HW126550   1.064   3.035   0.496
 3136SOL    HW226551   0.969   3.012   0.612
 3137SOL     OW26552   6.069   6.209   1.682
 3137SOL    HW126553   6.071   6.195   1.776
 3137SOL    HW226554   6.012   6.140   1.648
 3138SOL     OW26555   0.823   5.965   6.063
 3138SOL    HW126556   0.796   6.035   6.122
 3138SOL    HW226557   0.915   5.950   6.082
 3139SOL     OW26558   2.389   5.238   0.537
 3139SOL    HW126559   2.480   5.257   0.558
 3139SOL    HW226560   2.354   5.321   0.505
 3140SOL     OW26561   5.192   6.075   6.760
 3140SOL    HW126562   5.154   6.013   6.697
 3140SOL    HW226563   5.215   6.152   6.707
 3141SOL     OW26564   4.442   5.755   7.088
 3141SOL    HW126565   4.355   5.779   7.120
 3141SOL    HW226566   4.442   5.659   7.090
 3142SOL     OW26567   2.217   1.045   0.907
 3142SOL    HW126568   2.300   0.998   0.892
 3142SOL    HW226569   2.153   0.993   0.859
 3143SOL     OW26570   0.837   2.300   1.055
 3143SOL    HW126571   0.803   2.377   1.010
 3143SOL    HW226572   0.911   2.333   1.107
 3144SOL     OW26573   2.373   0.496   7.551
 3144SOL    HW126574   2.463   0.485   7.582
 3144SOL    HW226575   2.335   0.561   7.611
 3145SOL     OW26576   4.075   4.757   0.147
 3145SOL    HW126577   4.127   4.806   0.211
 3145SOL    HW226578   3.987   4.756   0.185
 3146SOL     OW26579   1.057   5.239   7.248
 3146SOL    HW126580   0.965   5.248   7.273
 3146SOL    HW226581   1.095   5.182   7.315
 3147SOL     OW26582   3.994   1.044   1.169
 3147SOL    HW126583   4.014   1.129   1.208
 3147SOL    HW226584   4.077   1.016   1.129
 3148SOL     OW26585   1.127   1.414   0.269
 3148SOL    HW126586   1.036   1.406   0.295
 3148SOL    HW226587   1.132   1.497   0.222
 3149SOL     OW26588   6.248   4.558   7.769
 3149SOL    HW126589   6.203   4.478   7.741
 3149SOL    HW226590   6.187   4.600   7.830
 3150SOL     OW26591   0.670   5.834   7.033
 3150SOL    HW126592   0.686   5.917   7.079
 3150SOL    HW226593   0.657   5.770   7.104
 3151SOL     OW26594   5.257   1.184   0.559
 3151SOL    HW126595   5.280   1.163   0.650
 3151SOL    HW226596   5.233   1.277   0.561
 3152SOL     OW26597   3.285   6.327   0.463
 3152SOL    HW126598   3.202   6.371   0.479
 3152SOL    HW226599   3.338   6.392   0.416
 3153SOL     OW26600   3.739   4.490   1.183
 3153SOL    HW126601   3.800   4.563   1.191
 3153SOL    HW226602   3.675   4.506   1.253
 3154SOL     OW26603   4.868   5.823   0.410
 3154SOL    HW126604   4.856   5.730   0.432
 3154SOL    HW226605   4.953   5.846   0.447
 3155SOL     OW26606   5.411   1.193   7.761
 3155SOL    HW126607   5.399   1.109   7.805
 3155SOL    HW226608   5.488   1.231   7.803
 3156SOL     OW26609   5.589   4.573   6.479
 3156SOL    HW126610   5.527   4.533   6.539
 3156SOL    HW226611   5.553   4.555   6.392
 3157SOL     OW26612   3.381   5.730   7.521
 3157SOL    HW126613   3.476   5.715   7.529
 3157SOL    HW226614   3.361   5.792   7.591
 3158SOL     OW26615   5.106   5.598   2.470
 3158SOL    HW126616   5.055   5.532   2.422
 3158SOL    HW226617   5.159   5.641   2.403
 3159SOL     OW26618   5.661   1.199   6.689
 3159SOL    HW126619   5.711   1.280   6.686
 3159SOL    HW226620   5.651   1.181   6.783
 3160SOL     OW26621   0.755   5.705   0.324
 3160SOL    HW126622   0.794   5.637   0.379
 3160SOL    HW226623   0.771   5.786   0.371
 3161SOL     OW26624   0.173   5.011   0.672
 3161SOL    HW126625   0.224   5.035   0.749
 3161SOL    HW226626   0.129   4.930   0.695
 3162SOL     OW26627   5.154   1.882   1.232
 3162SOL    HW126628   5.241   1.870   1.193
 3162SOL    HW226629   5.116   1.954   1.183
 3163SOL     OW26630   3.499   0.263   7.482
 3163SOL    HW126631   3.503   0.355   7.456
 3163SOL    HW226632   3.502   0.265   7.578
 3164SOL     OW26633   5.822   1.812   6.246
 3164SOL    HW126634   5.850   1.849   6.162
 3164SOL    HW226635   5.891   1.752   6.270
 3165SOL     OW26636   5.208   4.109   7.473
 3165SOL    HW126637   5.150   4.035   7.457
 3165SOL    HW226638   5.179   4.177   7.413
 3166SOL     OW26639   0.070   1.123   7.459
 3166SOL    HW126640   0.060   1.056   7.391
 3166SOL    HW226641   0.107   1.076   7.534
 3167SOL     OW26642   2.264   5.053   6.825
 3167SOL    HW126643   2.239   5.133   6.779
 3167SOL    HW226644   2.359   5.050   6.818
 3168SOL     OW26645   1.510   5.620   6.712
 3168SOL    HW126646   1.519   5.630   6.617
 3168SOL    HW226647   1.541   5.531   6.729
 3169SOL     OW26648   5.435   2.958   0.003
 3169SOL    HW126649   5.453   3.038   0.052
 3169SOL    HW226650   5.407   2.895   0.069
 3170SOL     OW26651   1.740   5.628   6.041
 3170SOL    HW126652   1.717   5.628   5.948
 3170SOL    HW226653   1.762   5.719   6.060
 3171SOL     OW26654   1.373   5.631   7.765
 3171SOL    HW126655   1.411   5.693   7.703
 3171SOL    HW226656   1.420   5.648   7.847
 3172SOL     OW26657   3.052   2.819   6.437
 3172SOL    HW126658   3.054   2.793   6.345
 3172SOL    HW226659   2.995   2.896   6.439
 3173SOL     OW26660   0.141   0.529   5.737
 3173SOL    HW126661   0.138   0.593   5.808
 3173SOL    HW226662   0.225   0.485   5.747
 3174SOL     OW26663   2.898   3.501   1.971
 3174SOL    HW126664   2.966   3.472   1.910
 3174SOL    HW226665   2.831   3.434   1.966
 3175SOL     OW26666   5.060   0.644   0.191
 3175SOL    HW126667   5.061   0.548   0.194
 3175SOL    HW226668   4.971   0.667   0.166
 3176SOL     OW26669   2.555   1.325   6.839
 3176SOL    HW126670   2.460   1.315   6.835
 3176SOL    HW226671   2.568   1.416   6.865
 3177SOL     OW26672   5.296   1.812   0.704
 3177SOL    HW126673   5.218   1.787   0.653
 3177SOL    HW226674   5.363   1.749   0.678
 3178SOL     OW26675   3.598   5.100   0.824
 3178SOL    HW126676   3.508   5.070   0.818
 3178SOL    HW226677   3.593   5.184   0.869
 3179SOL     OW26678   3.500   5.407   0.760
 3179SOL    HW126679   3.547   5.487   0.736
 3179SOL    HW226680   3.480   5.365   0.677
 3180SOL     OW26681   5.577   2.261   7.118
 3180SOL    HW126682   5.521   2.204   7.066
 3180SOL    HW226683   5.581   2.219   7.204
 3181SOL     OW26684   4.117   3.520   6.595
 3181SOL    HW126685   4.113   3.579   6.670
 3181SOL    HW226686   4.028   3.520   6.559
 3182SOL     OW26687   5.998   5.643   5.803
 3182SOL    HW126688   5.955   5.644   5.889
 3182SOL    HW226689   5.954   5.573   5.755
 3183SOL     OW26690   0.501   3.730   0.546
 3183SOL    HW126691   0.499   3.814   0.500
 3183SOL    HW226692   0.592   3.720   0.574
 3184SOL     OW26693   0.759   1.764   7.482
 3184SOL    HW126694   0.807   1.847   7.488
 3184SOL    HW226695   0.686   1.783   7.424
 3185SOL     OW26696   0.475   2.209   0.500
 3185SOL    HW126697   0.422   2.132   0.523
 3185SOL    HW226698   0.560   2.173   0.477
 3186SOL     OW26699   0.960   0.814   7.508
 3186SOL    HW126700   0.879   0.865   7.509
 3186SOL    HW226701   0.948   0.749   7.577
 3187SOL     OW26702   5.336   5.175   1.650
 3187SOL    HW126703   5.370   5.261   1.673
 3187SOL    HW226704   5.319   5.180   1.556
 3188SOL     OW26705   1.646   3.446   1.702
 3188SOL    HW126706   1.679   3.516   1.757
 3188SOL    HW226707   1.615   3.380   1.764
 3189SOL     OW26708   1.426   3.865   0.618
 3189SOL    HW126709   1.390   3.789   0.571
 3189SOL    HW226710   1.368   3.937   0.594
 3190SOL     OW26711   3.358   2.478   6.353
 3190SOL    HW126712   3.297   2.440   6.289
 3190SOL    HW226713   3.396   2.554   6.308
 3191SOL     OW26714   5.691   0.746   0.893
 3191SOL    HW126715   5.684   0.651   0.877
 3191SOL    HW226716   5.785   0.763   0.893
 3192SOL     OW26717   2.424   6.420   1.855
 3192SOL    HW126718   2.395   6.336   1.889
 3192SOL    HW226719   2.520   6.415   1.854
 3193SOL     OW26720   1.151   2.292   1.184
 3193SOL    HW126721   1.232   2.299   1.134
 3193SOL    HW226722   1.168   2.224   1.249
 3194SOL     OW26723   3.711   0.208   1.822
 3194SOL    HW126724   3.706   0.302   1.838
 3194SOL    HW226725   3.621   0.182   1.803
 3195SOL     OW26726   2.939   2.064   0.044
 3195SOL    HW126727   2.922   2.089   0.134
 3195SOL    HW226728   2.932   2.145  -0.006
 3196SOL     OW26729   5.177   4.533   1.540
 3196SOL    HW126730   5.254   4.579   1.508
 3196SOL    HW226731   5.124   4.601   1.582
 3197SOL     OW26732   1.199   2.342   0.787
 3197SOL    HW126733   1.230   2.404   0.852
 3197SOL    HW226734   1.165   2.269   0.838
 3198SOL     OW26735   2.619   2.135   0.405
 3198SOL    HW126736   2.659   2.052   0.379
 3198SOL    HW226737   2.548   2.110   0.465
 3199SOL     OW26738   1.543   3.394   0.215
 3199SOL    HW126739   1.525   3.483   0.186
 3199SOL    HW226740   1.635   3.381   0.192
 3200SOL     OW26741   0.332   2.226   7.617
 3200SOL    HW126742   0.334   2.230   7.713
 3200SOL    HW226743   0.266   2.161   7.597
 3201SOL     OW26744   5.518   1.421   6.894
 3201SOL    HW126745   5.569   1.347   6.928
 3201SOL    HW226746   5.437   1.382   6.862
 3202SOL     OW26747   2.347   4.364   7.508
 3202SOL    HW126748   2.438   4.336   7.497
 3202SOL    HW226749   2.343   4.402   7.595
 3203SOL     OW26750   1.250   0.284   0.371
 3203SOL    HW126751   1.296   0.201   0.384
 3203SOL    HW226752   1.320   0.348   0.360
 3204SOL     OW26753   2.583   3.706   0.934
 3204SOL    HW126754   2.533   3.761   0.873
 3204SOL    HW226755   2.606   3.629   0.882
 3205SOL     OW26756   0.130   5.427   1.883
 3205SOL    HW126757   0.147   5.352   1.826
 3205SOL    HW226758   0.139   5.392   1.972
 3206SOL     OW26759   4.695   0.958   1.586
 3206SOL    HW126760   4.750   0.888   1.621
 3206SOL    HW226761   4.755   1.032   1.576
 3207SOL     OW26762   6.239   2.110   6.270
 3207SOL    HW126763   6.174   2.051   6.308
 3207SOL    HW226764   6.286   2.056   6.207
 3208SOL     OW26765   5.239   1.414   7.691
 3208SOL    HW126766   5.264   1.327   7.721
 3208SOL    HW226767   5.272   1.419   7.601
 3209SOL     OW26768   0.675   2.455   1.393
 3209SOL    HW126769   0.751   2.496   1.435
 3209SOL    HW226770   0.703   2.365   1.375
 3210SOL     OW26771   4.602   4.661   1.688
 3210SOL    HW126772   4.567   4.599   1.751
 3210SOL    HW226773   4.645   4.607   1.622
 3211SOL     OW26774   1.383   2.926   2.071
 3211SOL    HW126775   1.465   2.901   2.028
 3211SOL    HW226776   1.319   2.929   1.999
 3212SOL     OW26777   2.087   6.398   2.075
 3212SOL    HW126778   2.043   6.332   2.021
 3212SOL    HW226779   2.075   6.368   2.165
 3213SOL     OW26780   5.836   3.710   0.823
 3213SOL    HW126781   5.892   3.772   0.775
 3213SOL    HW226782   5.811   3.645   0.757
 3214SOL     OW26783   3.738   2.874   6.335
 3214SOL    HW126784   3.699   2.913   6.256
 3214SOL    HW226785   3.693   2.918   6.408
 3215SOL     OW26786   3.785   6.312   0.977
 3215SOL    HW126787   3.782   6.387   1.037
 3215SOL    HW226788   3.826   6.347   0.898
 3216SOL     OW26789   1.660   3.577   6.048
 3216SOL    HW126790   1.654   3.494   6.001
 3216SOL    HW226791   1.650   3.644   5.980
 3217SOL     OW26792   3.612   2.245   2.131
 3217SOL    HW126793   3.686   2.190   2.157
 3217SOL    HW226794   3.605   2.233   2.037
 3218SOL     OW26795   1.773   6.402   7.378
 3218SOL    HW126796   1.859   6.386   7.338
 3218SOL    HW226797   1.724   6.449   7.310
 3219SOL     OW26798   1.172   0.078   5.592
 3219SOL    HW126799   1.226   0.156   5.580
 3219SOL    HW226800   1.097   0.091   5.534
 3220SOL     OW26801   3.787   5.716   0.060
 3220SOL    HW126802   3.849   5.713   0.133
 3220SOL    HW226803   3.826   5.659  -0.007
 3221SOL     OW26804   6.291   1.664   0.596
 3221SOL    HW126805   6.307   1.681   0.503
 3221SOL    HW226806   6.235   1.736   0.625
 3222SOL     OW26807   6.073   1.221   7.314
 3222SOL    HW126808   6.156   1.210   7.269
 3222SOL    HW226809   6.093   1.204   7.406
 3223SOL     OW26810   4.349   5.693   1.408
 3223SOL    HW126811   4.260   5.712   1.377
 3223SOL    HW226812   4.342   5.609   1.453
 3224SOL     OW26813   0.497   1.997   6.373
 3224SOL    HW126814   0.527   2.027   6.287
 3224SOL    HW226815   0.448   1.917   6.355
 3225SOL     OW26816   0.664   4.605   0.504
 3225SOL    HW126817   0.675   4.514   0.475
 3225SOL    HW226818   0.752   4.634   0.525
 3226SOL     OW26819   6.035   1.415   1.884
 3226SOL    HW126820   6.126   1.387   1.883
 3226SOL    HW226821   6.023   1.454   1.971
 3227SOL     OW26822   0.099   5.226   0.487
 3227SOL    HW126823   0.186   5.266   0.500
 3227SOL    HW226824   0.098   5.151   0.547
 3228SOL     OW26825   3.630   4.225   0.488
 3228SOL    HW126826   3.724   4.233   0.476
 3228SOL    HW226827   3.592   4.274   0.415
 3229SOL     OW26828   2.416   0.195   7.709
 3229SOL    HW126829   2.348   0.128   7.701
 3229SOL    HW226830   2.455   0.200   7.622
 3230SOL     OW26831   6.423   5.247   6.459
 3230SOL    HW126832   6.452   5.158   6.477
 3230SOL    HW226833   6.336   5.237   6.419
 3231SOL     OW26834   1.757   3.674   1.207
 3231SOL    HW126835   1.786   3.613   1.274
 3231SOL    HW226836   1.826   3.671   1.140
 3232SOL     OW26837   4.150   4.605   7.217
 3232SOL    HW126838   4.090   4.584   7.146
 3232SOL    HW226839   4.153   4.526   7.271
 3233SOL     OW26840   3.174   0.564   0.579
 3233SOL    HW126841   3.170   0.602   0.667
 3233SOL    HW226842   3.264   0.536   0.568
 3234SOL     OW26843   5.121   1.112   0.328
 3234SOL    HW126844   5.093   1.021   0.333
 3234SOL    HW226845   5.151   1.133   0.417
 3235SOL     OW26846   4.782   5.884   7.624
 3235SOL    HW126847   4.738   5.967   7.609
 3235SOL    HW226848   4.812   5.888   7.715
 3236SOL     OW26849   1.463   2.395   6.566
 3236SOL    HW126850   1.394   2.387   6.500
 3236SOL    HW226851   1.542   2.365   6.521
 3237SOL     OW26852   3.166   4.170   7.467
 3237SOL    HW126853   3.168   4.205   7.378
 3237SOL    HW226854   3.106   4.096   7.462
 3238SOL     OW26855   6.227   3.720   7.363
 3238SOL    HW126856   6.237   3.627   7.341
 3238SOL    HW226857   6.284   3.765   7.301
 3239SOL     OW26858   1.366   3.247   0.353
 3239SOL    HW126859   1.403   3.236   0.440
 3239SOL    HW226860   1.419   3.315   0.312
 3240SOL     OW26861   2.897   3.329   5.761
 3240SOL    HW126862   2.861   3.256   5.710
 3240SOL    HW226863   2.837   3.338   5.835
 3241SOL     OW26864   5.466   4.563   6.220
 3241SOL    HW126865   5.533   4.570   6.152
 3241SOL    HW226866   5.413   4.642   6.211
 3242SOL     OW26867   1.199   3.842   0.876
 3242SOL    HW126868   1.163   3.755   0.857
 3242SOL    HW226869   1.183   3.854   0.970
 3243SOL     OW26870   3.292   2.261   7.034
 3243SOL    HW126871   3.325   2.259   7.124
 3243SOL    HW226872   3.205   2.221   7.040
 3244SOL     OW26873   2.669   3.940   1.034
 3244SOL    HW126874   2.655   3.853   0.994
 3244SOL    HW226875   2.649   4.001   0.963
 3245SOL     OW26876   3.867   5.649   7.198
 3245SOL    HW126877   3.813   5.727   7.211
 3245SOL    HW226878   3.910   5.636   7.283
 3246SOL     OW26879   3.400   5.807   6.942
 3246SOL    HW126880   3.432   5.818   7.031
 3246SOL    HW226881   3.383   5.896   6.911
 3247SOL     OW26882   1.732   3.463   7.160
 3247SOL    HW126883   1.726   3.404   7.085
 3247SOL    HW226884   1.667   3.431   7.222
 3248SOL     OW26885   0.371   3.717   1.586
 3248SOL    HW126886   0.434   3.695   1.517
 3248SOL    HW226887   0.422   3.710   1.667
 3249SOL     OW26888   0.560   1.117   6.532
 3249SOL    HW126889   0.636   1.072   6.570
 3249SOL    HW226890   0.576   1.210   6.548
 3250SOL     OW26891   2.417   2.842   5.831
 3250SOL    HW126892   2.427   2.912   5.766
 3250SOL    HW226893   2.486   2.780   5.809
 3251SOL     OW26894   4.337   0.757   7.304
 3251SOL    HW126895   4.247   0.729   7.320
 3251SOL    HW226896   4.332   0.853   7.306
 3252SOL     OW26897   3.927   2.812   6.543
 3252SOL    HW126898   3.858   2.810   6.478
 3252SOL    HW226899   3.947   2.720   6.559
 3253SOL     OW26900   2.839   0.978   7.668
 3253SOL    HW126901   2.900   1.005   7.736
 3253SOL    HW226902   2.815   1.059   7.623
 3254SOL     OW26903   1.163   5.496   6.865
 3254SOL    HW126904   1.086   5.440   6.853
 3254SOL    HW226905   1.233   5.436   6.887
 3255SOL     OW26906   2.314   5.514   0.396
 3255SOL    HW126907   2.369   5.502   0.319
 3255SOL    HW226908   2.349   5.592   0.439
 3256SOL     OW26909   1.978   2.611   0.051
 3256SOL    HW126910   1.994   2.536   0.108
 3256SOL    HW226911   1.889   2.640   0.072
 3257SOL     OW26912   4.774   2.467   2.078
 3257SOL    HW126913   4.801   2.400   2.141
 3257SOL    HW226914   4.855   2.496   2.037
 3258SOL     OW26915   4.802   5.061   5.898
 3258SOL    HW126916   4.766   5.143   5.932
 3258SOL    HW226917   4.852   5.087   5.821
 3259SOL     OW26918   0.468   5.479   0.296
 3259SOL    HW126919   0.472   5.502   0.389
 3259SOL    HW226920   0.538   5.416   0.283
 3260SOL     OW26921   1.561   1.261   7.585
 3260SOL    HW126922   1.480   1.246   7.633
 3260SOL    HW226923   1.556   1.202   7.510
 3261SOL     OW26924   6.421   3.180   1.428
 3261SOL    HW126925   6.351   3.120   1.454
 3261SOL    HW226926   6.452   3.145   1.344
 3262SOL     OW26927   1.893   1.827   7.073
 3262SOL    HW126928   1.960   1.821   7.141
 3262SOL    HW226929   1.893   1.740   7.032
 3263SOL     OW26930   4.147   4.894   2.318
 3263SOL    HW126931   4.181   4.867   2.404
 3263SOL    HW226932   4.165   4.819   2.261
 3264SOL     OW26933   5.030   2.794   6.705
 3264SOL    HW126934   5.107   2.743   6.731
 3264SOL    HW226935   4.970   2.730   6.668
 3265SOL     OW26936   2.933   3.747   1.189
 3265SOL    HW126937   2.945   3.833   1.231
 3265SOL    HW226938   2.952   3.763   1.097
 3266SOL     OW26939   2.847   2.232   0.695
 3266SOL    HW126940   2.845   2.292   0.620
 3266SOL    HW226941   2.882   2.285   0.766
 3267SOL     OW26942   1.026   0.199   7.407
 3267SOL    HW126943   1.098   0.138   7.420
 3267SOL    HW226944   0.995   0.181   7.318
 3268SOL     OW26945   0.983   4.115   6.034
 3268SOL    HW126946   0.986   4.126   5.939
 3268SOL    HW226947   0.976   4.021   6.048
 3269SOL     OW26948   6.258   5.220   7.099
 3269SOL    HW126949   6.321   5.229   7.171
 3269SOL    HW226950   6.301   5.262   7.024
 3270SOL     OW26951   0.670   4.057   5.936
 3270SOL    HW126952   0.698   4.038   5.847
 3270SOL    HW226953   0.595   3.999   5.951
 3271SOL     OW26954   1.017   4.616   5.231
 3271SOL    HW126955   1.029   4.647   5.142
 3271SOL    HW226956   1.102   4.629   5.273
 3272SOL     OW26957   6.184   0.434   0.024
 3272SOL    HW126958   6.129   0.356   0.026
 3272SOL    HW226959   6.195   0.454  -0.069
 3273SOL     OW26960   2.012   3.547   0.044
 3273SOL    HW126961   1.954   3.568  -0.029
 3273SOL    HW226962   2.043   3.458   0.026
 3274SOL     OW26963   0.605   2.556   5.521
 3274SOL    HW126964   0.684   2.588   5.564
 3274SOL    HW226965   0.565   2.498   5.585
 3275SOL     OW26966   6.295   1.362   5.984
 3275SOL    HW126967   6.276   1.269   5.973
 3275SOL    HW226968   6.322   1.391   5.896
 3276SOL     OW26969   4.306   4.218   0.104
 3276SOL    HW126970   4.271   4.231   0.016
 3276SOL    HW226971   4.375   4.284   0.113
 3277SOL     OW26972   0.928   0.468   6.273
 3277SOL    HW126973   0.905   0.391   6.221
 3277SOL    HW226974   0.872   0.538   6.240
 3278SOL     OW26975   5.311   5.871   0.678
 3278SOL    HW126976   5.361   5.803   0.722
 3278SOL    HW226977   5.281   5.929   0.749
 3279SOL     OW26978   5.968   6.233   1.157
 3279SOL    HW126979   5.916   6.208   1.081
 3279SOL    HW226980   6.029   6.161   1.169
 3280SOL     OW26981   5.711   6.315   2.197
 3280SOL    HW126982   5.785   6.262   2.168
 3280SOL    HW226983   5.736   6.346   2.284
 3281SOL     OW26984   4.721   2.247   6.687
 3281SOL    HW126985   4.702   2.168   6.739
 3281SOL    HW226986   4.816   2.256   6.693
 3282SOL     OW26987   4.464   3.222   0.744
 3282SOL    HW126988   4.505   3.146   0.786
 3282SOL    HW226989   4.443   3.192   0.656
 3283SOL     OW26990   0.664   2.356   7.052
 3283SOL    HW126991   0.593   2.313   7.004
 3283SOL    HW226992   0.619   2.404   7.122
 3284SOL     OW26993   1.380   4.306   5.571
 3284SOL    HW126994   1.351   4.370   5.507
 3284SOL    HW226995   1.352   4.222   5.535
 3285SOL     OW26996   0.501   5.534   2.208
 3285SOL    HW126997   0.509   5.458   2.150
 3285SOL    HW226998   0.591   5.553   2.235
 3286SOL     OW26999   5.316   5.485   0.866
 3286SOL    HW127000   5.259   5.532   0.805
 3286SOL    HW227001   5.404   5.497   0.830
 3287SOL     OW27002   6.157   0.895   6.908
 3287SOL    HW127003   6.075   0.943   6.894
 3287SOL    HW227004   6.206   0.906   6.827
 3288SOL     OW27005   0.048   5.538   6.152
 3288SOL    HW127006  -0.028   5.481   6.165
 3288SOL    HW227007   0.021   5.598   6.083
 3289SOL     OW27008   6.127   4.726   2.247
 3289SOL    HW127009   6.131   4.817   2.276
 3289SOL    HW227010   6.192   4.681   2.301
 3290SOL     OW27011   3.611   4.680   6.097
 3290SOL    HW127012   3.610   4.757   6.040
 3290SOL    HW227013   3.621   4.606   6.037
 3291SOL     OW27014   2.096   4.628   5.307
 3291SOL    HW127015   2.046   4.577   5.371
 3291SOL    HW227016   2.060   4.601   5.222
 3292SOL     OW27017   5.586   2.062   7.805
 3292SOL    HW127018   5.679   2.068   7.785
 3292SOL    HW227019   5.544   2.116   7.738
 3293SOL     OW27020   2.339   2.260   7.086
 3293SOL    HW127021   2.246   2.263   7.108
 3293SOL    HW227022   2.341   2.256   6.990
 3294SOL     OW27023   0.939   3.813   0.069
 3294SOL    HW127024   0.970   3.736   0.021
 3294SOL    HW227025   0.869   3.779   0.125
 3295SOL     OW27026   0.809   5.444   6.452
 3295SOL    HW127027   0.765   5.437   6.367
 3295SOL    HW227028   0.872   5.515   6.441
 3296SOL     OW27029   2.175   2.949   1.168
 3296SOL    HW127030   2.235   2.949   1.093
 3296SOL    HW227031   2.171   3.041   1.195
 3297SOL     OW27032   1.160   0.404   1.070
 3297SOL    HW127033   1.166   0.474   1.136
 3297SOL    HW227034   1.221   0.431   1.001
 3298SOL     OW27035   5.164   4.025   2.206
 3298SOL    HW127036   5.076   3.998   2.179
 3298SOL    HW227037   5.183   3.971   2.282
 3299SOL     OW27038   5.788   0.459   6.766
 3299SOL    HW127039   5.764   0.496   6.681
 3299SOL    HW227040   5.879   0.432   6.755
 3300SOL     OW27041   4.118   1.800   1.268
 3300SOL    HW127042   4.157   1.713   1.264
 3300SOL    HW227043   4.067   1.800   1.349
 3301SOL     OW27044   4.686   1.047   6.952
 3301SOL    HW127045   4.725   1.037   6.864
 3301SOL    HW227046   4.600   1.085   6.936
 3302SOL     OW27047   0.299   3.595   5.781
 3302SOL    HW127048   0.289   3.534   5.708
 3302SOL    HW227049   0.290   3.681   5.740
 3303SOL     OW27050   6.051   1.370   7.018
 3303SOL    HW127051   5.997   1.363   7.096
 3303SOL    HW227052   6.139   1.345   7.047
 3304SOL     OW27053   2.900   5.027   1.674
 3304SOL    HW127054   2.937   4.973   1.744
 3304SOL    HW227055   2.974   5.048   1.617
 3305SOL     OW27056   5.510   5.588   5.723
 3305SOL    HW127057   5.572   5.604   5.794
 3305SOL    HW227058   5.564   5.565   5.648
 3306SOL     OW27059   5.298   5.352   6.735
 3306SOL    HW127060   5.285   5.306   6.818
 3306SOL    HW227061   5.313   5.443   6.759
 3307SOL     OW27062   2.320   6.310   6.646
 3307SOL    HW127063   2.235   6.337   6.611
 3307SOL    HW227064   2.353   6.388   6.691
 3308SOL     OW27065   3.302   3.506   1.469
 3308SOL    HW127066   3.335   3.424   1.505
 3308SOL    HW227067   3.380   3.560   1.457
 3309SOL     OW27068   0.444   1.472   0.553
 3309SOL    HW127069   0.381   1.461   0.625
 3309SOL    HW227070   0.528   1.489   0.597
 3310SOL     OW27071   0.484   5.739   6.268
 3310SOL    HW127072   0.484   5.776   6.356
 3310SOL    HW227073   0.532   5.657   6.276
 3311SOL     OW27074   2.345   0.071   1.266
 3311SOL    HW127075   2.359   0.029   1.182
 3311SOL    HW227076   2.433   0.096   1.295
 3312SOL     OW27077   1.939   4.771   0.457
 3312SOL    HW127078   1.940   4.778   0.552
 3312SOL    HW227079   2.028   4.791   0.430
 3313SOL     OW27080   4.243   5.075   1.416
 3313SOL    HW127081   4.178   5.101   1.352
 3313SOL    HW227082   4.278   4.992   1.382
 3314SOL     OW27083   4.373   5.842   5.968
 3314SOL    HW127084   4.313   5.888   6.027
 3314SOL    HW227085   4.434   5.910   5.939
 3315SOL     OW27086   5.462   5.425   1.707
 3315SOL    HW127087   5.534   5.384   1.755
 3315SOL    HW227088   5.427   5.491   1.767
 3316SOL     OW27089   3.578   1.526   7.135
 3316SOL    HW127090   3.667   1.512   7.103
 3316SOL    HW227091   3.568   1.463   7.206
 3317SOL     OW27092   4.754   2.367   0.372
 3317SOL    HW127093   4.751   2.417   0.290
 3317SOL    HW227094   4.803   2.288   0.351
 3318SOL     OW27095   2.131   3.597   6.852
 3318SOL    HW127096   2.162   3.621   6.939
 3318SOL    HW227097   2.054   3.652   6.839
 3319SOL     OW27098   2.483   0.773   0.134
 3319SOL    HW127099   2.453   0.685   0.111
 3319SOL    HW227100   2.454   0.785   0.225
 3320SOL     OW27101   4.669   5.796   2.825
 3320SOL    HW127102   4.574   5.810   2.819
 3320SOL    HW227103   4.708   5.875   2.789
 3321SOL     OW27104   5.364   5.794   1.028
 3321SOL    HW127105   5.360   5.885   1.057
 3321SOL    HW227106   5.273   5.765   1.030
 3322SOL     OW27107   6.095   1.015   7.765
 3322SOL    HW127108   6.162   0.955   7.798
 3322SOL    HW227109   6.135   1.056   7.689
 3323SOL     OW27110   4.258   2.804   0.705
 3323SOL    HW127111   4.180   2.752   0.728
 3323SOL    HW227112   4.318   2.740   0.667
 3324SOL     OW27113   4.633   3.474   0.322
 3324SOL    HW127114   4.639   3.481   0.226
 3324SOL    HW227115   4.539   3.480   0.340
 3325SOL     OW27116   6.020   2.274   7.660
 3325SOL    HW127117   5.979   2.360   7.674
 3325SOL    HW227118   6.077   2.262   7.736
 3326SOL     OW27119   1.106   1.967   0.708
 3326SOL    HW127120   1.201   1.982   0.709
 3326SOL    HW227121   1.096   1.875   0.687
 3327SOL     OW27122   2.547   4.116   7.019
 3327SOL    HW127123   2.612   4.186   7.020
 3327SOL    HW227124   2.548   4.081   7.108
 3328SOL     OW27125   1.859   5.228   7.088
 3328SOL    HW127126   1.829   5.189   7.006
 3328SOL    HW227127   1.786   5.283   7.116
 3329SOL     OW27128   0.828   4.973   7.487
 3329SOL    HW127129   0.742   4.975   7.527
 3329SOL    HW227130   0.848   5.064   7.467
 3330SOL     OW27131   1.731   1.232   6.859
 3330SOL    HW127132   1.640   1.251   6.838
 3330SOL    HW227133   1.738   1.250   6.953
 3331SOL     OW27134   5.031   2.987   1.539
 3331SOL    HW127135   5.059   3.073   1.507
 3331SOL    HW227136   4.989   3.006   1.624
 3332SOL     OW27137   2.051   5.606   0.135
 3332SOL    HW127138   1.996   5.565   0.068
 3332SOL    HW227139   2.012   5.693   0.149
 3333SOL     OW27140   0.580   5.480   0.578
 3333SOL    HW127141   0.642   5.451   0.645
 3333SOL    HW227142   0.582   5.575   0.583
 3334SOL     OW27143   3.160   1.578   7.305
 3334SOL    HW127144   3.124   1.495   7.274
 3334SOL    HW227145   3.252   1.575   7.277
 3335SOL     OW27146   6.075   4.301   1.913
 3335SOL    HW127147   6.078   4.209   1.885
 3335SOL    HW227148   6.127   4.303   1.994
 3336SOL     OW27149   1.550   0.603   5.927
 3336SOL    HW127150   1.602   0.682   5.917
 3336SOL    HW227151   1.608   0.532   5.901
 3337SOL     OW27152   3.881   5.063   7.757
 3337SOL    HW127153   3.918   5.116   7.828
 3337SOL    HW227154   3.847   5.127   7.694
 3338SOL     OW27155   6.254   0.592   6.665
 3338SOL    HW127156   6.184   0.615   6.604
 3338SOL    HW227157   6.252   0.661   6.732
 3339SOL     OW27158   1.709   1.649   6.764
 3339SOL    HW127159   1.671   1.735   6.749
 3339SOL    HW227160   1.641   1.600   6.810
 3340SOL     OW27161   2.637   4.729   7.235
 3340SOL    HW127162   2.622   4.702   7.325
 3340SOL    HW227163   2.564   4.788   7.215
 3341SOL     OW27164   2.220   1.074   0.202
 3341SOL    HW127165   2.314   1.056   0.209
 3341SOL    HW227166   2.189   1.072   0.293
 3342SOL     OW27167   6.269   6.322   6.009
 3342SOL    HW127168   6.347   6.377   5.996
 3342SOL    HW227169   6.225   6.360   6.085
 3343SOL     OW27170   3.706   1.026   7.646
 3343SOL    HW127171   3.693   0.956   7.710
 3343SOL    HW227172   3.745   1.098   7.696
 3344SOL     OW27173   4.679   4.267   7.780
 3344SOL    HW127174   4.772   4.251   7.793
 3344SOL    HW227175   4.673   4.310   7.695
 3345SOL     OW27176   4.595   0.503   2.407
 3345SOL    HW127177   4.508   0.542   2.402
 3345SOL    HW227178   4.586   0.417   2.366
 3346SOL     OW27179   0.941   1.282   7.557
 3346SOL    HW127180   0.990   1.206   7.525
 3346SOL    HW227181   0.936   1.269   7.652
 3347SOL     OW27182   5.373   5.188   6.959
 3347SOL    HW127183   5.354   5.099   6.931
 3347SOL    HW227184   5.447   5.179   7.019
 3348SOL     OW27185   4.606   2.496   6.647
 3348SOL    HW127186   4.636   2.406   6.637
 3348SOL    HW227187   4.525   2.489   6.696
 3349SOL     OW27188   4.099   3.593   0.220
 3349SOL    HW127189   4.062   3.564   0.137
 3349SOL    HW227190   4.145   3.674   0.198
 3350SOL     OW27191   2.433   0.147   7.049
 3350SOL    HW127192   2.528   0.160   7.051
 3350SOL    HW227193   2.410   0.116   7.137
 3351SOL     OW27194   0.578   1.898   1.335
 3351SOL    HW127195   0.491   1.936   1.350
 3351SOL    HW227196   0.623   1.961   1.280
 3352SOL     OW27197   0.868   6.054   6.815
 3352SOL    HW127198   0.935   5.989   6.831
 3352SOL    HW227199   0.859   6.100   6.898
 3353SOL     OW27200   4.619   2.761   0.197
 3353SOL    HW127201   4.666   2.709   0.132
 3353SOL    HW227202   4.618   2.849   0.160
 3354SOL     OW27203   5.769   1.616   5.551
 3354SOL    HW127204   5.706   1.570   5.606
 3354SOL    HW227205   5.809   1.547   5.497
 3355SOL     OW27206   5.502   0.716   6.780
 3355SOL    HW127207   5.445   0.731   6.855
 3355SOL    HW227208   5.448   0.736   6.704
 3356SOL     OW27209   1.726   5.616   5.758
 3356SOL    HW127210   1.817   5.647   5.755
 3356SOL    HW227211   1.680   5.670   5.694
 3357SOL     OW27212   4.458   1.763   7.150
 3357SOL    HW127213   4.521   1.792   7.084
 3357SOL    HW227214   4.377   1.748   7.101
 3358SOL     OW27215   4.110   4.786   1.096
 3358SOL    HW127216   4.146   4.844   1.028
 3358SOL    HW227217   4.187   4.747   1.137
 3359SOL     OW27218   0.558   4.036   2.169
 3359SOL    HW127219   0.477   3.990   2.151
 3359SOL    HW227220   0.550   4.118   2.119
 3360SOL     OW27221   0.803   5.797   6.554
 3360SOL    HW127222   0.827   5.762   6.640
 3360SOL    HW227223   0.711   5.820   6.562
 3361SOL     OW27224   6.029   3.144   6.126
 3361SOL    HW127225   5.976   3.144   6.206
 3361SOL    HW227226   6.037   3.052   6.103
 3362SOL     OW27227   2.460   1.187   5.701
 3362SOL    HW127228   2.501   1.273   5.702
 3362SOL    HW227229   2.366   1.205   5.697
 3363SOL     OW27230   3.946   3.171   1.605
 3363SOL    HW127231   3.918   3.169   1.514
 3363SOL    HW227232   3.991   3.088   1.619
 3364SOL     OW27233   5.087   3.744   1.263
 3364SOL    HW127234   5.068   3.712   1.175
 3364SOL    HW227235   5.097   3.665   1.316
 3365SOL     OW27236   3.625   4.900   0.631
 3365SOL    HW127237   3.585   4.813   0.642
 3365SOL    HW227238   3.657   4.922   0.719
 3366SOL     OW27239   0.424   3.203   0.355
 3366SOL    HW127240   0.349   3.261   0.346
 3366SOL    HW227241   0.491   3.242   0.299
 3367SOL     OW27242   3.449   0.287   6.242
 3367SOL    HW127243   3.382   0.328   6.189
 3367SOL    HW227244   3.483   0.216   6.187
 3368SOL     OW27245   0.215   2.736   1.273
 3368SOL    HW127246   0.209   2.774   1.361
 3368SOL    HW227247   0.274   2.661   1.284
 3369SOL     OW27248   4.391   6.375   6.997
 3369SOL    HW127249   4.470   6.320   6.998
 3369SOL    HW227250   4.320   6.315   7.018
 3370SOL     OW27251   1.459   0.792   0.217
 3370SOL    HW127252   1.393   0.861   0.216
 3370SOL    HW227253   1.530   0.828   0.270
 3371SOL     OW27254   1.204   5.852   7.442
 3371SOL    HW127255   1.267   5.862   7.513
 3371SOL    HW227256   1.183   5.942   7.416
 3372SOL     OW27257   3.244   0.948   7.473
 3372SOL    HW127258   3.224   0.885   7.543
 3372SOL    HW227259   3.161   0.957   7.425
 3373SOL     OW27260   4.450   3.625   2.095
 3373SOL    HW127261   4.422   3.605   2.006
 3373SOL    HW227262   4.435   3.544   2.144
 3374SOL     OW27263   2.414   0.830   5.509
 3374SOL    HW127264   2.435   0.855   5.599
 3374SOL    HW227265   2.475   0.881   5.456
 3375SOL     OW27266   4.083   2.519   6.807
 3375SOL    HW127267   4.082   2.550   6.716
 3375SOL    HW227268   4.110   2.427   6.800
 3376SOL     OW27269   1.671   4.958   5.439
 3376SOL    HW127270   1.611   5.032   5.429
 3376SOL    HW227271   1.711   4.971   5.525
 3377SOL     OW27272   5.292   0.197   0.001
 3377SOL    HW127273   5.217   0.151   0.038
 3377SOL    HW227274   5.257   0.280  -0.031
 3378SOL     OW27275   5.282   3.925   1.297
 3378SOL    HW127276   5.207   3.865   1.293
 3378SOL    HW227277   5.357   3.872   1.271
 3379SOL     OW27278   3.568   1.829   0.852
 3379SOL    HW127279   3.487   1.848   0.804
 3379SOL    HW227280   3.632   1.889   0.815
 3380SOL     OW27281   5.330   4.881   6.908
 3380SOL    HW127282   5.331   4.802   6.963
 3380SOL    HW227283   5.406   4.872   6.851
 3381SOL     OW27284   4.299   5.812   0.144
 3381SOL    HW127285   4.391   5.822   0.169
 3381SOL    HW227286   4.257   5.893   0.175
 3382SOL     OW27287   6.370   3.445   1.461
 3382SOL    HW127288   6.379   3.469   1.553
 3382SOL    HW227289   6.369   3.349   1.463
 3383SOL     OW27290   1.508   3.414   7.326
 3383SOL    HW127291   1.471   3.486   7.376
 3383SOL    HW227292   1.433   3.359   7.305
 3384SOL     OW27293   5.418   5.385   0.183
 3384SOL    HW127294   5.360   5.350   0.251
 3384SOL    HW227295   5.405   5.327   0.108
 3385SOL     OW27296   2.660   0.601   0.364
 3385SOL    HW127297   2.665   0.696   0.369
 3385SOL    HW227298   2.567   0.581   0.376
 3386SOL     OW27299   3.825   3.846   0.578
 3386SOL    HW127300   3.903   3.791   0.584
 3386SOL    HW227301   3.836   3.913   0.645
 3387SOL     OW27302   4.908   3.607   1.063
 3387SOL    HW127303   4.844   3.647   1.122
 3387SOL    HW227304   4.868   3.524   1.037
 3388SOL     OW27305   3.790   0.887   1.304
 3388SOL    HW127306   3.859   0.837   1.348
 3388SOL    HW227307   3.835   0.934   1.234
 3389SOL     OW27308   2.976   0.595   0.383
 3389SOL    HW127309   3.050   0.582   0.442
 3389SOL    HW227310   2.920   0.657   0.429
 3390SOL     OW27311   5.842   5.892   6.520
 3390SOL    HW127312   5.885   5.823   6.572
 3390SOL    HW227313   5.749   5.870   6.524
 3391SOL     OW27314   4.583   1.878   0.048
 3391SOL    HW127315   4.588   1.852  -0.044
 3391SOL    HW227316   4.632   1.810   0.094
 3392SOL     OW27317   1.309   5.456   5.815
 3392SOL    HW127318   1.379   5.522   5.823
 3392SOL    HW227319   1.350   5.375   5.845
 3393SOL     OW27320   2.670   1.900   6.915
 3393SOL    HW127321   2.594   1.946   6.880
 3393SOL    HW227322   2.644   1.877   7.004
 3394SOL     OW27323   2.795   1.320   6.572
 3394SOL    HW127324   2.756   1.247   6.524
 3394SOL    HW227325   2.721   1.369   6.607
 3395SOL     OW27326   4.939   6.134   6.012
 3395SOL    HW127327   4.920   6.149   5.919
 3395SOL    HW227328   5.035   6.129   6.015
 3396SOL     OW27329   4.835   2.571   0.948
 3396SOL    HW127330   4.795   2.650   0.913
 3396SOL    HW227331   4.769   2.536   1.008
 3397SOL     OW27332   3.079   2.361   0.200
 3397SOL    HW127333   3.095   2.435   0.141
 3397SOL    HW227334   3.166   2.334   0.229
 3398SOL     OW27335   5.214   5.058   7.581
 3398SOL    HW127336   5.186   4.968   7.597
 3398SOL    HW227337   5.133   5.107   7.566
 3399SOL     OW27338   1.276   0.152   1.707
 3399SOL    HW127339   1.324   0.076   1.674
 3399SOL    HW227340   1.334   0.191   1.771
 3400SOL     OW27341   2.825   6.345   0.055
 3400SOL    HW127342   2.778   6.335  -0.028
 3400SOL    HW227343   2.809   6.436   0.080
 3401SOL     OW27344   2.931   1.967   0.664
 3401SOL    HW127345   3.016   1.985   0.623
 3401SOL    HW227346   2.898   2.052   0.691
 3402SOL     OW27347   2.839   4.757   1.023
 3402SOL    HW127348   2.864   4.665   1.034
 3402SOL    HW227349   2.908   4.805   1.069
 3403SOL     OW27350   5.184   0.782   6.305
 3403SOL    HW127351   5.188   0.720   6.231
 3403SOL    HW227352   5.105   0.756   6.353
 3404SOL     OW27353   5.529   0.066   1.062
 3404SOL    HW127354   5.606   0.118   1.040
 3404SOL    HW227355   5.554   0.019   1.142
 3405SOL     OW27356   0.604   5.692   5.303
 3405SOL    HW127357   0.665   5.762   5.282
 3405SOL    HW227358   0.584   5.652   5.219
 3406SOL     OW27359   5.617   1.916   1.519
 3406SOL    HW127360   5.678   1.906   1.446
 3406SOL    HW227361   5.532   1.926   1.478
 3407SOL     OW27362   0.230   4.088   0.002
 3407SOL    HW127363   0.251   4.007  -0.045
 3407SOL    HW227364   0.274   4.078   0.087
 3408SOL     OW27365   3.377   4.457   7.455
 3408SOL    HW127366   3.295   4.432   7.497
 3408SOL    HW227367   3.391   4.548   7.480
 3409SOL     OW27368   3.022   2.439   5.860
 3409SOL    HW127369   3.062   2.496   5.794
 3409SOL    HW227370   3.060   2.352   5.843
 3410SOL     OW27371   2.689   5.324   1.171
 3410SOL    HW127372   2.677   5.242   1.123
 3410SOL    HW227373   2.613   5.329   1.230
 3411SOL     OW27374   1.522   3.231   6.367
 3411SOL    HW127375   1.537   3.192   6.281
 3411SOL    HW227376   1.431   3.211   6.387
 3412SOL     OW27377   6.282   3.957   1.510
 3412SOL    HW127378   6.362   3.911   1.486
 3412SOL    HW227379   6.270   3.938   1.603
 3413SOL     OW27380   0.806   4.362   7.365
 3413SOL    HW127381   0.880   4.400   7.317
 3413SOL    HW227382   0.826   4.378   7.457
 3414SOL     OW27383   5.846   0.264   6.052
 3414SOL    HW127384   5.794   0.186   6.030
 3414SOL    HW227385   5.935   0.232   6.061
 3415SOL     OW27386   6.439   0.352   7.114
 3415SOL    HW127387   6.417   0.288   7.182
 3415SOL    HW227388   6.481   0.299   7.045
 3416SOL     OW27389   4.362   2.403   0.166
 3416SOL    HW127390   4.396   2.368   0.084
 3416SOL    HW227391   4.389   2.339   0.233
 3417SOL     OW27392   2.927   3.478   6.630
 3417SOL    HW127393   2.905   3.542   6.562
 3417SOL    HW227394   2.843   3.447   6.660
 3418SOL     OW27395   0.588   3.301   0.845
 3418SOL    HW127396   0.582   3.216   0.890
 3418SOL    HW227397   0.580   3.279   0.752
 3419SOL     OW27398   3.301   3.968   7.163
 3419SOL    HW127399   3.393   3.980   7.186
 3419SOL    HW227400   3.265   4.057   7.161
 3420SOL     OW27401   2.174   0.593   6.577
 3420SOL    HW127402   2.260   0.630   6.559
 3420SOL    HW227403   2.114   0.644   6.524
 3421SOL     OW27404   2.973   4.796   0.748
 3421SOL    HW127405   2.893   4.753   0.719
 3421SOL    HW227406   3.012   4.734   0.809
 3422SOL     OW27407   0.167   2.456   7.612
 3422SOL    HW127408   0.187   2.370   7.650
 3422SOL    HW227409   0.164   2.441   7.518
 3423SOL     OW27410   5.140   4.383   2.222
 3423SOL    HW127411   5.228   4.410   2.195
 3423SOL    HW227412   5.087   4.462   2.213
 3424SOL     OW27413   2.884   4.850   7.177
 3424SOL    HW127414   2.839   4.930   7.207
 3424SOL    HW227415   2.823   4.779   7.199
 3425SOL     OW27416   4.819   4.267   6.318
 3425SOL    HW127417   4.860   4.310   6.393
 3425SOL    HW227418   4.731   4.245   6.349
 3426SOL     OW27419   5.100   1.741   0.514
 3426SOL    HW127420   5.169   1.784   0.465
 3426SOL    HW227421   5.019   1.773   0.475
 3427SOL     OW27422   1.930   5.474   0.584
 3427SOL    HW127423   1.969   5.508   0.504
 3427SOL    HW227424   1.874   5.544   0.616
 3428SOL     OW27425   3.665   6.106   1.098
 3428SOL    HW127426   3.730   6.173   1.076
 3428SOL    HW227427   3.584   6.137   1.059
 3429SOL     OW27428   6.065   3.580   1.141
 3429SOL    HW127429   6.113   3.514   1.191
 3429SOL    HW227430   6.102   3.574   1.052
 3430SOL     OW27431   5.987   2.357   1.809
 3430SOL    HW127432   6.029   2.330   1.727
 3430SOL    HW227433   6.058   2.365   1.872
 3431SOL     OW27434   5.984   4.425   2.397
 3431SOL    HW127435   5.945   4.427   2.310
 3431SOL    HW227436   6.078   4.425   2.382
 3432SOL     OW27437   3.938   6.267   6.850
 3432SOL    HW127438   3.855   6.261   6.896
 3432SOL    HW227439   4.000   6.296   6.917
 3433SOL     OW27440   2.513   4.146   0.867
 3433SOL    HW127441   2.591   4.202   0.863
 3433SOL    HW227442   2.502   4.115   0.777
 3434SOL     OW27443   6.374   0.755   6.015
 3434SOL    HW127444   6.458   0.735   5.973
 3434SOL    HW227445   6.357   0.846   5.993
 3435SOL     OW27446   4.620   3.631   0.826
 3435SOL    HW127447   4.528   3.652   0.838
 3435SOL    HW227448   4.633   3.551   0.877
 3436SOL     OW27449   4.127   3.904   0.781
 3436SOL    HW127450   4.085   3.963   0.844
 3436SOL    HW227451   4.062   3.835   0.766
 3437SOL     OW27452   2.459   2.095   1.482
 3437SOL    HW127453   2.486   2.156   1.551
 3437SOL    HW227454   2.396   2.144   1.430
 3438SOL     OW27455   3.005   2.194   6.522
 3438SOL    HW127456   3.017   2.107   6.561
 3438SOL    HW227457   3.019   2.180   6.428
 3439SOL     OW27458   2.636   3.841   7.475
 3439SOL    HW127459   2.662   3.756   7.441
 3439SOL    HW227460   2.690   3.853   7.553
 3440SOL     OW27461   4.184   0.331   2.274
 3440SOL    HW127462   4.227   0.352   2.357
 3440SOL    HW227463   4.208   0.240   2.257
 3441SOL     OW27464   4.433   5.238   0.839
 3441SOL    HW127465   4.424   5.152   0.799
 3441SOL    HW227466   4.428   5.221   0.933
 3442SOL     OW27467   1.722   0.136   6.184
 3442SOL    HW127468   1.737   0.156   6.091
 3442SOL    HW227469   1.806   0.103   6.215
 3443SOL     OW27470   2.507   4.710   0.365
 3443SOL    HW127471   2.525   4.801   0.343
 3443SOL    HW227472   2.593   4.672   0.384
 3444SOL     OW27473   3.015   1.133   1.599
 3444SOL    HW127474   3.081   1.107   1.664
 3444SOL    HW227475   2.973   1.051   1.574
 3445SOL     OW27476   1.245   6.009   6.901
 3445SOL    HW127477   1.173   5.956   6.867
 3445SOL    HW227478   1.321   5.950   6.899
 3446SOL     OW27479   3.904   5.522   7.622
 3446SOL    HW127480   3.945   5.523   7.535
 3446SOL    HW227481   3.870   5.433   7.632
 3447SOL     OW27482   1.082   2.154   6.387
 3447SOL    HW127483   1.116   2.110   6.310
 3447SOL    HW227484   1.133   2.119   6.460
 3448SOL     OW27485   5.799   0.103   5.275
 3448SOL    HW127486   5.709   0.076   5.290
 3448SOL    HW227487   5.836   0.035   5.219
 3449SOL     OW27488   0.736   0.936   0.564
 3449SOL    HW127489   0.798   0.898   0.626
 3449SOL    HW227490   0.743   0.881   0.486
 3450SOL     OW27491   2.215   2.038   0.781
 3450SOL    HW127492   2.138   1.982   0.788
 3450SOL    HW227493   2.264   2.020   0.862
 3451SOL     OW27494   2.174   6.330   7.096
 3451SOL    HW127495   2.215   6.244   7.111
 3451SOL    HW227496   2.248   6.390   7.086
 3452SOL     OW27497   1.852   0.981   6.472
 3452SOL    HW127498   1.827   1.066   6.507
 3452SOL    HW227499   1.769   0.936   6.457
 3453SOL     OW27500   1.964   4.773   0.719
 3453SOL    HW127501   1.933   4.855   0.757
 3453SOL    HW227502   2.057   4.768   0.744
 3454SOL     OW27503   3.401   4.310   6.255
 3454SOL    HW127504   3.480   4.357   6.280
 3454SOL    HW227505   3.406   4.303   6.160
 3455SOL     OW27506   3.408   1.408   1.810
 3455SOL    HW127507   3.501   1.419   1.790
 3455SOL    HW227508   3.380   1.333   1.757
 3456SOL     OW27509   5.377   3.469   1.463
 3456SOL    HW127510   5.471   3.488   1.469
 3456SOL    HW227511   5.342   3.490   1.550
 3457SOL     OW27512   6.239   6.372   1.546
 3457SOL    HW127513   6.316   6.321   1.521
 3457SOL    HW227514   6.183   6.310   1.592
 3458SOL     OW27515   2.347   0.786   7.090
 3458SOL    HW127516   2.322   0.779   6.998
 3458SOL    HW227517   2.362   0.696   7.117
 3459SOL     OW27518   5.393   5.529   1.122
 3459SOL    HW127519   5.377   5.483   1.039
 3459SOL    HW227520   5.386   5.622   1.100
 3460SOL     OW27521   3.999   1.546   6.411
 3460SOL    HW127522   4.046   1.527   6.329
 3460SOL    HW227523   3.909   1.564   6.383
 3461SOL     OW27524   0.797   3.123   1.113
 3461SOL    HW127525   0.721   3.181   1.109
 3461SOL    HW227526   0.763   3.041   1.147
 3462SOL     OW27527   4.809   5.184   7.292
 3462SOL    HW127528   4.839   5.226   7.211
 3462SOL    HW227529   4.826   5.091   7.278
 3463SOL     OW27530   5.100   2.968   7.411
 3463SOL    HW127531   5.148   2.996   7.489
 3463SOL    HW227532   5.150   2.893   7.379
 3464SOL     OW27533   3.909   5.614   0.583
 3464SOL    HW127534   3.880   5.671   0.512
 3464SOL    HW227535   4.004   5.614   0.577
 3465SOL     OW27536   1.068   0.667   7.278
 3465SOL    HW127537   1.023   0.602   7.331
 3465SOL    HW227538   1.109   0.726   7.341
 3466SOL     OW27539   2.845   0.684   0.665
 3466SOL    HW127540   2.883   0.764   0.700
 3466SOL    HW227541   2.789   0.714   0.593
 3467SOL     OW27542   1.115   5.096   7.485
 3467SOL    HW127543   1.068   5.117   7.566
 3467SOL    HW227544   1.106   5.001   7.475
 3468SOL     OW27545   4.407   3.747   0.587
 3468SOL    HW127546   4.352   3.700   0.524
 3468SOL    HW227547   4.378   3.715   0.672
 3469SOL     OW27548   4.423   5.086   5.891
 3469SOL    HW127549   4.458   5.174   5.904
 3469SOL    HW227550   4.382   5.063   5.975
 3470SOL     OW27551   4.851   0.754   1.659
 3470SOL    HW127552   4.935   0.744   1.615
 3470SOL    HW227553   4.847   0.681   1.721
 3471SOL     OW27554   2.778   0.951   1.029
 3471SOL    HW127555   2.765   0.857   1.039
 3471SOL    HW227556   2.721   0.990   1.095
 3472SOL     OW27557   5.087   4.951   7.042
 3472SOL    HW127558   5.130   4.955   6.957
 3472SOL    HW227559   5.150   4.907   7.099
 3473SOL     OW27560   1.588   4.311   7.427
 3473SOL    HW127561   1.536   4.254   7.485
 3473SOL    HW227562   1.523   4.352   7.370
 3474SOL     OW27563   3.369   1.741   6.500
 3474SOL    HW127564   3.350   1.696   6.582
 3474SOL    HW227565   3.382   1.832   6.524
 3475SOL     OW27566   0.076   0.318   6.585
 3475SOL    HW127567   0.026   0.295   6.507
 3475SOL    HW227568   0.079   0.414   6.584
 3476SOL     OW27569   6.086   5.525   6.990
 3476SOL    HW127570   6.038   5.608   6.995
 3476SOL    HW227571   6.116   5.520   6.899
 3477SOL     OW27572   2.458   1.703   0.734
 3477SOL    HW127573   2.499   1.728   0.816
 3477SOL    HW227574   2.365   1.721   0.747
 3478SOL     OW27575   1.444   4.090   6.429
 3478SOL    HW127576   1.474   4.000   6.415
 3478SOL    HW227577   1.522   4.136   6.460
 3479SOL     OW27578   6.338   1.868   6.550
 3479SOL    HW127579   6.332   1.823   6.466
 3479SOL    HW227580   6.273   1.937   6.545
 3480SOL     OW27581   2.043   5.755   7.658
 3480SOL    HW127582   2.049   5.670   7.614
 3480SOL    HW227583   1.977   5.802   7.608
 3481SOL     OW27584   5.795   3.049   1.603
 3481SOL    HW127585   5.855   2.995   1.552
 3481SOL    HW227586   5.849   3.083   1.675
 3482SOL     OW27587   0.732   3.873   1.407
 3482SOL    HW127588   0.695   3.941   1.352
 3482SOL    HW227589   0.819   3.906   1.431
 3483SOL     OW27590   3.775   0.402   2.341
 3483SOL    HW127591   3.831   0.464   2.387
 3483SOL    HW227592   3.819   0.386   2.258
 3484SOL     OW27593   5.468   3.516   6.661
 3484SOL    HW127594   5.548   3.566   6.671
 3484SOL    HW227595   5.498   3.427   6.643
 3485SOL     OW27596   1.572   0.104   1.540
 3485SOL    HW127597   1.578   0.084   1.633
 3485SOL    HW227598   1.659   0.081   1.505
 3486SOL     OW27599   1.903   4.931   6.893
 3486SOL    HW127600   1.964   4.864   6.924
 3486SOL    HW227601   1.819   4.885   6.886
 3487SOL     OW27602   4.545   1.866   1.422
 3487SOL    HW127603   4.528   1.772   1.418
 3487SOL    HW227604   4.458   1.906   1.429
 3488SOL     OW27605   1.195   6.424   4.898
 3488SOL    HW127606   1.184   6.519   4.896
 3488SOL    HW227607   1.250   6.408   4.975
 3489SOL     OW27608   1.482   4.262   2.021
 3489SOL    HW127609   1.461   4.248   2.114
 3489SOL    HW227610   1.446   4.348   2.001
 3490SOL     OW27611   2.513   5.391   1.381
 3490SOL    HW127612   2.487   5.483   1.386
 3490SOL    HW227613   2.464   5.348   1.451
 3491SOL     OW27614   3.693   2.617   7.203
 3491SOL    HW127615   3.768   2.676   7.209
 3491SOL    HW227616   3.701   2.576   7.117
 3492SOL     OW27617   5.100   5.718   1.057
 3492SOL    HW127618   5.052   5.645   1.017
 3492SOL    HW227619   5.034   5.764   1.108
 3493SOL     OW27620   4.694   2.027   5.330
 3493SOL    HW127621   4.606   2.055   5.305
 3493SOL    HW227622   4.711   1.950   5.276
 3494SOL     OW27623   4.252   6.122   0.505
 3494SOL    HW127624   4.274   6.080   0.588
 3494SOL    HW227625   4.201   6.199   0.530
 3495SOL     OW27626   5.854   4.843   2.690
 3495SOL    HW127627   5.849   4.751   2.662
 3495SOL    HW227628   5.938   4.849   2.736
 3496SOL     OW27629   5.222   5.977   7.320
 3496SOL    HW127630   5.304   5.945   7.283
 3496SOL    HW227631   5.218   6.069   7.292
 3497SOL     OW27632   5.271   4.441   2.822
 3497SOL    HW127633   5.298   4.489   2.744
 3497SOL    HW227634   5.259   4.509   2.889
 3498SOL     OW27635   0.110   3.546   6.990
 3498SOL    HW127636   0.022   3.571   6.963
 3498SOL    HW227637   0.137   3.614   7.052
 3499SOL     OW27638   3.879   1.809   0.992
 3499SOL    HW127639   3.811   1.873   1.012
 3499SOL    HW227640   3.875   1.746   1.064
 3500SOL     OW27641   6.400   6.239   0.276
 3500SOL    HW127642   6.307   6.255   0.263
 3500SOL    HW227643   6.442   6.322   0.253
 3501SOL     OW27644   3.442   5.299   1.532
 3501SOL    HW127645   3.422   5.207   1.517
 3501SOL    HW227646   3.380   5.347   1.476
 3502SOL     OW27647   1.267   2.622   0.836
 3502SOL    HW127648   1.319   2.580   0.767
 3502SOL    HW227649   1.332   2.652   0.900
 3503SOL     OW27650   2.006   4.512   1.916
 3503SOL    HW127651   1.945   4.487   1.847
 3503SOL    HW227652   2.006   4.438   1.976
 3504SOL     OW27653   5.533   6.155   6.564
 3504SOL    HW127654   5.549   6.062   6.544
 3504SOL    HW227655   5.593   6.203   6.507
 3505SOL     OW27656   5.722   3.812   5.316
 3505SOL    HW127657   5.674   3.775   5.242
 3505SOL    HW227658   5.690   3.901   5.324
 3506SOL     OW27659   2.622   5.837   1.098
 3506SOL    HW127660   2.629   5.745   1.070
 3506SOL    HW227661   2.699   5.880   1.059
 3507SOL     OW27662   0.855   5.701   5.775
 3507SOL    HW127663   0.939   5.658   5.788
 3507SOL    HW227664   0.872   5.768   5.709
 3508SOL     OW27665   2.780   4.843   7.773
 3508SOL    HW127666   2.758   4.917   7.830
 3508SOL    HW227667   2.818   4.778   7.832
 3509SOL     OW27668   4.134   5.967   1.064
 3509SOL    HW127669   4.057   5.991   1.013
 3509SOL    HW227670   4.204   6.022   1.030
 3510SOL     OW27671   1.157   1.576   2.466
 3510SOL    HW127672   1.231   1.630   2.493
 3510SOL    HW227673   1.147   1.512   2.537
 3511SOL     OW27674   2.450   0.701   0.890
 3511SOL    HW127675   2.519   0.662   0.943
 3511SOL    HW227676   2.477   0.792   0.879
 3512SOL     OW27677   0.443   0.075   7.177
 3512SOL    HW127678   0.528   0.061   7.219
 3512SOL    HW227679   0.457   0.053   7.085
 3513SOL     OW27680   1.383   4.185   7.007
 3513SOL    HW127681   1.436   4.221   6.935
 3513SOL    HW227682   1.409   4.093   7.011
 3514SOL     OW27683   4.741   1.652   0.181
 3514SOL    HW127684   4.789   1.569   0.178
 3514SOL    HW227685   4.651   1.628   0.161
 3515SOL     OW27686   3.047   2.376   5.500
 3515SOL    HW127687   3.023   2.292   5.540
 3515SOL    HW227688   3.049   2.437   5.573
 3516SOL     OW27689   4.866   1.437   0.830
 3516SOL    HW127690   4.817   1.493   0.769
 3516SOL    HW227691   4.949   1.483   0.842
 3517SOL     OW27692   1.214   0.265   0.749
 3517SOL    HW127693   1.299   0.287   0.787
 3517SOL    HW227694   1.160   0.238   0.824
 3518SOL     OW27695   3.594   0.525   7.673
 3518SOL    HW127696   3.643   0.487   7.746
 3518SOL    HW227697   3.592   0.619   7.691
 3519SOL     OW27698   0.947   5.563   0.720
 3519SOL    HW127699   0.872   5.516   0.756
 3519SOL    HW227700   0.922   5.655   0.725
 3520SOL     OW27701   0.546   1.237   0.948
 3520SOL    HW127702   0.542   1.159   0.892
 3520SOL    HW227703   0.458   1.242   0.987
 3521SOL     OW27704   5.182   1.480   0.581
 3521SOL    HW127705   5.260   1.530   0.605
 3521SOL    HW227706   5.110   1.542   0.587
 3522SOL     OW27707   6.401   4.112   5.206
 3522SOL    HW127708   6.435   4.114   5.296
 3522SOL    HW227709   6.380   4.204   5.187
 3523SOL     OW27710   4.488   4.990   6.637
 3523SOL    HW127711   4.452   5.069   6.678
 3523SOL    HW227712   4.411   4.936   6.620
 3524SOL     OW27713   1.592   5.904   6.629
 3524SOL    HW127714   1.679   5.869   6.648
 3524SOL    HW227715   1.531   5.834   6.654
 3525SOL     OW27716   6.161   0.430   1.440
 3525SOL    HW127717   6.156   0.416   1.345
 3525SOL    HW227718   6.173   0.342   1.476
 3526SOL     OW27719   0.974   4.985   7.054
 3526SOL    HW127720   0.945   4.898   7.025
 3526SOL    HW227721   0.902   5.016   7.109
 3527SOL     OW27722   5.904   0.073   1.603
 3527SOL    HW127723   5.945   0.144   1.552
 3527SOL    HW227724   5.914  -0.004   1.548
 3528SOL     OW27725   4.154   5.868   7.432
 3528SOL    HW127726   4.195   5.912   7.506
 3528SOL    HW227727   4.080   5.924   7.408
 3529SOL     OW27728   3.815   0.528   1.868
 3529SOL    HW127729   3.910   0.515   1.873
 3529SOL    HW227730   3.787   0.536   1.959
 3530SOL     OW27731   4.123   3.390   7.581
 3530SOL    HW127732   4.146   3.351   7.497
 3530SOL    HW227733   4.063   3.327   7.621
 3531SOL     OW27734   3.659   3.428   1.026
 3531SOL    HW127735   3.696   3.472   1.102
 3531SOL    HW227736   3.621   3.497   0.974
 3532SOL     OW27737   0.891   6.245   1.696
 3532SOL    HW127738   0.877   6.180   1.764
 3532SOL    HW227739   0.804   6.282   1.679
 3533SOL     OW27740   2.656   0.479   6.862
 3533SOL    HW127741   2.589   0.510   6.924
 3533SOL    HW227742   2.707   0.415   6.911
 3534SOL     OW27743   4.665   5.573   7.766
 3534SOL    HW127744   4.649   5.667   7.758
 3534SOL    HW227745   4.666   5.541   7.676
 3535SOL     OW27746   2.914   0.243   7.263
 3535SOL    HW127747   2.984   0.301   7.232
 3535SOL    HW227748   2.900   0.269   7.354
 3536SOL     OW27749   3.539   5.218   0.504
 3536SOL    HW127750   3.593   5.140   0.490
 3536SOL    HW227751   3.469   5.189   0.563
 3537SOL     OW27752   3.097   3.524   5.494
 3537SOL    HW127753   3.119   3.476   5.574
 3537SOL    HW227754   3.160   3.597   5.492
 3538SOL     OW27755   3.733   1.803   7.192
 3538SOL    HW127756   3.696   1.797   7.281
 3538SOL    HW227757   3.799   1.735   7.188
 3539SOL     OW27758   2.737   2.570   7.625
 3539SOL    HW127759   2.644   2.557   7.644
 3539SOL    HW227760   2.737   2.625   7.546
 3540SOL     OW27761   3.954   4.376   6.211
 3540SOL    HW127762   4.027   4.346   6.157
 3540SOL    HW227763   3.960   4.324   6.291
 3541SOL     OW27764   0.757   3.642   0.700
 3541SOL    HW127765   0.824   3.620   0.635
 3541SOL    HW227766   0.755   3.566   0.759
 3542SOL     OW27767   5.993   5.381   1.783
 3542SOL    HW127768   5.983   5.383   1.878
 3542SOL    HW227769   6.019   5.470   1.759
 3543SOL     OW27770   2.149   0.846   0.020
 3543SOL    HW127771   2.057   0.820   0.025
 3543SOL    HW227772   2.154   0.926   0.072
 3544SOL     OW27773   0.341   3.362   7.383
 3544SOL    HW127774   0.268   3.305   7.358
 3544SOL    HW227775   0.311   3.406   7.463
 3545SOL     OW27776   1.317   4.467   0.696
 3545SOL    HW127777   1.369   4.408   0.751
 3545SOL    HW227778   1.309   4.547   0.749
 3546SOL     OW27779   0.855   5.406   6.813
 3546SOL    HW127780   0.864   5.369   6.725
 3546SOL    HW227781   0.906   5.347   6.869
 3547SOL     OW27782   4.523   1.856   5.830
 3547SOL    HW127783   4.469   1.932   5.852
 3547SOL    HW227784   4.547   1.871   5.738
 3548SOL     OW27785   4.459   2.781   5.764
 3548SOL    HW127786   4.463   2.875   5.776
 3548SOL    HW227787   4.423   2.768   5.676
 3549SOL     OW27788   6.326   2.621   5.245
 3549SOL    HW127789   6.231   2.621   5.244
 3549SOL    HW227790   6.350   2.712   5.264
 3550SOL     OW27791   1.819   2.529   7.552
 3550SOL    HW127792   1.865   2.460   7.600
 3550SOL    HW227793   1.887   2.594   7.535
 3551SOL     OW27794   2.420   0.427   0.050
 3551SOL    HW127795   2.427   0.358  -0.016
 3551SOL    HW227796   2.346   0.481   0.021
 3552SOL     OW27797   1.762   3.460   1.427
 3552SOL    HW127798   1.737   3.468   1.519
 3552SOL    HW227799   1.845   3.413   1.429
 3553SOL     OW27800   6.317   1.693   7.087
 3553SOL    HW127801   6.236   1.672   7.132
 3553SOL    HW227802   6.375   1.619   7.106
 3554SOL     OW27803   4.730   6.149   0.048
 3554SOL    HW127804   4.787   6.215   0.009
 3554SOL    HW227805   4.781   6.116   0.123
 3555SOL     OW27806   1.184   4.224   1.609
 3555SOL    HW127807   1.124   4.241   1.537
 3555SOL    HW227808   1.215   4.134   1.593
 3556SOL     OW27809   1.737   2.950   5.718
 3556SOL    HW127810   1.666   2.970   5.779
 3556SOL    HW227811   1.742   3.028   5.662
 3557SOL     OW27812   5.697   0.206   6.878
 3557SOL    HW127813   5.697   0.278   6.816
 3557SOL    HW227814   5.767   0.227   6.940
 3558SOL     OW27815   6.232   0.082   6.975
 3558SOL    HW127816   6.289   0.107   6.902
 3558SOL    HW227817   6.259  -0.008   6.996
 3559SOL     OW27818   6.031   3.996   1.349
 3559SOL    HW127819   6.105   4.006   1.409
 3559SOL    HW227820   6.069   4.006   1.262
 3560SOL     OW27821   3.363   0.897   6.565
 3560SOL    HW127822   3.380   0.890   6.471
 3560SOL    HW227823   3.382   0.989   6.586
 3561SOL     OW27824   5.831   5.377   0.003
 3561SOL    HW127825   5.903   5.320  -0.022
 3561SOL    HW227826   5.754   5.320   0.004
 3562SOL     OW27827   0.969   2.273   6.146
 3562SOL    HW127828   1.058   2.260   6.178
 3562SOL    HW227829   0.973   2.249   6.053
 3563SOL     OW27830   3.168   0.730   0.839
 3563SOL    HW127831   3.093   0.789   0.843
 3563SOL    HW227832   3.228   0.762   0.906
 3564SOL     OW27833   1.092   1.143   1.109
 3564SOL    HW127834   1.057   1.197   1.180
 3564SOL    HW227835   1.015   1.099   1.072
 3565SOL     OW27836   0.440   4.183   7.283
 3565SOL    HW127837   0.380   4.127   7.332
 3565SOL    HW227838   0.527   4.157   7.313
 3566SOL     OW27839   4.333   0.677   1.191
 3566SOL    HW127840   4.256   0.631   1.225
 3566SOL    HW227841   4.303   0.766   1.174
 3567SOL     OW27842   0.588   5.091   6.422
 3567SOL    HW127843   0.547   5.143   6.491
 3567SOL    HW227844   0.682   5.108   6.431
 3568SOL     OW27845   6.325   1.437   2.163
 3568SOL    HW127846   6.343   1.391   2.245
 3568SOL    HW227847   6.385   1.512   2.164
 3569SOL     OW27848   0.841   0.337   0.041
 3569SOL    HW127849   0.849   0.281  -0.036
 3569SOL    HW227850   0.747   0.354   0.049
 3570SOL     OW27851   3.206   3.077   7.361
 3570SOL    HW127852   3.202   3.120   7.446
 3570SOL    HW227853   3.294   3.096   7.329
 3571SOL     OW27854   1.515   0.701   6.489
 3571SOL    HW127855   1.441   0.716   6.549
 3571SOL    HW227856   1.485   0.631   6.432
 3572SOL     OW27857   2.223   0.378   6.865
 3572SOL    HW127858   2.147   0.433   6.848
 3572SOL    HW227859   2.191   0.289   6.855
 3573SOL     OW27860   0.238   3.010   7.319
 3573SOL    HW127861   0.215   2.942   7.255
 3573SOL    HW227862   0.322   2.980   7.355
 3574SOL     OW27863   5.427   2.129   1.251
 3574SOL    HW127864   5.401   2.207   1.203
 3574SOL    HW227865   5.412   2.151   1.343
 3575SOL     OW27866   3.991   3.069   6.550
 3575SOL    HW127867   4.047   3.087   6.475
 3575SOL    HW227868   3.963   2.978   6.538
 3576SOL     OW27869   5.185   4.342   0.751
 3576SOL    HW127870   5.192   4.247   0.756
 3576SOL    HW227871   5.096   4.358   0.718
 3577SOL     OW27872   0.496   0.230   0.883
 3577SOL    HW127873   0.544   0.249   0.963
 3577SOL    HW227874   0.490   0.135   0.880
 3578SOL     OW27875   5.632   4.961   6.459
 3578SOL    HW127876   5.606   4.930   6.372
 3578SOL    HW227877   5.592   5.047   6.467
 3579SOL     OW27878   2.114   4.194   7.504
 3579SOL    HW127879   2.202   4.224   7.522
 3579SOL    HW227880   2.058   4.265   7.536
 3580SOL     OW27881   0.691   0.398   5.581
 3580SOL    HW127882   0.599   0.373   5.590
 3580SOL    HW227883   0.740   0.323   5.616
 3581SOL     OW27884   2.698   2.400   7.320
 3581SOL    HW127885   2.764   2.339   7.353
 3581SOL    HW227886   2.748   2.467   7.274
 3582SOL     OW27887   0.063   0.524   1.741
 3582SOL    HW127888  -0.006   0.550   1.802
 3582SOL    HW227889   0.027   0.542   1.655
 3583SOL     OW27890   0.603   5.912   5.634
 3583SOL    HW127891   0.626   5.984   5.692
 3583SOL    HW227892   0.674   5.909   5.570
 3584SOL     OW27893   0.068   2.105   7.629
 3584SOL    HW127894  -0.019   2.138   7.608
 3584SOL    HW227895   0.093   2.054   7.552
 3585SOL     OW27896   5.795   5.727   0.602
 3585SOL    HW127897   5.801   5.738   0.697
 3585SOL    HW227898   5.885   5.714   0.573
 3586SOL     OW27899   3.964   4.953   0.378
 3586SOL    HW127900   3.896   4.886   0.367
 3586SOL    HW227901   4.021   4.918   0.446
 3587SOL     OW27902   1.351   2.911   0.111
 3587SOL    HW127903   1.329   2.925   0.019
 3587SOL    HW227904   1.446   2.899   0.112
 3588SOL     OW27905   5.852   2.434   0.548
 3588SOL    HW127906   5.938   2.450   0.586
 3588SOL    HW227907   5.805   2.517   0.557
 3589SOL     OW27908   6.100   1.445   7.755
 3589SOL    HW127909   6.176   1.501   7.773
 3589SOL    HW227910   6.135   1.355   7.759
 3590SOL     OW27911   2.802   0.929   7.129
 3590SOL    HW127912   2.790   0.907   7.036
 3590SOL    HW227913   2.714   0.926   7.166
 3591SOL     OW27914   1.853   5.263   1.627
 3591SOL    HW127915   1.781   5.204   1.606
 3591SOL    HW227916   1.905   5.267   1.547
 3592SOL     OW27917   1.242   1.952   7.206
 3592SOL    HW127918   1.232   1.857   7.212
 3592SOL    HW227919   1.336   1.967   7.217
 3593SOL     OW27920   0.495   0.369   7.294
 3593SOL    HW127921   0.410   0.334   7.265
 3593SOL    HW227922   0.536   0.296   7.341
 3594SOL     OW27923   3.687   4.831   6.509
 3594SOL    HW127924   3.665   4.894   6.441
 3594SOL    HW227925   3.754   4.776   6.470
 3595SOL     OW27926   3.148   5.294   6.746
 3595SOL    HW127927   3.110   5.381   6.753
 3595SOL    HW227928   3.239   5.305   6.773
 3596SOL     OW27929   5.538   1.724   0.216
 3596SOL    HW127930   5.582   1.644   0.244
 3596SOL    HW227931   5.450   1.696   0.192
 3597SOL     OW27932   0.993   4.294   6.277
 3597SOL    HW127933   0.995   4.234   6.202
 3597SOL    HW227934   1.083   4.295   6.309
 3598SOL     OW27935   4.511   3.600   7.754
 3598SOL    HW127936   4.528   3.595   7.660
 3598SOL    HW227937   4.528   3.692   7.776
 3599SOL     OW27938   1.530   3.127   7.631
 3599SOL    HW127939   1.519   3.139   7.537
 3599SOL    HW227940   1.603   3.184   7.655
 3600SOL     OW27941   3.832   5.112   0.981
 3600SOL    HW127942   3.802   5.146   1.065
 3600SOL    HW227943   3.752   5.100   0.930
 3601SOL     OW27944   2.687   2.441   1.344
 3601SOL    HW127945   2.627   2.487   1.402
 3601SOL    HW227946   2.724   2.510   1.289
 3602SOL     OW27947   4.204   1.257   7.726
 3602SOL    HW127948   4.207   1.304   7.643
 3602SOL    HW227949   4.265   1.184   7.715
 3603SOL     OW27950   5.257   4.742   6.104
 3603SOL    HW127951   5.221   4.803   6.168
 3603SOL    HW227952   5.209   4.660   6.120
 3604SOL     OW27953   3.341   4.600   0.987
 3604SOL    HW127954   3.399   4.533   1.023
 3604SOL    HW227955   3.277   4.617   1.056
 3605SOL     OW27956   2.945   1.773   6.844
 3605SOL    HW127957   2.915   1.684   6.864
 3605SOL    HW227958   2.872   1.830   6.870
 3606SOL     OW27959   6.305   0.467   0.334
 3606SOL    HW127960   6.259   0.467   0.250
 3606SOL    HW227961   6.335   0.377   0.345
 3607SOL     OW27962   6.249   3.596   5.320
 3607SOL    HW127963   6.154   3.605   5.334
 3607SOL    HW227964   6.260   3.507   5.288
 3608SOL     OW27965   6.077   2.518   1.237
 3608SOL    HW127966   6.029   2.561   1.167
 3608SOL    HW227967   6.149   2.577   1.257
 3609SOL     OW27968   2.769   6.287   6.670
 3609SOL    HW127969   2.684   6.271   6.628
 3609SOL    HW227970   2.831   6.233   6.620
 3610SOL     OW27971   5.187   5.089   6.095
 3610SOL    HW127972   5.134   5.019   6.056
 3610SOL    HW227973   5.141   5.170   6.072
 3611SOL     OW27974   2.799   3.138   6.831
 3611SOL    HW127975   2.796   3.104   6.921
 3611SOL    HW227976   2.709   3.167   6.814
 3612SOL     OW27977   3.857   3.818   7.400
 3612SOL    HW127978   3.844   3.728   7.428
 3612SOL    HW227979   3.941   3.817   7.354
 3613SOL     OW27980   3.183   4.863   0.585
 3613SOL    HW127981   3.234   4.913   0.649
 3613SOL    HW227982   3.107   4.831   0.633
 3614SOL     OW27983   3.923   1.363   5.962
 3614SOL    HW127984   3.914   1.440   5.905
 3614SOL    HW227985   3.943   1.399   6.048
 3615SOL     OW27986   3.810   5.699   1.832
 3615SOL    HW127987   3.875   5.704   1.902
 3615SOL    HW227988   3.852   5.646   1.764
 3616SOL     OW27989   5.885   3.942   6.169
 3616SOL    HW127990   5.855   4.020   6.123
 3616SOL    HW227991   5.804   3.897   6.195
 3617SOL     OW27992   5.870   5.990   7.273
 3617SOL    HW127993   5.918   6.070   7.255
 3617SOL    HW227994   5.801   6.016   7.334
 3618SOL     OW27995   0.924   3.100   6.299
 3618SOL    HW127996   0.909   3.158   6.374
 3618SOL    HW227997   0.975   3.027   6.334
 3619SOL     OW27998   4.541   0.539   0.531
 3619SOL    HW127999   4.579   0.591   0.602
 3619SOL    HW228000   4.453   0.518   0.561
 3620SOL     OW28001   0.987   6.071   7.088
 3620SOL    HW128002   0.984   5.987   7.135
 3620SOL    HW228003   1.070   6.068   7.039
 3621SOL     OW28004   1.054   4.183   7.484
 3621SOL    HW128005   0.997   4.217   7.554
 3621SOL    HW228006   1.092   4.261   7.444
 3622SOL     OW28007   1.269   4.595   0.181
 3622SOL    HW128008   1.187   4.563   0.218
 3622SOL    HW228009   1.336   4.540   0.221
 3623SOL     OW28010   3.095   2.025   7.079
 3623SOL    HW128011   3.091   1.960   7.149
 3623SOL    HW228012   3.003   2.039   7.055
 3624SOL     OW28013   4.618   1.232   1.147
 3624SOL    HW128014   4.658   1.313   1.114
 3624SOL    HW228015   4.688   1.191   1.199
 3625SOL     OW28016   5.451   0.434   0.261
 3625SOL    HW128017   5.413   0.487   0.191
 3625SOL    HW228018   5.485   0.498   0.324
 3626SOL     OW28019   6.435   0.765   0.084
 3626SOL    HW128020   6.524   0.779   0.117
 3626SOL    HW228021   6.382   0.827   0.134
 3627SOL     OW28022   0.169   5.710   2.211
 3627SOL    HW128023   0.192   5.619   2.231
 3627SOL    HW228024   0.091   5.704   2.157
 3628SOL     OW28025   0.118   3.783   1.580
 3628SOL    HW128026   0.112   3.801   1.486
 3628SOL    HW228027   0.209   3.758   1.594
 3629SOL     OW28028   5.640   3.781   0.980
 3629SOL    HW128029   5.684   3.858   1.017
 3629SOL    HW228030   5.707   3.739   0.927
 3630SOL     OW28031   4.635   5.397   6.611
 3630SOL    HW128032   4.584   5.369   6.535
 3630SOL    HW228033   4.633   5.493   6.607
 3631SOL     OW28034   0.162   4.176   0.482
 3631SOL    HW128035   0.090   4.227   0.444
 3631SOL    HW228036   0.121   4.094   0.508
 3632SOL     OW28037   6.382   2.885   6.086
 3632SOL    HW128038   6.295   2.911   6.054
 3632SOL    HW228039   6.377   2.898   6.181
 3633SOL     OW28040   4.194   6.164   7.404
 3633SOL    HW128041   4.116   6.135   7.357
 3633SOL    HW228042   4.261   6.174   7.337
 3634SOL     OW28043   5.407   0.758   1.883
 3634SOL    HW128044   5.442   0.831   1.935
 3634SOL    HW228045   5.319   0.744   1.917
 3635SOL     OW28046   3.288   4.963   5.829
 3635SOL    HW128047   3.378   4.996   5.838
 3635SOL    HW228048   3.278   4.946   5.735
 3636SOL     OW28049   0.490   0.640   7.280
 3636SOL    HW128050   0.582   0.662   7.268
 3636SOL    HW228051   0.489   0.544   7.287
 3637SOL     OW28052   6.049   5.467   6.359
 3637SOL    HW128053   6.008   5.401   6.415
 3637SOL    HW228054   5.984   5.536   6.352
 3638SOL     OW28055   5.000   4.804   2.541
 3638SOL    HW128056   5.012   4.716   2.508
 3638SOL    HW228057   4.905   4.813   2.553
 3639SOL     OW28058   2.477   1.108   7.446
 3639SOL    HW128059   2.485   1.046   7.518
 3639SOL    HW228060   2.490   1.194   7.487
 3640SOL     OW28061   5.881   3.274   7.080
 3640SOL    HW128062   5.853   3.193   7.122
 3640SOL    HW228063   5.974   3.282   7.100
 3641SOL     OW28064   3.878   2.856   7.529
 3641SOL    HW128065   3.885   2.871   7.434
 3641SOL    HW228066   3.877   2.761   7.538
 3642SOL     OW28067   2.149   2.813   5.688
 3642SOL    HW128068   2.221   2.859   5.731
 3642SOL    HW228069   2.189   2.763   5.618
 3643SOL     OW28070   2.329   3.389   1.485
 3643SOL    HW128071   2.286   3.305   1.505
 3643SOL    HW228072   2.342   3.430   1.570
 3644SOL     OW28073   4.880   1.139   1.618
 3644SOL    HW128074   4.969   1.125   1.650
 3644SOL    HW228075   4.828   1.152   1.697
 3645SOL     OW28076   5.232   3.784   5.647
 3645SOL    HW128077   5.216   3.701   5.691
 3645SOL    HW228078   5.324   3.805   5.668
 3646SOL     OW28079   5.589   2.090   0.473
 3646SOL    HW128080   5.526   2.151   0.435
 3646SOL    HW228081   5.623   2.042   0.398
 3647SOL     OW28082   0.159   3.060   7.591
 3647SOL    HW128083   0.216   3.014   7.653
 3647SOL    HW228084   0.194   3.038   7.505
 3648SOL     OW28085   1.011   4.842   5.958
 3648SOL    HW128086   0.950   4.915   5.970
 3648SOL    HW228087   1.050   4.858   5.872
 3649SOL     OW28088   5.483   4.286   6.936
 3649SOL    HW128089   5.527   4.367   6.962
 3649SOL    HW228090   5.458   4.301   6.845
 3650SOL     OW28091   2.924   3.200   6.354
 3650SOL    HW128092   2.884   3.117   6.329
 3650SOL    HW228093   2.959   3.186   6.441
 3651SOL     OW28094   3.945   5.918   6.265
 3651SOL    HW128095   3.933   5.901   6.358
 3651SOL    HW228096   3.859   5.899   6.226
 3652SOL     OW28097   4.288   0.566   0.646
 3652SOL    HW128098   4.309   0.557   0.739
 3652SOL    HW228099   4.194   0.551   0.641
 3653SOL     OW28100   1.038   1.862   1.136
 3653SOL    HW128101   1.103   1.905   1.190
 3653SOL    HW228102   1.044   1.906   1.051
 3654SOL     OW28103   3.058   5.176   2.045
 3654SOL    HW128104   3.113   5.114   1.999
 3654SOL    HW228105   2.969   5.145   2.030
 3655SOL     OW28106   4.173   3.623   7.397
 3655SOL    HW128107   4.174   3.553   7.462
 3655SOL    HW228108   4.133   3.583   7.319
 3656SOL     OW28109   5.330   4.655   2.650
 3656SOL    HW128110   5.306   4.737   2.693
 3656SOL    HW228111   5.417   4.634   2.686
 3657SOL     OW28112   3.366   3.647   6.312
 3657SOL    HW128113   3.454   3.685   6.316
 3657SOL    HW228114   3.351   3.632   6.219
 3658SOL     OW28115   2.176   6.273   7.786
 3658SOL    HW128116   2.084   6.272   7.766
 3658SOL    HW228117   2.199   6.180   7.798
 3659SOL     OW28118   1.614   5.998   6.034
 3659SOL    HW128119   1.632   5.998   5.940
 3659SOL    HW228120   1.686   5.947   6.072
 3660SOL     OW28121   2.851   3.394   0.463
 3660SOL    HW128122   2.946   3.399   0.455
 3660SOL    HW228123   2.836   3.333   0.535
 3661SOL     OW28124   3.740   1.729   1.852
 3661SOL    HW128125   3.728   1.635   1.861
 3661SOL    HW228126   3.697   1.751   1.770
 3662SOL     OW28127   3.048   4.607   6.716
 3662SOL    HW128128   3.095   4.661   6.780
 3662SOL    HW228129   2.958   4.639   6.718
 3663SOL     OW28130   2.730   4.633   5.532
 3663SOL    HW128131   2.669   4.706   5.543
 3663SOL    HW228132   2.734   4.592   5.618
 3664SOL     OW28133   5.118   4.059   2.539
 3664SOL    HW128134   5.146   3.978   2.495
 3664SOL    HW228135   5.057   4.030   2.607
 3665SOL     OW28136   1.311   4.788   0.373
 3665SOL    HW128137   1.405   4.772   0.386
 3665SOL    HW228138   1.290   4.739   0.293
 3666SOL     OW28139   5.895   4.542   1.556
 3666SOL    HW128140   5.957   4.561   1.627
 3666SOL    HW228141   5.812   4.579   1.587
 3667SOL     OW28142   1.735   3.765   5.874
 3667SOL    HW128143   1.800   3.697   5.888
 3667SOL    HW228144   1.758   3.834   5.936
 3668SOL     OW28145   4.033   3.432   1.578
 3668SOL    HW128146   4.109   3.453   1.632
 3668SOL    HW228147   3.991   3.359   1.622
 3669SOL     OW28148   5.391   1.654   2.318
 3669SOL    HW128149   5.436   1.668   2.401
 3669SOL    HW228150   5.299   1.674   2.337
 3670SOL     OW28151   4.650   0.812   6.225
 3670SOL    HW128152   4.626   0.848   6.140
 3670SOL    HW228153   4.746   0.806   6.222
 3671SOL     OW28154   4.726   5.831   5.669
 3671SOL    HW128155   4.649   5.775   5.661
 3671SOL    HW228156   4.700   5.912   5.625
 3672SOL     OW28157   3.724   2.336   6.244
 3672SOL    HW128158   3.648   2.339   6.186
 3672SOL    HW228159   3.687   2.332   6.332
 3673SOL     OW28160   5.791   2.724   6.525
 3673SOL    HW128161   5.705   2.741   6.561
 3673SOL    HW228162   5.830   2.660   6.585
 3674SOL     OW28163   4.005   1.360   0.569
 3674SOL    HW128164   3.988   1.285   0.511
 3674SOL    HW228165   3.989   1.325   0.657
 3675SOL     OW28166   0.866   1.966   6.934
 3675SOL    HW128167   0.920   1.953   7.012
 3675SOL    HW228168   0.788   1.913   6.950
 3676SOL     OW28169   3.770   4.051   2.038
 3676SOL    HW128170   3.772   3.995   2.116
 3676SOL    HW228171   3.794   3.992   1.966
 3677SOL     OW28172   0.682   0.939   7.020
 3677SOL    HW128173   0.724   0.863   7.062
 3677SOL    HW228174   0.700   1.012   7.079
 3678SOL     OW28175   4.895   4.760   0.425
 3678SOL    HW128176   4.973   4.710   0.449
 3678SOL    HW228177   4.928   4.831   0.370
 3679SOL     OW28178   6.034   4.208   7.565
 3679SOL    HW128179   6.051   4.257   7.645
 3679SOL    HW228180   6.085   4.253   7.498
 3680SOL     OW28181   1.114   0.707   5.968
 3680SOL    HW128182   1.037   0.656   5.994
 3680SOL    HW228183   1.188   0.648   5.987
 3681SOL     OW28184   2.459   3.659   7.719
 3681SOL    HW128185   2.436   3.675   7.628
 3681SOL    HW228186   2.393   3.597   7.750
 3682SOL     OW28187   6.288   0.386   6.143
 3682SOL    HW128188   6.302   0.337   6.062
 3682SOL    HW228189   6.193   0.384   6.157
 3683SOL     OW28190   5.718   5.384   1.035
 3683SOL    HW128191   5.808   5.414   1.019
 3683SOL    HW228192   5.699   5.327   0.960
 3684SOL     OW28193   0.850   0.549   0.520
 3684SOL    HW128194   0.791   0.507   0.583
 3684SOL    HW228195   0.937   0.512   0.540
 3685SOL     OW28196   0.086   4.589   0.133
 3685SOL    HW128197   0.118   4.560   0.048
 3685SOL    HW228198  -0.009   4.583   0.126
 3686SOL     OW28199   5.466   3.729   1.190
 3686SOL    HW128200   5.410   3.677   1.132
 3686SOL    HW228201   5.525   3.774   1.130
 3687SOL     OW28202   5.373   0.953   0.306
 3687SOL    HW128203   5.298   1.012   0.299
 3687SOL    HW228204   5.381   0.936   0.399
 3688SOL     OW28205   0.895   2.748   6.553
 3688SOL    HW128206   0.815   2.696   6.544
 3688SOL    HW228207   0.895   2.775   6.645
 3689SOL     OW28208   4.307   0.215   1.613
 3689SOL    HW128209   4.314   0.164   1.532
 3689SOL    HW228210   4.214   0.220   1.631
 3690SOL     OW28211   0.501   4.107   1.467
 3690SOL    HW128212   0.496   4.056   1.386
 3690SOL    HW228213   0.466   4.048   1.534
 3691SOL     OW28214   4.390   1.633   5.790
 3691SOL    HW128215   4.418   1.722   5.812
 3691SOL    HW228216   4.296   1.641   5.772
 3692SOL     OW28217   5.763   6.279   6.730
 3692SOL    HW128218   5.795   6.264   6.819
 3692SOL    HW228219   5.840   6.264   6.674
 3693SOL     OW28220   1.790   0.866   5.420
 3693SOL    HW128221   1.859   0.831   5.476
 3693SOL    HW228222   1.739   0.923   5.478
 3694SOL     OW28223   0.447   2.622   0.818
 3694SOL    HW128224   0.472   2.651   0.731
 3694SOL    HW228225   0.473   2.530   0.821
 3695SOL     OW28226   4.379   6.318   6.424
 3695SOL    HW128227   4.309   6.381   6.440
 3695SOL    HW228228   4.452   6.370   6.392
 3696SOL     OW28229   0.196   6.110   6.835
 3696SOL    HW128230   0.190   6.078   6.745
 3696SOL    HW228231   0.110   6.091   6.873
 3697SOL     OW28232   5.510   1.714   2.060
 3697SOL    HW128233   5.461   1.674   2.132
 3697SOL    HW228234   5.593   1.666   2.059
 3698SOL     OW28235   1.696   5.046   1.508
 3698SOL    HW128236   1.660   5.098   1.437
 3698SOL    HW228237   1.693   4.956   1.477
 3699SOL     OW28238   4.779   5.551   0.484
 3699SOL    HW128239   4.773   5.476   0.543
 3699SOL    HW228240   4.749   5.518   0.399
 3700SOL     OW28241   5.067   4.619   2.024
 3700SOL    HW128242   5.084   4.706   2.060
 3700SOL    HW228243   4.995   4.633   1.962
 3701SOL     OW28244   0.387   2.988   0.723
 3701SOL    HW128245   0.393   3.068   0.670
 3701SOL    HW228246   0.474   2.948   0.715
 3702SOL     OW28247   4.742   4.875   7.740
 3702SOL    HW128248   4.789   4.943   7.692
 3702SOL    HW228249   4.685   4.835   7.675
 3703SOL     OW28250   5.469   3.747   0.743
 3703SOL    HW128251   5.536   3.704   0.796
 3703SOL    HW228252   5.413   3.676   0.713
 3704SOL     OW28253   2.975   1.538   0.739
 3704SOL    HW128254   2.896   1.592   0.743
 3704SOL    HW228255   2.976   1.492   0.823
 3705SOL     OW28256   5.053   3.731   7.186
 3705SOL    HW128257   5.018   3.647   7.216
 3705SOL    HW228258   5.093   3.712   7.102
 3706SOL     OW28259   2.111   3.820   0.122
 3706SOL    HW128260   2.103   3.852   0.032
 3706SOL    HW228261   2.100   3.725   0.115
 3707SOL     OW28262   5.658   1.881   5.561
 3707SOL    HW128263   5.562   1.881   5.557
 3707SOL    HW228264   5.681   1.788   5.558
 3708SOL     OW28265   4.894   2.814   7.133
 3708SOL    HW128266   4.889   2.766   7.050
 3708SOL    HW228267   4.974   2.866   7.126
 3709SOL     OW28268   3.371   5.021   6.116
 3709SOL    HW128269   3.329   5.056   6.038
 3709SOL    HW228270   3.450   4.979   6.083
 3710SOL     OW28271   5.145   2.147   5.383
 3710SOL    HW128272   5.173   2.226   5.429
 3710SOL    HW228273   5.226   2.105   5.354
 3711SOL     OW28274   6.216   2.433   2.028
 3711SOL    HW128275   6.199   2.436   2.122
 3711SOL    HW228276   6.308   2.461   2.020
 3712SOL     OW28277   3.409   1.724   7.220
 3712SOL    HW128278   3.443   1.736   7.308
 3712SOL    HW228279   3.473   1.668   7.177
 3713SOL     OW28280   5.605   5.740   7.010
 3713SOL    HW128281   5.527   5.791   7.029
 3713SOL    HW228282   5.582   5.688   6.934
 3714SOL     OW28283   1.651   4.624   0.651
 3714SOL    HW128284   1.717   4.556   0.663
 3714SOL    HW228285   1.568   4.582   0.671
 3715SOL     OW28286   1.384   5.806   7.230
 3715SOL    HW128287   1.322   5.827   7.300
 3715SOL    HW228288   1.453   5.872   7.238
 3716SOL     OW28289   3.795   4.171   0.136
 3716SOL    HW128290   3.859   4.149   0.068
 3716SOL    HW228291   3.777   4.088   0.181
 3717SOL     OW28292   2.708   6.384   5.506
 3717SOL    HW128293   2.714   6.302   5.556
 3717SOL    HW228294   2.798   6.402   5.480
 3718SOL     OW28295   1.958   0.499   6.236
 3718SOL    HW128296   2.053   0.487   6.238
 3718SOL    HW228297   1.935   0.481   6.145
 3719SOL     OW28298   2.244   6.353   5.983
 3719SOL    HW128299   2.251   6.326   5.892
 3719SOL    HW228300   2.165   6.407   5.987
 3720SOL     OW28301   6.088   2.814   1.823
 3720SOL    HW128302   5.995   2.790   1.822
 3720SOL    HW228303   6.135   2.731   1.831
 3721SOL     OW28304   2.887   1.534   1.282
 3721SOL    HW128305   2.892   1.499   1.371
 3721SOL    HW228306   2.941   1.613   1.283
 3722SOL     OW28307   1.760   2.202   6.938
 3722SOL    HW128308   1.687   2.226   6.882
 3722SOL    HW228309   1.811   2.139   6.886
 3723SOL     OW28310   1.484   1.366   0.154
 3723SOL    HW128311   1.555   1.430   0.152
 3723SOL    HW228312   1.423   1.400   0.220
 3724SOL     OW28313   6.353   6.280   7.634
 3724SOL    HW128314   6.428   6.253   7.581
 3724SOL    HW228315   6.284   6.217   7.613
 3725SOL     OW28316   2.489   5.534   7.682
 3725SOL    HW128317   2.494   5.553   7.776
 3725SOL    HW228318   2.515   5.442   7.675
 3726SOL     OW28319   1.449   3.902   1.147
 3726SOL    HW128320   1.419   3.811   1.149
 3726SOL    HW228321   1.540   3.896   1.117
 3727SOL     OW28322   1.989   1.225   6.123
 3727SOL    HW128323   2.066   1.274   6.093
 3727SOL    HW228324   1.936   1.213   6.045
 3728SOL     OW28325   1.413   1.897   6.144
 3728SOL    HW128326   1.493   1.881   6.193
 3728SOL    HW228327   1.355   1.825   6.169
 3729SOL     OW28328   5.240   3.113   5.925
 3729SOL    HW128329   5.182   3.067   5.985
 3729SOL    HW228330   5.182   3.146   5.856
 3730SOL     OW28331   6.046   5.129   0.306
 3730SOL    HW128332   6.016   5.093   0.222
 3730SOL    HW228333   6.049   5.054   0.364
 3731SOL     OW28334   3.924   5.050   2.291
 3731SOL    HW128335   3.882   5.041   2.377
 3731SOL    HW228336   4.001   4.993   2.296
 3732SOL     OW28337   4.227   3.960   7.009
 3732SOL    HW128338   4.225   3.866   7.029
 3732SOL    HW228339   4.207   3.964   6.915
 3733SOL     OW28340   4.891   6.127   7.326
 3733SOL    HW128341   4.960   6.113   7.390
 3733SOL    HW228342   4.928   6.190   7.264
 3734SOL     OW28343   2.360   0.791   7.482
 3734SOL    HW128344   2.421   0.725   7.449
 3734SOL    HW228345   2.279   0.776   7.434
 3735SOL     OW28346   3.776   2.209   6.927
 3735SOL    HW128347   3.829   2.168   6.859
 3735SOL    HW228348   3.724   2.138   6.963
 3736SOL     OW28349   1.502   3.487   6.887
 3736SOL    HW128350   1.579   3.465   6.939
 3736SOL    HW228351   1.521   3.574   6.851
 3737SOL     OW28352   0.949   4.395   1.136
 3737SOL    HW128353   0.990   4.475   1.104
 3737SOL    HW228354   0.980   4.326   1.078
 3738SOL     OW28355   1.880   1.899   6.590
 3738SOL    HW128356   1.906   1.807   6.587
 3738SOL    HW228357   1.906   1.928   6.677
 3739SOL     OW28358   0.276   5.774   1.458
 3739SOL    HW128359   0.299   5.861   1.491
 3739SOL    HW228360   0.181   5.777   1.445
 3740SOL     OW28361   5.598   1.715   1.204
 3740SOL    HW128362   5.581   1.699   1.112
 3740SOL    HW228363   5.612   1.810   1.210
 3741SOL     OW28364   2.035   3.660   5.669
 3741SOL    HW128365   1.977   3.607   5.724
 3741SOL    HW228366   2.122   3.645   5.704
 3742SOL     OW28367   0.067   1.982   0.303
 3742SOL    HW128368   0.106   1.971   0.216
 3742SOL    HW228369  -0.026   1.967   0.290
 3743SOL     OW28370   3.972   3.732   6.713
 3743SOL    HW128371   3.997   3.804   6.770
 3743SOL    HW228372   3.891   3.698   6.750
 3744SOL     OW28373   5.180   4.964   1.447
 3744SOL    HW128374   5.209   4.947   1.536
 3744SOL    HW228375   5.259   4.955   1.394
 3745SOL     OW28376   4.237   3.487   6.884
 3745SOL    HW128377   4.271   3.431   6.816
 3745SOL    HW228378   4.142   3.478   6.878
 3746SOL     OW28379   4.679   2.705   0.732
 3746SOL    HW128380   4.755   2.762   0.733
 3746SOL    HW228381   4.645   2.712   0.643
 3747SOL     OW28382   0.739   5.067   7.177
 3747SOL    HW128383   0.667   5.020   7.135
 3747SOL    HW228384   0.715   5.071   7.269
 3748SOL     OW28385   3.465   2.441   1.895
 3748SOL    HW128386   3.538   2.381   1.885
 3748SOL    HW228387   3.501   2.514   1.946
 3749SOL     OW28388   3.064   5.731   5.458
 3749SOL    HW128389   3.099   5.773   5.536
 3749SOL    HW228390   3.093   5.640   5.464
 3750SOL     OW28391   0.130   3.984   1.845
 3750SOL    HW128392   0.106   4.071   1.812
 3750SOL    HW228393   0.059   3.927   1.815
 3751SOL     OW28394   6.395   5.242   7.328
 3751SOL    HW128395   6.385   5.310   7.395
 3751SOL    HW228396   6.402   5.161   7.378
 3752SOL     OW28397   2.361   4.450   6.605
 3752SOL    HW128398   2.388   4.369   6.563
 3752SOL    HW228399   2.378   4.436   6.698
 3753SOL     OW28400   1.129   1.701   0.239
 3753SOL    HW128401   1.167   1.757   0.307
 3753SOL    HW228402   1.040   1.735   0.227
 3754SOL     OW28403   3.846   3.001   0.243
 3754SOL    HW128404   3.759   2.976   0.210
 3754SOL    HW228405   3.896   2.920   0.240
 3755SOL     OW28406   2.108   6.005   0.064
 3755SOL    HW128407   2.074   5.933   0.117
 3755SOL    HW228408   2.145   5.961  -0.013
 3756SOL     OW28409   5.979   3.568   7.110
 3756SOL    HW128410   5.957   3.475   7.111
 3756SOL    HW228411   5.896   3.613   7.124
 3757SOL     OW28412   0.018   0.249   1.294
 3757SOL    HW128413   0.039   0.335   1.332
 3757SOL    HW228414  -0.020   0.200   1.366
 3758SOL     OW28415   2.000   5.277   1.387
 3758SOL    HW128416   2.058   5.261   1.462
 3758SOL    HW228417   1.994   5.192   1.343
 3759SOL     OW28418   4.607   1.344   1.477
 3759SOL    HW128419   4.656   1.320   1.399
 3759SOL    HW228420   4.659   1.310   1.550
 3760SOL     OW28421   3.076   0.216   6.180
 3760SOL    HW128422   3.080   0.158   6.104
 3760SOL    HW228423   3.010   0.281   6.158
 3761SOL     OW28424   3.993   3.732   5.982
 3761SOL    HW128425   4.034   3.658   5.937
 3761SOL    HW228426   3.979   3.797   5.913
 3762SOL     OW28427   1.823   3.266   1.174
 3762SOL    HW128428   1.814   3.174   1.149
 3762SOL    HW228429   1.739   3.289   1.214
 3763SOL     OW28430   0.113   5.993   6.284
 3763SOL    HW128431   0.165   5.915   6.303
 3763SOL    HW228432   0.167   6.066   6.315
 3764SOL     OW28433   3.346   1.920   0.699
 3764SOL    HW128434   3.421   1.926   0.640
 3764SOL    HW228435   3.309   1.833   0.681
 3765SOL     OW28436   3.789   1.348   1.282
 3765SOL    HW128437   3.753   1.356   1.194
 3765SOL    HW228438   3.882   1.332   1.269
 3766SOL     OW28439   4.063   5.857   6.782
 3766SOL    HW128440   4.081   5.944   6.745
 3766SOL    HW228441   3.999   5.818   6.722
 3767SOL     OW28442   5.759   2.683   7.382
 3767SOL    HW128443   5.842   2.684   7.430
 3767SOL    HW228444   5.709   2.612   7.423
 3768SOL     OW28445   0.169   2.992   1.245
 3768SOL    HW128446   0.200   2.908   1.210
 3768SOL    HW228447   0.079   2.975   1.273
 3769SOL     OW28448   4.253   4.509   5.605
 3769SOL    HW128449   4.343   4.485   5.582
 3769SOL    HW228450   4.226   4.570   5.536
 3770SOL     OW28451   6.245   1.123   1.022
 3770SOL    HW128452   6.202   1.181   0.960
 3770SOL    HW228453   6.246   1.172   1.104
 3771SOL     OW28454   4.601   1.521   5.662
 3771SOL    HW128455   4.511   1.545   5.683
 3771SOL    HW228456   4.618   1.442   5.713
 3772SOL     OW28457   2.248   5.308   1.215
 3772SOL    HW128458   2.213   5.245   1.152
 3772SOL    HW228459   2.267   5.257   1.293
 3773SOL     OW28460   3.696   2.851   1.245
 3773SOL    HW128461   3.718   2.776   1.302
 3773SOL    HW228462   3.777   2.903   1.243
 3774SOL     OW28463   5.761   3.036   0.074
 3774SOL    HW128464   5.811   3.113   0.046
 3774SOL    HW228465   5.676   3.071   0.100
 3775SOL     OW28466   5.739   4.260   0.052
 3775SOL    HW128467   5.668   4.315   0.018
 3775SOL    HW228468   5.707   4.171   0.043
 3776SOL     OW28469   6.377   6.080   1.968
 3776SOL    HW128470   6.419   6.075   1.882
 3776SOL    HW228471   6.287   6.050   1.953
 3777SOL     OW28472   5.687   2.663   0.531
 3777SOL    HW128473   5.728   2.747   0.511
 3777SOL    HW228474   5.600   2.669   0.491
 3778SOL     OW28475   3.644   6.392   1.640
 3778SOL    HW128476   3.597   6.469   1.673
 3778SOL    HW228477   3.615   6.383   1.549
 3779SOL     OW28478   6.438   1.110   1.957
 3779SOL    HW128479   6.384   1.189   1.955
 3779SOL    HW228480   6.385   1.045   1.911
 3780SOL     OW28481   6.022   0.151   0.733
 3780SOL    HW128482   6.114   0.162   0.711
 3780SOL    HW228483   6.000   0.227   0.787
 3781SOL     OW28484   1.294   0.668   6.664
 3781SOL    HW128485   1.239   0.657   6.586
 3781SOL    HW228486   1.285   0.585   6.712
 3782SOL     OW28487   0.379   1.721   6.344
 3782SOL    HW128488   0.284   1.710   6.350
 3782SOL    HW228489   0.410   1.705   6.433
 3783SOL     OW28490   3.610   2.099   7.668
 3783SOL    HW128491   3.639   2.140   7.750
 3783SOL    HW228492   3.525   2.139   7.650
 3784SOL     OW28493   1.686   5.541   7.724
 3784SOL    HW128494   1.691   5.597   7.647
 3784SOL    HW228495   1.620   5.475   7.701
 3785SOL     OW28496   1.496   4.562   7.756
 3785SOL    HW128497   1.455   4.622   7.818
 3785SOL    HW228498   1.427   4.539   7.694
 3786SOL     OW28499   3.974   1.557   6.721
 3786SOL    HW128500   4.002   1.471   6.690
 3786SOL    HW228501   3.944   1.603   6.643
 3787SOL     OW28502   1.382   0.718   7.464
 3787SOL    HW128503   1.325   0.646   7.489
 3787SOL    HW228504   1.448   0.678   7.408
 3788SOL     OW28505   6.156   6.070   2.762
 3788SOL    HW128506   6.098   6.073   2.838
 3788SOL    HW228507   6.097   6.068   2.687
 3789SOL     OW28508   6.348   6.379   0.959
 3789SOL    HW128509   6.326   6.289   0.933
 3789SOL    HW228510   6.279   6.403   1.021
 3790SOL     OW28511   3.441   3.617   1.871
 3790SOL    HW128512   3.494   3.651   1.799
 3790SOL    HW228513   3.484   3.536   1.897
 3791SOL     OW28514   5.041   2.411   0.720
 3791SOL    HW128515   5.063   2.318   0.711
 3791SOL    HW228516   4.946   2.413   0.731
 3792SOL     OW28517   3.894   6.424   1.754
 3792SOL    HW128518   3.826   6.381   1.702
 3792SOL    HW228519   3.848   6.491   1.804
 3793SOL     OW28520   0.101   0.572   0.493
 3793SOL    HW128521   0.074   0.529   0.575
 3793SOL    HW228522   0.019   0.589   0.447
 3794SOL     OW28523   5.502   1.702   5.961
 3794SOL    HW128524   5.540   1.788   5.977
 3794SOL    HW228525   5.507   1.692   5.866
 3795SOL     OW28526   6.145   5.830   1.385
 3795SOL    HW128527   6.144   5.809   1.478
 3795SOL    HW228528   6.064   5.791   1.350
 3796SOL     OW28529   1.444   1.523   1.011
 3796SOL    HW128530   1.440   1.461   0.939
 3796SOL    HW228531   1.356   1.524   1.048
 3797SOL     OW28532   3.868   4.181   1.350
 3797SOL    HW128533   3.850   4.088   1.342
 3797SOL    HW228534   3.783   4.221   1.369
 3798SOL     OW28535   2.689   4.278   6.382
 3798SOL    HW128536   2.747   4.211   6.418
 3798SOL    HW228537   2.737   4.311   6.305
 3799SOL     OW28538   0.262   1.129   0.235
 3799SOL    HW128539   0.230   1.151   0.322
 3799SOL    HW228540   0.347   1.172   0.229
 3800SOL     OW28541   5.110   1.069   1.401
 3800SOL    HW128542   5.039   1.007   1.420
 3800SOL    HW228543   5.188   1.027   1.437
 3801SOL     OW28544   4.285   2.353   6.387
 3801SOL    HW128545   4.329   2.370   6.305
 3801SOL    HW228546   4.242   2.268   6.374
 3802SOL     OW28547   0.981   0.769   6.877
 3802SOL    HW128548   1.023   0.791   6.794
 3802SOL    HW228549   1.023   0.687   6.905
 3803SOL     OW28550   4.439   2.010   6.809
 3803SOL    HW128551   4.435   2.016   6.905
 3803SOL    HW228552   4.350   2.028   6.780
 3804SOL     OW28553   4.878   4.921   0.198
 3804SOL    HW128554   4.947   4.975   0.158
 3804SOL    HW228555   4.826   4.889   0.123
 3805SOL     OW28556   0.335   3.503   0.616
 3805SOL    HW128557   0.373   3.585   0.584
 3805SOL    HW228558   0.328   3.516   0.711
 3806SOL     OW28559   1.312   4.141   0.197
 3806SOL    HW128560   1.367   4.198   0.144
 3806SOL    HW228561   1.374   4.089   0.248
 3807SOL     OW28562   3.159   3.033   1.629
 3807SOL    HW128563   3.126   2.956   1.677
 3807SOL    HW228564   3.180   3.097   1.697
 3808SOL     OW28565   3.464   4.199   6.558
 3808SOL    HW128566   3.553   4.168   6.578
 3808SOL    HW228567   3.478   4.272   6.498
 3809SOL     OW28568   1.073   2.775   7.691
 3809SOL    HW128569   1.007   2.805   7.629
 3809SOL    HW228570   1.108   2.855   7.729
 3810SOL     OW28571   3.944   1.520   7.785
 3810SOL    HW128572   3.945   1.612   7.759
 3810SOL    HW228573   3.979   1.519   7.874
 3811SOL     OW28574   1.668   0.855   6.820
 3811SOL    HW128575   1.575   0.847   6.842
 3811SOL    HW228576   1.688   0.776   6.769
 3812SOL     OW28577   0.375   2.828   6.550
 3812SOL    HW128578   0.282   2.815   6.528
 3812SOL    HW228579   0.422   2.783   6.480
 3813SOL     OW28580   1.973   1.781   6.112
 3813SOL    HW128581   2.031   1.818   6.179
 3813SOL    HW228582   1.975   1.845   6.041
 3814SOL     OW28583   1.587   0.836   1.110
 3814SOL    HW128584   1.655   0.788   1.158
 3814SOL    HW228585   1.536   0.880   1.177
 3815SOL     OW28586   0.609   0.281   7.524
 3815SOL    HW128587   0.576   0.298   7.613
 3815SOL    HW228588   0.651   0.363   7.498
 3816SOL     OW28589   0.796   5.426   1.468
 3816SOL    HW128590   0.731   5.396   1.531
 3816SOL    HW228591   0.757   5.505   1.430
 3817SOL     OW28592   5.357   4.806   6.584
 3817SOL    HW128593   5.273   4.839   6.552
 3817SOL    HW228594   5.422   4.865   6.546
 3818SOL     OW28595   2.327   1.998   6.003
 3818SOL    HW128596   2.278   1.977   5.924
 3818SOL    HW228597   2.412   1.955   5.991
 3819SOL     OW28598   5.367   0.445   1.865
 3819SOL    HW128599   5.432   0.427   1.798
 3819SOL    HW228600   5.403   0.518   1.915
 3820SOL     OW28601   5.762   1.414   1.800
 3820SOL    HW128602   5.750   1.400   1.894
 3820SOL    HW228603   5.856   1.427   1.790
 3821SOL     OW28604   3.318   3.505   0.978
 3821SOL    HW128605   3.311   3.470   0.889
 3821SOL    HW228606   3.267   3.445   1.032
 3822SOL     OW28607   5.539   3.825   6.865
 3822SOL    HW128608   5.549   3.903   6.920
 3822SOL    HW228609   5.458   3.784   6.896
 3823SOL     OW28610   1.993   5.954   0.789
 3823SOL    HW128611   2.060   5.893   0.820
 3823SOL    HW228612   1.924   5.948   0.855
 3824SOL     OW28613   3.450   3.361   7.556
 3824SOL    HW128614   3.513   3.289   7.554
 3824SOL    HW228615   3.458   3.397   7.645
 3825SOL     OW28616   1.899   6.350   7.776
 3825SOL    HW128617   1.890   6.336   7.871
 3825SOL    HW228618   1.891   6.445   7.765
 3826SOL     OW28619   2.077   2.022   1.234
 3826SOL    HW128620   2.012   2.068   1.181
 3826SOL    HW228621   2.159   2.068   1.217
 3827SOL     OW28622   4.342   2.015   0.114
 3827SOL    HW128623   4.382   1.956   0.051
 3827SOL    HW228624   4.412   2.034   0.177
 3828SOL     OW28625   5.093   2.955   6.090
 3828SOL    HW128626   5.133   2.880   6.134
 3828SOL    HW228627   5.055   3.006   6.162
 3829SOL     OW28628   4.539   0.210   1.768
 3829SOL    HW128629   4.467   0.205   1.705
 3829SOL    HW228630   4.518   0.287   1.821
 3830SOL     OW28631   0.447   4.128   6.851
 3830SOL    HW128632   0.455   4.123   6.756
 3830SOL    HW228633   0.535   4.106   6.884
 3831SOL     OW28634   5.799   1.127   1.634
 3831SOL    HW128635   5.760   1.199   1.586
 3831SOL    HW228636   5.757   1.129   1.720
 3832SOL     OW28637   2.527   0.371   7.231
 3832SOL    HW128638   2.442   0.335   7.205
 3832SOL    HW228639   2.507   0.460   7.260
 3833SOL     OW28640   3.474   2.761   6.609
 3833SOL    HW128641   3.471   2.675   6.568
 3833SOL    HW228642   3.451   2.745   6.701
 3834SOL     OW28643   4.319   2.518   7.326
 3834SOL    HW128644   4.307   2.509   7.231
 3834SOL    HW228645   4.334   2.611   7.339
 3835SOL     OW28646   2.320   2.618   6.580
 3835SOL    HW128647   2.237   2.598   6.537
 3835SOL    HW228648   2.377   2.545   6.556
 3836SOL     OW28649   4.703   4.834   6.745
 3836SOL    HW128650   4.647   4.882   6.684
 3836SOL    HW228651   4.648   4.761   6.774
 3837SOL     OW28652   1.178   5.595   0.850
 3837SOL    HW128653   1.105   5.589   0.789
 3837SOL    HW228654   1.142   5.568   0.934
 3838SOL     OW28655   5.588   5.520   7.705
 3838SOL    HW128656   5.623   5.529   7.794
 3838SOL    HW228657   5.502   5.479   7.718
 3839SOL     OW28658   5.849   5.164   2.018
 3839SOL    HW128659   5.918   5.171   2.083
 3839SOL    HW228660   5.811   5.077   2.033
 3840SOL     OW28661   5.290   3.308   7.182
 3840SOL    HW128662   5.239   3.244   7.132
 3840SOL    HW228663   5.320   3.261   7.259
 3841SOL     OW28664   3.412   2.692   2.097
 3841SOL    HW128665   3.423   2.619   2.158
 3841SOL    HW228666   3.496   2.738   2.100
 3842SOL     OW28667   4.870   2.181   1.999
 3842SOL    HW128668   4.863   2.266   1.955
 3842SOL    HW228669   4.932   2.132   1.945
 3843SOL     OW28670   3.924   5.357   0.416
 3843SOL    HW128671   4.005   5.355   0.467
 3843SOL    HW228672   3.860   5.398   0.475
 3844SOL     OW28673   2.098   2.296   1.822
 3844SOL    HW128674   2.154   2.373   1.830
 3844SOL    HW228675   2.012   2.332   1.797
 3845SOL     OW28676   6.364   1.191   1.640
 3845SOL    HW128677   6.398   1.271   1.680
 3845SOL    HW228678   6.270   1.208   1.628
 3846SOL     OW28679   0.167   0.854   1.873
 3846SOL    HW128680   0.090   0.846   1.928
 3846SOL    HW228681   0.143   0.813   1.790
 3847SOL     OW28682   1.807   5.936   1.442
 3847SOL    HW128683   1.715   5.917   1.424
 3847SOL    HW228684   1.855   5.868   1.395
 3848SOL     OW28685   5.664   5.924   7.491
 3848SOL    HW128686   5.599   5.857   7.510
 3848SOL    HW228687   5.717   5.929   7.571
 3849SOL     OW28688   0.602   3.275   7.390
 3849SOL    HW128689   0.509   3.293   7.375
 3849SOL    HW228690   0.612   3.182   7.366
 3850SOL     OW28691   4.524   3.382   1.201
 3850SOL    HW128692   4.457   3.364   1.266
 3850SOL    HW228693   4.603   3.401   1.251
 3851SOL     OW28694   0.135   1.481   6.867
 3851SOL    HW128695   0.178   1.500   6.950
 3851SOL    HW228696   0.092   1.563   6.843
 3852SOL     OW28697   0.337   5.759   7.316
 3852SOL    HW128698   0.259   5.706   7.338
 3852SOL    HW228699   0.404   5.730   7.378
 3853SOL     OW28700   3.888   0.107   0.111
 3853SOL    HW128701   3.793   0.110   0.122
 3853SOL    HW228702   3.902   0.089   0.018
 3854SOL     OW28703   0.370   0.575   0.405
 3854SOL    HW128704   0.278   0.572   0.429
 3854SOL    HW228705   0.391   0.486   0.378
 3855SOL     OW28706   5.593   0.359   1.213
 3855SOL    HW128707   5.663   0.321   1.159
 3855SOL    HW228708   5.557   0.284   1.261
 3856SOL     OW28709   1.771   6.030   2.326
 3856SOL    HW128710   1.773   5.976   2.405
 3856SOL    HW228711   1.770   5.967   2.254
 3857SOL     OW28712   5.584   4.175   0.609
 3857SOL    HW128713   5.562   4.082   0.607
 3857SOL    HW228714   5.638   4.189   0.531
 3858SOL     OW28715   1.553   3.564   0.018
 3858SOL    HW128716   1.546   3.489  -0.042
 3858SOL    HW228717   1.503   3.633  -0.025
 3859SOL     OW28718   2.784   5.851   5.278
 3859SOL    HW128719   2.875   5.881   5.288
 3859SOL    HW228720   2.742   5.873   5.361
 3860SOL     OW28721   2.776   2.144   1.368
 3860SOL    HW128722   2.706   2.208   1.356
 3860SOL    HW228723   2.851   2.194   1.397
 3861SOL     OW28724   2.804   3.935   1.501
 3861SOL    HW128725   2.756   3.886   1.434
 3861SOL    HW228726   2.874   3.877   1.528
 3862SOL     OW28727   1.002   3.344   0.774
 3862SOL    HW128728   0.972   3.253   0.785
 3862SOL    HW228729   1.053   3.343   0.693
 3863SOL     OW28730   2.195   2.070   0.040
 3863SOL    HW128731   2.179   2.097   0.130
 3863SOL    HW228732   2.290   2.070   0.031
 3864SOL     OW28733   6.016   2.908   1.468
 3864SOL    HW128734   5.973   2.851   1.404
 3864SOL    HW228735   6.095   2.860   1.493
 3865SOL     OW28736   5.666   0.690   5.454
 3865SOL    HW128737   5.646   0.599   5.431
 3865SOL    HW228738   5.601   0.741   5.406
 3866SOL     OW28739   0.887   3.425   6.966
 3866SOL    HW128740   0.946   3.499   6.965
 3866SOL    HW228741   0.879   3.403   7.059
 3867SOL     OW28742   3.093   2.688   0.298
 3867SOL    HW128743   3.142   2.637   0.233
 3867SOL    HW228744   3.160   2.722   0.356
 3868SOL     OW28745   4.668   0.416   6.233
 3868SOL    HW128746   4.670   0.488   6.170
 3868SOL    HW228747   4.666   0.458   6.318
 3869SOL     OW28748   5.283   3.452   1.791
 3869SOL    HW128749   5.311   3.525   1.845
 3869SOL    HW228750   5.288   3.376   1.849
 3870SOL     OW28751   3.837   2.166   0.353
 3870SOL    HW128752   3.771   2.213   0.403
 3870SOL    HW228753   3.804   2.165   0.264
 3871SOL     OW28754   2.162   1.401   7.355
 3871SOL    HW128755   2.161   1.308   7.377
 3871SOL    HW228756   2.101   1.410   7.282
 3872SOL     OW28757   3.183   4.947   6.311
 3872SOL    HW128758   3.255   4.969   6.253
 3872SOL    HW228759   3.173   5.024   6.368
 3873SOL     OW28760   2.657   4.311   7.409
 3873SOL    HW128761   2.682   4.242   7.348
 3873SOL    HW228762   2.709   4.294   7.487
 3874SOL     OW28763   5.164   0.036   0.169
 3874SOL    HW128764   5.214  -0.036   0.208
 3874SOL    HW228765   5.080   0.033   0.215
 3875SOL     OW28766   3.726   2.015   1.093
 3875SOL    HW128767   3.680   2.014   1.177
 3875SOL    HW228768   3.674   2.075   1.038
 3876SOL     OW28769   1.433   5.215   1.059
 3876SOL    HW128770   1.381   5.149   1.103
 3876SOL    HW228771   1.446   5.181   0.970
 3877SOL     OW28772   1.559   1.923   0.894
 3877SOL    HW128773   1.482   1.882   0.934
 3877SOL    HW228774   1.634   1.881   0.936
 3878SOL     OW28775   0.433   2.704   6.830
 3878SOL    HW128776   0.393   2.738   6.750
 3878SOL    HW228777   0.361   2.661   6.877
 3879SOL     OW28778   1.427   5.713   6.199
 3879SOL    HW128779   1.335   5.727   6.223
 3879SOL    HW228780   1.423   5.678   6.110
 3880SOL     OW28781   5.772   2.204   0.648
 3880SOL    HW128782   5.718   2.176   0.575
 3880SOL    HW228783   5.779   2.299   0.638
 3881SOL     OW28784   5.187   0.757   2.066
 3881SOL    HW128785   5.155   0.825   2.125
 3881SOL    HW228786   5.153   0.675   2.101
 3882SOL     OW28787   0.803   1.685   2.192
 3882SOL    HW128788   0.724   1.738   2.201
 3882SOL    HW228789   0.826   1.691   2.099
 3883SOL     OW28790   0.318   4.552   5.749
 3883SOL    HW128791   0.318   4.456   5.755
 3883SOL    HW228792   0.304   4.570   5.656
 3884SOL     OW28793   0.965   1.050   1.768
 3884SOL    HW128794   0.994   1.013   1.852
 3884SOL    HW228795   0.993   0.986   1.703
 3885SOL     OW28796   2.396   0.758   6.536
 3885SOL    HW128797   2.468   0.702   6.508
 3885SOL    HW228798   2.430   0.806   6.612
 3886SOL     OW28799   5.946   1.127   1.224
 3886SOL    HW128800   5.924   1.108   1.133
 3886SOL    HW228801   5.867   1.105   1.273
 3887SOL     OW28802   6.070   6.013   5.218
 3887SOL    HW128803   6.039   6.085   5.272
 3887SOL    HW228804   6.163   6.005   5.240
 3888SOL     OW28805   4.840   0.580   2.338
 3888SOL    HW128806   4.884   0.496   2.326
 3888SOL    HW228807   4.757   0.558   2.379
 3889SOL     OW28808   1.139   5.511   6.564
 3889SOL    HW128809   1.202   5.438   6.563
 3889SOL    HW228810   1.174   5.571   6.630
 3890SOL     OW28811   2.799   0.659   1.626
 3890SOL    HW128812   2.803   0.564   1.610
 3890SOL    HW228813   2.717   0.686   1.586
 3891SOL     OW28814   1.608   2.881   0.022
 3891SOL    HW128815   1.638   2.799   0.059
 3891SOL    HW228816   1.629   2.947   0.088
 3892SOL     OW28817   2.198   6.119   6.815
 3892SOL    HW128818   2.242   6.079   6.890
 3892SOL    HW228819   2.268   6.162   6.766
 3893SOL     OW28820   1.677   4.114   7.055
 3893SOL    HW128821   1.673   4.152   6.967
 3893SOL    HW228822   1.743   4.167   7.101
 3894SOL     OW28823   5.476   3.860   6.594
 3894SOL    HW128824   5.383   3.842   6.610
 3894SOL    HW228825   5.520   3.834   6.675
 3895SOL     OW28826   3.045   6.147   7.463
 3895SOL    HW128827   3.002   6.146   7.377
 3895SOL    HW228828   3.019   6.231   7.501
 3896SOL     OW28829   5.926   5.360   0.413
 3896SOL    HW128830   5.963   5.280   0.377
 3896SOL    HW228831   5.933   5.424   0.342
 3897SOL     OW28832   4.913   6.401   6.746
 3897SOL    HW128833   4.826   6.411   6.707
 3897SOL    HW228834   4.904   6.327   6.805
 3898SOL     OW28835   4.167   1.579   7.520
 3898SOL    HW128836   4.245   1.524   7.525
 3898SOL    HW228837   4.095   1.518   7.503
 3899SOL     OW28838   2.889   3.768   0.915
 3899SOL    HW128839   2.817   3.736   0.968
 3899SOL    HW228840   2.894   3.706   0.842
 3900SOL     OW28841   4.767   2.570   6.356
 3900SOL    HW128842   4.706   2.540   6.289
 3900SOL    HW228843   4.711   2.595   6.430
 3901SOL     OW28844   1.166   2.078   6.133
 3901SOL    HW128845   1.124   2.023   6.067
 3901SOL    HW228846   1.252   2.038   6.147
 3902SOL     OW28847   2.343   5.839   7.556
 3902SOL    HW128848   2.346   5.819   7.649
 3902SOL    HW228849   2.403   5.776   7.515
 3903SOL     OW28850   6.299   2.519   7.425
 3903SOL    HW128851   6.293   2.506   7.520
 3903SOL    HW228852   6.369   2.583   7.414
 3904SOL     OW28853   5.382   3.641   0.384
 3904SOL    HW128854   5.385   3.611   0.475
 3904SOL    HW228855   5.288   3.645   0.364
 3905SOL     OW28856   2.211   4.186   6.241
 3905SOL    HW128857   2.275   4.256   6.259
 3905SOL    HW228858   2.145   4.228   6.188
 3906SOL     OW28859   5.364   2.051   0.827
 3906SOL    HW128860   5.343   1.970   0.781
 3906SOL    HW228861   5.340   2.120   0.764
 3907SOL     OW28862   4.083   1.807   7.277
 3907SOL    HW128863   4.121   1.808   7.190
 3907SOL    HW228864   4.151   1.844   7.334
 3908SOL     OW28865   4.169   3.196   0.674
 3908SOL    HW128866   4.241   3.170   0.617
 3908SOL    HW228867   4.096   3.139   0.648
 3909SOL     OW28868   2.203   4.267   7.791
 3909SOL    HW128869   2.124   4.315   7.812
 3909SOL    HW228870   2.266   4.335   7.766
 3910SOL     OW28871   3.224   5.363   1.988
 3910SOL    HW128872   3.220   5.408   2.072
 3910SOL    HW228873   3.149   5.303   1.988
 3911SOL     OW28874   1.349   2.635   7.343
 3911SOL    HW128875   1.434   2.658   7.380
 3911SOL    HW228876   1.367   2.555   7.293
 3912SOL     OW28877   0.377   3.137   2.014
 3912SOL    HW128878   0.468   3.107   2.012
 3912SOL    HW228879   0.371   3.189   2.094
 3913SOL     OW28880   4.753   1.681   6.347
 3913SOL    HW128881   4.703   1.757   6.318
 3913SOL    HW228882   4.836   1.687   6.301
 3914SOL     OW28883   4.457   5.092   1.101
 3914SOL    HW128884   4.541   5.129   1.127
 3914SOL    HW228885   4.445   5.016   1.159
 3915SOL     OW28886   6.044   1.962   6.379
 3915SOL    HW128887   5.959   1.997   6.352
 3915SOL    HW228888   6.057   1.885   6.323
 3916SOL     OW28889   4.457   0.888   0.934
 3916SOL    HW128890   4.545   0.927   0.936
 3916SOL    HW228891   4.401   0.952   0.977
 3917SOL     OW28892   4.876   5.757   0.062
 3917SOL    HW128893   4.858   5.765   0.156
 3917SOL    HW228894   4.839   5.673   0.038
 3918SOL     OW28895   3.315   0.510   7.614
 3918SOL    HW128896   3.272   0.462   7.685
 3918SOL    HW228897   3.406   0.518   7.642
 3919SOL     OW28898   1.430   4.050   7.499
 3919SOL    HW128899   1.374   3.988   7.452
 3919SOL    HW228900   1.430   4.018   7.589
 3920SOL     OW28901   4.554   5.444   1.510
 3920SOL    HW128902   4.588   5.356   1.494
 3920SOL    HW228903   4.477   5.431   1.565
 3921SOL     OW28904   4.383   5.005   0.674
 3921SOL    HW128905   4.429   4.954   0.609
 3921SOL    HW228906   4.323   5.060   0.624
 3922SOL     OW28907   5.326   4.774   0.989
 3922SOL    HW128908   5.420   4.766   1.003
 3922SOL    HW228909   5.287   4.765   1.077
 3923SOL     OW28910   3.990   0.445   7.113
 3923SOL    HW128911   3.908   0.447   7.063
 3923SOL    HW228912   3.967   0.401   7.195
 3924SOL     OW28913   4.433   4.358   1.425
 3924SOL    HW128914   4.356   4.409   1.449
 3924SOL    HW228915   4.456   4.388   1.337
 3925SOL     OW28916   4.913   0.794   6.200
 3925SOL    HW128917   4.963   0.847   6.137
 3925SOL    HW228918   4.955   0.708   6.198
 3926SOL     OW28919   5.782   4.426   2.736
 3926SOL    HW128920   5.851   4.417   2.801
 3926SOL    HW228921   5.824   4.468   2.661
 3927SOL     OW28922   4.575   2.773   6.190
 3927SOL    HW128923   4.486   2.803   6.210
 3927SOL    HW228924   4.632   2.831   6.241
 3928SOL     OW28925   2.967   5.038   0.926
 3928SOL    HW128926   2.969   4.973   0.856
 3928SOL    HW228927   3.051   5.027   0.971
 3929SOL     OW28928   2.204   1.910   6.750
 3929SOL    HW128929   2.206   1.830   6.698
 3929SOL    HW228930   2.233   1.883   6.837
 3930SOL     OW28931   4.067   1.151   1.543
 3930SOL    HW128932   4.013   1.214   1.590
 3930SOL    HW228933   4.130   1.205   1.494
 3931SOL     OW28934   6.374   4.006   0.764
 3931SOL    HW128935   6.330   3.932   0.807
 3931SOL    HW228936   6.304   4.070   0.751
 3932SOL     OW28937   0.761   6.349   7.541
 3932SOL    HW128938   0.771   6.281   7.609
 3932SOL    HW228939   0.794   6.308   7.461
 3933SOL     OW28940   4.530   6.138   6.641
 3933SOL    HW128941   4.600   6.104   6.697
 3933SOL    HW228942   4.562   6.223   6.612
 3934SOL     OW28943   6.067   2.900   7.086
 3934SOL    HW128944   6.134   2.908   7.017
 3934SOL    HW228945   6.092   2.966   7.151
 3935SOL     OW28946   5.830   6.428   7.041
 3935SOL    HW128947   5.749   6.427   7.092
 3935SOL    HW228948   5.892   6.376   7.092
 3936SOL     OW28949   1.075   0.378   0.542
 3936SOL    HW128950   1.114   0.331   0.616
 3936SOL    HW228951   1.133   0.358   0.468
 3937SOL     OW28952   5.615   0.770   0.049
 3937SOL    HW128953   5.645   0.728  -0.032
 3937SOL    HW228954   5.530   0.730   0.066
 3938SOL     OW28955   1.358   3.580   6.665
 3938SOL    HW128956   1.410   3.541   6.735
 3938SOL    HW228957   1.422   3.612   6.602
 3939SOL     OW28958   0.501   2.360   0.737
 3939SOL    HW128959   0.578   2.304   0.750
 3939SOL    HW228960   0.450   2.315   0.669
 3940SOL     OW28961   2.479   2.423   6.507
 3940SOL    HW128962   2.542   2.437   6.436
 3940SOL    HW228963   2.406   2.377   6.466
 3941SOL     OW28964   5.501   5.023   5.357
 3941SOL    HW128965   5.467   4.980   5.279
 3941SOL    HW228966   5.448   4.987   5.429
 3942SOL     OW28967   0.877   1.273   0.022
 3942SOL    HW128968   0.868   1.333   0.096
 3942SOL    HW228969   0.865   1.186   0.060
 3943SOL     OW28970   4.168   6.370   1.849
 3943SOL    HW128971   4.100   6.378   1.782
 3943SOL    HW228972   4.250   6.373   1.800
 3944SOL     OW28973   4.518   5.505   1.904
 3944SOL    HW128974   4.547   5.415   1.892
 3944SOL    HW228975   4.430   5.497   1.940
 3945SOL     OW28976   0.547   4.091   6.589
 3945SOL    HW128977   0.632   4.091   6.545
 3945SOL    HW228978   0.500   4.017   6.550
 3946SOL     OW28979   3.772   0.736   7.141
 3946SOL    HW128980   3.744   0.679   7.213
 3946SOL    HW228981   3.762   0.825   7.175
 3947SOL     OW28982   5.744   1.218   0.965
 3947SOL    HW128983   5.784   1.146   0.916
 3947SOL    HW228984   5.742   1.291   0.903
 3948SOL     OW28985   6.303   1.536   7.499
 3948SOL    HW128986   6.333   1.612   7.448
 3948SOL    HW228987   6.306   1.565   7.590
 3949SOL     OW28988   5.607   1.472   5.697
 3949SOL    HW128989   5.539   1.540   5.695
 3949SOL    HW228990   5.574   1.408   5.760
 3950SOL     OW28991   4.722   0.521   7.145
 3950SOL    HW128992   4.650   0.463   7.169
 3950SOL    HW228993   4.685   0.577   7.076
 3951SOL     OW28994   0.440   1.118   1.222
 3951SOL    HW128995   0.423   1.211   1.207
 3951SOL    HW228996   0.356   1.076   1.205
 3952SOL     OW28997   0.628   0.732   1.881
 3952SOL    HW128998   0.586   0.718   1.796
 3952SOL    HW228999   0.562   0.780   1.932
 3953SOL     OW29000   3.083   3.672   7.664
 3953SOL    HW129001   3.166   3.692   7.622
 3953SOL    HW229002   3.084   3.577   7.676
 3954SOL     OW29003   3.731   1.536   6.266
 3954SOL    HW129004   3.669   1.472   6.230
 3954SOL    HW229005   3.755   1.590   6.191
 3955SOL     OW29006   1.535   1.024   6.597
 3955SOL    HW129007   1.497   0.957   6.654
 3955SOL    HW229008   1.558   1.096   6.657
 3956SOL     OW29009   0.170   1.002   7.676
 3956SOL    HW129010   0.239   0.936   7.665
 3956SOL    HW229011   0.125   0.976   7.756
 3957SOL     OW29012   2.479   2.244   2.449
 3957SOL    HW129013   2.564   2.213   2.418
 3957SOL    HW229014   2.416   2.181   2.414
 3958SOL     OW29015   6.427   3.580   1.722
 3958SOL    HW129016   6.505   3.563   1.775
 3958SOL    HW229017   6.436   3.671   1.695
 3959SOL     OW29018   3.910   4.149   5.736
 3959SOL    HW129019   3.877   4.200   5.662
 3959SOL    HW229020   3.958   4.213   5.789
 3960SOL     OW29021   1.470   5.956   2.136
 3960SOL    HW129022   1.416   5.883   2.168
 3960SOL    HW229023   1.560   5.925   2.145
 3961SOL     OW29024   4.619   3.937   0.634
 3961SOL    HW129025   4.581   4.022   0.655
 3961SOL    HW229026   4.546   3.875   0.646
 3962SOL     OW29027   4.714   3.483   6.604
 3962SOL    HW129028   4.785   3.485   6.668
 3962SOL    HW229029   4.662   3.408   6.629
 3963SOL     OW29030   1.356   2.553   1.234
 3963SOL    HW129031   1.431   2.539   1.291
 3963SOL    HW229032   1.392   2.557   1.146
 3964SOL     OW29033   5.125   1.087   1.731
 3964SOL    HW129034   5.058   1.093   1.800
 3964SOL    HW229035   5.176   1.168   1.741
 3965SOL     OW29036   2.702   1.462   0.988
 3965SOL    HW129037   2.753   1.541   0.969
 3965SOL    HW229038   2.612   1.492   0.996
 3966SOL     OW29039   6.054   0.401   2.702
 3966SOL    HW129040   6.145   0.373   2.709
 3966SOL    HW229041   6.059   0.490   2.668
 3967SOL     OW29042   5.637   6.300   0.476
 3967SOL    HW129043   5.549   6.284   0.444
 3967SOL    HW229044   5.628   6.374   0.536
 3968SOL     OW29045   3.373   2.185   1.691
 3968SOL    HW129046   3.395   2.095   1.668
 3968SOL    HW229047   3.433   2.206   1.763
 3969SOL     OW29048   6.241   1.691   0.270
 3969SOL    HW129049   6.251   1.598   0.289
 3969SOL    HW229050   6.322   1.716   0.227
 3970SOL     OW29051   1.039   2.170   1.596
 3970SOL    HW129052   1.109   2.159   1.659
 3970SOL    HW229053   1.031   2.086   1.552
 3971SOL     OW29054   0.625   1.181   1.437
 3971SOL    HW129055   0.623   1.277   1.437
 3971SOL    HW229056   0.555   1.156   1.376
 3972SOL     OW29057   6.154   4.638   6.171
 3972SOL    HW129058   6.167   4.712   6.230
 3972SOL    HW229059   6.110   4.676   6.095
 3973SOL     OW29060   5.057   0.731   0.948
 3973SOL    HW129061   5.015   0.817   0.945
 3973SOL    HW229062   5.150   0.750   0.954
 3974SOL     OW29063   6.402   3.542   0.758
 3974SOL    HW129064   6.399   3.538   0.662
 3974SOL    HW229065   6.360   3.461   0.786
 3975SOL     OW29066   5.653   6.092   2.737
 3975SOL    HW129067   5.662   6.133   2.651
 3975SOL    HW229068   5.733   6.117   2.784
 3976SOL     OW29069   0.058   1.469   6.560
 3976SOL    HW129070   0.011   1.488   6.641
 3976SOL    HW229071   0.030   1.381   6.537
 3977SOL     OW29072   5.435   5.204   6.232
 3977SOL    HW129073   5.353   5.204   6.182
 3977SOL    HW229074   5.463   5.112   6.230
 3978SOL     OW29075   0.403   2.230   6.515
 3978SOL    HW129076   0.471   2.271   6.568
 3978SOL    HW229077   0.443   2.148   6.485
 3979SOL     OW29078   0.116   1.417   0.294
 3979SOL    HW129079   0.203   1.458   0.300
 3979SOL    HW229080   0.078   1.429   0.381
 3980SOL     OW29081   2.851   6.063   0.104
 3980SOL    HW129082   2.788   6.014   0.052
 3980SOL    HW229083   2.809   6.147   0.121
 3981SOL     OW29084   0.007   4.979   6.540
 3981SOL    HW129085   0.044   4.960   6.626
 3981SOL    HW229086  -0.068   4.921   6.532
 3982SOL     OW29087   1.880   4.985   0.855
 3982SOL    HW129088   1.899   5.054   0.791
 3982SOL    HW229089   1.852   5.032   0.933
 3983SOL     OW29090   5.840   4.865   1.740
 3983SOL    HW129091   5.796   4.934   1.691
 3983SOL    HW229092   5.893   4.819   1.675
 3984SOL     OW29093   4.042   6.337   0.807
 3984SOL    HW129094   3.975   6.335   0.740
 3984SOL    HW229095   4.122   6.363   0.761
 3985SOL     OW29096   6.116   6.269   2.242
 3985SOL    HW129097   6.063   6.200   2.204
 3985SOL    HW229098   6.071   6.294   2.323
 3986SOL     OW29099   3.257   2.955   6.964
 3986SOL    HW129100   3.169   2.990   6.978
 3986SOL    HW229101   3.243   2.865   6.935
 3987SOL     OW29102   0.098   3.519   5.200
 3987SOL    HW129103   0.194   3.509   5.197
 3987SOL    HW229104   0.081   3.600   5.152
 3988SOL     OW29105   1.784   3.962   6.052
 3988SOL    HW129106   1.865   3.951   6.102
 3988SOL    HW229107   1.752   4.049   6.079
 3989SOL     OW29108   3.627   2.046   5.763
 3989SOL    HW129109   3.687   2.119   5.775
 3989SOL    HW229110   3.542   2.088   5.745
 3990SOL     OW29111   2.450   4.979   6.144
 3990SOL    HW129112   2.492   4.952   6.063
 3990SOL    HW229113   2.522   4.997   6.205
 3991SOL     OW29114   3.610   6.221   0.485
 3991SOL    HW129115   3.569   6.285   0.543
 3991SOL    HW229116   3.608   6.261   0.398
 3992SOL     OW29117   2.218   2.896   6.310
 3992SOL    HW129118   2.244   2.983   6.281
 3992SOL    HW229119   2.240   2.838   6.237
 3993SOL     OW29120   2.348   2.331   1.652
 3993SOL    HW129121   2.309   2.394   1.712
 3993SOL    HW229122   2.286   2.324   1.580
 3994SOL     OW29123   6.190   3.048   7.279
 3994SOL    HW129124   6.125   3.049   7.349
 3994SOL    HW229125   6.260   2.992   7.312
 3995SOL     OW29126   5.709   2.316   5.602
 3995SOL    HW129127   5.766   2.244   5.576
 3995SOL    HW229128   5.626   2.299   5.557
 3996SOL     OW29129   2.337   5.560   6.217
 3996SOL    HW129130   2.338   5.508   6.136
 3996SOL    HW229131   2.307   5.499   6.284
 3997SOL     OW29132   1.520   1.329   0.827
 3997SOL    HW129133   1.477   1.262   0.880
 3997SOL    HW229134   1.600   1.286   0.795
 3998SOL     OW29135   2.423   4.335   6.289
 3998SOL    HW129136   2.509   4.311   6.322
 3998SOL    HW229137   2.438   4.412   6.235
 3999SOL     OW29138   0.825   6.234   1.309
 3999SOL    HW129139   0.903   6.260   1.357
 3999SOL    HW229140   0.758   6.297   1.334
 4000SOL     OW29141   1.603   1.013   1.786
 4000SOL    HW129142   1.675   1.075   1.799
 4000SOL    HW229143   1.637   0.930   1.818
 4001SOL     OW29144   3.928   1.922   0.714
 4001SOL    HW129145   4.002   1.942   0.657
 4001SOL    HW229146   3.967   1.883   0.792
 4002SOL     OW29147   5.956   1.770   0.261
 4002SOL    HW129148   5.920   1.717   0.190
 4002SOL    HW229149   6.048   1.742   0.267
 4003SOL     OW29150   2.220   0.401   6.246
 4003SOL    HW129151   2.218   0.348   6.325
 4003SOL    HW229152   2.238   0.339   6.176
 4004SOL     OW29153   0.083   4.077   7.257
 4004SOL    HW129154  -0.010   4.067   7.238
 4004SOL    HW229155   0.126   4.059   7.173
 4005SOL     OW29156   6.406   2.866   7.302
 4005SOL    HW129157   6.454   2.800   7.352
 4005SOL    HW229158   6.419   2.841   7.210
 4006SOL     OW29159   2.413   6.212   0.291
 4006SOL    HW129160   2.319   6.222   0.305
 4006SOL    HW229161   2.425   6.119   0.271
 4007SOL     OW29162   5.120   3.793   0.911
 4007SOL    HW129163   5.055   3.724   0.901
 4007SOL    HW229164   5.193   3.752   0.957
 4008SOL     OW29165   0.141   2.195   1.040
 4008SOL    HW129166   0.123   2.128   0.974
 4008SOL    HW229167   0.064   2.252   1.038
 4009SOL     OW29168   1.614   0.415   6.771
 4009SOL    HW129169   1.558   0.458   6.836
 4009SOL    HW229170   1.564   0.339   6.743
 4010SOL     OW29171   4.878   2.157   2.282
 4010SOL    HW129172   4.867   2.156   2.187
 4010SOL    HW229173   4.942   2.227   2.298
 4011SOL     OW29174   2.948   5.836   6.390
 4011SOL    HW129175   3.008   5.766   6.414
 4011SOL    HW229176   3.002   5.898   6.342
 4012SOL     OW29177   0.771   3.982   5.700
 4012SOL    HW129178   0.694   3.925   5.713
 4012SOL    HW229179   0.827   3.933   5.639
 4013SOL     OW29180   5.324   1.035   6.903
 4013SOL    HW129181   5.322   0.955   6.956
 4013SOL    HW229182   5.268   1.096   6.950
 4014SOL     OW29183   2.159   5.869   6.459
 4014SOL    HW129184   2.077   5.908   6.430
 4014SOL    HW229185   2.161   5.783   6.416
 4015SOL     OW29186   0.667   6.126   1.128
 4015SOL    HW129187   0.652   6.199   1.068
 4015SOL    HW229188   0.742   6.153   1.181
 4016SOL     OW29189   0.284   0.041   6.314
 4016SOL    HW129190   0.313   0.078   6.397
 4016SOL    HW229191   0.353   0.064   6.252
 4017SOL     OW29192   2.566   0.686   7.313
 4017SOL    HW129193   2.621   0.664   7.238
 4017SOL    HW229194   2.628   0.721   7.378
 4018SOL     OW29195   4.824   1.594   7.153
 4018SOL    HW129196   4.772   1.543   7.090
 4018SOL    HW229197   4.810   1.550   7.237
 4019SOL     OW29198   2.288   3.813   6.636
 4019SOL    HW129199   2.369   3.826   6.686
 4019SOL    HW229200   2.284   3.888   6.577
 4020SOL     OW29201   4.075   0.757   5.602
 4020SOL    HW129202   4.063   0.668   5.571
 4020SOL    HW229203   4.013   0.767   5.674
 4021SOL     OW29204   6.179   4.326   0.962
 4021SOL    HW129205   6.120   4.326   1.037
 4021SOL    HW229206   6.266   4.335   0.999
 4022SOL     OW29207   6.381   6.216   6.674
 4022SOL    HW129208   6.463   6.183   6.638
 4022SOL    HW229209   6.316   6.198   6.605
 4023SOL     OW29210   4.064   1.460   2.231
 4023SOL    HW129211   4.123   1.495   2.298
 4023SOL    HW229212   4.051   1.533   2.170
 4024SOL     OW29213   5.627   0.276   1.933
 4024SOL    HW129214   5.575   0.197   1.922
 4024SOL    HW229215   5.640   0.308   1.844
 4025SOL     OW29216   2.363   2.952   0.973
 4025SOL    HW129217   2.353   3.009   0.897
 4025SOL    HW229218   2.386   2.866   0.936
 4026SOL     OW29219   5.314   5.668   0.315
 4026SOL    HW129220   5.295   5.690   0.223
 4026SOL    HW229221   5.406   5.642   0.315
 4027SOL     OW29222   1.204   2.136   7.414
 4027SOL    HW129223   1.226   2.096   7.330
 4027SOL    HW229224   1.173   2.063   7.468
 4028SOL     OW29225   2.915   1.427   7.443
 4028SOL    HW129226   2.956   1.435   7.357
 4028SOL    HW229227   2.988   1.425   7.504
 4029SOL     OW29228   0.879   6.274   7.297
 4029SOL    HW129229   0.885   6.345   7.233
 4029SOL    HW229230   0.941   6.208   7.265
 4030SOL     OW29231   3.196   4.619   7.098
 4030SOL    HW129232   3.104   4.597   7.087
 4030SOL    HW229233   3.221   4.662   7.016
 4031SOL     OW29234   3.032   5.957   6.766
 4031SOL    HW129235   3.041   6.051   6.782
 4031SOL    HW229236   2.967   5.928   6.830
 4032SOL     OW29237   3.972   3.539   7.780
 4032SOL    HW129238   3.899   3.488   7.745
 4032SOL    HW229239   4.036   3.541   7.709
 4033SOL     OW29240   3.765   0.678   0.575
 4033SOL    HW129241   3.695   0.683   0.640
 4033SOL    HW229242   3.830   0.741   0.605
 4034SOL     OW29243   1.767   3.147   6.122
 4034SOL    HW129244   1.712   3.070   6.137
 4034SOL    HW229245   1.851   3.111   6.093
 4035SOL     OW29246   1.309   2.151   1.683
 4035SOL    HW129247   1.341   2.077   1.632
 4035SOL    HW229248   1.387   2.205   1.697
 4036SOL     OW29249   1.154   2.466   7.493
 4036SOL    HW129250   1.229   2.416   7.525
 4036SOL    HW229251   1.189   2.518   7.420
 4037SOL     OW29252   6.270   5.310   7.708
 4037SOL    HW129253   6.240   5.221   7.728
 4037SOL    HW229254   6.303   5.343   7.791
 4038SOL     OW29255   1.890   5.011   7.600
 4038SOL    HW129256   1.929   5.008   7.512
 4038SOL    HW229257   1.818   4.949   7.596
 4039SOL     OW29258   5.263   0.847   7.095
 4039SOL    HW129259   5.298   0.760   7.118
 4039SOL    HW229260   5.326   0.909   7.133
 4040SOL     OW29261   0.334   4.720   1.149
 4040SOL    HW129262   0.405   4.701   1.087
 4040SOL    HW229263   0.261   4.749   1.094
 4041SOL     OW29264   6.381   2.305   0.734
 4041SOL    HW129265   6.438   2.298   0.810
 4041SOL    HW229266   6.383   2.217   0.694
 4042SOL     OW29267   0.340   2.884   7.101
 4042SOL    HW129268   0.431   2.856   7.106
 4042SOL    HW229269   0.344   2.976   7.073
 4043SOL     OW29270   0.868   6.418   6.279
 4043SOL    HW129271   0.816   6.361   6.222
 4043SOL    HW229272   0.954   6.377   6.281
 4044SOL     OW29273   5.831   2.324   6.819
 4044SOL    HW129274   5.872   2.347   6.902
 4044SOL    HW229275   5.790   2.238   6.835
 4045SOL     OW29276   0.945   2.236   5.868
 4045SOL    HW129277   0.958   2.298   5.797
 4045SOL    HW229278   0.972   2.152   5.832
 4046SOL     OW29279   2.759   1.405   0.416
 4046SOL    HW129280   2.699   1.371   0.350
 4046SOL    HW229281   2.706   1.463   0.470
 4047SOL     OW29282   0.343   4.345   0.579
 4047SOL    HW129283   0.280   4.279   0.550
 4047SOL    HW229284   0.428   4.309   0.553
 4048SOL     OW29285   1.476   6.319   7.735
 4048SOL    HW129286   1.398   6.360   7.772
 4048SOL    HW229287   1.511   6.266   7.807
 4049SOL     OW29288   0.612   0.186   5.947
 4049SOL    HW129289   0.580   0.188   5.856
 4049SOL    HW229290   0.613   0.278   5.974
 4050SOL     OW29291   5.952   5.844   5.588
 4050SOL    HW129292   5.868   5.839   5.543
 4050SOL    HW229293   5.946   5.778   5.657
 4051SOL     OW29294   1.671   4.473   5.843
 4051SOL    HW129295   1.674   4.478   5.938
 4051SOL    HW229296   1.745   4.418   5.819
 4052SOL     OW29297   5.678   1.175   7.257
 4052SOL    HW129298   5.694   1.153   7.349
 4052SOL    HW229299   5.707   1.266   7.249
 4053SOL     OW29300   0.853   3.214   1.474
 4053SOL    HW129301   0.841   3.285   1.411
 4053SOL    HW229302   0.948   3.204   1.482
 4054SOL     OW29303   6.005   5.322   7.141
 4054SOL    HW129304   6.095   5.302   7.167
 4054SOL    HW229305   6.014   5.389   7.073
 4055SOL     OW29306   6.427   0.197   7.348
 4055SOL    HW129307   6.382   0.139   7.409
 4055SOL    HW229308   6.497   0.143   7.312
 4056SOL     OW29309   2.659   5.578   1.023
 4056SOL    HW129310   2.630   5.532   0.944
 4056SOL    HW229311   2.672   5.509   1.088
 4057SOL     OW29312   1.300   5.423   1.268
 4057SOL    HW129313   1.394   5.410   1.263
 4057SOL    HW229314   1.274   5.378   1.348
 4058SOL     OW29315   6.109   0.165   6.003
 4058SOL    HW129316   6.185   0.217   5.976
 4058SOL    HW229317   6.140   0.117   6.080
 4059SOL     OW29318   0.456   3.830   6.459
 4059SOL    HW129319   0.371   3.798   6.488
 4059SOL    HW229320   0.445   3.849   6.366
 4060SOL     OW29321   2.202   1.109   7.465
 4060SOL    HW129322   2.280   1.056   7.446
 4060SOL    HW229323   2.228   1.165   7.538
 4061SOL     OW29324   1.914   1.568   6.947
 4061SOL    HW129325   1.843   1.605   6.894
 4061SOL    HW229326   1.993   1.588   6.897
 4062SOL     OW29327   2.490   3.829   1.512
 4062SOL    HW129328   2.473   3.817   1.419
 4062SOL    HW229329   2.583   3.853   1.517
 4063SOL     OW29330   4.989   1.806   0.898
 4063SOL    HW129331   5.002   1.891   0.858
 4063SOL    HW229332   4.900   1.808   0.932
 4064SOL     OW29333   0.528   3.585   0.325
 4064SOL    HW129334   0.504   3.646   0.395
 4064SOL    HW229335   0.460   3.518   0.328
 4065SOL     OW29336   2.947   0.964   6.899
 4065SOL    HW129337   2.991   0.984   6.817
 4065SOL    HW229338   3.015   0.921   6.952
 4066SOL     OW29339   0.612   5.934   6.766
 4066SOL    HW129340   0.702   5.953   6.792
 4066SOL    HW229341   0.591   5.852   6.811
 4067SOL     OW29342   6.274   5.229   5.121
 4067SOL    HW129343   6.358   5.273   5.122
 4067SOL    HW229344   6.217   5.286   5.069
 4068SOL     OW29345   3.434   2.670   7.217
 4068SOL    HW129346   3.426   2.723   7.137
 4068SOL    HW229347   3.526   2.644   7.219
 4069SOL     OW29348   1.070   4.494   0.557
 4069SOL    HW129349   1.155   4.456   0.581
 4069SOL    HW229350   1.064   4.479   0.463
 4070SOL     OW29351   1.249   4.616   0.966
 4070SOL    HW129352   1.261   4.613   1.061
 4070SOL    HW229353   1.265   4.708   0.943
 4071SOL     OW29354   4.857   2.575   6.716
 4071SOL    HW129355   4.765   2.570   6.688
 4071SOL    HW229356   4.892   2.488   6.699
 4072SOL     OW29357   1.392   0.062   0.998
 4072SOL    HW129358   1.406   0.155   0.976
 4072SOL    HW229359   1.418   0.056   1.090
 4073SOL     OW29360   3.644   3.776   7.232
 4073SOL    HW129361   3.584   3.732   7.292
 4073SOL    HW229362   3.727   3.780   7.280
 4074SOL     OW29363   3.913   2.764   7.231
 4074SOL    HW129364   3.954   2.840   7.272
 4074SOL    HW229365   3.982   2.727   7.176
 4075SOL     OW29366   5.368   5.251   1.364
 4075SOL    HW129367   5.315   5.230   1.287
 4075SOL    HW229368   5.443   5.299   1.329
 4076SOL     OW29369   4.829   4.468   0.792
 4076SOL    HW129370   4.744   4.478   0.835
 4076SOL    HW229371   4.887   4.529   0.839
 4077SOL     OW29372   2.831   5.901   0.916
 4077SOL    HW129373   2.899   5.836   0.933
 4077SOL    HW229374   2.877   5.985   0.918
 4078SOL     OW29375   0.391   3.493   6.479
 4078SOL    HW129376   0.386   3.587   6.493
 4078SOL    HW229377   0.444   3.461   6.552
 4079SOL     OW29378   3.640   2.633   0.704
 4079SOL    HW129379   3.545   2.648   0.703
 4079SOL    HW229380   3.649   2.540   0.682
 4080SOL     OW29381   5.082   4.256   1.231
 4080SOL    HW129382   5.165   4.214   1.211
 4080SOL    HW229383   5.040   4.267   1.145
 4081SOL     OW29384   1.999   0.125   1.072
 4081SOL    HW129385   1.980   0.051   1.015
 4081SOL    HW229386   2.051   0.185   1.018
 4082SOL     OW29387   5.855   0.750   5.939
 4082SOL    HW129388   5.857   0.713   5.851
 4082SOL    HW229389   5.946   0.747   5.969
 4083SOL     OW29390   5.519   3.258   0.540
 4083SOL    HW129391   5.542   3.243   0.632
 4083SOL    HW229392   5.574   3.196   0.492
 4084SOL     OW29393   4.047   3.470   6.195
 4084SOL    HW129394   3.974   3.501   6.140
 4084SOL    HW229395   4.013   3.474   6.284
 4085SOL     OW29396   6.239   0.005   7.300
 4085SOL    HW129397   6.176   0.066   7.261
 4085SOL    HW229398   6.235  -0.073   7.244
 4086SOL     OW29399   0.532   5.339   1.514
 4086SOL    HW129400   0.473   5.264   1.512
 4086SOL    HW229401   0.495   5.401   1.451
 4087SOL     OW29402   1.311   5.038   0.138
 4087SOL    HW129403   1.406   5.025   0.147
 4087SOL    HW229404   1.275   5.006   0.221
 4088SOL     OW29405   1.884   0.619   7.171
 4088SOL    HW129406   1.964   0.654   7.209
 4088SOL    HW229407   1.815   0.675   7.205
 4089SOL     OW29408   3.479   3.593   7.705
 4089SOL    HW129409   3.417   3.593   7.632
 4089SOL    HW229410   3.446   3.660   7.765
 4090SOL     OW29411   0.095   0.449   2.278
 4090SOL    HW129412   0.113   0.529   2.328
 4090SOL    HW229413   0.169   0.442   2.218
 4091SOL     OW29414   4.461   5.056   0.086
 4091SOL    HW129415   4.365   5.050   0.082
 4091SOL    HW229416   4.488   5.071  -0.004
 4092SOL     OW29417   0.412   6.259   6.847
 4092SOL    HW129418   0.330   6.210   6.856
 4092SOL    HW229419   0.480   6.196   6.871
 4093SOL     OW29420   6.409   2.494   6.890
 4093SOL    HW129421   6.334   2.538   6.930
 4093SOL    HW229422   6.418   2.412   6.938
 4094SOL     OW29423   0.584   6.368   1.566
 4094SOL    HW129424   0.495   6.401   1.556
 4094SOL    HW229425   0.638   6.448   1.570
 4095SOL     OW29426   3.892   6.054   1.716
 4095SOL    HW129427   3.977   6.017   1.695
 4095SOL    HW229428   3.850   6.069   1.631
 4096SOL     OW29429   1.916   5.430   7.767
 4096SOL    HW129430   1.829   5.470   7.769
 4096SOL    HW229431   1.918   5.381   7.684
 4097SOL     OW29432   6.368   4.055   6.782
 4097SOL    HW129433   6.284   4.055   6.736
 4097SOL    HW229434   6.426   4.109   6.729
 4098SOL     OW29435   3.592   1.394   7.566
 4098SOL    HW129436   3.553   1.395   7.653
 4098SOL    HW229437   3.626   1.483   7.555
 4099SOL     OW29438   0.537   1.793   2.191
 4099SOL    HW129439   0.443   1.778   2.191
 4099SOL    HW229440   0.547   1.887   2.178
 4100SOL     OW29441   5.233   0.589   6.939
 4100SOL    HW129442   5.141   0.566   6.955
 4100SOL    HW229443   5.241   0.593   6.844
 4101SOL     OW29444   0.144   5.216   1.153
 4101SOL    HW129445   0.119   5.248   1.066
 4101SOL    HW229446   0.061   5.187   1.192
 4102SOL     OW29447   1.088   6.090   1.071
 4102SOL    HW129448   1.118   6.091   0.980
 4102SOL    HW229449   1.129   6.168   1.110
 4103SOL     OW29450   0.585   3.151   7.022
 4103SOL    HW129451   0.563   3.074   6.969
 4103SOL    HW229452   0.505   3.202   7.025
 4104SOL     OW29453   3.782   3.551   7.456
 4104SOL    HW129454   3.808   3.490   7.387
 4104SOL    HW229455   3.755   3.495   7.529
 4105SOL     OW29456   1.352   0.834   0.697
 4105SOL    HW129457   1.334   0.873   0.783
 4105SOL    HW229458   1.400   0.754   0.717
 4106SOL     OW29459   3.109   4.433   7.582
 4106SOL    HW129460   3.083   4.503   7.522
 4106SOL    HW229461   3.095   4.352   7.532
 4107SOL     OW29462   1.671   2.033   6.481
 4107SOL    HW129463   1.690   2.113   6.530
 4107SOL    HW229464   1.754   1.985   6.480
 4108SOL     OW29465   0.875   2.242   6.917
 4108SOL    HW129466   0.869   2.147   6.908
 4108SOL    HW229467   0.802   2.265   6.974
 4109SOL     OW29468   0.254   1.526   0.018
 4109SOL    HW129469   0.335   1.492   0.057
 4109SOL    HW229470   0.196   1.450   0.011
 4110SOL     OW29471   6.084   6.352   0.676
 4110SOL    HW129472   6.087   6.410   0.599
 4110SOL    HW229473   6.040   6.405   0.743
 4111SOL     OW29474   4.230   5.689   1.842
 4111SOL    HW129475   4.220   5.657   1.932
 4111SOL    HW229476   4.290   5.627   1.801
 4112SOL     OW29477   4.484   4.399   7.132
 4112SOL    HW129478   4.524   4.399   7.045
 4112SOL    HW229479   4.436   4.317   7.136
 4113SOL     OW29480   4.019   5.285   2.164
 4113SOL    HW129481   4.108   5.282   2.199
 4113SOL    HW229482   3.979   5.203   2.193
 4114SOL     OW29483   3.971   1.906   6.426
 4114SOL    HW129484   3.982   1.902   6.331
 4114SOL    HW229485   4.004   1.993   6.450
 4115SOL     OW29486   2.499   3.304   0.499
 4115SOL    HW129487   2.522   3.368   0.432
 4115SOL    HW229488   2.404   3.312   0.508
 4116SOL     OW29489   5.863   5.105   7.244
 4116SOL    HW129490   5.900   5.136   7.327
 4116SOL    HW229491   5.902   5.162   7.178
 4117SOL     OW29492   5.495   0.883   6.377
 4117SOL    HW129493   5.523   0.825   6.307
 4117SOL    HW229494   5.405   0.856   6.397
 4118SOL     OW29495   2.507   0.910   5.760
 4118SOL    HW129496   2.545   0.869   5.838
 4118SOL    HW229497   2.481   0.998   5.789
 4119SOL     OW29498   5.846   5.452   2.317
 4119SOL    HW129499   5.913   5.518   2.337
 4119SOL    HW229500   5.878   5.372   2.359
 4120SOL     OW29501   3.560   3.173   0.874
 4120SOL    HW129502   3.566   3.253   0.925
 4120SOL    HW229503   3.468   3.145   0.883
 4121SOL     OW29504   0.687   2.040   7.216
 4121SOL    HW129505   0.653   2.122   7.253
 4121SOL    HW229506   0.781   2.056   7.204
 4122SOL     OW29507   4.174   1.603   0.596
 4122SOL    HW129508   4.267   1.587   0.580
 4122SOL    HW229509   4.130   1.525   0.561
 4123SOL     OW29510   2.403   3.989   7.621
 4123SOL    HW129511   2.477   3.944   7.582
 4123SOL    HW229512   2.437   4.075   7.646
 4124SOL     OW29513   1.024   5.177   6.087
 4124SOL    HW129514   0.947   5.125   6.064
 4124SOL    HW229515   1.011   5.260   6.041
 4125SOL     OW29516   2.113   2.289   7.469
 4125SOL    HW129517   2.079   2.304   7.557
 4125SOL    HW229518   2.204   2.314   7.474
 4126SOL     OW29519   4.400   3.733   1.146
 4126SOL    HW129520   4.349   3.663   1.186
 4126SOL    HW229521   4.386   3.808   1.203
 4127SOL     OW29522   0.717   2.192   7.718
 4127SOL    HW129523   0.673   2.268   7.755
 4127SOL    HW229524   0.778   2.164   7.786
 4128SOL     OW29525   4.742   6.362   2.332
 4128SOL    HW129526   4.790   6.441   2.309
 4128SOL    HW229527   4.653   6.378   2.299
 4129SOL     OW29528   3.212   4.148   5.975
 4129SOL    HW129529   3.293   4.196   5.994
 4129SOL    HW229530   3.222   4.065   6.021
 4130SOL     OW29531   4.131   0.954   5.876
 4130SOL    HW129532   4.179   0.993   5.949
 4130SOL    HW229533   4.039   0.956   5.903
 4131SOL     OW29534   2.527   4.932   6.462
 4131SOL    HW129535   2.575   4.973   6.533
 4131SOL    HW229536   2.532   4.838   6.480
 4132SOL     OW29537   5.630   5.541   0.251
 4132SOL    HW129538   5.697   5.476   0.273
 4132SOL    HW229539   5.549   5.491   0.243
 4133SOL     OW29540   3.373   1.114   0.689
 4133SOL    HW129541   3.386   1.188   0.629
 4133SOL    HW229542   3.289   1.132   0.730
 4134SOL     OW29543   5.047   0.059   0.935
 4134SOL    HW129544   5.060   0.028   1.025
 4134SOL    HW229545   5.127   0.108   0.915
 4135SOL     OW29546   0.782   4.009   6.456
 4135SOL    HW129547   0.742   3.922   6.467
 4135SOL    HW229548   0.872   3.990   6.431
 4136SOL     OW29549   5.849   5.629   6.317
 4136SOL    HW129550   5.765   5.590   6.294
 4136SOL    HW229551   5.861   5.701   6.256
 4137SOL     OW29552   4.432   1.715   6.156
 4137SOL    HW129553   4.374   1.672   6.219
 4137SOL    HW229554   4.477   1.783   6.207
 4138SOL     OW29555   1.030   0.974   5.867
 4138SOL    HW129556   0.997   0.952   5.780
 4138SOL    HW229557   1.104   0.914   5.879
 4139SOL     OW29558   3.684   3.168   7.144
 4139SOL    HW129559   3.742   3.098   7.116
 4139SOL    HW229560   3.600   3.148   7.102
 4140SOL     OW29561   1.470   6.179   6.645
 4140SOL    HW129562   1.452   6.184   6.551
 4140SOL    HW229563   1.528   6.103   6.654
 4141SOL     OW29564   4.003   4.534   0.007
 4141SOL    HW129565   4.013   4.478   0.084
 4141SOL    HW229566   4.027   4.621   0.036
 4142SOL     OW29567   5.632   3.337   0.083
 4142SOL    HW129568   5.654   3.430   0.083
 4142SOL    HW229569   5.661   3.305  -0.002
 4143SOL     OW29570   2.732   0.037   1.213
 4143SOL    HW129571   2.732  -0.035   1.276
 4143SOL    HW229572   2.817   0.031   1.169
 4144SOL     OW29573   5.507   5.341   2.562
 4144SOL    HW129574   5.445   5.325   2.634
 4144SOL    HW229575   5.459   5.315   2.483
 4145SOL     OW29576   2.518   6.089   1.000
 4145SOL    HW129577   2.534   6.115   0.910
 4145SOL    HW229578   2.572   6.010   1.012
 4146SOL     OW29579   4.819   5.137   0.471
 4146SOL    HW129580   4.752   5.113   0.407
 4146SOL    HW229581   4.774   5.136   0.555
 4147SOL     OW29582   5.974   0.058   1.045
 4147SOL    HW129583   5.884   0.056   1.012
 4147SOL    HW229584   5.987  -0.029   1.083
 4148SOL     OW29585   1.344   6.016   5.945
 4148SOL    HW129586   1.366   5.965   5.867
 4148SOL    HW229587   1.427   6.027   5.991
 4149SOL     OW29588   1.614   4.576   6.584
 4149SOL    HW129589   1.659   4.648   6.539
 4149SOL    HW229590   1.615   4.601   6.676
 4150SOL     OW29591   1.131   3.350   0.502
 4150SOL    HW129592   1.222   3.325   0.486
 4150SOL    HW229593   1.086   3.328   0.420
 4151SOL     OW29594   6.153   2.167   1.318
 4151SOL    HW129595   6.121   2.201   1.235
 4151SOL    HW229596   6.167   2.073   1.302
 4152SOL     OW29597   5.875   4.656   2.096
 4152SOL    HW129598   5.948   4.664   2.157
 4152SOL    HW229599   5.836   4.572   2.116
 4153SOL     OW29600   2.282   5.063   6.368
 4153SOL    HW129601   2.297   4.996   6.434
 4153SOL    HW229602   2.341   5.040   6.296
 4154SOL     OW29603   2.604   1.574   0.553
 4154SOL    HW129604   2.605   1.646   0.489
 4154SOL    HW229605   2.574   1.614   0.634
 4155SOL     OW29606   0.111   6.111   5.517
 4155SOL    HW129607   0.199   6.076   5.507
 4155SOL    HW229608   0.053   6.036   5.500
 4156SOL     OW29609   1.214   1.928   0.401
 4156SOL    HW129610   1.223   1.881   0.484
 4156SOL    HW229611   1.271   2.004   0.410
 4157SOL     OW29612   2.182   4.811   0.375
 4157SOL    HW129613   2.252   4.748   0.358
 4157SOL    HW229614   2.224   4.897   0.363
 4158SOL     OW29615   0.778   0.411   2.027
 4158SOL    HW129616   0.735   0.474   2.084
 4158SOL    HW229617   0.746   0.325   2.057
 4159SOL     OW29618   5.756   0.736   6.321
 4159SOL    HW129619   5.736   0.792   6.246
 4159SOL    HW229620   5.798   0.660   6.283
 4160SOL     OW29621   2.278   6.084   1.135
 4160SOL    HW129622   2.321   6.010   1.178
 4160SOL    HW229623   2.348   6.127   1.086
 4161SOL     OW29624   2.479   1.814   0.180
 4161SOL    HW129625   2.573   1.832   0.177
 4161SOL    HW229626   2.459   1.810   0.273
 4162SOL     OW29627   0.712   0.147   1.045
 4162SOL    HW129628   0.761   0.068   1.024
 4162SOL    HW229629   0.770   0.219   1.022
 4163SOL     OW29630   4.131   4.112   7.362
 4163SOL    HW129631   4.154   4.020   7.375
 4163SOL    HW229632   4.036   4.114   7.362
 4164SOL     OW29633   0.867   2.167   5.578
 4164SOL    HW129634   0.786   2.179   5.529
 4164SOL    HW229635   0.890   2.254   5.610
 4165SOL     OW29636   3.445   2.701   6.222
 4165SOL    HW129637   3.435   2.770   6.289
 4165SOL    HW229638   3.379   2.721   6.156
 4166SOL     OW29639   5.618   0.598   2.232
 4166SOL    HW129640   5.589   0.578   2.321
 4166SOL    HW229641   5.678   0.672   2.242
 4167SOL     OW29642   4.771   2.418   6.956
 4167SOL    HW129643   4.858   2.441   6.987
 4167SOL    HW229644   4.754   2.479   6.884
 4168SOL     OW29645   3.490   0.222   1.193
 4168SOL    HW129646   3.540   0.303   1.204
 4168SOL    HW229647   3.441   0.213   1.275
 4169SOL     OW29648   5.155   2.088   6.500
 4169SOL    HW129649   5.103   2.049   6.430
 4169SOL    HW229650   5.219   2.021   6.523
 4170SOL     OW29651   5.270   3.022   0.371
 4170SOL    HW129652   5.258   2.948   0.431
 4170SOL    HW229653   5.183   3.060   0.362
 4171SOL     OW29654   2.158   4.656   1.128
 4171SOL    HW129655   2.206   4.645   1.047
 4171SOL    HW229656   2.091   4.721   1.106
 4172SOL     OW29657   4.464   0.198   6.731
 4172SOL    HW129658   4.473   0.282   6.777
 4172SOL    HW229659   4.412   0.144   6.791
 4173SOL     OW29660   2.324   2.209   6.305
 4173SOL    HW129661   2.361   2.253   6.229
 4173SOL    HW229662   2.244   2.168   6.274
 4174SOL     OW29663   4.700   1.898   6.203
 4174SOL    HW129664   4.679   1.981   6.162
 4174SOL    HW229665   4.701   1.835   6.131
 4175SOL     OW29666   0.455   0.478   0.814
 4175SOL    HW129667   0.367   0.501   0.843
 4175SOL    HW229668   0.464   0.385   0.836
 4176SOL     OW29669   2.320   1.045   6.400
 4176SOL    HW129670   2.331   1.011   6.489
 4176SOL    HW229671   2.232   1.081   6.399
 4177SOL     OW29672   0.130   0.804   1.596
 4177SOL    HW129673   0.068   0.737   1.568
 4177SOL    HW229674   0.091   0.887   1.566
 4178SOL     OW29675   4.972   6.159   2.800
 4178SOL    HW129676   5.039   6.179   2.735
 4178SOL    HW229677   5.018   6.161   2.883
 4179SOL     OW29678   1.489   2.406   1.565
 4179SOL    HW129679   1.498   2.370   1.654
 4179SOL    HW229680   1.407   2.456   1.569
 4180SOL     OW29681   5.003   5.472   2.169
 4180SOL    HW129682   4.964   5.465   2.256
 4180SOL    HW229683   4.928   5.472   2.109
 4181SOL     OW29684   6.402   1.190   0.265
 4181SOL    HW129685   6.468   1.258   0.253
 4181SOL    HW229686   6.429   1.144   0.344
 4182SOL     OW29687   6.322   1.381   1.287
 4182SOL    HW129688   6.343   1.385   1.194
 4182SOL    HW229689   6.230   1.406   1.293
 4183SOL     OW29690   3.037   3.324   1.776
 4183SOL    HW129691   2.976   3.282   1.838
 4183SOL    HW229692   3.115   3.269   1.779
 4184SOL     OW29693   6.361   3.245   1.708
 4184SOL    HW129694   6.398   3.216   1.792
 4184SOL    HW229695   6.328   3.165   1.668
 4185SOL     OW29696   4.180   4.377   7.353
 4185SOL    HW129697   4.124   4.306   7.385
 4185SOL    HW229698   4.204   4.426   7.431
 4186SOL     OW29699   0.614   6.289   7.033
 4186SOL    HW129700   0.607   6.358   6.967
 4186SOL    HW229701   0.702   6.299   7.069
 4187SOL     OW29702   2.566   1.786   0.994
 4187SOL    HW129703   2.607   1.758   1.075
 4187SOL    HW229704   2.611   1.868   0.971
 4188SOL     OW29705   2.903   2.565   7.185
 4188SOL    HW129706   2.978   2.625   7.185
 4188SOL    HW229707   2.863   2.577   7.099
 4189SOL     OW29708   4.214   1.696   7.011
 4189SOL    HW129709   4.272   1.655   6.947
 4189SOL    HW229710   4.135   1.717   6.962
 4190SOL     OW29711   2.047   2.868   0.012
 4190SOL    HW129712   1.974   2.875  -0.050
 4190SOL    HW229713   2.045   2.777   0.040
 4191SOL     OW29714   3.989   4.831   7.347
 4191SOL    HW129715   3.951   4.808   7.432
 4191SOL    HW229716   4.069   4.779   7.342
 4192SOL     OW29717   5.017   0.916   6.618
 4192SOL    HW129718   4.976   0.949   6.538
 4192SOL    HW229719   4.947   0.869   6.663
 4193SOL     OW29720   0.992   1.148   6.740
 4193SOL    HW129721   1.020   1.066   6.699
 4193SOL    HW229722   0.898   1.140   6.749
 4194SOL     OW29723   1.973   5.143   6.695
 4194SOL    HW129724   1.968   5.093   6.614
 4194SOL    HW229725   1.975   5.077   6.764
 4195SOL     OW29726   3.176   0.803   1.223
 4195SOL    HW129727   3.139   0.718   1.244
 4195SOL    HW229728   3.161   0.856   1.301
 4196SOL     OW29729   5.311   5.465   7.696
 4196SOL    HW129730   5.240   5.464   7.632
 4196SOL    HW229731   5.292   5.539   7.753
 4197SOL     OW29732   2.966   2.954   1.853
 4197SOL    HW129733   2.931   3.042   1.868
 4197SOL    HW229734   3.046   2.951   1.906
 4198SOL     OW29735   3.836   5.046   7.280
 4198SOL    HW129736   3.897   4.978   7.309
 4198SOL    HW229737   3.891   5.119   7.254
 4199SOL     OW29738   2.409   5.475   6.645
 4199SOL    HW129739   2.327   5.427   6.631
 4199SOL    HW229740   2.383   5.567   6.645
 4200SOL     OW29741   2.033   1.192   7.751
 4200SOL    HW129742   2.075   1.139   7.819
 4200SOL    HW229743   2.104   1.246   7.716
 4201SOL     OW29744   3.037   4.943   6.862
 4201SOL    HW129745   3.079   4.901   6.938
 4201SOL    HW229746   3.106   4.948   6.796
 4202SOL     OW29747   5.368   1.884   1.397
 4202SOL    HW129748   5.366   1.789   1.383
 4202SOL    HW229749   5.287   1.916   1.358
 4203SOL     OW29750   3.389   3.289   6.763
 4203SOL    HW129751   3.293   3.285   6.764
 4203SOL    HW229752   3.409   3.382   6.775
 4204SOL     OW29753   1.110   0.883   7.102
 4204SOL    HW129754   1.086   0.860   7.012
 4204SOL    HW229755   1.058   0.823   7.156
 4205SOL     OW29756   6.336   3.852   7.144
 4205SOL    HW129757   6.391   3.909   7.091
 4205SOL    HW229758   6.275   3.812   7.082
 4206SOL     OW29759   4.738   0.465   1.577
 4206SOL    HW129760   4.807   0.511   1.625
 4206SOL    HW229761   4.768   0.464   1.487
 4207SOL     OW29762   4.045   5.148   1.232
 4207SOL    HW129763   3.959   5.190   1.235
 4207SOL    HW229764   4.079   5.170   1.145
 4208SOL     OW29765   2.712   5.064   1.059
 4208SOL    HW129766   2.654   4.988   1.053
 4208SOL    HW229767   2.783   5.044   0.998
 4209SOL     OW29768   4.050   5.912   7.785
 4209SOL    HW129769   4.085   5.841   7.839
 4209SOL    HW229770   4.124   5.938   7.730
 4210SOL     OW29771   3.876   4.724   1.196
 4210SOL    HW129772   3.866   4.804   1.248
 4210SOL    HW229773   3.964   4.729   1.161
 4211SOL     OW29774   4.997   0.830   2.302
 4211SOL    HW129775   4.941   0.755   2.324
 4211SOL    HW229776   5.028   0.863   2.386
 4212SOL     OW29777   2.437   3.641   2.155
 4212SOL    HW129778   2.405   3.730   2.171
 4212SOL    HW229779   2.385   3.585   2.213
 4213SOL     OW29780   3.216   1.328   6.655
 4213SOL    HW129781   3.307   1.345   6.680
 4213SOL    HW229782   3.184   1.413   6.625
 4214SOL     OW29783   3.689   6.252   6.988
 4214SOL    HW129784   3.636   6.324   6.953
 4214SOL    HW229785   3.667   6.250   7.081
 4215SOL     OW29786   4.288   0.917   0.104
 4215SOL    HW129787   4.368   0.867   0.120
 4215SOL    HW229788   4.302   0.960   0.019
 4216SOL     OW29789   4.885   5.051   1.687
 4216SOL    HW129790   4.947   5.121   1.666
 4216SOL    HW229791   4.812   5.063   1.626
 4217SOL     OW29792   5.756   3.578   0.057
 4217SOL    HW129793   5.683   3.631   0.087
 4217SOL    HW229794   5.818   3.640   0.018
 4218SOL     OW29795   3.377   1.514   6.302
 4218SOL    HW129796   3.397   1.580   6.368
 4218SOL    HW229797   3.287   1.533   6.275
 4219SOL     OW29798   3.609   4.297   7.153
 4219SOL    HW129799   3.519   4.318   7.129
 4219SOL    HW229800   3.639   4.373   7.202
 4220SOL     OW29801   4.487   4.417   0.114
 4220SOL    HW129802   4.523   4.481   0.176
 4220SOL    HW229803   4.563   4.365   0.087
 4221SOL     OW29804   5.567   5.824   6.530
 4221SOL    HW129805   5.561   5.758   6.599
 4221SOL    HW229806   5.529   5.782   6.453
 4222SOL     OW29807   5.917   5.689   7.346
 4222SOL    HW129808   5.873   5.774   7.339
 4222SOL    HW229809   5.878   5.647   7.423
 4223SOL     OW29810   4.928   6.304   7.770
 4223SOL    HW129811   4.959   6.272   7.685
 4223SOL    HW229812   4.976   6.385   7.785
 4224SOL     OW29813   0.733   2.190   0.737
 4224SOL    HW129814   0.790   2.165   0.664
 4224SOL    HW229815   0.790   2.240   0.796
 4225SOL     OW29816   1.950   3.481   1.726
 4225SOL    HW129817   2.029   3.525   1.759
 4225SOL    HW229818   1.878   3.520   1.776
 4226SOL     OW29819   0.663   2.981   0.679
 4226SOL    HW129820   0.714   2.975   0.598
 4226SOL    HW229821   0.702   2.916   0.737
 4227SOL     OW29822   1.005   4.097   5.385
 4227SOL    HW129823   1.054   4.155   5.326
 4227SOL    HW229824   0.926   4.147   5.407
 4228SOL     OW29825   3.969   4.073   0.896
 4228SOL    HW129826   3.937   4.136   0.961
 4228SOL    HW229827   3.958   4.118   0.812
 4229SOL     OW29828   0.337   0.479   1.831
 4229SOL    HW129829   0.255   0.456   1.787
 4229SOL    HW229830   0.381   0.395   1.845
 4230SOL     OW29831   5.129   2.592   7.396
 4230SOL    HW129832   5.102   2.585   7.488
 4230SOL    HW229833   5.209   2.644   7.399
 4231SOL     OW29834   1.681   3.241   0.853
 4231SOL    HW129835   1.771   3.239   0.819
 4231SOL    HW229836   1.643   3.321   0.817
 4232SOL     OW29837   4.069   0.857   7.080
 4232SOL    HW129838   4.042   0.802   7.154
 4232SOL    HW229839   4.073   0.798   7.005
 4233SOL     OW29840   1.941   2.299   0.462
 4233SOL    HW129841   1.896   2.358   0.401
 4233SOL    HW229842   1.991   2.357   0.519
 4234SOL     OW29843   0.260   4.565   6.162
 4234SOL    HW129844   0.290   4.540   6.250
 4234SOL    HW229845   0.210   4.490   6.132
 4235SOL     OW29846   0.178   6.190   7.569
 4235SOL    HW129847   0.221   6.216   7.651
 4235SOL    HW229848   0.127   6.113   7.593
 4236SOL     OW29849   5.116   5.471   0.424
 4236SOL    HW129850   5.154   5.547   0.381
 4236SOL    HW229851   5.191   5.422   0.458
 4237SOL     OW29852   0.675   5.675   1.476
 4237SOL    HW129853   0.730   5.735   1.527
 4237SOL    HW229854   0.648   5.726   1.401
 4238SOL     OW29855   0.473   3.725   0.944
 4238SOL    HW129856   0.427   3.715   0.861
 4238SOL    HW229857   0.560   3.757   0.919
 4239SOL     OW29858   0.729   1.356   1.122
 4239SOL    HW129859   0.728   1.428   1.060
 4239SOL    HW229860   0.680   1.286   1.078
 4240SOL     OW29861   5.344   4.887   0.249
 4240SOL    HW129862   5.328   4.978   0.274
 4240SOL    HW229863   5.262   4.858   0.209
 4241SOL     OW29864   5.592   1.982   1.765
 4241SOL    HW129865   5.578   1.945   1.678
 4241SOL    HW229866   5.631   2.068   1.749
 4242SOL     OW29867   2.780   5.775   0.218
 4242SOL    HW129868   2.805   5.786   0.126
 4242SOL    HW229869   2.856   5.805   0.267
 4243SOL     OW29870   2.232   3.898   1.558
 4243SOL    HW129871   2.322   3.866   1.550
 4243SOL    HW229872   2.224   3.965   1.490
 4244SOL     OW29873   1.685   1.169   0.054
 4244SOL    HW129874   1.621   1.137  -0.010
 4244SOL    HW229875   1.669   1.263   0.060
 4245SOL     OW29876   4.823   2.317   5.721
 4245SOL    HW129877   4.908   2.359   5.720
 4245SOL    HW229878   4.819   2.269   5.637
 4246SOL     OW29879   2.861   3.672   6.828
 4246SOL    HW129880   2.880   3.694   6.737
 4246SOL    HW229881   2.938   3.625   6.858
 4247SOL     OW29882   5.558   2.162   7.360
 4247SOL    HW129883   5.534   2.222   7.431
 4247SOL    HW229884   5.652   2.147   7.372
 4248SOL     OW29885   1.476   0.215   6.665
 4248SOL    HW129886   1.532   0.218   6.587
 4248SOL    HW229887   1.467   0.122   6.685
 4249SOL     OW29888   5.700   6.118   1.385
 4249SOL    HW129889   5.640   6.056   1.344
 4249SOL    HW229890   5.746   6.067   1.451
 4250SOL     OW29891   5.236   5.444   1.519
 4250SOL    HW129892   5.287   5.389   1.459
 4250SOL    HW229893   5.295   5.459   1.594
 4251SOL     OW29894   3.308   1.969   7.525
 4251SOL    HW129895   3.365   1.910   7.476
 4251SOL    HW229896   3.318   2.054   7.481
 4252SOL     OW29897   3.347   0.797   6.213
 4252SOL    HW129898   3.410   0.763   6.150
 4252SOL    HW229899   3.374   0.888   6.227
 4253SOL     OW29900   0.795   5.681   6.836
 4253SOL    HW129901   0.753   5.716   6.914
 4253SOL    HW229902   0.778   5.587   6.839
 4254SOL     OW29903   0.689   4.907   0.072
 4254SOL    HW129904   0.621   4.948   0.125
 4254SOL    HW229905   0.768   4.958   0.090
 4255SOL     OW29906   4.315   2.069   7.544
 4255SOL    HW129907   4.376   2.135   7.511
 4255SOL    HW229908   4.353   1.985   7.518
 4256SOL     OW29909   3.317   6.396   6.791
 4256SOL    HW129910   3.275   6.331   6.847
 4256SOL    HW229911   3.245   6.448   6.755
 4257SOL     OW29912   6.000   3.727   1.351
 4257SOL    HW129913   6.021   3.697   1.262
 4257SOL    HW229914   6.024   3.819   1.352
 4258SOL     OW29915   2.097   4.295   0.688
 4258SOL    HW129916   2.119   4.385   0.663
 4258SOL    HW229917   2.044   4.262   0.615
 4259SOL     OW29918   2.485   4.684   1.787
 4259SOL    HW129919   2.432   4.620   1.740
 4259SOL    HW229920   2.530   4.633   1.854
 4260SOL     OW29921   2.298   5.249   0.100
 4260SOL    HW129922   2.340   5.198   0.170
 4260SOL    HW229923   2.221   5.288   0.142
 4261SOL     OW29924   5.915   1.936   6.021
 4261SOL    HW129925   5.867   1.923   5.939
 4261SOL    HW229926   5.993   1.986   5.996
 4262SOL     OW29927   3.901   0.395   7.386
 4262SOL    HW129928   3.825   0.450   7.404
 4262SOL    HW229929   3.962   0.415   7.457
 4263SOL     OW29930   0.558   3.518   6.227
 4263SOL    HW129931   0.489   3.561   6.176
 4263SOL    HW229932   0.519   3.505   6.313
 4264SOL     OW29933   2.759   5.566   5.460
 4264SOL    HW129934   2.796   5.485   5.427
 4264SOL    HW229935   2.778   5.631   5.392
 4265SOL     OW29936   0.810   5.022   5.991
 4265SOL    HW129937   0.790   5.022   5.897
 4265SOL    HW229938   0.727   4.999   6.033
 4266SOL     OW29939   6.422   5.773   5.958
 4266SOL    HW129940   6.480   5.807   5.889
 4266SOL    HW229941   6.368   5.708   5.913
 4267SOL     OW29942   0.103   0.289   2.854
 4267SOL    HW129943   0.145   0.313   2.937
 4267SOL    HW229944   0.154   0.216   2.821
 4268SOL     OW29945   1.270   6.119   7.429
 4268SOL    HW129946   1.362   6.104   7.452
 4268SOL    HW229947   1.243   6.191   7.487
 4269SOL     OW29948   4.701   6.368   1.057
 4269SOL    HW129949   4.679   6.412   1.139
 4269SOL    HW229950   4.764   6.427   1.014
 4270SOL     OW29951   5.124   0.429   7.283
 4270SOL    HW129952   5.167   0.366   7.224
 4270SOL    HW229953   5.037   0.392   7.298
 4271SOL     OW29954   1.449   2.410   7.217
 4271SOL    HW129955   1.540   2.412   7.247
 4271SOL    HW229956   1.454   2.379   7.126
 4272SOL     OW29957   0.256   2.175   5.793
 4272SOL    HW129958   0.273   2.267   5.813
 4272SOL    HW229959   0.331   2.148   5.740
 4273SOL     OW29960   0.599   2.800   7.151
 4273SOL    HW129961   0.578   2.709   7.171
 4273SOL    HW229962   0.670   2.795   7.088
 4274SOL     OW29963   4.926   3.478   2.537
 4274SOL    HW129964   4.850   3.491   2.479
 4274SOL    HW229965   4.950   3.567   2.564
 4275SOL     OW29966   5.774   4.809   0.470
 4275SOL    HW129967   5.719   4.761   0.409
 4275SOL    HW229968   5.720   4.819   0.549
 4276SOL     OW29969   5.953   0.377   0.871
 4276SOL    HW129970   5.954   0.455   0.927
 4276SOL    HW229971   5.894   0.400   0.799
 4277SOL     OW29972   2.136   5.176   1.021
 4277SOL    HW129973   2.042   5.197   1.025
 4277SOL    HW229974   2.158   5.188   0.928
 4278SOL     OW29975   1.000   2.874   1.422
 4278SOL    HW129976   1.001   2.963   1.458
 4278SOL    HW229977   1.084   2.866   1.376
 4279SOL     OW29978   1.131   1.069   6.139
 4279SOL    HW129979   1.038   1.092   6.135
 4279SOL    HW229980   1.172   1.125   6.073
 4280SOL     OW29981   3.794   5.315   6.835
 4280SOL    HW129982   3.715   5.310   6.888
 4280SOL    HW229983   3.809   5.408   6.823
 4281SOL     OW29984   4.513   0.697   7.046
 4281SOL    HW129985   4.457   0.732   7.115
 4281SOL    HW229986   4.597   0.741   7.060
 4282SOL     OW29987   3.463   3.466   0.422
 4282SOL    HW129988   3.509   3.513   0.492
 4282SOL    HW229989   3.516   3.390   0.406
 4283SOL     OW29990   5.365   5.204   7.772
 4283SOL    HW129991   5.308   5.134   7.739
 4283SOL    HW229992   5.344   5.280   7.717
 4284SOL     OW29993   0.346   3.491   6.869
 4284SOL    HW129994   0.262   3.488   6.916
 4284SOL    HW229995   0.412   3.491   6.938
 4285SOL     OW29996   3.771   5.138   6.139
 4285SOL    HW129997   3.707   5.081   6.097
 4285SOL    HW229998   3.761   5.222   6.095
 4286SOL     OW29999   5.625   5.141   0.087
 4286SOL    HW130000   5.538   5.121   0.052
 4286SOL    HW230001   5.610   5.165   0.178
 4287SOL     OW30002   1.633   5.976   7.795
 4287SOL    HW130003   1.683   6.028   7.732
 4287SOL    HW230004   1.593   6.041   7.854
 4288SOL     OW30005   3.349   4.416   0.645
 4288SOL    HW130006   3.434   4.435   0.685
 4288SOL    HW230007   3.338   4.321   0.656
 4289SOL     OW30008   5.677   5.145   7.589
 4289SOL    HW130009   5.712   5.063   7.554
 4289SOL    HW230010   5.665   5.130   7.682
 4290SOL     OW30011   2.320   5.054   0.331
 4290SOL    HW130012   2.320   5.122   0.398
 4290SOL    HW230013   2.399   5.003   0.348
 4291SOL     OW30014   0.396   4.697   5.980
 4291SOL    HW130015   0.368   4.645   6.056
 4291SOL    HW230016   0.377   4.642   5.904
 4292SOL     OW30017   4.392   3.102   0.501
 4292SOL    HW130018   4.486   3.088   0.507
 4292SOL    HW230019   4.359   3.024   0.456
 4293SOL     OW30020   1.000   5.651   6.388
 4293SOL    HW130021   0.963   5.717   6.447
 4293SOL    HW230022   1.042   5.588   6.447
 4294SOL     OW30023   6.399   2.352   1.605
 4294SOL    HW130024   6.447   2.397   1.674
 4294SOL    HW230025   6.338   2.294   1.651
 4295SOL     OW30026   4.229   1.618   7.794
 4295SOL    HW130027   4.170   1.641   7.722
 4295SOL    HW230028   4.186   1.653   7.872
 4296SOL     OW30029   4.986   3.689   1.708
 4296SOL    HW130030   4.909   3.736   1.741
 4296SOL    HW230031   5.036   3.756   1.662
 4297SOL     OW30032   4.258   1.387   1.920
 4297SOL    HW130033   4.188   1.415   1.861
 4297SOL    HW230034   4.314   1.464   1.928
 4298SOL     OW30035   5.521   6.237   1.994
 4298SOL    HW130036   5.579   6.205   1.925
 4298SOL    HW230037   5.580   6.259   2.066
 4299SOL     OW30038   4.892   2.383   1.344
 4299SOL    HW130039   4.948   2.306   1.337
 4299SOL    HW230040   4.950   2.457   1.326
 4300SOL     OW30041   4.569   1.077   7.524
 4300SOL    HW130042   4.530   1.106   7.441
 4300SOL    HW230043   4.647   1.028   7.497
 4301SOL     OW30044   2.648   3.756   0.520
 4301SOL    HW130045   2.619   3.684   0.464
 4301SOL    HW230046   2.664   3.829   0.460
 4302SOL     OW30047   5.106   2.819   1.143
 4302SOL    HW130048   5.129   2.749   1.082
 4302SOL    HW230049   5.135   2.788   1.228
 4303SOL     OW30050   5.415   2.012   6.633
 4303SOL    HW130051   5.445   2.086   6.581
 4303SOL    HW230052   5.426   1.936   6.575
 4304SOL     OW30053   6.340   1.943   1.289
 4304SOL    HW130054   6.374   1.896   1.365
 4304SOL    HW230055   6.387   2.026   1.290
 4305SOL     OW30056   2.132   0.750   7.351
 4305SOL    HW130057   2.066   0.757   7.420
 4305SOL    HW230058   2.128   0.834   7.306
 4306SOL     OW30059   0.024   5.976   7.066
 4306SOL    HW130060   0.114   5.945   7.062
 4306SOL    HW230061   0.018   6.019   7.152
 4307SOL     OW30062   2.844   2.694   0.151
 4307SOL    HW130063   2.905   2.719   0.220
 4307SOL    HW230064   2.897   2.693   0.071
 4308SOL     OW30065   6.354   1.821   1.552
 4308SOL    HW130066   6.422   1.755   1.566
 4308SOL    HW230067   6.382   1.896   1.604
 4309SOL     OW30068   2.267   3.701   7.082
 4309SOL    HW130069   2.288   3.782   7.034
 4309SOL    HW230070   2.329   3.700   7.155
 4310SOL     OW30071   2.086   5.613   6.658
 4310SOL    HW130072   2.060   5.699   6.692
 4310SOL    HW230073   2.018   5.591   6.595
 4311SOL     OW30074   3.216   4.473   1.426
 4311SOL    HW130075   3.291   4.480   1.485
 4311SOL    HW230076   3.140   4.476   1.483
 4312SOL     OW30077   0.883   0.144   7.668
 4312SOL    HW130078   0.843   0.062   7.638
 4312SOL    HW230079   0.914   0.186   7.588
 4313SOL     OW30080   1.485   3.698   0.819
 4313SOL    HW130081   1.421   3.724   0.885
 4313SOL    HW230082   1.482   3.768   0.754
 4314SOL     OW30083   4.168   5.425   0.887
 4314SOL    HW130084   4.250   5.458   0.925
 4314SOL    HW230085   4.167   5.332   0.909
 4315SOL     OW30086   5.736   3.069   1.937
 4315SOL    HW130087   5.731   3.022   1.853
 4315SOL    HW230088   5.759   3.001   2.001
 4316SOL     OW30089   3.123   3.546   6.849
 4316SOL    HW130090   3.093   3.498   6.772
 4316SOL    HW230091   3.209   3.509   6.869
 4317SOL     OW30092   1.847   4.375   6.579
 4317SOL    HW130093   1.877   4.365   6.670
 4317SOL    HW230094   1.863   4.467   6.559
 4318SOL     OW30095   6.002   5.163   6.037
 4318SOL    HW130096   6.074   5.149   6.098
 4318SOL    HW230097   6.040   5.218   5.968
 4319SOL     OW30098   3.001   5.359   7.191
 4319SOL    HW130099   2.907   5.364   7.210
 4319SOL    HW230100   3.005   5.328   7.100
 4320SOL     OW30101   3.973   1.322   0.853
 4320SOL    HW130102   4.038   1.362   0.910
 4320SOL    HW230103   3.901   1.386   0.851
 4321SOL     OW30104   2.571   5.276   7.598
 4321SOL    HW130105   2.646   5.225   7.629
 4321SOL    HW230106   2.519   5.213   7.546
 4322SOL     OW30107   5.798   5.918   7.739
 4322SOL    HW130108   5.807   5.875   7.824
 4322SOL    HW230109   5.759   6.003   7.759
 4323SOL     OW30110   2.372   3.019   5.640
 4323SOL    HW130111   2.287   3.059   5.622
 4323SOL    HW230112   2.433   3.093   5.646
 4324SOL     OW30113   4.337   0.370   7.422
 4324SOL    HW130114   4.352   0.448   7.475
 4324SOL    HW230115   4.259   0.329   7.461
 4325SOL     OW30116   2.951   4.279   1.805
 4325SOL    HW130117   2.977   4.224   1.879
 4325SOL    HW230118   2.875   4.327   1.836
 4326SOL     OW30119   0.497   0.734   6.542
 4326SOL    HW130120   0.581   0.778   6.530
 4326SOL    HW230121   0.433   0.790   6.498
 4327SOL     OW30122   0.467   6.119   7.188
 4327SOL    HW130123   0.515   6.164   7.119
 4327SOL    HW230124   0.532   6.060   7.228
 4328SOL     OW30125   5.973   2.331   7.066
 4328SOL    HW130126   6.031   2.364   7.134
 4328SOL    HW230127   5.944   2.245   7.097
 4329SOL     OW30128   1.274   4.094   1.894
 4329SOL    HW130129   1.340   4.153   1.930
 4329SOL    HW230130   1.297   4.085   1.801
 4330SOL     OW30131   4.230   2.602   6.507
 4330SOL    HW130132   4.260   2.518   6.475
 4330SOL    HW230133   4.138   2.588   6.530
 4331SOL     OW30134   4.897   1.800   7.741
 4331SOL    HW130135   4.929   1.714   7.769
 4331SOL    HW230136   4.805   1.785   7.717
 4332SOL     OW30137   1.698   4.695   1.083
 4332SOL    HW130138   1.677   4.620   1.027
 4332SOL    HW230139   1.656   4.769   1.041
 4333SOL     OW30140   5.453   1.422   0.666
 4333SOL    HW130141   5.466   1.350   0.604
 4333SOL    HW230142   5.406   1.383   0.739
 4334SOL     OW30143   4.999   0.571   6.464
 4334SOL    HW130144   4.903   0.574   6.465
 4334SOL    HW230145   5.020   0.512   6.392
 4335SOL     OW30146   0.762   0.872   5.963
 4335SOL    HW130147   0.854   0.895   5.957
 4335SOL    HW230148   0.715   0.952   5.942
 4336SOL     OW30149   2.475   5.774   6.332
 4336SOL    HW130150   2.406   5.728   6.284
 4336SOL    HW230151   2.460   5.752   6.424
 4337SOL     OW30152   0.720   2.125   1.242
 4337SOL    HW130153   0.801   2.161   1.278
 4337SOL    HW230154   0.720   2.152   1.150
 4338SOL     OW30155   2.265   6.199   0.802
 4338SOL    HW130156   2.355   6.166   0.802
 4338SOL    HW230157   2.225   6.159   0.725
 4339SOL     OW30158   2.869   3.730   6.552
 4339SOL    HW130159   2.860   3.825   6.558
 4339SOL    HW230160   2.954   3.716   6.512
 4340SOL     OW30161   1.656   1.852   7.675
 4340SOL    HW130162   1.705   1.931   7.698
 4340SOL    HW230163   1.721   1.782   7.679
 4341SOL     OW30164   2.478   2.707   6.214
 4341SOL    HW130165   2.545   2.684   6.279
 4341SOL    HW230166   2.524   2.764   6.151
 4342SOL     OW30167   5.262   4.693   2.383
 4342SOL    HW130168   5.264   4.669   2.475
 4342SOL    HW230169   5.342   4.655   2.346
 4343SOL     OW30170   2.905   6.370   5.754
 4343SOL    HW130171   2.961   6.292   5.746
 4343SOL    HW230172   2.826   6.347   5.705
 4344SOL     OW30173   2.325   4.198   5.773
 4344SOL    HW130174   2.230   4.203   5.782
 4344SOL    HW230175   2.344   4.104   5.766
 4345SOL     OW30176   0.885   1.522   6.681
 4345SOL    HW130177   0.964   1.477   6.649
 4345SOL    HW230178   0.918   1.603   6.720
 4346SOL     OW30179   1.663   4.851   7.664
 4346SOL    HW130180   1.575   4.889   7.662
 4346SOL    HW230181   1.687   4.851   7.757
 4347SOL     OW30182   3.651   1.069   5.301
 4347SOL    HW130183   3.568   1.115   5.317
 4347SOL    HW230184   3.675   1.033   5.386
 4348SOL     OW30185   5.189   5.908   6.249
 4348SOL    HW130186   5.133   5.984   6.257
 4348SOL    HW230187   5.180   5.880   6.158
 4349SOL     OW30188   1.572   5.042   0.139
 4349SOL    HW130189   1.636   5.113   0.135
 4349SOL    HW230190   1.624   4.962   0.130
 4350SOL     OW30191   0.708   3.622   5.399
 4350SOL    HW130192   0.613   3.634   5.402
 4350SOL    HW230193   0.737   3.678   5.327
 4351SOL     OW30194   4.578   5.239   0.296
 4351SOL    HW130195   4.549   5.159   0.253
 4351SOL    HW230196   4.497   5.286   0.317
 4352SOL     OW30197   5.679   5.984   0.523
 4352SOL    HW130198   5.701   5.901   0.566
 4352SOL    HW230199   5.755   6.002   0.466
 4353SOL     OW30200   0.346   2.543   1.954
 4353SOL    HW130201   0.326   2.614   1.894
 4353SOL    HW230202   0.438   2.521   1.936
 4354SOL     OW30203   2.219   4.146   1.445
 4354SOL    HW130204   2.170   4.220   1.410
 4354SOL    HW230205   2.252   4.176   1.529
 4355SOL     OW30206   0.124   1.966   6.901
 4355SOL    HW130207   0.053   1.939   6.843
 4355SOL    HW230208   0.195   1.991   6.842
 4356SOL     OW30209   3.050   1.832   7.281
 4356SOL    HW130210   3.052   1.737   7.274
 4356SOL    HW230211   3.122   1.854   7.340
 4357SOL     OW30212   5.379   2.758   7.332
 4357SOL    HW130213   5.439   2.797   7.396
 4357SOL    HW230214   5.409   2.668   7.323
 4358SOL     OW30215   5.654   4.803   6.933
 4358SOL    HW130216   5.604   4.743   6.988
 4358SOL    HW230217   5.735   4.757   6.912
 4359SOL     OW30218   1.234   4.112   1.310
 4359SOL    HW130219   1.263   4.060   1.236
 4359SOL    HW230220   1.246   4.055   1.386
 4360SOL     OW30221   6.420   2.870   0.833
 4360SOL    HW130222   6.515   2.857   0.843
 4360SOL    HW230223   6.403   2.956   0.869
 4361SOL     OW30224   3.143   0.123   0.908
 4361SOL    HW130225   3.195   0.072   0.846
 4361SOL    HW230226   3.067   0.152   0.857
 4362SOL     OW30227   4.549   4.506   6.564
 4362SOL    HW130228   4.470   4.556   6.547
 4362SOL    HW230229   4.589   4.548   6.641
 4363SOL     OW30230   2.163   4.335   0.969
 4363SOL    HW130231   2.135   4.333   0.877
 4363SOL    HW230232   2.190   4.425   0.983
 4364SOL     OW30233   5.983   0.620   1.988
 4364SOL    HW130234   5.921   0.562   2.034
 4364SOL    HW230235   6.040   0.560   1.940
 4365SOL     OW30236   5.864   3.103   2.386
 4365SOL    HW130237   5.861   3.164   2.313
 4365SOL    HW230238   5.865   3.159   2.464
 4366SOL     OW30239   3.364   0.845   0.677
 4366SOL    HW130240   3.285   0.819   0.724
 4366SOL    HW230241   3.365   0.940   0.680
 4367SOL     OW30242   5.160   2.910   0.801
 4367SOL    HW130243   5.197   2.893   0.888
 4367SOL    HW230244   5.120   2.997   0.808
 4368SOL     OW30245   4.620   4.608   0.252
 4368SOL    HW130246   4.604   4.697   0.220
 4368SOL    HW230247   4.714   4.602   0.264
 4369SOL     OW30248   3.490   0.588   0.989
 4369SOL    HW130249   3.455   0.674   1.012
 4369SOL    HW230250   3.501   0.543   1.073
 4370SOL     OW30251   3.565   0.680   0.743
 4370SOL    HW130252   3.494   0.737   0.716
 4370SOL    HW230253   3.550   0.664   0.836
 4371SOL     OW30254   1.615   5.369   0.720
 4371SOL    HW130255   1.688   5.362   0.658
 4371SOL    HW230256   1.574   5.453   0.700
 4372SOL     OW30257   0.775   3.267   6.774
 4372SOL    HW130258   0.821   3.326   6.834
 4372SOL    HW230259   0.683   3.292   6.781
 4373SOL     OW30260   6.440   6.141   5.188
 4373SOL    HW130261   6.398   6.098   5.263
 4373SOL    HW230262   6.458   6.071   5.126
 4374SOL     OW30263   2.913   5.133   1.278
 4374SOL    HW130264   2.873   5.135   1.191
 4374SOL    HW230265   2.920   5.226   1.303
 4375SOL     OW30266   6.401   4.585   0.924
 4375SOL    HW130267   6.395   4.641   1.002
 4375SOL    HW230268   6.432   4.501   0.958
 4376SOL     OW30269   1.429   2.540   0.646
 4376SOL    HW130270   1.467   2.628   0.641
 4376SOL    HW230271   1.446   2.501   0.561
 4377SOL     OW30272   6.398   4.946   0.875
 4377SOL    HW130273   6.319   4.912   0.832
 4377SOL    HW230274   6.366   5.016   0.931
 4378SOL     OW30275   5.317   1.580   6.668
 4378SOL    HW130276   5.323   1.485   6.673
 4378SOL    HW230277   5.285   1.607   6.754
 4379SOL     OW30278   3.631   5.500   7.264
 4379SOL    HW130279   3.718   5.534   7.242
 4379SOL    HW230280   3.648   5.410   7.294
 4380SOL     OW30281   1.526   4.970   6.579
 4380SOL    HW130282   1.548   5.056   6.545
 4380SOL    HW230283   1.610   4.924   6.585
 4381SOL     OW30284   2.426   4.907   1.599
 4381SOL    HW130285   2.409   4.977   1.663
 4381SOL    HW230286   2.417   4.826   1.649
 4382SOL     OW30287   3.684   1.071   0.635
 4382SOL    HW130288   3.714   1.161   0.648
 4382SOL    HW230289   3.589   1.079   0.622
 4383SOL     OW30290   2.141   1.912   0.367
 4383SOL    HW130291   2.167   1.983   0.309
 4383SOL    HW230292   2.062   1.876   0.327
 4384SOL     OW30293   1.107   6.253   6.880
 4384SOL    HW130294   1.153   6.170   6.875
 4384SOL    HW230295   1.113   6.289   6.791
 4385SOL     OW30296   3.027   3.443   6.234
 4385SOL    HW130297   2.966   3.368   6.234
 4385SOL    HW230298   3.064   3.444   6.323
 4386SOL     OW30299   6.178   6.115   7.266
 4386SOL    HW130300   6.198   6.155   7.181
 4386SOL    HW230301   6.262   6.082   7.297
 4387SOL     OW30302   1.524   6.162   0.182
 4387SOL    HW130303   1.453   6.147   0.244
 4387SOL    HW230304   1.582   6.224   0.226
 4388SOL     OW30305   1.774   4.504   5.374
 4388SOL    HW130306   1.734   4.581   5.333
 4388SOL    HW230307   1.828   4.539   5.445
 4389SOL     OW30308   6.052   4.871   4.942
 4389SOL    HW130309   6.083   4.874   5.033
 4389SOL    HW230310   6.106   4.803   4.901
 4390SOL     OW30311   1.885   1.716   7.731
 4390SOL    HW130312   1.913   1.640   7.680
 4390SOL    HW230313   1.960   1.776   7.728
 4391SOL     OW30314   5.657   2.959   2.293
 4391SOL    HW130315   5.709   3.038   2.307
 4391SOL    HW230316   5.705   2.909   2.227
 4392SOL     OW30317   3.940   3.279   0.261
 4392SOL    HW130318   3.908   3.189   0.266
 4392SOL    HW230319   4.034   3.272   0.278
 4393SOL     OW30320   5.703   5.814   6.083
 4393SOL    HW130321   5.772   5.867   6.124
 4393SOL    HW230322   5.622   5.859   6.106
 4394SOL     OW30323   2.558   6.162   6.558
 4394SOL    HW130324   2.469   6.196   6.566
 4394SOL    HW230325   2.562   6.124   6.470
 4395SOL     OW30326   2.441   2.301   7.438
 4395SOL    HW130327   2.426   2.387   7.477
 4395SOL    HW230328   2.499   2.317   7.364
 4396SOL     OW30329   2.668   6.150   5.624
 4396SOL    HW130330   2.747   6.098   5.637
 4396SOL    HW230331   2.619   6.103   5.557
 4397SOL     OW30332   0.425   1.364   7.421
 4397SOL    HW130333   0.511   1.339   7.455
 4397SOL    HW230334   0.388   1.282   7.388
 4398SOL     OW30335   3.378   3.325   1.690
 4398SOL    HW130336   3.320   3.261   1.731
 4398SOL    HW230337   3.465   3.306   1.727
 4399SOL     OW30338   1.509   2.151   6.092
 4399SOL    HW130339   1.520   2.060   6.120
 4399SOL    HW230340   1.598   2.184   6.081
 4400SOL     OW30341   0.445   4.215   6.178
 4400SOL    HW130342   0.535   4.195   6.206
 4400SOL    HW230343   0.418   4.137   6.130
 4401SOL     OW30344   4.046   0.729   1.992
 4401SOL    HW130345   4.091   0.802   2.034
 4401SOL    HW230346   4.048   0.659   2.057
 4402SOL     OW30347   2.420   2.548   7.035
 4402SOL    HW130348   2.444   2.455   7.040
 4402SOL    HW230349   2.368   2.555   6.955
 4403SOL     OW30350   3.980   2.260   6.220
 4403SOL    HW130351   3.891   2.293   6.235
 4403SOL    HW230352   3.973   2.213   6.136
 4404SOL     OW30353   4.397   2.304   0.599
 4404SOL    HW130354   4.478   2.355   0.605
 4404SOL    HW230355   4.340   2.357   0.543
 4405SOL     OW30356   2.130   3.135   5.616
 4405SOL    HW130357   2.085   3.053   5.635
 4405SOL    HW230358   2.100   3.195   5.684
 4406SOL     OW30359   2.323   2.426   0.057
 4406SOL    HW130360   2.357   2.339   0.033
 4406SOL    HW230361   2.401   2.480   0.069
 4407SOL     OW30362   4.893   5.536   0.979
 4407SOL    HW130363   4.948   5.463   1.008
 4407SOL    HW230364   4.818   5.494   0.938
 4408SOL     OW30365   1.878   3.520   5.857
 4408SOL    HW130366   1.816   3.458   5.896
 4408SOL    HW230367   1.964   3.488   5.885
 4409SOL     OW30368   2.939   5.654   0.809
 4409SOL    HW130369   2.862   5.598   0.819
 4409SOL    HW230370   2.945   5.671   0.715
 4410SOL     OW30371   5.658   0.010   0.707
 4410SOL    HW130372   5.719   0.079   0.683
 4410SOL    HW230373   5.574   0.054   0.720
 4411SOL     OW30374   1.153   1.707   7.755
 4411SOL    HW130375   1.149   1.700   7.851
 4411SOL    HW230376   1.194   1.625   7.727
 4412SOL     OW30377   1.274   1.416   7.447
 4412SOL    HW130378   1.330   1.413   7.369
 4412SOL    HW230379   1.212   1.345   7.435
 4413SOL     OW30380   2.282   1.769   6.958
 4413SOL    HW130381   2.263   1.797   7.047
 4413SOL    HW230382   2.291   1.674   6.964
 4414SOL     OW30383   1.969   2.901   0.768
 4414SOL    HW130384   2.015   2.966   0.820
 4414SOL    HW230385   1.971   2.935   0.679
 4415SOL     OW30386   4.593   0.434   0.946
 4415SOL    HW130387   4.670   0.484   0.971
 4415SOL    HW230388   4.617   0.342   0.960
 4416SOL     OW30389   5.163   1.338   1.318
 4416SOL    HW130390   5.094   1.401   1.337
 4416SOL    HW230391   5.131   1.256   1.355
 4417SOL     OW30392   6.426   1.553   5.701
 4417SOL    HW130393   6.467   1.569   5.786
 4417SOL    HW230394   6.478   1.482   5.662
 4418SOL     OW30395   5.994   2.727   1.066
 4418SOL    HW130396   5.992   2.669   0.990
 4418SOL    HW230397   6.071   2.782   1.053
 4419SOL     OW30398   4.117   1.099   0.193
 4419SOL    HW130399   4.157   1.186   0.181
 4419SOL    HW230400   4.189   1.038   0.179
 4420SOL     OW30401   1.496   0.358   1.388
 4420SOL    HW130402   1.403   0.360   1.411
 4420SOL    HW230403   1.528   0.276   1.427
 4421SOL     OW30404   2.669   0.580   7.631
 4421SOL    HW130405   2.704   0.505   7.583
 4421SOL    HW230406   2.694   0.656   7.578
 4422SOL     OW30407   4.710   1.721   6.608
 4422SOL    HW130408   4.736   1.635   6.642
 4422SOL    HW230409   4.720   1.713   6.513
 4423SOL     OW30410   0.643   3.584   7.409
 4423SOL    HW130411   0.634   3.489   7.416
 4423SOL    HW230412   0.712   3.606   7.471
 4424SOL     OW30413   2.529   0.263   6.455
 4424SOL    HW130414   2.507   0.253   6.547
 4424SOL    HW230415   2.623   0.249   6.451
 4425SOL     OW30416   0.659   2.542   6.835
 4425SOL    HW130417   0.587   2.603   6.824
 4425SOL    HW230418   0.634   2.488   6.910
 4426SOL     OW30419   4.739   3.403   0.559
 4426SOL    HW130420   4.711   3.432   0.472
 4426SOL    HW230421   4.662   3.418   0.614
 4427SOL     OW30422   3.488   2.863   2.501
 4427SOL    HW130423   3.393   2.863   2.508
 4427SOL    HW230424   3.514   2.952   2.525
 4428SOL     OW30425   4.932   2.382   0.131
 4428SOL    HW130426   4.900   2.309   0.079
 4428SOL    HW230427   5.027   2.378   0.123
 4429SOL     OW30428   2.508   4.390   0.179
 4429SOL    HW130429   2.502   4.302   0.216
 4429SOL    HW230430   2.597   4.418   0.199
 4430SOL     OW30431   6.327   5.675   0.762
 4430SOL    HW130432   6.303   5.658   0.672
 4430SOL    HW230433   6.423   5.677   0.762
 4431SOL     OW30434   5.677   2.668   0.132
 4431SOL    HW130435   5.745   2.643   0.195
 4431SOL    HW230436   5.665   2.762   0.146
 4432SOL     OW30437   0.744   0.293   0.325
 4432SOL    HW130438   0.671   0.313   0.383
 4432SOL    HW230439   0.788   0.377   0.311
 4433SOL     OW30440   6.117   3.209   1.970
 4433SOL    HW130441   6.069   3.151   2.029
 4433SOL    HW230442   6.128   3.290   2.020
 4434SOL     OW30443   2.703   6.181   1.354
 4434SOL    HW130444   2.721   6.129   1.275
 4434SOL    HW230445   2.706   6.117   1.425
 4435SOL     OW30446   5.149   1.841   2.064
 4435SOL    HW130447   5.209   1.902   2.021
 4435SOL    HW230448   5.156   1.863   2.157
 4436SOL     OW30449   3.639   5.469   6.190
 4436SOL    HW130450   3.670   5.424   6.111
 4436SOL    HW230451   3.571   5.412   6.225
 4437SOL     OW30452   3.866   4.276   1.100
 4437SOL    HW130453   3.843   4.365   1.123
 4437SOL    HW230454   3.866   4.228   1.183
 4438SOL     OW30455   3.842   1.547   5.786
 4438SOL    HW130456   3.885   1.511   5.708
 4438SOL    HW230457   3.761   1.586   5.752
 4439SOL     OW30458   0.159   4.828   0.973
 4439SOL    HW130459   0.076   4.870   0.948
 4439SOL    HW230460   0.226   4.883   0.934
 4440SOL     OW30461   1.768   2.682   0.438
 4440SOL    HW130462   1.794   2.622   0.508
 4440SOL    HW230463   1.777   2.769   0.477
 4441SOL     OW30464   0.225   6.203   0.567
 4441SOL    HW130465   0.233   6.268   0.637
 4441SOL    HW230466   0.214   6.255   0.488
 4442SOL     OW30467   0.594   4.306   0.407
 4442SOL    HW130468   0.572   4.362   0.333
 4442SOL    HW230469   0.649   4.237   0.370
 4443SOL     OW30470   1.396   3.817   0.223
 4443SOL    HW130471   1.323   3.768   0.261
 4443SOL    HW230472   1.458   3.829   0.295
 4444SOL     OW30473   2.344   3.534   1.721
 4444SOL    HW130474   2.269   3.578   1.761
 4444SOL    HW230475   2.399   3.509   1.796
 4445SOL     OW30476   0.801   5.785   1.198
 4445SOL    HW130477   0.865   5.842   1.242
 4445SOL    HW230478   0.717   5.828   1.214
 4446SOL     OW30479   1.260   5.737   6.697
 4446SOL    HW130480   1.199   5.731   6.771
 4446SOL    HW230481   1.330   5.675   6.718
 4447SOL     OW30482   2.760   0.585   7.122
 4447SOL    HW130483   2.789   0.592   7.030
 4447SOL    HW230484   2.705   0.507   7.124
 4448SOL     OW30485   3.139   4.400   6.306
 4448SOL    HW130486   3.232   4.382   6.297
 4448SOL    HW230487   3.100   4.317   6.333
 4449SOL     OW30488   2.416   5.233   2.110
 4449SOL    HW130489   2.424   5.139   2.125
 4449SOL    HW230490   2.459   5.247   2.025
 4450SOL     OW30491   5.627   0.014   7.262
 4450SOL    HW130492   5.673  -0.044   7.323
 4450SOL    HW230493   5.553  -0.039   7.231
 4451SOL     OW30494   0.446   0.311   0.379
 4451SOL    HW130495   0.463   0.241   0.442
 4451SOL    HW230496   0.367   0.282   0.333
 4452SOL     OW30497   2.189   0.483   0.806
 4452SOL    HW130498   2.235   0.425   0.867
 4452SOL    HW230499   2.158   0.555   0.860
 4453SOL     OW30500   2.051   2.952   7.252
 4453SOL    HW130501   2.056   3.038   7.294
 4453SOL    HW230502   1.998   2.899   7.311
 4454SOL     OW30503   3.953   4.770   2.001
 4454SOL    HW130504   3.978   4.714   1.927
 4454SOL    HW230505   3.866   4.738   2.027
 4455SOL     OW30506   4.706   2.302   5.963
 4455SOL    HW130507   4.701   2.395   5.986
 4455SOL    HW230508   4.752   2.300   5.880
 4456SOL     OW30509   4.918   3.562   7.677
 4456SOL    HW130510   4.907   3.536   7.586
 4456SOL    HW230511   4.916   3.658   7.674
 4457SOL     OW30512   4.465   1.492   7.266
 4457SOL    HW130513   4.373   1.472   7.250
 4457SOL    HW230514   4.484   1.566   7.208
 4458SOL     OW30515   2.226   3.417   7.170
 4458SOL    HW130516   2.303   3.369   7.138
 4458SOL    HW230517   2.200   3.472   7.097
 4459SOL     OW30518   4.182   0.279   6.667
 4459SOL    HW130519   4.212   0.233   6.745
 4459SOL    HW230520   4.123   0.346   6.700
 4460SOL     OW30521   3.556   5.940   7.150
 4460SOL    HW130522   3.604   5.879   7.206
 4460SOL    HW230523   3.546   6.019   7.203
 4461SOL     OW30524   2.281   1.258   7.693
 4461SOL    HW130525   2.276   1.353   7.680
 4461SOL    HW230526   2.364   1.244   7.738
 4462SOL     OW30527   0.357   2.675   5.474
 4462SOL    HW130528   0.359   2.752   5.532
 4462SOL    HW230529   0.449   2.656   5.458
 4463SOL     OW30530   0.006   2.438   5.616
 4463SOL    HW130531  -0.073   2.469   5.661
 4463SOL    HW230532   0.013   2.346   5.641
 4464SOL     OW30533   2.089   5.711   0.847
 4464SOL    HW130534   2.032   5.662   0.907
 4464SOL    HW230535   2.055   5.691   0.760
 4465SOL     OW30536   5.532   1.471   7.592
 4465SOL    HW130537   5.539   1.386   7.636
 4465SOL    HW230538   5.596   1.527   7.636
 4466SOL     OW30539   1.913   3.813   0.992
 4466SOL    HW130540   1.999   3.773   1.006
 4466SOL    HW230541   1.925   3.869   0.915
 4467SOL     OW30542   2.341   0.611   5.685
 4467SOL    HW130543   2.403   0.601   5.757
 4467SOL    HW230544   2.384   0.671   5.624
 4468SOL     OW30545   6.296   5.893   0.943
 4468SOL    HW130546   6.274   5.832   0.873
 4468SOL    HW230547   6.335   5.969   0.898
 4469SOL     OW30548   0.733   1.242   5.613
 4469SOL    HW130549   0.739   1.329   5.572
 4469SOL    HW230550   0.819   1.229   5.654
 4470SOL     OW30551   1.098   6.152   6.277
 4470SOL    HW130552   1.111   6.117   6.366
 4470SOL    HW230553   1.146   6.234   6.276
 4471SOL     OW30554   4.863   5.730   1.206
 4471SOL    HW130555   4.846   5.707   1.298
 4471SOL    HW230556   4.824   5.658   1.156
 4472SOL     OW30557   1.657   0.822   0.829
 4472SOL    HW130558   1.647   0.727   0.826
 4472SOL    HW230559   1.642   0.845   0.921
 4473SOL     OW30560   5.968   1.046   6.625
 4473SOL    HW130561   5.879   1.062   6.595
 4473SOL    HW230562   5.967   1.068   6.718
 4474SOL     OW30563   6.221   4.706   5.411
 4474SOL    HW130564   6.286   4.773   5.433
 4474SOL    HW230565   6.228   4.641   5.481
 4475SOL     OW30566   5.678   1.136   7.535
 4475SOL    HW130567   5.633   1.159   7.617
 4475SOL    HW230568   5.751   1.080   7.563
 4476SOL     OW30569   2.958   2.173   6.241
 4476SOL    HW130570   2.980   2.106   6.177
 4476SOL    HW230571   2.963   2.256   6.193
 4477SOL     OW30572   0.284   6.218   2.291
 4477SOL    HW130573   0.342   6.173   2.229
 4477SOL    HW230574   0.196   6.192   2.265
 4478SOL     OW30575   6.432   6.092   7.332
 4478SOL    HW130576   6.514   6.132   7.303
 4478SOL    HW230577   6.449   6.063   7.422
 4479SOL     OW30578   3.209   4.810   5.575
 4479SOL    HW130579   3.270   4.783   5.508
 4479SOL    HW230580   3.132   4.754   5.563
 4480SOL     OW30581   1.750   0.813   1.924
 4480SOL    HW130582   1.840   0.804   1.956
 4480SOL    HW230583   1.700   0.842   2.001
 4481SOL     OW30584   6.002   1.396   1.251
 4481SOL    HW130585   5.969   1.307   1.232
 4481SOL    HW230586   5.939   1.454   1.208
 4482SOL     OW30587   0.502   2.422   7.492
 4482SOL    HW130588   0.571   2.356   7.478
 4482SOL    HW230589   0.438   2.377   7.548
 4483SOL     OW30590   1.563   2.455   0.036
 4483SOL    HW130591   1.630   2.402  -0.006
 4483SOL    HW230592   1.502   2.478  -0.034
 4484SOL     OW30593   1.818   6.442   1.680
 4484SOL    HW130594   1.739   6.456   1.733
 4484SOL    HW230595   1.884   6.411   1.742
 4485SOL     OW30596   3.161   1.253   0.785
 4485SOL    HW130597   3.088   1.232   0.844
 4485SOL    HW230598   3.125   1.314   0.721
 4486SOL     OW30599   3.403   2.143   5.652
 4486SOL    HW130600   3.370   2.209   5.591
 4486SOL    HW230601   3.358   2.063   5.627
 4487SOL     OW30602   3.242   1.545   0.906
 4487SOL    HW130603   3.162   1.557   0.957
 4487SOL    HW230604   3.225   1.593   0.824
 4488SOL     OW30605   3.353   1.906   1.084
 4488SOL    HW130606   3.426   1.850   1.109
 4488SOL    HW230607   3.329   1.951   1.165
 4489SOL     OW30608   1.570   2.967   6.217
 4489SOL    HW130609   1.579   2.905   6.289
 4489SOL    HW230610   1.529   2.917   6.147
 4490SOL     OW30611   2.071   5.519   1.273
 4490SOL    HW130612   2.041   5.431   1.297
 4490SOL    HW230613   2.159   5.505   1.238
 4491SOL     OW30614   2.517   1.790   6.085
 4491SOL    HW130615   2.596   1.744   6.116
 4491SOL    HW230616   2.542   1.826   6.000
 4492SOL     OW30617   2.114   3.995   0.359
 4492SOL    HW130618   2.079   3.939   0.291
 4492SOL    HW230619   2.052   4.068   0.365
 4493SOL     OW30620   0.220   3.742   0.780
 4493SOL    HW130621   0.142   3.688   0.789
 4493SOL    HW230622   0.227   3.758   0.685
 4494SOL     OW30623   5.017   1.521   1.811
 4494SOL    HW130624   4.970   1.461   1.754
 4494SOL    HW230625   5.104   1.528   1.772
 4495SOL     OW30626   2.002   1.751   1.485
 4495SOL    HW130627   2.090   1.787   1.472
 4495SOL    HW230628   2.008   1.699   1.565
 4496SOL     OW30629   1.654   1.882   6.242
 4496SOL    HW130630   1.684   1.936   6.315
 4496SOL    HW230631   1.708   1.803   6.247
 4497SOL     OW30632   4.664   3.576   2.374
 4497SOL    HW130633   4.620   3.508   2.323
 4497SOL    HW230634   4.636   3.659   2.335
 4498SOL     OW30635   0.244   5.764   6.824
 4498SOL    HW130636   0.278   5.826   6.887
 4498SOL    HW230637   0.310   5.695   6.820
 4499SOL     OW30638   2.125   3.735   6.223
 4499SOL    HW130639   2.066   3.717   6.296
 4499SOL    HW230640   2.090   3.814   6.183
 4500SOL     OW30641   0.152   6.331   5.338
 4500SOL    HW130642   0.130   6.277   5.414
 4500SOL    HW230643   0.126   6.277   5.263
 4501SOL     OW30644   2.400   0.549   0.368
 4501SOL    HW130645   2.376   0.583   0.454
 4501SOL    HW230646   2.318   0.512   0.334
 4502SOL     OW30647   5.203   2.851   7.114
 4502SOL    HW130648   5.269   2.809   7.169
 4502SOL    HW230649   5.247   2.865   7.030
 4503SOL     OW30650   3.093   2.935   1.148
 4503SOL    HW130651   3.154   2.925   1.221
 4503SOL    HW230652   3.136   2.892   1.074
 4504SOL     OW30653   3.237   2.082   0.894
 4504SOL    HW130654   3.240   2.020   0.967
 4504SOL    HW230655   3.254   2.029   0.816
 4505SOL     OW30656   1.129   5.131   6.710
 4505SOL    HW130657   1.142   5.066   6.642
 4505SOL    HW230658   1.167   5.211   6.675
 4506SOL     OW30659   1.095   5.587   5.899
 4506SOL    HW130660   1.172   5.538   5.870
 4506SOL    HW230661   1.119   5.620   5.986
 4507SOL     OW30662   2.132   0.218   1.348
 4507SOL    HW130663   2.189   0.143   1.335
 4507SOL    HW230664   2.108   0.245   1.260
 4508SOL     OW30665   5.283   5.291   2.414
 4508SOL    HW130666   5.189   5.295   2.426
 4508SOL    HW230667   5.299   5.336   2.331
 4509SOL     OW30668   1.431   6.193   6.979
 4509SOL    HW130669   1.423   6.254   6.906
 4509SOL    HW230670   1.372   6.121   6.957
 4510SOL     OW30671   4.110   1.492   6.156
 4510SOL    HW130672   4.094   1.557   6.087
 4510SOL    HW230673   4.204   1.473   6.150
 4511SOL     OW30674   4.256   6.055   1.579
 4511SOL    HW130675   4.215   6.052   1.493
 4511SOL    HW230676   4.217   5.982   1.627
 4512SOL     OW30677   1.573   3.728   7.163
 4512SOL    HW130678   1.598   3.757   7.075
 4512SOL    HW230679   1.655   3.730   7.213
 4513SOL     OW30680   3.119   3.039   0.465
 4513SOL    HW130681   3.082   3.042   0.553
 4513SOL    HW230682   3.044   3.021   0.408
 4514SOL     OW30683   3.174   0.726   7.610
 4514SOL    HW130684   3.225   0.644   7.604
 4514SOL    HW230685   3.087   0.698   7.639
 4515SOL     OW30686   3.589   0.759   7.789
 4515SOL    HW130687   3.550   0.722   7.868
 4515SOL    HW230688   3.669   0.802   7.820
 4516SOL     OW30689   1.562   1.739   0.599
 4516SOL    HW130690   1.603   1.720   0.514
 4516SOL    HW230691   1.634   1.771   0.653
 4517SOL     OW30692   0.039   5.969   1.180
 4517SOL    HW130693   0.082   6.049   1.210
 4517SOL    HW230694  -0.049   5.997   1.155
 4518SOL     OW30695   0.338   4.570   0.759
 4518SOL    HW130696   0.334   4.509   0.685
 4518SOL    HW230697   0.303   4.520   0.833
 4519SOL     OW30698   4.140   3.839   0.058
 4519SOL    HW130699   4.173   3.928   0.074
 4519SOL    HW230700   4.052   3.852   0.023
 4520SOL     OW30701   0.992   0.471   7.472
 4520SOL    HW130702   1.001   0.393   7.416
 4520SOL    HW230703   1.075   0.476   7.519
 4521SOL     OW30704   4.368   2.675   0.462
 4521SOL    HW130705   4.384   2.733   0.387
 4521SOL    HW230706   4.452   2.672   0.508
 4522SOL     OW30707   2.665   2.478   6.345
 4522SOL    HW130708   2.740   2.529   6.376
 4522SOL    HW230709   2.666   2.489   6.250
 4523SOL     OW30710   2.898   5.226   6.542
 4523SOL    HW130711   2.882   5.290   6.473
 4523SOL    HW230712   2.898   5.277   6.623
 4524SOL     OW30713   4.381   0.490   1.881
 4524SOL    HW130714   4.286   0.499   1.878
 4524SOL    HW230715   4.396   0.411   1.932
 4525SOL     OW30716   1.312   5.698   1.243
 4525SOL    HW130717   1.258   5.720   1.319
 4525SOL    HW230718   1.302   5.604   1.232
 4526SOL     OW30719   0.570   6.289   1.894
 4526SOL    HW130720   0.567   6.358   1.960
 4526SOL    HW230721   0.610   6.214   1.939
 4527SOL     OW30722   3.317   4.055   6.327
 4527SOL    HW130723   3.368   4.136   6.326
 4527SOL    HW230724   3.326   4.023   6.417
 4528SOL     OW30725   5.504   1.895   7.510
 4528SOL    HW130726   5.439   1.835   7.545
 4528SOL    HW230727   5.584   1.842   7.502
 4529SOL     OW30728   2.105   3.987   7.697
 4529SOL    HW130729   2.076   4.051   7.633
 4529SOL    HW230730   2.161   4.036   7.757
 4530SOL     OW30731   5.991   2.223   7.344
 4530SOL    HW130732   5.929   2.159   7.378
 4530SOL    HW230733   6.005   2.284   7.416
 4531SOL     OW30734   4.301   4.637   1.213
 4531SOL    HW130735   4.313   4.559   1.159
 4531SOL    HW230736   4.251   4.607   1.288
 4532SOL     OW30737   4.270   1.155   6.336
 4532SOL    HW130738   4.297   1.071   6.373
 4532SOL    HW230739   4.335   1.218   6.367
 4533SOL     OW30740   1.689   2.361   1.002
 4533SOL    HW130741   1.768   2.367   1.056
 4533SOL    HW230742   1.712   2.299   0.933
 4534SOL     OW30743   0.084   4.237   6.654
 4534SOL    HW130744   0.070   4.317   6.705
 4534SOL    HW230745   0.167   4.251   6.608
 4535SOL     OW30746   2.140   4.494   7.329
 4535SOL    HW130747   2.138   4.441   7.249
 4535SOL    HW230748   2.210   4.458   7.381
 4536SOL     OW30749   4.859   5.940   1.710
 4536SOL    HW130750   4.923   5.877   1.744
 4536SOL    HW230751   4.785   5.885   1.684
 4537SOL     OW30752   6.193   3.672   7.735
 4537SOL    HW130753   6.246   3.597   7.706
 4537SOL    HW230754   6.209   3.740   7.669
 4538SOL     OW30755   4.280   6.062   6.760
 4538SOL    HW130756   4.369   6.071   6.726
 4538SOL    HW230757   4.285   6.095   6.849
 4539SOL     OW30758   4.333   5.422   0.279
 4539SOL    HW130759   4.295   5.446   0.195
 4539SOL    HW230760   4.330   5.503   0.331
 4540SOL     OW30761   3.945   1.221   6.981
 4540SOL    HW130762   3.883   1.151   6.960
 4540SOL    HW230763   3.940   1.280   6.906
 4541SOL     OW30764   2.152   0.885   0.406
 4541SOL    HW130765   2.090   0.822   0.370
 4541SOL    HW230766   2.123   0.899   0.496
 4542SOL     OW30767   1.057   4.255   6.876
 4542SOL    HW130768   1.119   4.206   6.929
 4542SOL    HW230769   1.105   4.274   6.795
 4543SOL     OW30770   6.357   2.085   0.577
 4543SOL    HW130771   6.313   2.011   0.534
 4543SOL    HW230772   6.368   2.150   0.508
 4544SOL     OW30773   2.721   1.497   2.029
 4544SOL    HW130774   2.721   1.402   2.045
 4544SOL    HW230775   2.799   1.512   1.976
 4545SOL     OW30776   2.738   5.486   0.751
 4545SOL    HW130777   2.798   5.411   0.756
 4545SOL    HW230778   2.661   5.452   0.704
 4546SOL     OW30779   3.955   3.448   6.887
 4546SOL    HW130780   3.963   3.370   6.832
 4546SOL    HW230781   3.862   3.452   6.909
 4547SOL     OW30782   3.714   1.897   6.702
 4547SOL    HW130783   3.685   1.809   6.680
 4547SOL    HW230784   3.637   1.952   6.688
 4548SOL     OW30785   4.910   6.205   1.607
 4548SOL    HW130786   4.900   6.220   1.512
 4548SOL    HW230787   4.897   6.111   1.618
 4549SOL     OW30788   0.486   5.356   1.170
 4549SOL    HW130789   0.442   5.427   1.217
 4549SOL    HW230790   0.428   5.281   1.183
 4550SOL     OW30791   1.170   1.449   1.754
 4550SOL    HW130792   1.145   1.533   1.792
 4550SOL    HW230793   1.174   1.389   1.829
 4551SOL     OW30794   4.199   1.445   7.221
 4551SOL    HW130795   4.189   1.507   7.149
 4551SOL    HW230796   4.131   1.379   7.206
 4552SOL     OW30797   1.112   3.854   7.116
 4552SOL    HW130798   1.022   3.872   7.143
 4552SOL    HW230799   1.161   3.847   7.198
 4553SOL     OW30800   0.072   4.228   1.739
 4553SOL    HW130801   0.121   4.310   1.729
 4553SOL    HW230802  -0.018   4.251   1.718
 4554SOL     OW30803   2.548   5.670   7.459
 4554SOL    HW130804   2.641   5.693   7.462
 4554SOL    HW230805   2.534   5.620   7.540
 4555SOL     OW30806   2.180   2.480   1.161
 4555SOL    HW130807   2.239   2.525   1.101
 4555SOL    HW230808   2.155   2.547   1.224
 4556SOL     OW30809   4.334   6.116   0.965
 4556SOL    HW130810   4.343   6.210   0.950
 4556SOL    HW230811   4.423   6.086   0.981
 4557SOL     OW30812   3.514   3.969   1.240
 4557SOL    HW130813   3.465   3.888   1.223
 4557SOL    HW230814   3.471   4.035   1.185
 4558SOL     OW30815   4.467   3.908   7.593
 4558SOL    HW130816   4.530   3.861   7.539
 4558SOL    HW230817   4.504   3.903   7.681
 4559SOL     OW30818   4.517   3.685   7.295
 4559SOL    HW130819   4.544   3.648   7.211
 4559SOL    HW230820   4.421   3.692   7.288
 4560SOL     OW30821   1.282   0.213   7.604
 4560SOL    HW130822   1.264   0.195   7.697
 4560SOL    HW230823   1.250   0.135   7.558
 4561SOL     OW30824   1.243   0.313   1.481
 4561SOL    HW130825   1.177   0.378   1.505
 4561SOL    HW230826   1.241   0.250   1.553
 4562SOL     OW30827   6.364   0.810   1.974
 4562SOL    HW130828   6.302   0.760   2.028
 4562SOL    HW230829   6.315   0.830   1.894
 4563SOL     OW30830   3.288   4.997   0.368
 4563SOL    HW130831   3.273   4.941   0.444
 4563SOL    HW230832   3.272   5.086   0.400
 4564SOL     OW30833   3.925   2.979   1.226
 4564SOL    HW130834   3.964   2.938   1.303
 4564SOL    HW230835   3.987   2.961   1.155
 4565SOL     OW30836   0.792   3.270   0.503
 4565SOL    HW130837   0.728   3.208   0.469
 4565SOL    HW230838   0.866   3.215   0.529
 4566SOL     OW30839   1.241   3.419   7.008
 4566SOL    HW130840   1.176   3.489   7.010
 4566SOL    HW230841   1.305   3.447   6.942
 4567SOL     OW30842   5.995   4.381   0.282
 4567SOL    HW130843   5.968   4.366   0.373
 4567SOL    HW230844   6.032   4.469   0.283
 4568SOL     OW30845   4.787   5.900   2.123
 4568SOL    HW130846   4.724   5.840   2.082
 4568SOL    HW230847   4.866   5.892   2.068
 4569SOL     OW30848   0.805   1.747   1.344
 4569SOL    HW130849   0.758   1.664   1.332
 4569SOL    HW230850   0.740   1.805   1.384
 4570SOL     OW30851   5.360   4.356   2.021
 4570SOL    HW130852   5.343   4.265   1.994
 4570SOL    HW230853   5.446   4.353   2.062
 4571SOL     OW30854   1.920   1.355   1.668
 4571SOL    HW130855   1.866   1.434   1.670
 4571SOL    HW230856   1.999   1.379   1.716
 4572SOL     OW30857   6.318   2.962   1.614
 4572SOL    HW130858   6.270   2.879   1.609
 4572SOL    HW230859   6.399   2.939   1.661
 4573SOL     OW30860   2.103   3.304   5.819
 4573SOL    HW130861   2.104   3.274   5.910
 4573SOL    HW230862   2.143   3.391   5.822
 4574SOL     OW30863   4.457   6.400   7.321
 4574SOL    HW130864   4.460   6.315   7.276
 4574SOL    HW230865   4.460   6.377   7.414
 4575SOL     OW30866   1.187   4.316   2.071
 4575SOL    HW130867   1.199   4.234   2.024
 4575SOL    HW230868   1.126   4.294   2.142
 4576SOL     OW30869   6.441   4.613   1.961
 4576SOL    HW130870   6.471   4.644   2.047
 4576SOL    HW230871   6.345   4.616   1.968
 4577SOL     OW30872   4.735   3.164   7.463
 4577SOL    HW130873   4.794   3.170   7.388
 4577SOL    HW230874   4.790   3.129   7.533
 4578SOL     OW30875   0.833   4.764   6.968
 4578SOL    HW130876   0.741   4.739   6.960
 4578SOL    HW230877   0.869   4.754   6.880
 4579SOL     OW30878   3.696   0.257   6.751
 4579SOL    HW130879   3.771   0.243   6.693
 4579SOL    HW230880   3.721   0.334   6.803
 4580SOL     OW30881   2.267   2.491   1.908
 4580SOL    HW130882   2.263   2.561   1.843
 4580SOL    HW230883   2.311   2.530   1.983
 4581SOL     OW30884   1.857   4.147   6.396
 4581SOL    HW130885   1.773   4.140   6.440
 4581SOL    HW230886   1.905   4.214   6.446
 4582SOL     OW30887   3.606   2.953   0.078
 4582SOL    HW130888   3.517   2.954   0.113
 4582SOL    HW230889   3.613   3.033   0.027
 4583SOL     OW30890   1.175   1.243   1.941
 4583SOL    HW130891   1.163   1.264   2.034
 4583SOL    HW230892   1.143   1.153   1.933
 4584SOL     OW30893   5.666   5.364   0.558
 4584SOL    HW130894   5.616   5.309   0.498
 4584SOL    HW230895   5.752   5.372   0.518
 4585SOL     OW30896   1.665   2.725   0.817
 4585SOL    HW130897   1.621   2.810   0.806
 4585SOL    HW230898   1.755   2.747   0.840
 4586SOL     OW30899   5.313   0.415   7.473
 4586SOL    HW130900   5.253   0.425   7.398
 4586SOL    HW230901   5.255   0.393   7.546
 4587SOL     OW30902   2.597   3.171   6.520
 4587SOL    HW130903   2.619   3.251   6.568
 4587SOL    HW230904   2.588   3.104   6.587
 4588SOL     OW30905   2.062   3.887   6.812
 4588SOL    HW130906   1.997   3.826   6.777
 4588SOL    HW230907   2.138   3.878   6.754
 4589SOL     OW30908   1.119   5.012   7.749
 4589SOL    HW130909   1.039   5.026   7.800
 4589SOL    HW230910   1.189   5.011   7.815
 4590SOL     OW30911   6.267   4.766   6.544
 4590SOL    HW130912   6.198   4.774   6.478
 4590SOL    HW230913   6.316   4.688   6.518
 4591SOL     OW30914   4.209   0.919   2.121
 4591SOL    HW130915   4.175   0.980   2.186
 4591SOL    HW230916   4.248   0.975   2.054
 4592SOL     OW30917   4.721   2.566   7.533
 4592SOL    HW130918   4.694   2.647   7.489
 4592SOL    HW230919   4.801   2.589   7.579
 4593SOL     OW30920   4.865   0.933   7.791
 4593SOL    HW130921   4.947   0.915   7.745
 4593SOL    HW230922   4.851   0.857   7.847
 4594SOL     OW30923   4.683   3.760   1.151
 4594SOL    HW130924   4.704   3.851   1.132
 4594SOL    HW230925   4.587   3.756   1.151
 4595SOL     OW30926   0.943   3.882   5.548
 4595SOL    HW130927   1.010   3.821   5.581
 4595SOL    HW230928   0.992   3.944   5.494
 4596SOL     OW30929   2.937   4.856   6.371
 4596SOL    HW130930   3.026   4.880   6.348
 4596SOL    HW230931   2.943   4.764   6.397
 4597SOL     OW30932   3.613   4.437   0.707
 4597SOL    HW130933   3.667   4.515   0.709
 4597SOL    HW230934   3.637   4.393   0.625
 4598SOL     OW30935   0.160   1.038   1.227
 4598SOL    HW130936   0.108   1.074   1.155
 4598SOL    HW230937   0.126   1.082   1.305
 4599SOL     OW30938   1.622   2.459   6.121
 4599SOL    HW130939   1.705   2.490   6.086
 4599SOL    HW230940   1.557   2.523   6.093
 4600SOL     OW30941   2.286   4.131   6.503
 4600SOL    HW130942   2.244   4.131   6.418
 4600SOL    HW230943   2.226   4.179   6.560
 4601SOL     OW30944   2.819   4.762   6.844
 4601SOL    HW130945   2.733   4.804   6.853
 4601SOL    HW230946   2.882   4.831   6.865
 4602SOL     OW30947   4.510   1.242   0.449
 4602SOL    HW130948   4.445   1.246   0.519
 4602SOL    HW230949   4.499   1.155   0.411
 4603SOL     OW30950   2.993   1.062   0.105
 4603SOL    HW130951   3.073   1.109   0.080
 4603SOL    HW230952   3.024   0.979   0.140
 4604SOL     OW30953   2.394   1.534   6.480
 4604SOL    HW130954   2.402   1.441   6.502
 4604SOL    HW230955   2.361   1.535   6.390
 4605SOL     OW30956   2.917   3.003   0.073
 4605SOL    HW130957   2.869   2.976  -0.005
 4605SOL    HW230958   2.876   3.086   0.098
 4606SOL     OW30959   3.401   2.591   7.672
 4606SOL    HW130960   3.342   2.593   7.747
 4606SOL    HW230961   3.344   2.608   7.596
 4607SOL     OW30962   1.945   2.672   0.910
 4607SOL    HW130963   2.030   2.627   0.912
 4607SOL    HW230964   1.958   2.743   0.847
 4608SOL     OW30965   2.702   5.114   7.034
 4608SOL    HW130966   2.702   5.079   7.123
 4608SOL    HW230967   2.788   5.155   7.023
 4609SOL     OW30968   5.224   4.823   1.705
 4609SOL    HW130969   5.263   4.738   1.727
 4609SOL    HW230970   5.254   4.882   1.775
 4610SOL     OW30971   0.916   5.611   5.128
 4610SOL    HW130972   0.948   5.521   5.137
 4610SOL    HW230973   0.978   5.652   5.067
 4611SOL     OW30974   6.254   0.512   7.573
 4611SOL    HW130975   6.323   0.577   7.585
 4611SOL    HW230976   6.298   0.437   7.533
 4612SOL     OW30977   0.362   5.114   1.585
 4612SOL    HW130978   0.431   5.056   1.617
 4612SOL    HW230979   0.358   5.096   1.491
 4613SOL     OW30980   0.040   3.230   7.350
 4613SOL    HW130981  -0.002   3.223   7.264
 4613SOL    HW230982   0.095   3.152   7.356
 4614SOL     OW30983   5.088   4.287   6.978
 4614SOL    HW130984   5.091   4.210   6.921
 4614SOL    HW230985   5.179   4.301   7.004
 4615SOL     OW30986   5.263   4.292   1.636
 4615SOL    HW130987   5.352   4.314   1.607
 4615SOL    HW230988   5.208   4.363   1.602
 4616SOL     OW30989   3.534   4.517   7.714
 4616SOL    HW130990   3.616   4.564   7.697
 4616SOL    HW230991   3.555   4.425   7.700
 4617SOL     OW30992   5.924   1.076   6.891
 4617SOL    HW130993   5.877   1.044   6.968
 4617SOL    HW230994   5.950   1.165   6.913
 4618SOL     OW30995   1.863   0.463   1.215
 4618SOL    HW130996   1.862   0.368   1.210
 4618SOL    HW230997   1.956   0.486   1.213
 4619SOL     OW30998   0.111   1.883   5.767
 4619SOL    HW130999   0.128   1.885   5.861
 4619SOL    HW231000   0.019   1.908   5.759
 4620SOL     OW31001   4.206   5.397   6.806
 4620SOL    HW131002   4.166   5.454   6.871
 4620SOL    HW231003   4.150   5.319   6.806
 4621SOL     OW31004   3.235   2.076   6.800
 4621SOL    HW131005   3.235   1.985   6.832
 4621SOL    HW231006   3.266   2.127   6.875
 4622SOL     OW31007   5.952   2.152   5.832
 4622SOL    HW131008   5.994   2.094   5.768
 4622SOL    HW231009   5.860   2.154   5.805
 4623SOL     OW31010   2.548   6.382   1.459
 4623SOL    HW131011   2.620   6.442   1.478
 4623SOL    HW231012   2.590   6.304   1.422
 4624SOL     OW31013   4.119   6.222   6.603
 4624SOL    HW131014   4.051   6.217   6.670
 4624SOL    HW231015   4.201   6.222   6.653
 4625SOL     OW31016   0.496   0.140   0.592
 4625SOL    HW131017   0.448   0.097   0.663
 4625SOL    HW231018   0.570   0.183   0.635
 4626SOL     OW31019   4.657   4.419   0.528
 4626SOL    HW131020   4.695   4.459   0.607
 4626SOL    HW231021   4.623   4.494   0.478
 4627SOL     OW31022   2.667   0.731   6.366
 4627SOL    HW131023   2.655   0.648   6.321
 4627SOL    HW231024   2.719   0.709   6.443
 4628SOL     OW31025   2.192   3.075   6.665
 4628SOL    HW131026   2.225   2.990   6.637
 4628SOL    HW231027   2.116   3.055   6.718
 4629SOL     OW31028   5.514   5.050   2.893
 4629SOL    HW131029   5.600   5.087   2.910
 4629SOL    HW231030   5.465   5.121   2.850
 4630SOL     OW31031   2.528   3.996   6.503
 4630SOL    HW131032   2.611   4.028   6.539
 4630SOL    HW231033   2.467   4.069   6.515
 4631SOL     OW31034   2.491   0.921   7.689
 4631SOL    HW131035   2.463   0.888   7.775
 4631SOL    HW231036   2.439   0.871   7.627
 4632SOL     OW31037   2.448   5.953   1.310
 4632SOL    HW131038   2.499   5.921   1.236
 4632SOL    HW231039   2.503   5.936   1.387
 4633SOL     OW31040   5.484   5.248   6.536
 4633SOL    HW131041   5.437   5.292   6.607
 4633SOL    HW231042   5.419   5.242   6.465
 4634SOL     OW31043   5.860   3.019   5.509
 4634SOL    HW131044   5.911   2.975   5.440
 4634SOL    HW231045   5.856   2.956   5.580
 4635SOL     OW31046   5.150   4.833   2.171
 4635SOL    HW131047   5.180   4.785   2.248
 4635SOL    HW231048   5.172   4.924   2.189
 4636SOL     OW31049   2.769   1.088   6.401
 4636SOL    HW131050   2.861   1.098   6.375
 4636SOL    HW231051   2.760   0.995   6.421
 4637SOL     OW31052   1.517   2.570   0.999
 4637SOL    HW131053   1.588   2.513   1.027
 4637SOL    HW231054   1.557   2.629   0.935
 4638SOL     OW31055   2.601   5.437   6.868
 4638SOL    HW131056   2.534   5.428   6.800
 4638SOL    HW231057   2.617   5.531   6.873
 4639SOL     OW31058   4.462   3.217   7.471
 4639SOL    HW131059   4.491   3.303   7.500
 4639SOL    HW231060   4.530   3.157   7.502
 4640SOL     OW31061   3.458   5.331   0.286
 4640SOL    HW131062   3.410   5.405   0.324
 4640SOL    HW231063   3.490   5.282   0.361
 4641SOL     OW31064   2.951   2.329   2.183
 4641SOL    HW131065   2.976   2.421   2.170
 4641SOL    HW231066   3.012   2.280   2.128
 4642SOL     OW31067   4.232   0.240   6.926
 4642SOL    HW131068   4.250   0.202   7.012
 4642SOL    HW231069   4.275   0.325   6.927
 4643SOL     OW31070   5.820   0.255   2.731
 4643SOL    HW131071   5.900   0.306   2.742
 4643SOL    HW231072   5.851   0.165   2.720
 4644SOL     OW31073   5.593   5.562   2.379
 4644SOL    HW131074   5.573   5.483   2.428
 4644SOL    HW231075   5.681   5.547   2.344
 4645SOL     OW31076   3.664   1.603   0.156
 4645SOL    HW131077   3.713   1.521   0.146
 4645SOL    HW231078   3.575   1.575   0.178
 4646SOL     OW31079   5.705   5.935   1.026
 4646SOL    HW131080   5.633   5.936   1.089
 4646SOL    HW231081   5.729   5.843   1.020
 4647SOL     OW31082   2.093   2.723   7.114
 4647SOL    HW131083   2.089   2.803   7.167
 4647SOL    HW231084   2.021   2.732   7.051
 4648SOL     OW31085   5.491   4.946   1.679
 4648SOL    HW131086   5.436   5.014   1.639
 4648SOL    HW231087   5.497   4.972   1.771
 4649SOL     OW31088   1.182   1.222   6.357
 4649SOL    HW131089   1.173   1.161   6.284
 4649SOL    HW231090   1.274   1.212   6.384
 4650SOL     OW31091   5.126   5.457   5.806
 4650SOL    HW131092   5.105   5.419   5.721
 4650SOL    HW231093   5.217   5.487   5.796
 4651SOL     OW31094   3.060   0.565   1.280
 4651SOL    HW131095   3.065   0.534   1.371
 4651SOL    HW231096   3.076   0.487   1.227
 4652SOL     OW31097   4.737   0.893   7.409
 4652SOL    HW131098   4.673   0.824   7.429
 4652SOL    HW231099   4.764   0.874   7.319
 4653SOL     OW31100   0.693   5.674   7.521
 4653SOL    HW131101   0.682   5.767   7.542
 4653SOL    HW231102   0.787   5.665   7.502
 4654SOL     OW31103   3.244   5.008   7.095
 4654SOL    HW131104   3.164   5.006   7.146
 4654SOL    HW231105   3.303   4.947   7.140
 4655SOL     OW31106   0.930   1.644   6.975
 4655SOL    HW131107   0.850   1.687   6.947
 4655SOL    HW231108   0.927   1.648   7.071
 4656SOL     OW31109   5.894   3.496   0.330
 4656SOL    HW131110   5.891   3.587   0.301
 4656SOL    HW231111   5.803   3.473   0.349
 4657SOL     OW31112   4.343   2.704   0.138
 4657SOL    HW131113   4.431   2.666   0.146
 4657SOL    HW231114   4.291   2.635   0.097
 4658SOL     OW31115   3.161   0.090   0.278
 4658SOL    HW131116   3.239   0.107   0.331
 4658SOL    HW231117   3.126   0.176   0.257
 4659SOL     OW31118   4.107   2.349   0.774
 4659SOL    HW131119   4.150   2.273   0.815
 4659SOL    HW231120   4.067   2.315   0.694
 4660SOL     OW31121   5.194   3.500   1.268
 4660SOL    HW131122   5.157   3.414   1.255
 4660SOL    HW231123   5.259   3.488   1.338
 4661SOL     OW31124   6.284   5.464   1.203
 4661SOL    HW131125   6.348   5.534   1.191
 4661SOL    HW231126   6.258   5.440   1.114
 4662SOL     OW31127   3.596   3.787   6.314
 4662SOL    HW131128   3.650   3.736   6.376
 4662SOL    HW231129   3.619   3.752   6.228
 4663SOL     OW31130   1.526   0.648   1.922
 4663SOL    HW131131   1.616   0.676   1.908
 4663SOL    HW231132   1.485   0.721   1.968
 4664SOL     OW31133   5.683   6.189   7.758
 4664SOL    HW131134   5.741   6.247   7.806
 4664SOL    HW231135   5.631   6.145   7.825
 4665SOL     OW31136   1.736   5.675   0.630
 4665SOL    HW131137   1.696   5.705   0.712
 4665SOL    HW231138   1.692   5.725   0.562
 4666SOL     OW31139   4.846   1.523   1.425
 4666SOL    HW131140   4.849   1.464   1.350
 4666SOL    HW231141   4.830   1.465   1.500
 4667SOL     OW31142   5.400   5.138   7.369
 4667SOL    HW131143   5.371   5.219   7.326
 4667SOL    HW231144   5.359   5.140   7.455
 4668SOL     OW31145   3.093   0.090   7.566
 4668SOL    HW131146   3.080   0.052   7.479
 4668SOL    HW231147   3.005   0.114   7.595
 4669SOL     OW31148   5.081   1.612   2.339
 4669SOL    HW131149   5.033   1.530   2.350
 4669SOL    HW231150   5.042   1.671   2.403
 4670SOL     OW31151   3.174   5.800   6.620
 4670SOL    HW131152   3.252   5.847   6.590
 4670SOL    HW231153   3.129   5.862   6.677
 4671SOL     OW31154   1.637   5.383   7.179
 4671SOL    HW131155   1.607   5.448   7.115
 4671SOL    HW231156   1.640   5.430   7.262
 4672SOL     OW31157   2.837   5.866   6.952
 4672SOL    HW131158   2.761   5.809   6.945
 4672SOL    HW231159   2.801   5.955   6.944
 4673SOL     OW31160   5.421   6.246   0.868
 4673SOL    HW131161   5.510   6.227   0.839
 4673SOL    HW231162   5.427   6.332   0.911
 4674SOL     OW31163   5.465   0.433   6.792
 4674SOL    HW131164   5.488   0.442   6.885
 4674SOL    HW231165   5.515   0.502   6.748
 4675SOL     OW31166   1.329   3.573   5.978
 4675SOL    HW131167   1.424   3.570   5.969
 4675SOL    HW231168   1.296   3.559   5.890
 4676SOL     OW31169   0.083   1.219   1.410
 4676SOL    HW131170   0.017   1.280   1.375
 4676SOL    HW231171   0.053   1.201   1.499
 4677SOL     OW31172   0.390   4.448   7.471
 4677SOL    HW131173   0.422   4.385   7.407
 4677SOL    HW231174   0.402   4.533   7.429
 4678SOL     OW31175   1.514   3.092   7.375
 4678SOL    HW131176   1.447   3.136   7.322
 4678SOL    HW231177   1.568   3.045   7.312
 4679SOL     OW31178   4.949   2.159   7.311
 4679SOL    HW131179   4.957   2.112   7.394
 4679SOL    HW231180   5.016   2.121   7.255
 4680SOL     OW31181   5.658   4.471   1.355
 4680SOL    HW131182   5.660   4.560   1.319
 4680SOL    HW231183   5.676   4.414   1.280
 4681SOL     OW31184   3.247   4.687   0.137
 4681SOL    HW131185   3.279   4.651   0.219
 4681SOL    HW231186   3.322   4.681   0.077
 4682SOL     OW31187   4.520   5.512   7.338
 4682SOL    HW131188   4.557   5.457   7.406
 4682SOL    HW231189   4.533   5.462   7.257
 4683SOL     OW31190   5.672   3.905   6.407
 4683SOL    HW131191   5.609   3.873   6.472
 4683SOL    HW231192   5.628   3.892   6.323
 4684SOL     OW31193   0.425   1.832   6.918
 4684SOL    HW131194   0.381   1.916   6.930
 4684SOL    HW231195   0.379   1.773   6.978
 4685SOL     OW31196   1.331   2.548   2.495
 4685SOL    HW131197   1.384   2.468   2.501
 4685SOL    HW231198   1.369   2.597   2.423
 4686SOL     OW31199   4.951   2.544   7.670
 4686SOL    HW131200   4.894   2.528   7.745
 4686SOL    HW231201   4.997   2.461   7.657
 4687SOL     OW31202   5.333   2.170   1.498
 4687SOL    HW131203   5.327   2.203   1.588
 4687SOL    HW231204   5.292   2.084   1.501
 4688SOL     OW31205   1.955   2.264   6.306
 4688SOL    HW131206   1.997   2.258   6.220
 4688SOL    HW231207   1.953   2.174   6.337
 4689SOL     OW31208   5.591   3.285   6.655
 4689SOL    HW131209   5.658   3.318   6.595
 4689SOL    HW231210   5.638   3.222   6.711
 4690SOL     OW31211   1.404   3.921   7.037
 4690SOL    HW131212   1.453   3.887   7.112
 4690SOL    HW231213   1.312   3.913   7.063
 4691SOL     OW31214   0.827   2.826   0.852
 4691SOL    HW131215   0.824   2.792   0.941
 4691SOL    HW231216   0.891   2.770   0.807
 4692SOL     OW31217   1.995   3.100   0.124
 4692SOL    HW131218   1.985   3.148   0.042
 4692SOL    HW231219   2.025   3.013   0.097
 4693SOL     OW31220   3.175   5.389   1.690
 4693SOL    HW131221   3.231   5.381   1.767
 4693SOL    HW231222   3.125   5.469   1.704
 4694SOL     OW31223   3.573   1.000   0.219
 4694SOL    HW131224   3.663   0.968   0.206
 4694SOL    HW231225   3.541   0.952   0.295
 4695SOL     OW31226   2.203   0.281   7.209
 4695SOL    HW131227   2.199   0.372   7.239
 4695SOL    HW231228   2.188   0.286   7.115
 4696SOL     OW31229   5.994   6.069   2.517
 4696SOL    HW131230   5.971   6.159   2.493
 4696SOL    HW231231   6.036   6.034   2.439
 4697SOL     OW31232   2.702   3.555   7.732
 4697SOL    HW131233   2.724   3.567   7.824
 4697SOL    HW231234   2.614   3.591   7.724
 4698SOL     OW31235   5.410   0.134   0.736
 4698SOL    HW131236   5.375   0.206   0.683
 4698SOL    HW231237   5.373   0.148   0.823
 4699SOL     OW31238   0.522   1.630   1.426
 4699SOL    HW131239   0.521   1.722   1.399
 4699SOL    HW231240   0.448   1.591   1.380
 4700SOL     OW31241   4.371   3.756   0.268
 4700SOL    HW131242   4.304   3.781   0.204
 4700SOL    HW231243   4.430   3.831   0.271
 4701SOL     OW31244   4.487   4.898   1.738
 4701SOL    HW131245   4.546   4.824   1.728
 4701SOL    HW231246   4.423   4.870   1.804
 4702SOL     OW31247   3.942   4.450   1.458
 4702SOL    HW131248   3.899   4.374   1.417
 4702SOL    HW231249   3.887   4.471   1.533
 4703SOL     OW31250   0.046   3.804   5.181
 4703SOL    HW131251   0.040   3.897   5.163
 4703SOL    HW231252  -0.004   3.792   5.262
 4704SOL     OW31253   4.872   3.419   7.391
 4704SOL    HW131254   4.907   3.335   7.361
 4704SOL    HW231255   4.945   3.479   7.380
 4705SOL     OW31256   4.848   4.924   7.194
 4705SOL    HW131257   4.904   4.929   7.116
 4705SOL    HW231258   4.865   4.837   7.230
 4706SOL     OW31259   0.467   1.246   0.072
 4706SOL    HW131260   0.509   1.273  -0.010
 4706SOL    HW231261   0.500   1.157   0.087
 4707SOL     OW31262   1.632   3.641   2.319
 4707SOL    HW131263   1.539   3.627   2.305
 4707SOL    HW231264   1.674   3.567   2.275
 4708SOL     OW31265   3.118   6.197   5.699
 4708SOL    HW131266   3.181   6.262   5.729
 4708SOL    HW231267   3.142   6.117   5.745
 4709SOL     OW31268   0.471   6.020   0.156
 4709SOL    HW131269   0.380   5.996   0.174
 4709SOL    HW231270   0.465   6.095   0.098
 4710SOL     OW31271   2.274   4.717   6.192
 4710SOL    HW131272   2.276   4.798   6.244
 4710SOL    HW231273   2.363   4.683   6.197
 4711SOL     OW31274   4.345   6.317   1.638
 4711SOL    HW131275   4.309   6.232   1.615
 4711SOL    HW231276   4.426   6.324   1.586
 4712SOL     OW31277   4.320   5.400   1.636
 4712SOL    HW131278   4.283   5.334   1.695
 4712SOL    HW231279   4.253   5.412   1.568
 4713SOL     OW31280   4.398   0.301   2.048
 4713SOL    HW131281   4.337   0.232   2.075
 4713SOL    HW231282   4.477   0.285   2.099
 4714SOL     OW31283   3.187   4.240   7.204
 4714SOL    HW131284   3.265   4.295   7.202
 4714SOL    HW231285   3.130   4.277   7.137
 4715SOL     OW31286   5.137   3.116   7.076
 4715SOL    HW131287   5.128   3.078   6.988
 4715SOL    HW231288   5.183   3.050   7.127
 4716SOL     OW31289   3.067   3.174   0.969
 4716SOL    HW131290   3.027   3.257   0.995
 4716SOL    HW231291   3.037   3.111   1.034
 4717SOL     OW31292   4.260   0.166   0.730
 4717SOL    HW131293   4.279   0.107   0.802
 4717SOL    HW231294   4.340   0.217   0.718
 4718SOL     OW31295   5.457   2.460   6.933
 4718SOL    HW131296   5.391   2.430   6.994
 4718SOL    HW231297   5.504   2.380   6.907
 4719SOL     OW31298   5.361   3.833   0.019
 4719SOL    HW131299   5.378   3.926   0.038
 4719SOL    HW231300   5.428   3.786   0.069
 4720SOL     OW31301   3.139   5.981   6.307
 4720SOL    HW131302   3.146   6.042   6.233
 4720SOL    HW231303   3.229   5.967   6.335
 4721SOL     OW31304   2.861   2.279   7.639
 4721SOL    HW131305   2.842   2.373   7.636
 4721SOL    HW231306   2.907   2.262   7.557
 4722SOL     OW31307   1.703   1.566   0.114
 4722SOL    HW131308   1.776   1.504   0.116
 4722SOL    HW231309   1.733   1.636   0.056
 4723SOL     OW31310   1.043   3.656   7.678
 4723SOL    HW131311   0.961   3.629   7.637
 4723SOL    HW231312   1.110   3.638   7.612
 4724SOL     OW31313   2.589   3.826   6.758
 4724SOL    HW131314   2.631   3.761   6.703
 4724SOL    HW231315   2.592   3.907   6.706
 4725SOL     OW31316   5.589   1.117   0.287
 4725SOL    HW131317   5.525   1.046   0.285
 4725SOL    HW231318   5.636   1.109   0.204
 4726SOL     OW31319   1.856   0.251   7.545
 4726SOL    HW131320   1.775   0.262   7.596
 4726SOL    HW231321   1.828   0.208   7.464
 4727SOL     OW31322   4.178   2.603   7.712
 4727SOL    HW131323   4.142   2.550   7.784
 4727SOL    HW231324   4.156   2.554   7.633
 4728SOL     OW31325   1.860   0.520   5.967
 4728SOL    HW131326   1.827   0.609   5.950
 4728SOL    HW231327   1.785   0.463   5.947
 4729SOL     OW31328   2.853   5.512   1.725
 4729SOL    HW131329   2.894   5.451   1.786
 4729SOL    HW231330   2.921   5.575   1.705
 4730SOL     OW31331   0.377   0.720   1.704
 4730SOL    HW131332   0.298   0.760   1.668
 4730SOL    HW231333   0.345   0.642   1.749
 4731SOL     OW31334   0.316   0.436   6.677
 4731SOL    HW131335   0.253   0.474   6.616
 4731SOL    HW231336   0.362   0.510   6.714
 4732SOL     OW31337   5.204   2.912   2.213
 4732SOL    HW131338   5.232   2.995   2.174
 4732SOL    HW231339   5.282   2.879   2.258
 4733SOL     OW31340   0.051   0.921   7.251
 4733SOL    HW131341   0.137   0.880   7.255
 4733SOL    HW231342   0.008   0.878   7.177
 4734SOL     OW31343   2.569   0.442   0.662
 4734SOL    HW131344   2.501   0.509   0.657
 4734SOL    HW231345   2.622   0.456   0.583
 4735SOL     OW31346   5.589   0.392   1.669
 4735SOL    HW131347   5.576   0.487   1.677
 4735SOL    HW231348   5.624   0.380   1.580
 4736SOL     OW31349   2.520   4.468   6.857
 4736SOL    HW131350   2.594   4.462   6.918
 4736SOL    HW231351   2.558   4.451   6.772
 4737SOL     OW31352   0.813   2.577   7.365
 4737SOL    HW131353   0.833   2.539   7.451
 4737SOL    HW231354   0.718   2.575   7.360
 4738SOL     OW31355   3.308   3.737   7.522
 4738SOL    HW131356   3.348   3.823   7.507
 4738SOL    HW231357   3.287   3.704   7.435
 4739SOL     OW31358   4.361   5.645   5.783
 4739SOL    HW131359   4.316   5.707   5.726
 4739SOL    HW231360   4.383   5.697   5.861
 4740SOL     OW31361   2.910   3.648   6.132
 4740SOL    HW131362   2.823   3.648   6.172
 4740SOL    HW231363   2.956   3.576   6.175
 4741SOL     OW31364   4.509   3.318   6.731
 4741SOL    HW131365   4.568   3.264   6.784
 4741SOL    HW231366   4.430   3.265   6.722
 4742SOL     OW31367   1.962   6.245   6.346
 4742SOL    HW131368   2.057   6.238   6.341
 4742SOL    HW231369   1.933   6.251   6.255
 4743SOL     OW31370   1.071   2.854   6.945
 4743SOL    HW131371   1.083   2.944   6.916
 4743SOL    HW231372   1.147   2.836   7.001
 4744SOL     OW31373   2.629   1.594   6.875
 4744SOL    HW131374   2.632   1.609   6.970
 4744SOL    HW231375   2.651   1.678   6.836
 4745SOL     OW31376   6.343   1.717   1.073
 4745SOL    HW131377   6.249   1.713   1.055
 4745SOL    HW231378   6.349   1.772   1.151
 4746SOL     OW31379   0.629   1.638   5.906
 4746SOL    HW131380   0.567   1.653   5.977
 4746SOL    HW231381   0.611   1.708   5.843
 4747SOL     OW31382   1.763   3.322   0.019
 4747SOL    HW131383   1.720   3.328  -0.066
 4747SOL    HW231384   1.855   3.307  -0.002
 4748SOL     OW31385   4.467   6.059   0.031
 4748SOL    HW131386   4.560   6.081   0.026
 4748SOL    HW231387   4.451   6.042   0.124
 4749SOL     OW31388   0.434   3.070   6.680
 4749SOL    HW131389   0.417   3.003   6.613
 4749SOL    HW231390   0.510   3.037   6.727
 4750SOL     OW31391   3.967   1.716   0.434
 4750SOL    HW131392   4.035   1.681   0.492
 4750SOL    HW231393   3.976   1.811   0.440
 4751SOL     OW31394   2.610   5.812   0.756
 4751SOL    HW131395   2.681   5.826   0.819
 4751SOL    HW231396   2.531   5.801   0.810
 4752SOL     OW31397   2.255   3.191   7.387
 4752SOL    HW131398   2.331   3.153   7.342
 4752SOL    HW231399   2.277   3.284   7.394
 4753SOL     OW31400   1.056   5.543   1.509
 4753SOL    HW131401   0.986   5.510   1.453
 4753SOL    HW231402   1.097   5.463   1.543
 4754SOL     OW31403   2.903   1.935   1.224
 4754SOL    HW131404   2.832   1.947   1.160
 4754SOL    HW231405   2.868   1.969   1.306
 4755SOL     OW31406   3.770   0.969   7.381
 4755SOL    HW131407   3.737   0.987   7.468
 4755SOL    HW231408   3.855   1.013   7.378
 4756SOL     OW31409   4.895   4.037   0.575
 4756SOL    HW131410   4.840   4.064   0.502
 4756SOL    HW231411   4.834   4.017   0.646
 4757SOL     OW31412   6.339   0.563   2.529
 4757SOL    HW131413   6.427   0.591   2.502
 4757SOL    HW231414   6.349   0.471   2.552
 4758SOL     OW31415   3.153   6.279   6.439
 4758SOL    HW131416   3.240   6.294   6.402
 4758SOL    HW231417   3.139   6.354   6.497
 4759SOL     OW31418   5.416   4.482   7.401
 4759SOL    HW131419   5.449   4.393   7.391
 4759SOL    HW231420   5.356   4.494   7.328
 4760SOL     OW31421   5.879   2.790   5.691
 4760SOL    HW131422   5.833   2.706   5.686
 4760SOL    HW231423   5.963   2.769   5.731
 4761SOL     OW31424   6.418   3.492   7.697
 4761SOL    HW131425   6.436   3.503   7.604
 4761SOL    HW231426   6.459   3.410   7.720
 4762SOL     OW31427   6.410   1.275   6.366
 4762SOL    HW131428   6.319   1.257   6.388
 4762SOL    HW231429   6.461   1.224   6.430
 4763SOL     OW31430   4.267   1.655   0.877
 4763SOL    HW131431   4.280   1.641   0.783
 4763SOL    HW231432   4.218   1.737   0.882
 4764SOL     OW31433   0.897   5.054   0.170
 4764SOL    HW131434   0.885   5.146   0.148
 4764SOL    HW231435   0.954   5.055   0.247
 4765SOL     OW31436   0.595   4.238   1.978
 4765SOL    HW131437   0.639   4.323   1.977
 4765SOL    HW231438   0.525   4.246   1.913
 4766SOL     OW31439   4.262   0.605   7.582
 4766SOL    HW131440   4.199   0.590   7.652
 4766SOL    HW231441   4.272   0.700   7.577
 4767SOL     OW31442   1.276   4.111   0.785
 4767SOL    HW131443   1.244   4.098   0.696
 4767SOL    HW231444   1.291   4.022   0.819
 4768SOL     OW31445   0.475   1.430   7.090
 4768SOL    HW131446   0.499   1.360   7.151
 4768SOL    HW231447   0.393   1.466   7.125
 4769SOL     OW31448   0.963   5.253   6.987
 4769SOL    HW131449   0.996   5.243   7.076
 4769SOL    HW231450   0.916   5.172   6.969
 4770SOL     OW31451   1.047   1.380   7.225
 4770SOL    HW131452   1.034   1.288   7.247
 4770SOL    HW231453   1.100   1.379   7.146
 4771SOL     OW31454   5.736   3.239   7.632
 4771SOL    HW131455   5.826   3.237   7.599
 4771SOL    HW231456   5.684   3.202   7.561
 4772SOL     OW31457   0.873   3.976   1.033
 4772SOL    HW131458   0.865   3.907   0.967
 4772SOL    HW231459   0.783   4.005   1.048
 4773SOL     OW31460   5.389   2.911   6.913
 4773SOL    HW131461   5.456   2.845   6.929
 4773SOL    HW231462   5.396   2.931   6.820
 4774SOL     OW31463   3.309   4.245   1.291
 4774SOL    HW131464   3.276   4.325   1.331
 4774SOL    HW231465   3.403   4.260   1.281
 4775SOL     OW31466   4.515   0.994   0.367
 4775SOL    HW131467   4.491   0.904   0.342
 4775SOL    HW231468   4.602   0.986   0.405
 4776SOL     OW31469   1.545   1.849   6.629
 4776SOL    HW131470   1.596   1.902   6.567
 4776SOL    HW231471   1.476   1.809   6.575
 4777SOL     OW31472   2.279   3.930   5.756
 4777SOL    HW131473   2.204   3.917   5.815
 4777SOL    HW231474   2.319   3.844   5.749
 4778SOL     OW31475   0.331   0.050   2.113
 4778SOL    HW131476   0.311  -0.025   2.057
 4778SOL    HW231477   0.418   0.078   2.085
 4779SOL     OW31478   0.550   0.971   0.816
 4779SOL    HW131479   0.586   0.915   0.884
 4779SOL    HW231480   0.580   0.932   0.734
 4780SOL     OW31481   4.279   5.504   2.078
 4780SOL    HW131482   4.248   5.589   2.109
 4780SOL    HW231483   4.279   5.448   2.155
 4781SOL     OW31484   2.595   3.344   0.994
 4781SOL    HW131485   2.588   3.251   1.016
 4781SOL    HW231486   2.511   3.381   1.021
 4782SOL     OW31487   1.571   5.810   1.398
 4782SOL    HW131488   1.498   5.837   1.453
 4782SOL    HW231489   1.547   5.723   1.367
 4783SOL     OW31490   1.926   4.983   1.302
 4783SOL    HW131491   1.848   4.932   1.278
 4783SOL    HW231492   1.985   4.972   1.228
 4784SOL     OW31493   2.297   5.450   5.693
 4784SOL    HW131494   2.345   5.453   5.776
 4784SOL    HW231495   2.366   5.441   5.626
 4785SOL     OW31496   5.985   2.554   0.862
 4785SOL    HW131497   6.044   2.624   0.835
 4785SOL    HW231498   6.030   2.474   0.837
 4786SOL     OW31499   4.018   5.191   6.771
 4786SOL    HW131500   3.931   5.228   6.785
 4786SOL    HW231501   4.005   5.096   6.782
 4787SOL     OW31502   6.061   0.211   7.183
 4787SOL    HW131503   6.113   0.179   7.109
 4787SOL    HW231504   6.090   0.301   7.196
 4788SOL     OW31505   5.172   2.213   6.917
 4788SOL    HW131506   5.260   2.179   6.901
 4788SOL    HW231507   5.126   2.141   6.960
 4789SOL     OW31508   5.589   1.161   6.976
 4789SOL    HW131509   5.539   1.088   6.940
 4789SOL    HW231510   5.586   1.148   7.070
 4790SOL     OW31511   5.492   3.926   0.561
 4790SOL    HW131512   5.412   3.920   0.510
 4790SOL    HW231513   5.494   3.846   0.613
 4791SOL     OW31514   5.559   0.667   1.680
 4791SOL    HW131515   5.492   0.700   1.740
 4791SOL    HW231516   5.629   0.732   1.684
 4792SOL     OW31517   5.269   1.671   6.115
 4792SOL    HW131518   5.304   1.742   6.169
 4792SOL    HW231519   5.317   1.678   6.032
 4793SOL     OW31520   3.712   0.072   2.140
 4793SOL    HW131521   3.759   0.038   2.216
 4793SOL    HW231522   3.620   0.050   2.155
 4794SOL     OW31523   1.590   3.747   6.837
 4794SOL    HW131524   1.549   3.825   6.797
 4794SOL    HW231525   1.666   3.782   6.884
 4795SOL     OW31526   4.761   3.708   1.421
 4795SOL    HW131527   4.828   3.640   1.421
 4795SOL    HW231528   4.726   3.707   1.332
 4796SOL     OW31529   0.680   0.497   6.540
 4796SOL    HW131530   0.640   0.581   6.563
 4796SOL    HW231531   0.734   0.475   6.616
 4797SOL     OW31532   1.873   6.391   5.581
 4797SOL    HW131533   1.866   6.455   5.652
 4797SOL    HW231534   1.947   6.335   5.606
 4798SOL     OW31535   0.950   0.711   6.438
 4798SOL    HW131536   0.911   0.665   6.364
 4798SOL    HW231537   1.039   0.675   6.445
 4799SOL     OW31538   3.593   2.036   1.324
 4799SOL    HW131539   3.518   1.978   1.337
 4799SOL    HW231540   3.586   2.100   1.395
 4800SOL     OW31541   5.475   5.891   7.266
 4800SOL    HW131542   5.551   5.944   7.287
 4800SOL    HW231543   5.487   5.811   7.317
 4801SOL     OW31544   0.289   1.388   1.322
 4801SOL    HW131545   0.246   1.471   1.344
 4801SOL    HW231546   0.222   1.322   1.337
 4802SOL     OW31547   4.299   5.895   7.666
 4802SOL    HW131548   4.338   5.812   7.638
 4802SOL    HW231549   4.359   5.929   7.732
 4803SOL     OW31550   1.027   4.563   7.754
 4803SOL    HW131551   0.962   4.633   7.751
 4803SOL    HW231552   1.099   4.600   7.805
 4804SOL     OW31553   3.379   4.446   7.179
 4804SOL    HW131554   3.372   4.456   7.274
 4804SOL    HW231555   3.304   4.495   7.145
 4805SOL     OW31556   3.163   2.678   1.635
 4805SOL    HW131557   3.203   2.700   1.719
 4805SOL    HW231558   3.069   2.674   1.654
 4806SOL     OW31559   2.614   0.462   6.261
 4806SOL    HW131560   2.628   0.427   6.173
 4806SOL    HW231561   2.559   0.396   6.304
 4807SOL     OW31562   0.904   0.125   0.468
 4807SOL    HW131563   0.843   0.182   0.421
 4807SOL    HW231564   0.978   0.181   0.490
 4808SOL     OW31565   1.867   2.443   1.366
 4808SOL    HW131566   1.859   2.488   1.451
 4808SOL    HW231567   1.784   2.396   1.357
 4809SOL     OW31568   1.726   1.689   5.938
 4809SOL    HW131569   1.673   1.611   5.950
 4809SOL    HW231570   1.771   1.700   6.022
 4810SOL     OW31571   1.846   0.820   0.037
 4810SOL    HW131572   1.844   0.888   0.104
 4810SOL    HW231573   1.754   0.808   0.013
 4811SOL     OW31574   2.885   3.416   1.028
 4811SOL    HW131575   2.792   3.394   1.024
 4811SOL    HW231576   2.896   3.458   1.114
 4812SOL     OW31577   0.825   2.863   7.559
 4812SOL    HW131578   0.734   2.843   7.539
 4812SOL    HW231579   0.870   2.854   7.475
 4813SOL     OW31580   4.179   4.713   2.131
 4813SOL    HW131581   4.101   4.719   2.077
 4813SOL    HW231582   4.195   4.619   2.141
 4814SOL     OW31583   1.971   3.319   1.512
 4814SOL    HW131584   1.951   3.384   1.579
 4814SOL    HW231585   2.055   3.282   1.539
 4815SOL     OW31586   5.761   2.829   2.526
 4815SOL    HW131587   5.761   2.889   2.451
 4815SOL    HW231588   5.849   2.792   2.528
 4816SOL     OW31589   2.168   5.265   7.659
 4816SOL    HW131590   2.220   5.232   7.732
 4816SOL    HW231591   2.167   5.194   7.595
 4817SOL     OW31592   2.698   3.648   6.311
 4817SOL    HW131593   2.747   3.677   6.388
 4817SOL    HW231594   2.618   3.610   6.347
 4818SOL     OW31595   1.280   4.826   7.464
 4818SOL    HW131596   1.193   4.807   7.499
 4818SOL    HW231597   1.274   4.801   7.372
 4819SOL     OW31598   3.537   5.103   1.189
 4819SOL    HW131599   3.455   5.127   1.233
 4819SOL    HW231600   3.540   5.160   1.112
 4820SOL     OW31601   2.238   3.592   0.654
 4820SOL    HW131602   2.199   3.663   0.604
 4820SOL    HW231603   2.309   3.634   0.704
 4821SOL     OW31604   1.109   0.539   2.675
 4821SOL    HW131605   1.096   0.633   2.665
 4821SOL    HW231606   1.198   0.524   2.643
 4822SOL     OW31607   6.050   1.679   6.281
 4822SOL    HW131608   6.143   1.690   6.259
 4822SOL    HW231609   6.045   1.592   6.320
 4823SOL     OW31610   1.576   6.247   6.170
 4823SOL    HW131611   1.599   6.317   6.110
 4823SOL    HW231612   1.608   6.167   6.127
 4824SOL     OW31613   4.704   4.885   1.376
 4824SOL    HW131614   4.781   4.923   1.333
 4824SOL    HW231615   4.734   4.800   1.409
 4825SOL     OW31616   2.335   2.869   6.911
 4825SOL    HW131617   2.283   2.933   6.960
 4825SOL    HW231618   2.272   2.802   6.884
 4826SOL     OW31619   1.135   0.906   1.237
 4826SOL    HW131620   1.105   0.963   1.166
 4826SOL    HW231621   1.195   0.960   1.288
 4827SOL     OW31622   2.652   5.486   6.139
 4827SOL    HW131623   2.702   5.446   6.210
 4827SOL    HW231624   2.654   5.580   6.157
 4828SOL     OW31625   0.130   0.269   6.888
 4828SOL    HW131626   0.125   0.306   6.800
 4828SOL    HW231627   0.213   0.222   6.889
 4829SOL     OW31628   3.653   0.694   1.464
 4829SOL    HW131629   3.560   0.716   1.473
 4829SOL    HW231630   3.682   0.743   1.387
 4830SOL     OW31631   0.776   0.367   1.484
 4830SOL    HW131632   0.799   0.439   1.543
 4830SOL    HW231633   0.686   0.386   1.457
 4831SOL     OW31634   0.085   0.646   5.479
 4831SOL    HW131635   0.102   0.615   5.390
 4831SOL    HW231636   0.137   0.588   5.535
 4832SOL     OW31637   1.696   1.427   2.324
 4832SOL    HW131638   1.630   1.495   2.334
 4832SOL    HW231639   1.741   1.423   2.409
 4833SOL     OW31640   2.468   2.803   7.669
 4833SOL    HW131641   2.397   2.823   7.730
 4833SOL    HW231642   2.545   2.793   7.724
 4834SOL     OW31643   3.027   0.936   7.280
 4834SOL    HW131644   2.944   0.961   7.241
 4834SOL    HW231645   3.036   0.842   7.260
 4835SOL     OW31646   1.517   4.194   1.116
 4835SOL    HW131647   1.493   4.247   1.192
 4835SOL    HW231648   1.475   4.110   1.132
 4836SOL     OW31649   2.200   1.728   0.825
 4836SOL    HW131650   2.133   1.671   0.787
 4836SOL    HW231651   2.152   1.788   0.882
 4837SOL     OW31652   1.950   5.764   1.268
 4837SOL    HW131653   1.899   5.765   1.187
 4837SOL    HW231654   1.983   5.674   1.274
 4838SOL     OW31655   4.278   4.999   6.124
 4838SOL    HW131656   4.198   5.023   6.172
 4838SOL    HW231657   4.277   4.904   6.122
 4839SOL     OW31658   5.150   4.162   6.533
 4839SOL    HW131659   5.105   4.118   6.461
 4839SOL    HW231660   5.127   4.109   6.610
 4840SOL     OW31661   4.629   5.103   6.419
 4840SOL    HW131662   4.552   5.144   6.380
 4840SOL    HW231663   4.608   5.097   6.513
 4841SOL     OW31664   3.028   1.460   1.063
 4841SOL    HW131665   3.012   1.368   1.043
 4841SOL    HW231666   3.004   1.469   1.156
 4842SOL     OW31667   6.394   2.614   6.622
 4842SOL    HW131668   6.432   2.547   6.679
 4842SOL    HW231669   6.301   2.592   6.620
 4843SOL     OW31670   3.058   2.734   0.771
 4843SOL    HW131671   2.983   2.712   0.716
 4843SOL    HW231672   3.051   2.675   0.846
 4844SOL     OW31673   5.153   1.322   1.030
 4844SOL    HW131674   5.097   1.396   1.004
 4844SOL    HW231675   5.149   1.321   1.125
 4845SOL     OW31676   5.436   3.997   5.896
 4845SOL    HW131677   5.426   3.931   5.828
 4845SOL    HW231678   5.459   4.077   5.848
 4846SOL     OW31679   6.433   1.156   6.879
 4846SOL    HW131680   6.392   1.240   6.861
 4846SOL    HW231681   6.412   1.102   6.803
 4847SOL     OW31682   4.099   3.272   1.226
 4847SOL    HW131683   4.165   3.204   1.215
 4847SOL    HW231684   4.114   3.332   1.152
 4848SOL     OW31685   0.664   0.169   6.385
 4848SOL    HW131686   0.696   0.169   6.475
 4848SOL    HW231687   0.725   0.113   6.338
 4849SOL     OW31688   4.162   4.288   0.613
 4849SOL    HW131689   4.164   4.384   0.604
 4849SOL    HW231690   4.194   4.256   0.529
 4850SOL     OW31691   1.661   5.754   0.117
 4850SOL    HW131692   1.676   5.691   0.046
 4850SOL    HW231693   1.652   5.838   0.073
 4851SOL     OW31694   4.034   0.490   0.597
 4851SOL    HW131695   3.956   0.542   0.580
 4851SOL    HW231696   4.002   0.414   0.646
 4852SOL     OW31697   5.401   3.834   1.663
 4852SOL    HW131698   5.336   3.904   1.660
 4852SOL    HW231699   5.414   3.810   1.572
 4853SOL     OW31700   0.172   1.173   0.515
 4853SOL    HW131701   0.255   1.169   0.563
 4853SOL    HW231702   0.126   1.248   0.552
 4854SOL     OW31703   1.881   4.142   7.303
 4854SOL    HW131704   1.841   4.229   7.290
 4854SOL    HW231705   1.964   4.161   7.347
 4855SOL     OW31706   1.468   4.293   0.013
 4855SOL    HW131707   1.471   4.388   0.001
 4855SOL    HW231708   1.559   4.265   0.007
 4856SOL     OW31709   5.901   5.719   7.010
 4856SOL    HW131710   5.809   5.698   7.023
 4856SOL    HW231711   5.922   5.780   7.081
 4857SOL     OW31712   3.322   3.704   0.396
 4857SOL    HW131713   3.236   3.698   0.438
 4857SOL    HW231714   3.359   3.617   0.406
 4858SOL     OW31715   0.705   3.732   6.541
 4858SOL    HW131716   0.628   3.786   6.520
 4858SOL    HW231717   0.694   3.710   6.634
 4859SOL     OW31718   5.308   3.660   6.849
 4859SOL    HW131719   5.356   3.612   6.782
 4859SOL    HW231720   5.235   3.603   6.872
 4860SOL     OW31721   2.542   5.471   5.588
 4860SOL    HW131722   2.603   5.436   5.654
 4860SOL    HW231723   2.597   5.511   5.522
 4861SOL     OW31724   3.241   2.756   7.502
 4861SOL    HW131725   3.250   2.851   7.496
 4861SOL    HW231726   3.147   2.741   7.503
 4862SOL     OW31727   0.016   0.325   1.008
 4862SOL    HW131728   0.070   0.280   1.074
 4862SOL    HW231729  -0.073   0.321   1.044
 4863SOL     OW31730   6.371   2.409   1.074
 4863SOL    HW131731   6.441   2.468   1.043
 4863SOL    HW231732   6.378   2.413   1.170
 4864SOL     OW31733   0.611   4.370   1.496
 4864SOL    HW131734   0.555   4.440   1.461
 4864SOL    HW231735   0.560   4.290   1.482
 4865SOL     OW31736   3.471   2.360   6.715
 4865SOL    HW131737   3.467   2.432   6.778
 4865SOL    HW231738   3.435   2.285   6.762
 4866SOL     OW31739   3.441   5.229   6.289
 4866SOL    HW131740   3.419   5.199   6.377
 4866SOL    HW231741   3.390   5.172   6.231
 4867SOL     OW31742   3.647   1.331   0.705
 4867SOL    HW131743   3.563   1.331   0.752
 4867SOL    HW231744   3.669   1.423   0.694
 4868SOL     OW31745   5.762   2.192   1.772
 4868SOL    HW131746   5.839   2.249   1.776
 4868SOL    HW231747   5.750   2.162   1.863
 4869SOL     OW31748   4.451   5.998   0.285
 4869SOL    HW131749   4.359   6.021   0.294
 4869SOL    HW231750   4.469   5.941   0.359
 4870SOL     OW31751   1.396   6.035   0.879
 4870SOL    HW131752   1.423   5.993   0.960
 4870SOL    HW231753   1.364   5.964   0.824
 4871SOL     OW31754   3.302   3.993   6.595
 4871SOL    HW131755   3.346   3.909   6.608
 4871SOL    HW231756   3.374   4.056   6.583
 4872SOL     OW31757   5.218   4.917   6.299
 4872SOL    HW131758   5.182   4.996   6.259
 4872SOL    HW231759   5.167   4.906   6.380
 4873SOL     OW31760   1.597   1.348   0.481
 4873SOL    HW131761   1.528   1.412   0.496
 4873SOL    HW231762   1.554   1.277   0.434
 4874SOL     OW31763   1.429   4.597   7.441
 4874SOL    HW131764   1.371   4.523   7.458
 4874SOL    HW231765   1.375   4.674   7.459
 4875SOL     OW31766   2.574   6.304   0.488
 4875SOL    HW131767   2.522   6.286   0.409
 4875SOL    HW231768   2.581   6.399   0.491
 4876SOL     OW31769   4.336   5.622   0.514
 4876SOL    HW131770   4.406   5.686   0.499
 4876SOL    HW231771   4.259   5.675   0.536
 4877SOL     OW31772   2.789   4.196   0.153
 4877SOL    HW131773   2.836   4.261   0.204
 4877SOL    HW231774   2.723   4.247   0.105
 4878SOL     OW31775   4.056   5.380   1.871
 4878SOL    HW131776   4.076   5.339   1.955
 4878SOL    HW231777   4.085   5.317   1.806
 4879SOL     OW31778   3.359   4.692   1.751
 4879SOL    HW131779   3.409   4.742   1.686
 4879SOL    HW231780   3.374   4.739   1.834
 4880SOL     OW31781   1.602   5.674   0.867
 4880SOL    HW131782   1.548   5.724   0.927
 4880SOL    HW231783   1.539   5.631   0.808
 4881SOL     OW31784   3.423   3.153   7.066
 4881SOL    HW131785   3.414   3.239   7.108
 4881SOL    HW231786   3.333   3.123   7.054
 4882SOL     OW31787   4.099   1.829   2.287
 4882SOL    HW131788   4.011   1.813   2.251
 4882SOL    HW231789   4.155   1.837   2.211
 4883SOL     OW31790   5.314   0.869   1.298
 4883SOL    HW131791   5.325   0.814   1.376
 4883SOL    HW231792   5.389   0.849   1.243
 4884SOL     OW31793   3.373   1.581   6.748
 4884SOL    HW131794   3.359   1.553   6.838
 4884SOL    HW231795   3.456   1.539   6.723
 4885SOL     OW31796   4.507   5.084   7.624
 4885SOL    HW131797   4.582   5.098   7.567
 4885SOL    HW231798   4.463   5.008   7.587
 4886SOL     OW31799   4.286   0.101   1.344
 4886SOL    HW131800   4.197   0.127   1.367
 4886SOL    HW231801   4.309   0.158   1.270
 4887SOL     OW31802   5.334   5.739   5.478
 4887SOL    HW131803   5.392   5.774   5.546
 4887SOL    HW231804   5.269   5.808   5.464
 4888SOL     OW31805   0.892   1.578   1.746
 4888SOL    HW131806   0.961   1.633   1.709
 4888SOL    HW231807   0.845   1.635   1.808
 4889SOL     OW31808   2.901   6.052   5.906
 4889SOL    HW131809   2.876   6.015   5.821
 4889SOL    HW231810   2.997   6.061   5.900
 4890SOL     OW31811   2.714   4.564   6.390
 4890SOL    HW131812   2.702   4.510   6.312
 4890SOL    HW231813   2.809   4.576   6.396
 4891SOL     OW31814   4.798   3.716   0.602
 4891SOL    HW131815   4.746   3.677   0.672
 4891SOL    HW231816   4.756   3.799   0.583
 4892SOL     OW31817   0.397   0.861   2.216
 4892SOL    HW131818   0.392   0.766   2.211
 4892SOL    HW231819   0.369   0.882   2.306
 4893SOL     OW31820   0.793   2.212   6.419
 4893SOL    HW131821   0.755   2.251   6.341
 4893SOL    HW231822   0.876   2.174   6.390
 4894SOL     OW31823   6.381   5.209   1.615
 4894SOL    HW131824   6.386   5.302   1.593
 4894SOL    HW231825   6.463   5.191   1.660
 4895SOL     OW31826   4.867   5.291   6.671
 4895SOL    HW131827   4.788   5.325   6.630
 4895SOL    HW231828   4.838   5.256   6.755
 4896SOL     OW31829   4.966   4.775   2.980
 4896SOL    HW131830   5.054   4.808   2.967
 4896SOL    HW231831   4.946   4.726   2.900
 4897SOL     OW31832   1.957   4.011   0.783
 4897SOL    HW131833   2.052   4.007   0.798
 4897SOL    HW231834   1.931   4.097   0.816
 4898SOL     OW31835   0.909   2.454   6.760
 4898SOL    HW131836   0.841   2.511   6.796
 4898SOL    HW231837   0.908   2.376   6.815
 4899SOL     OW31838   2.371   2.065   0.540
 4899SOL    HW131839   2.350   1.982   0.497
 4899SOL    HW231840   2.317   2.065   0.619
 4900SOL     OW31841   2.264   5.728   0.018
 4900SOL    HW131842   2.215   5.749  -0.062
 4900SOL    HW231843   2.205   5.673   0.069
 4901SOL     OW31844   5.393   4.652   7.060
 4901SOL    HW131845   5.438   4.684   7.139
 4901SOL    HW231846   5.458   4.598   7.016
 4902SOL     OW31847   4.528   1.527   1.753
 4902SOL    HW131848   4.487   1.568   1.829
 4902SOL    HW231849   4.466   1.460   1.725
 4903SOL     OW31850   3.400   5.059   5.564
 4903SOL    HW131851   3.334   4.989   5.555
 4903SOL    HW231852   3.463   5.023   5.627
 4904SOL     OW31853   5.233   5.232   0.919
 4904SOL    HW131854   5.139   5.237   0.900
 4904SOL    HW231855   5.266   5.319   0.896
 4905SOL     OW31856   0.359   6.000   5.520
 4905SOL    HW131857   0.434   5.980   5.576
 4905SOL    HW231858   0.313   5.916   5.510
 4906SOL     OW31859   5.393   2.994   0.995
 4906SOL    HW131860   5.388   2.935   1.070
 4906SOL    HW231861   5.469   2.963   0.946
 4907SOL     OW31862   2.898   2.146   0.305
 4907SOL    HW131863   2.951   2.216   0.267
 4907SOL    HW231864   2.812   2.185   0.317
 4908SOL     OW31865   0.180   0.352   0.256
 4908SOL    HW131866   0.123   0.277   0.271
 4908SOL    HW231867   0.124   0.418   0.215
 4909SOL     OW31868   5.977   4.282   1.454
 4909SOL    HW131869   5.944   4.372   1.457
 4909SOL    HW231870   6.046   4.279   1.520
 4910SOL     OW31871   0.043   4.578   0.648
 4910SOL    HW131872   0.046   4.597   0.742
 4910SOL    HW231873   0.134   4.570   0.622
 4911SOL     OW31874   2.268   0.138   6.134
 4911SOL    HW131875   2.269   0.054   6.088
 4911SOL    HW231876   2.272   0.115   6.226
 4912SOL     OW31877   0.543   2.383   4.989
 4912SOL    HW131878   0.541   2.426   5.075
 4912SOL    HW231879   0.603   2.438   4.937
 4913SOL     OW31880   3.684   0.028   6.359
 4913SOL    HW131881   3.754   0.050   6.298
 4913SOL    HW231882   3.720  -0.042   6.414
 4914SOL     OW31883   0.148   0.867   6.508
 4914SOL    HW131884   0.210   0.888   6.439
 4914SOL    HW231885   0.063   0.890   6.471
 4915SOL     OW31886   6.253   0.520   0.756
 4915SOL    HW131887   6.331   0.473   0.725
 4915SOL    HW231888   6.205   0.455   0.807
 4916SOL     OW31889   3.640   1.339   5.702
 4916SOL    HW131890   3.628   1.247   5.678
 4916SOL    HW231891   3.724   1.340   5.747
 4917SOL     OW31892   4.290   5.736   6.382
 4917SOL    HW131893   4.382   5.758   6.391
 4917SOL    HW231894   4.245   5.821   6.385
 4918SOL     OW31895   5.361   1.928   6.250
 4918SOL    HW131896   5.456   1.930   6.259
 4918SOL    HW231897   5.338   2.016   6.222
 4919SOL     OW31898   2.068   5.678   6.280
 4919SOL    HW131899   2.005   5.736   6.236
 4919SOL    HW231900   2.104   5.624   6.210
 4920SOL     OW31901   0.970   1.895   7.183
 4920SOL    HW131902   0.954   1.811   7.225
 4920SOL    HW231903   1.063   1.913   7.197
 4921SOL     OW31904   5.912   5.787   1.790
 4921SOL    HW131905   5.854   5.713   1.806
 4921SOL    HW231906   5.920   5.829   1.876
 4922SOL     OW31907   2.713   0.685   1.045
 4922SOL    HW131908   2.704   0.607   0.990
 4922SOL    HW231909   2.728   0.650   1.133
 4923SOL     OW31910   0.073   3.406   6.336
 4923SOL    HW131911   0.054   3.486   6.382
 4923SOL    HW231912   0.104   3.346   6.405
 4924SOL     OW31913   0.777   1.024   6.379
 4924SOL    HW131914   0.805   1.108   6.343
 4924SOL    HW231915   0.688   1.011   6.345
 4925SOL     OW31916   6.259   3.733   6.691
 4925SOL    HW131917   6.310   3.692   6.761
 4925SOL    HW231918   6.297   3.699   6.610
 4926SOL     OW31919   2.900   4.974   6.055
 4926SOL    HW131920   2.832   4.923   6.011
 4926SOL    HW231921   2.868   4.984   6.145
 4927SOL     OW31922   4.396   0.243   0.421
 4927SOL    HW131923   4.479   0.280   0.390
 4927SOL    HW231924   4.384   0.280   0.508
 4928SOL     OW31925   0.791   0.014   6.770
 4928SOL    HW131926   0.746  -0.060   6.730
 4928SOL    HW231927   0.803   0.076   6.697
 4929SOL     OW31928   5.039   1.618   1.207
 4929SOL    HW131929   5.032   1.610   1.112
 4929SOL    HW231930   5.090   1.698   1.220
 4930SOL     OW31931   3.693   5.402   0.145
 4930SOL    HW131932   3.618   5.399   0.205
 4930SOL    HW231933   3.753   5.335   0.178
 4931SOL     OW31934   3.240   0.473   0.925
 4931SOL    HW131935   3.327   0.514   0.925
 4931SOL    HW231936   3.182   0.542   0.894
 4932SOL     OW31937   6.142   4.457   6.398
 4932SOL    HW131938   6.147   4.515   6.322
 4932SOL    HW231939   6.056   4.416   6.392
 4933SOL     OW31940   2.561   1.349   1.391
 4933SOL    HW131941   2.512   1.431   1.383
 4933SOL    HW231942   2.591   1.330   1.302
 4934SOL     OW31943   3.215   2.362   1.572
 4934SOL    HW131944   3.273   2.301   1.618
 4934SOL    HW231945   3.212   2.439   1.629
 4935SOL     OW31946   3.283   1.796   0.122
 4935SOL    HW131947   3.244   1.880   0.098
 4935SOL    HW231948   3.367   1.795   0.076
 4936SOL     OW31949   0.616   1.984   6.635
 4936SOL    HW131950   0.585   1.982   6.544
 4936SOL    HW231951   0.707   1.955   6.630
 4937SOL     OW31952   4.306   4.771   7.615
 4937SOL    HW131953   4.394   4.735   7.624
 4937SOL    HW231954   4.310   4.824   7.536
 4938SOL     OW31955   3.534   3.121   0.411
 4938SOL    HW131956   3.501   3.043   0.455
 4938SOL    HW231957   3.566   3.177   0.482
 4939SOL     OW31958   4.672   1.968   6.677
 4939SOL    HW131959   4.680   1.873   6.668
 4939SOL    HW231960   4.579   1.982   6.697
 4940SOL     OW31961   0.003   0.564   7.285
 4940SOL    HW131962   0.027   0.638   7.229
 4940SOL    HW231963   0.006   0.488   7.227
 4941SOL     OW31964   3.091   3.407   7.634
 4941SOL    HW131965   3.139   3.325   7.645
 4941SOL    HW231966   3.089   3.421   7.539
 4942SOL     OW31967   3.649   4.370   7.429
 4942SOL    HW131968   3.683   4.424   7.500
 4942SOL    HW231969   3.555   4.368   7.443
 4943SOL     OW31970   1.790   4.478   7.243
 4943SOL    HW131971   1.803   4.544   7.312
 4943SOL    HW231972   1.701   4.446   7.258
 4944SOL     OW31973   4.645   3.023   5.762
 4944SOL    HW131974   4.729   3.069   5.759
 4944SOL    HW231975   4.658   2.952   5.825
 4945SOL     OW31976   4.437   6.396   0.912
 4945SOL    HW131977   4.521   6.385   0.958
 4945SOL    HW231978   4.450   6.353   0.828
 4946SOL     OW31979   1.627   2.751   6.794
 4946SOL    HW131980   1.558   2.686   6.781
 4946SOL    HW231981   1.618   2.812   6.721
 4947SOL     OW31982   1.453   0.094   0.383
 4947SOL    HW131983   1.516   0.022   0.380
 4947SOL    HW231984   1.492   0.162   0.328
 4948SOL     OW31985   6.358   1.787   7.419
 4948SOL    HW131986   6.288   1.848   7.394
 4948SOL    HW231987   6.439   1.834   7.402
 4949SOL     OW31988   6.331   1.283   2.426
 4949SOL    HW131989   6.402   1.259   2.486
 4949SOL    HW231990   6.254   1.236   2.459
 4950SOL     OW31991   3.733   1.607   5.331
 4950SOL    HW131992   3.770   1.531   5.287
 4950SOL    HW231993   3.661   1.572   5.384
 4951SOL     OW31994   5.091   3.470   1.616
 4951SOL    HW131995   5.160   3.469   1.683
 4951SOL    HW231996   5.037   3.545   1.639
 4952SOL     OW31997   4.138   5.429   1.458
 4952SOL    HW131998   4.078   5.494   1.496
 4952SOL    HW231999   4.082   5.372   1.405
 4953SOL     OW32000   1.506   6.408   1.291
 4953SOL    HW132001   1.543   6.466   1.357
 4953SOL    HW232002   1.440   6.357   1.337
 4954SOL     OW32003   5.364   4.162   0.316
 4954SOL    HW132004   5.426   4.166   0.389
 4954SOL    HW232005   5.298   4.100   0.345
 4955SOL     OW32006   0.179   3.305   0.325
 4955SOL    HW132007   0.123   3.358   0.269
 4955SOL    HW232008   0.119   3.257   0.381
 4956SOL     OW32009   5.753   4.532   6.133
 4956SOL    HW132010   5.810   4.473   6.083
 4956SOL    HW232011   5.744   4.609   6.077
 4957SOL     OW32012   0.453   5.538   7.448
 4957SOL    HW132013   0.548   5.535   7.439
 4957SOL    HW232014   0.420   5.492   7.372
 4958SOL     OW32015   5.772   4.431   7.491
 4958SOL    HW132016   5.838   4.364   7.508
 4958SOL    HW232017   5.741   4.413   7.402
 4959SOL     OW32018   6.029   4.334   7.795
 4959SOL    HW132019   5.936   4.314   7.788
 4959SOL    HW232020   6.044   4.350   7.888
 4960SOL     OW32021   0.961   5.721   7.484
 4960SOL    HW132022   0.981   5.638   7.526
 4960SOL    HW232023   1.041   5.745   7.437
 4961SOL     OW32024   3.526   3.654   1.440
 4961SOL    HW132025   3.586   3.655   1.366
 4961SOL    HW232026   3.581   3.666   1.516
 4962SOL     OW32027   6.098   5.555   7.754
 4962SOL    HW132028   6.153   5.510   7.818
 4962SOL    HW232029   6.136   5.642   7.747
 4963SOL     OW32030   0.697   3.856   0.873
 4963SOL    HW132031   0.715   3.786   0.810
 4963SOL    HW232032   0.671   3.931   0.819
 4964SOL     OW32033   0.133   4.269   7.638
 4964SOL    HW132034   0.169   4.232   7.558
 4964SOL    HW232035   0.161   4.210   7.707
 4965SOL     OW32036   5.561   0.932   2.042
 4965SOL    HW132037   5.632   0.867   2.036
 4965SOL    HW232038   5.549   0.947   2.135
 4966SOL     OW32039   3.138   2.196   2.044
 4966SOL    HW132040   3.161   2.250   1.968
 4966SOL    HW232041   3.216   2.196   2.099
 4967SOL     OW32042   6.333   2.681   1.253
 4967SOL    HW132043   6.365   2.678   1.163
 4967SOL    HW232044   6.406   2.651   1.306
 4968SOL     OW32045   0.675   2.903   6.420
 4968SOL    HW132046   0.761   2.920   6.459
 4968SOL    HW232047   0.647   2.989   6.387
 4969SOL     OW32048   1.249   4.568   1.231
 4969SOL    HW132049   1.295   4.491   1.200
 4969SOL    HW232050   1.241   4.555   1.325
 4970SOL     OW32051   2.006   0.482   7.581
 4970SOL    HW132052   2.096   0.450   7.576
 4970SOL    HW232053   1.952   0.406   7.560
 4971SOL     OW32054   1.184   5.495   7.395
 4971SOL    HW132055   1.140   5.482   7.479
 4971SOL    HW232056   1.144   5.430   7.337
 4972SOL     OW32057   2.090   6.249   0.993
 4972SOL    HW132058   2.066   6.161   1.021
 4972SOL    HW232059   2.163   6.236   0.933
 4973SOL     OW32060   4.932   4.734   6.675
 4973SOL    HW132061   4.983   4.681   6.737
 4973SOL    HW232062   4.866   4.777   6.728
 4974SOL     OW32063   0.181   6.141   1.316
 4974SOL    HW132064   0.236   6.117   1.391
 4974SOL    HW232065   0.241   6.142   1.242
 4975SOL     OW32066   5.557   3.673   7.583
 4975SOL    HW132067   5.626   3.637   7.640
 4975SOL    HW232068   5.601   3.742   7.533
 4976SOL     OW32069   0.311   4.965   0.444
 4976SOL    HW132070   0.268   4.978   0.529
 4976SOL    HW232071   0.250   4.910   0.395
 4977SOL     OW32072   6.180   4.130   6.264
 4977SOL    HW132073   6.224   4.164   6.342
 4977SOL    HW232074   6.175   4.206   6.205
 4978SOL     OW32075   5.354   2.445   0.553
 4978SOL    HW132076   5.392   2.369   0.509
 4978SOL    HW232077   5.265   2.451   0.517
 4979SOL     OW32078   3.860   4.967   1.362
 4979SOL    HW132079   3.920   5.022   1.313
 4979SOL    HW232080   3.917   4.921   1.425
 4980SOL     OW32081   4.910   6.022   0.916
 4980SOL    HW132082   4.930   5.942   0.867
 4980SOL    HW232083   4.815   6.027   0.917
 4981SOL     OW32084   0.952   4.635   7.239
 4981SOL    HW132085   0.989   4.565   7.185
 4981SOL    HW232086   0.899   4.686   7.179
 4982SOL     OW32087   3.313   4.162   6.860
 4982SOL    HW132088   3.371   4.086   6.851
 4982SOL    HW232089   3.230   4.126   6.891
 4983SOL     OW32090   3.910   2.412   0.963
 4983SOL    HW132091   3.985   2.371   0.920
 4983SOL    HW232092   3.948   2.488   1.008
 4984SOL     OW32093   0.860   3.036   6.635
 4984SOL    HW132094   0.955   3.050   6.629
 4984SOL    HW232095   0.823   3.125   6.630
 4985SOL     OW32096   5.797   4.361   7.196
 4985SOL    HW132097   5.845   4.443   7.210
 4985SOL    HW232098   5.854   4.309   7.139
 4986SOL     OW32099   1.646   1.709   1.926
 4986SOL    HW132100   1.614   1.794   1.955
 4986SOL    HW232101   1.737   1.705   1.958
 4987SOL     OW32102   0.089   1.662   6.344
 4987SOL    HW132103   0.052   1.601   6.281
 4987SOL    HW232104   0.099   1.611   6.424
 4988SOL     OW32105   4.805   0.835   6.781
 4988SOL    HW132106   4.782   0.743   6.793
 4988SOL    HW232107   4.865   0.854   6.853
 4989SOL     OW32108   1.684   3.236   6.962
 4989SOL    HW132109   1.614   3.189   6.917
 4989SOL    HW232110   1.752   3.248   6.896
 4990SOL     OW32111   2.607   3.024   0.441
 4990SOL    HW132112   2.520   3.041   0.407
 4990SOL    HW232113   2.634   3.106   0.481
 4991SOL     OW32114   4.839   1.223   1.372
 4991SOL    HW132115   4.837   1.185   1.460
 4991SOL    HW232116   4.837   1.147   1.314
 4992SOL     OW32117   0.302   1.335   6.682
 4992SOL    HW132118   0.249   1.405   6.719
 4992SOL    HW232119   0.367   1.315   6.749
 4993SOL     OW32120   3.704   4.941   6.748
 4993SOL    HW132121   3.709   4.890   6.668
 4993SOL    HW232122   3.674   5.028   6.719
 4994SOL     OW32123   3.137   3.692   1.369
 4994SOL    HW132124   3.182   3.614   1.402
 4994SOL    HW232125   3.060   3.658   1.325
 4995SOL     OW32126   2.826   4.320   7.625
 4995SOL    HW132127   2.893   4.277   7.679
 4995SOL    HW232128   2.848   4.413   7.631
 4996SOL     OW32129   4.728   4.053   0.922
 4996SOL    HW132130   4.650   4.032   0.974
 4996SOL    HW232131   4.768   3.968   0.904
 4997SOL     OW32132   2.859   3.977   2.329
 4997SOL    HW132133   2.819   4.055   2.291
 4997SOL    HW232134   2.948   3.977   2.295
 4998SOL     OW32135   6.224   4.193   0.530
 4998SOL    HW132136   6.136   4.212   0.500
 4998SOL    HW232137   6.267   4.279   0.536
 4999SOL     OW32138   3.172   5.693   0.976
 4999SOL    HW132139   3.222   5.612   0.959
 4999SOL    HW232140   3.093   5.684   0.923
 5000SOL     OW32141   4.193   3.181   7.090
 5000SOL    HW132142   4.212   3.264   7.047
 5000SOL    HW232143   4.228   3.115   7.031
 5001SOL     OW32144   6.332   1.363   7.110
 5001SOL    HW132145   6.335   1.268   7.124
 5001SOL    HW232146   6.367   1.400   7.191
 5002SOL     OW32147   5.933   5.697   6.690
 5002SOL    HW132148   5.926   5.717   6.784
 5002SOL    HW232149   5.953   5.603   6.687
 5003SOL     OW32150   6.223   0.185   1.556
 5003SOL    HW132151   6.221   0.090   1.567
 5003SOL    HW232152   6.253   0.219   1.640
 5004SOL     OW32153   2.825   3.620   0.680
 5004SOL    HW132154   2.751   3.589   0.732
 5004SOL    HW232155   2.785   3.667   0.607
 5005SOL     OW32156   6.356   0.190   0.340
 5005SOL    HW132157   6.428   0.131   0.321
 5005SOL    HW232158   6.287   0.164   0.280
 5006SOL     OW32159   2.407   6.441   1.022
 5006SOL    HW132160   2.448   6.355   1.029
 5006SOL    HW232161   2.368   6.442   0.935
 5007SOL     OW32162   5.438   3.989   0.893
 5007SOL    HW132163   5.450   3.908   0.844
 5007SOL    HW232164   5.526   4.027   0.899
 5008SOL     OW32165   2.181   5.618   7.005
 5008SOL    HW132166   2.248   5.583   7.063
 5008SOL    HW232167   2.131   5.542   6.977
 5009SOL     OW32168   6.240   5.366   6.200
 5009SOL    HW132169   6.239   5.273   6.223
 5009SOL    HW232170   6.161   5.402   6.239
 5010SOL     OW32171   6.171   2.757   0.809
 5010SOL    HW132172   6.264   2.766   0.829
 5010SOL    HW232173   6.151   2.831   0.751
 5011SOL     OW32174   4.483   2.336   1.334
 5011SOL    HW132175   4.435   2.284   1.398
 5011SOL    HW232176   4.563   2.286   1.318
 5012SOL     OW32177   6.338   3.288   5.906
 5012SOL    HW132178   6.340   3.192   5.903
 5012SOL    HW232179   6.364   3.315   5.818
 5013SOL     OW32180   3.394   5.064   1.683
 5013SOL    HW132181   3.459   4.997   1.660
 5013SOL    HW232182   3.445   5.135   1.722
 5014SOL     OW32183   5.990   2.966   2.059
 5014SOL    HW132184   6.002   2.939   1.968
 5014SOL    HW232185   5.922   2.907   2.093
 5015SOL     OW32186   4.779   2.669   1.633
 5015SOL    HW132187   4.755   2.745   1.686
 5015SOL    HW232188   4.873   2.658   1.650
 5016SOL     OW32189   5.925   5.732   1.253
 5016SOL    HW132190   5.923   5.639   1.229
 5016SOL    HW232191   5.862   5.773   1.195
 5017SOL     OW32192   0.594   5.557   6.660
 5017SOL    HW132193   0.578   5.645   6.625
 5017SOL    HW232194   0.663   5.522   6.604
 5018SOL     OW32195   5.424   2.833   2.362
 5018SOL    HW132196   5.506   2.876   2.338
 5018SOL    HW232197   5.427   2.827   2.457
 5019SOL     OW32198   5.994   0.525   6.506
 5019SOL    HW132199   5.960   0.604   6.549
 5019SOL    HW232200   6.029   0.473   6.577
 5020SOL     OW32201   2.403   4.733   6.807
 5020SOL    HW132202   2.445   4.818   6.821
 5020SOL    HW232203   2.471   4.669   6.827
 5021SOL     OW32204   1.232   1.821   7.494
 5021SOL    HW132205   1.315   1.856   7.525
 5021SOL    HW232206   1.201   1.767   7.567
 5022SOL     OW32207   0.861   6.436   0.744
 5022SOL    HW132208   0.918   6.455   0.819
 5022SOL    HW232209   0.911   6.467   0.668
 5023SOL     OW32210   6.255   5.316   0.421
 5023SOL    HW132211   6.193   5.266   0.367
 5023SOL    HW232212   6.338   5.270   0.410
 5024SOL     OW32213   5.808   0.300   7.115
 5024SOL    HW132214   5.839   0.390   7.125
 5024SOL    HW232215   5.888   0.248   7.115
 5025SOL     OW32216   3.215   0.233   6.412
 5025SOL    HW132217   3.301   0.257   6.378
 5025SOL    HW232218   3.158   0.236   6.335
 5026SOL     OW32219   4.929   3.826   6.866
 5026SOL    HW132220   4.839   3.856   6.854
 5026SOL    HW232221   4.979   3.906   6.882
 5027SOL     OW32222   3.400   0.250   7.771
 5027SOL    HW132223   3.326   0.311   7.777
 5027SOL    HW232224   3.359   0.164   7.764
 5028SOL     OW32225   3.503   6.168   0.215
 5028SOL    HW132226   3.410   6.157   0.235
 5028SOL    HW232227   3.505   6.241   0.152
 5029SOL     OW32228   1.098   5.962   6.080
 5029SOL    HW132229   1.181   5.981   6.037
 5029SOL    HW232230   1.084   6.036   6.138
 5030SOL     OW32231   1.469   4.271   0.816
 5030SOL    HW132232   1.387   4.223   0.804
 5030SOL    HW232233   1.508   4.230   0.894
 5031SOL     OW32234   2.995   3.934   7.497
 5031SOL    HW132235   2.938   3.965   7.568
 5031SOL    HW232236   3.047   3.865   7.537
 5032SOL     OW32237   3.950   5.539   1.677
 5032SOL    HW132238   3.991   5.493   1.750
 5032SOL    HW232239   3.864   5.497   1.668
 5033SOL     OW32240   5.656   0.574   7.372
 5033SOL    HW132241   5.611   0.493   7.397
 5033SOL    HW232242   5.711   0.548   7.297
 5034SOL     OW32243   1.041   3.935   0.318
 5034SOL    HW132244   1.022   3.926   0.225
 5034SOL    HW232245   1.084   3.852   0.341
 5035SOL     OW32246   4.622   2.958   7.770
 5035SOL    HW132247   4.711   2.992   7.754
 5035SOL    HW232248   4.571   3.035   7.794
 5036SOL     OW32249   2.746   5.429   7.292
 5036SOL    HW132250   2.741   5.514   7.249
 5036SOL    HW232251   2.657   5.411   7.320
 5037SOL     OW32252   2.003   4.743   0.138
 5037SOL    HW132253   2.029   4.810   0.075
 5037SOL    HW232254   2.055   4.763   0.216
 5038SOL     OW32255   5.661   3.879   7.462
 5038SOL    HW132256   5.617   3.960   7.490
 5038SOL    HW232257   5.746   3.908   7.429
 5039SOL     OW32258   2.239   1.865   7.488
 5039SOL    HW132259   2.307   1.925   7.456
 5039SOL    HW232260   2.272   1.778   7.466
 5040SOL     OW32261   4.730   3.387   0.976
 5040SOL    HW132262   4.675   3.397   1.054
 5040SOL    HW232263   4.760   3.296   0.979
 5041SOL     OW32264   0.574   2.389   0.070
 5041SOL    HW132265   0.579   2.372   0.164
 5041SOL    HW232266   0.614   2.475   0.059
 5042SOL     OW32267   4.094   0.852   7.550
 5042SOL    HW132268   4.050   0.920   7.499
 5042SOL    HW232269   4.032   0.780   7.554
 5043SOL     OW32270   2.446   2.557   7.528
 5043SOL    HW132271   2.407   2.628   7.579
 5043SOL    HW232272   2.443   2.587   7.438
 5044SOL     OW32273   5.255   1.195   7.112
 5044SOL    HW132274   5.295   1.281   7.120
 5044SOL    HW232275   5.314   1.136   7.158
 5045SOL     OW32276   4.799   0.610   0.989
 5045SOL    HW132277   4.774   0.664   1.063
 5045SOL    HW232278   4.882   0.647   0.958
 5046SOL     OW32279   1.957   1.775   7.348
 5046SOL    HW132280   1.982   1.703   7.407
 5046SOL    HW232281   2.029   1.838   7.355
 5047SOL     OW32282   5.771   0.117   7.710
 5047SOL    HW132283   5.739   0.180   7.646
 5047SOL    HW232284   5.704   0.116   7.779
 5048SOL     OW32285   1.288   4.885   0.609
 5048SOL    HW132286   1.290   4.980   0.604
 5048SOL    HW232287   1.282   4.855   0.518
 5049SOL     OW32288   2.926   1.430   6.321
 5049SOL    HW132289   2.903   1.410   6.411
 5049SOL    HW232290   3.004   1.486   6.327
 5050SOL     OW32291   4.732   0.519   6.525
 5050SOL    HW132292   4.772   0.446   6.573
 5050SOL    HW232293   4.690   0.572   6.593
 5051SOL     OW32294   5.919   6.278   1.421
 5051SOL    HW132295   5.959   6.274   1.334
 5051SOL    HW232296   5.844   6.218   1.415
 5052SOL     OW32297   1.159   4.547   6.571
 5052SOL    HW132298   1.083   4.492   6.554
 5052SOL    HW232299   1.228   4.486   6.596
 5053SOL     OW32300   1.945   1.958   6.837
 5053SOL    HW132301   2.036   1.973   6.812
 5053SOL    HW232302   1.949   1.922   6.925
 5054SOL     OW32303   4.714   1.012   0.820
 5054SOL    HW132304   4.689   1.102   0.797
 5054SOL    HW232305   4.809   1.017   0.832
 5055SOL     OW32306   5.398   2.117   6.876
 5055SOL    HW132307   5.416   2.082   6.788
 5055SOL    HW232308   5.408   2.041   6.934
 5056SOL     OW32309   5.492   4.879   0.542
 5056SOL    HW132310   5.396   4.881   0.550
 5056SOL    HW232311   5.522   4.851   0.629
 5057SOL     OW32312   5.055   3.618   6.706
 5057SOL    HW132313   5.025   3.530   6.729
 5057SOL    HW232314   5.006   3.677   6.762
 5058SOL     OW32315   5.163   4.157   5.396
 5058SOL    HW132316   5.258   4.141   5.390
 5058SOL    HW232317   5.140   4.199   5.314
 5059SOL     OW32318   5.469   2.236   5.527
 5059SOL    HW132319   5.397   2.270   5.580
 5059SOL    HW232320   5.428   2.174   5.467
 5060SOL     OW32321   5.913   5.858   5.079
 5060SOL    HW132322   5.869   5.926   5.028
 5060SOL    HW232323   5.970   5.905   5.139
 5061SOL     OW32324   2.553   1.908   5.861
 5061SOL    HW132325   2.591   1.995   5.862
 5061SOL    HW232326   2.603   1.861   5.794
 5062SOL     OW32327   2.811   1.132   7.458
 5062SOL    HW132328   2.837   1.219   7.426
 5062SOL    HW232329   2.805   1.079   7.378
 5063SOL     OW32330   6.063   0.772   7.556
 5063SOL    HW132331   6.060   0.730   7.642
 5063SOL    HW232332   6.082   0.701   7.495
 5064SOL     OW32333   6.139   5.017   1.456
 5064SOL    HW132334   6.126   4.996   1.363
 5064SOL    HW232335   6.214   5.075   1.457
 5065SOL     OW32336   1.139   1.322   0.648
 5065SOL    HW132337   1.219   1.375   0.646
 5065SOL    HW232338   1.168   1.234   0.624
 5066SOL     OW32339   3.997   1.616   1.700
 5066SOL    HW132340   4.079   1.648   1.737
 5066SOL    HW232341   3.931   1.640   1.765
 5067SOL     OW32342   0.330   1.168   2.110
 5067SOL    HW132343   0.251   1.175   2.164
 5067SOL    HW232344   0.367   1.082   2.133
 5068SOL     OW32345   0.355   4.996   6.947
 5068SOL    HW132346   0.442   4.973   6.915
 5068SOL    HW232347   0.363   4.996   7.042
 5069SOL     OW32348   0.972   6.415   0.085
 5069SOL    HW132349   0.957   6.459   0.002
 5069SOL    HW232350   1.040   6.467   0.128
 5070SOL     OW32351   4.616   4.644   1.191
 5070SOL    HW132352   4.637   4.647   1.284
 5070SOL    HW232353   4.558   4.568   1.182
 5071SOL     OW32354   0.997   1.299   5.740
 5071SOL    HW132355   1.006   1.381   5.789
 5071SOL    HW232356   1.087   1.275   5.717
 5072SOL     OW32357   2.060   2.155   6.082
 5072SOL    HW132358   2.010   2.095   6.027
 5072SOL    HW232359   2.140   2.108   6.103
 5073SOL     OW32360   2.414   4.666   1.303
 5073SOL    HW132361   2.387   4.696   1.216
 5073SOL    HW232362   2.504   4.697   1.313
 5074SOL     OW32363   1.649   3.370   7.579
 5074SOL    HW132364   1.586   3.353   7.510
 5074SOL    HW232365   1.734   3.373   7.534
 5075SOL     OW32366   4.953   2.676   0.195
 5075SOL    HW132367   4.947   2.716   0.108
 5075SOL    HW232368   4.955   2.582   0.178
 5076SOL     OW32369   5.055   3.272   0.378
 5076SOL    HW132370   5.047   3.353   0.429
 5076SOL    HW232371   4.992   3.212   0.418
 5077SOL     OW32372   1.986   4.246   0.277
 5077SOL    HW132373   1.940   4.208   0.202
 5077SOL    HW232374   2.017   4.331   0.245
 5078SOL     OW32375   0.110   3.820   1.324
 5078SOL    HW132376   0.065   3.738   1.300
 5078SOL    HW232377   0.184   3.825   1.264
 5079SOL     OW32378   4.529   2.049   7.067
 5079SOL    HW132379   4.611   2.012   7.034
 5079SOL    HW232380   4.536   2.143   7.052
 5080SOL     OW32381   1.411   6.326   1.704
 5080SOL    HW132382   1.464   6.399   1.737
 5080SOL    HW232383   1.433   6.253   1.763
 5081SOL     OW32384   4.295   4.543   0.260
 5081SOL    HW132385   4.374   4.507   0.219
 5081SOL    HW232386   4.280   4.626   0.215
 5082SOL     OW32387   3.140   0.375   7.789
 5082SOL    HW132388   3.143   0.351   7.881
 5082SOL    HW232389   3.051   0.406   7.775
 5083SOL     OW32390   1.514   5.590   6.449
 5083SOL    HW132391   1.606   5.572   6.429
 5083SOL    HW232392   1.472   5.601   6.363
 5084SOL     OW32393   1.153   5.694   6.145
 5084SOL    HW132394   1.103   5.686   6.226
 5084SOL    HW232395   1.130   5.780   6.110
 5085SOL     OW32396   5.768   2.272   0.040
 5085SOL    HW132397   5.754   2.262   0.135
 5085SOL    HW232398   5.846   2.326   0.033
 5086SOL     OW32399   3.124   0.585   6.452
 5086SOL    HW132400   3.151   0.576   6.361
 5086SOL    HW232401   3.032   0.556   6.452
 5087SOL     OW32402   1.935   3.221   0.696
 5087SOL    HW132403   1.908   3.184   0.612
 5087SOL    HW232404   1.971   3.307   0.673
 5088SOL     OW32405   4.574   4.672   7.583
 5088SOL    HW132406   4.596   4.683   7.490
 5088SOL    HW232407   4.590   4.580   7.601
 5089SOL     OW32408   0.151   0.434   7.461
 5089SOL    HW132409   0.091   0.492   7.415
 5089SOL    HW232410   0.116   0.346   7.446
 5090SOL     OW32411   2.362   3.199   0.771
 5090SOL    HW132412   2.382   3.258   0.844
 5090SOL    HW232413   2.306   3.250   0.713
 5091SOL     OW32414   1.629   1.955   0.303
 5091SOL    HW132415   1.607   1.863   0.321
 5091SOL    HW232416   1.546   2.001   0.308
 5092SOL     OW32417   0.552   2.529   5.263
 5092SOL    HW132418   0.579   2.545   5.353
 5092SOL    HW232419   0.568   2.612   5.218
 5093SOL     OW32420   5.393   1.957   7.250
 5093SOL    HW132421   5.443   1.891   7.298
 5093SOL    HW232422   5.415   2.039   7.295
 5094SOL     OW32423   1.564   3.224   5.402
 5094SOL    HW132424   1.636   3.174   5.440
 5094SOL    HW232425   1.596   3.315   5.399
 5095SOL     OW32426   4.794   6.058   0.311
 5095SOL    HW132427   4.830   5.980   0.352
 5095SOL    HW232428   4.706   6.066   0.347
 5096SOL     OW32429   3.243   2.770   1.886
 5096SOL    HW132430   3.226   2.864   1.899
 5096SOL    HW232431   3.286   2.742   1.967
 5097SOL     OW32432   1.948   0.774   0.884
 5097SOL    HW132433   1.869   0.735   0.921
 5097SOL    HW232434   2.017   0.756   0.948
 5098SOL     OW32435   0.236   6.202   7.290
 5098SOL    HW132436   0.326   6.180   7.265
 5098SOL    HW232437   0.238   6.202   7.386
 5099SOL     OW32438   5.595   2.444   6.565
 5099SOL    HW132439   5.687   2.458   6.583
 5099SOL    HW232440   5.550   2.518   6.606
 5100SOL     OW32441   4.007   5.049   6.230
 5100SOL    HW132442   3.920   5.079   6.206
 5100SOL    HW232443   3.995   4.958   6.256
 5101SOL     OW32444   5.449   3.333   6.964
 5101SOL    HW132445   5.475   3.256   7.015
 5101SOL    HW232446   5.384   3.376   7.019
 5102SOL     OW32447   0.774   1.335   6.956
 5102SOL    HW132448   0.857   1.316   6.911
 5102SOL    HW232449   0.777   1.430   6.971
 5103SOL     OW32450   4.365   6.148   7.176
 5103SOL    HW132451   4.300   6.143   7.107
 5103SOL    HW232452   4.436   6.091   7.147
 5104SOL     OW32453   1.614   5.594   7.009
 5104SOL    HW132454   1.676   5.585   6.936
 5104SOL    HW232455   1.660   5.647   7.074
 5105SOL     OW32456   1.922   6.267   1.254
 5105SOL    HW132457   1.999   6.314   1.220
 5105SOL    HW232458   1.939   6.175   1.233
 5106SOL     OW32459   1.888   3.099   6.382
 5106SOL    HW132460   1.935   3.150   6.316
 5106SOL    HW232461   1.897   3.008   6.353
 5107SOL     OW32462   1.755   4.171   0.913
 5107SOL    HW132463   1.776   4.189   1.005
 5107SOL    HW232464   1.727   4.080   0.912
 5108SOL     OW32465   3.982   0.375   0.134
 5108SOL    HW132466   4.032   0.387   0.214
 5108SOL    HW232467   3.984   0.281   0.118
 5109SOL     OW32468   0.099   2.849   5.722
 5109SOL    HW132469   0.192   2.837   5.705
 5109SOL    HW232470   0.055   2.800   5.652
 5110SOL     OW32471   0.624   0.051   2.801
 5110SOL    HW132472   0.596  -0.040   2.798
 5110SOL    HW232473   0.708   0.052   2.756
 5111SOL     OW32474   0.233   5.539   7.594
 5111SOL    HW132475   0.161   5.555   7.533
 5111SOL    HW232476   0.312   5.539   7.539
 5112SOL     OW32477   4.475   5.862   1.576
 5112SOL    HW132478   4.453   5.803   1.503
 5112SOL    HW232479   4.423   5.940   1.561
 5113SOL     OW32480   1.636   2.976   0.477
 5113SOL    HW132481   1.681   3.052   0.514
 5113SOL    HW232482   1.620   3.000   0.386
 5114SOL     OW32483   1.508   0.478   7.016
 5114SOL    HW132484   1.585   0.448   7.064
 5114SOL    HW232485   1.444   0.498   7.084
 5115SOL     OW32486   6.000   3.964   7.701
 5115SOL    HW132487   5.998   4.038   7.641
 5115SOL    HW232488   6.088   3.929   7.693
 5116SOL     OW32489   4.596   4.713   2.104
 5116SOL    HW132490   4.651   4.705   2.183
 5116SOL    HW232491   4.546   4.632   2.102
 5117SOL     OW32492   6.065   4.777   1.585
 5117SOL    HW132493   6.115   4.855   1.559
 5117SOL    HW232494   6.131   4.709   1.596
 5118SOL     OW32495   5.750   3.158   6.848
 5118SOL    HW132496   5.742   3.147   6.942
 5118SOL    HW232497   5.806   3.235   6.837
 5119SOL     OW32498   4.216   0.093   6.399
 5119SOL    HW132499   4.138   0.139   6.368
 5119SOL    HW232500   4.270   0.162   6.437
 5120SOL     OW32501   3.818   4.480   6.467
 5120SOL    HW132502   3.837   4.483   6.561
 5120SOL    HW232503   3.900   4.452   6.426
 5121SOL     OW32504   6.158   5.182   6.448
 5121SOL    HW132505   6.164   5.211   6.539
 5121SOL    HW232506   6.070   5.144   6.441
 5122SOL     OW32507   3.353   2.887   6.392
 5122SOL    HW132508   3.261   2.897   6.414
 5122SOL    HW232509   3.395   2.861   6.474
 5123SOL     OW32510   3.771   1.322   6.518
 5123SOL    HW132511   3.821   1.326   6.436
 5123SOL    HW232512   3.832   1.283   6.581
 5124SOL     OW32513   3.278   2.360   0.865
 5124SOL    HW132514   3.333   2.419   0.916
 5124SOL    HW232515   3.319   2.274   0.875
 5125SOL     OW32516   4.026   1.503   0.253
 5125SOL    HW132517   4.063   1.582   0.294
 5125SOL    HW232518   3.935   1.502   0.281
 5126SOL     OW32519   3.677   0.348   0.851
 5126SOL    HW132520   3.599   0.400   0.871
 5126SOL    HW232521   3.737   0.367   0.923
 5127SOL     OW32522   1.681   2.364   6.398
 5127SOL    HW132523   1.630   2.395   6.323
 5127SOL    HW232524   1.758   2.322   6.359
 5128SOL     OW32525   5.994   0.790   0.749
 5128SOL    HW132526   5.963   0.738   0.675
 5128SOL    HW232527   6.085   0.811   0.728
 5129SOL     OW32528   5.657   1.975   1.249
 5129SOL    HW132529   5.583   2.031   1.273
 5129SOL    HW232530   5.720   2.035   1.208
 5130SOL     OW32531   1.421   1.981   0.661
 5130SOL    HW132532   1.449   1.901   0.618
 5130SOL    HW232533   1.461   1.977   0.748
 5131SOL     OW32534   4.699   1.236   6.532
 5131SOL    HW132535   4.666   1.147   6.545
 5131SOL    HW232536   4.670   1.260   6.444
 5132SOL     OW32537   6.429   3.276   7.093
 5132SOL    HW132538   6.396   3.240   7.010
 5132SOL    HW232539   6.449   3.367   7.073
 5133SOL     OW32540   1.516   4.415   1.293
 5133SOL    HW132541   1.607   4.407   1.320
 5133SOL    HW232542   1.466   4.403   1.374
 5134SOL     OW32543   6.336   4.509   7.289
 5134SOL    HW132544   6.398   4.572   7.324
 5134SOL    HW232545   6.375   4.479   7.207
 5135SOL     OW32546   2.888   2.715   1.057
 5135SOL    HW132547   2.954   2.670   1.109
 5135SOL    HW232548   2.893   2.807   1.084
 5136SOL     OW32549   5.535   0.538   2.484
 5136SOL    HW132550   5.561   0.495   2.566
 5136SOL    HW232551   5.475   0.607   2.512
 5137SOL     OW32552   1.879   6.339   0.851
 5137SOL    HW132553   1.942   6.285   0.899
 5137SOL    HW232554   1.802   6.341   0.908
 5138SOL     OW32555   0.218   2.029   1.772
 5138SOL    HW132556   0.245   1.949   1.728
 5138SOL    HW232557   0.128   2.043   1.745
 5139SOL     OW32558   0.650   3.087   2.003
 5139SOL    HW132559   0.686   3.151   1.941
 5139SOL    HW232560   0.680   3.117   2.089
 5140SOL     OW32561   5.346   1.473   7.107
 5140SOL    HW132562   5.396   1.507   7.033
 5140SOL    HW232563   5.275   1.535   7.119
 5141SOL     OW32564   4.834   3.814   0.889
 5141SOL    HW132565   4.886   3.763   0.952
 5141SOL    HW232566   4.755   3.763   0.876
 5142SOL     OW32567   0.791   4.173   6.992
 5142SOL    HW132568   0.757   4.257   6.960
 5142SOL    HW232569   0.885   4.177   6.974
 5143SOL     OW32570   3.519   5.703   0.391
 5143SOL    HW132571   3.561   5.789   0.396
 5143SOL    HW232572   3.503   5.678   0.482
 5144SOL     OW32573   6.081   1.290   0.868
 5144SOL    HW132574   5.998   1.242   0.879
 5144SOL    HW232575   6.063   1.354   0.800
 5145SOL     OW32576   0.647   1.204   0.623
 5145SOL    HW132577   0.686   1.122   0.593
 5145SOL    HW232578   0.722   1.260   0.643
 5146SOL     OW32579   0.373   6.399   0.791
 5146SOL    HW132580   0.454   6.349   0.797
 5146SOL    HW232581   0.317   6.363   0.859
 5147SOL     OW32582   5.441   0.768   6.130
 5147SOL    HW132583   5.460   0.858   6.104
 5147SOL    HW232584   5.361   0.746   6.083
 5148SOL     OW32585   2.452   4.955   7.445
 5148SOL    HW132586   2.406   4.934   7.364
 5148SOL    HW232587   2.402   4.909   7.513
 5149SOL     OW32588   2.705   0.328   1.328
 5149SOL    HW132589   2.745   0.242   1.315
 5149SOL    HW232590   2.714   0.344   1.422
 5150SOL     OW32591   2.054   6.408   7.324
 5150SOL    HW132592   2.072   6.335   7.383
 5150SOL    HW232593   2.067   6.372   7.237
 5151SOL     OW32594   5.488   3.090   7.107
 5151SOL    HW132595   5.431   3.034   7.054
 5151SOL    HW232596   5.560   3.033   7.133
 5152SOL     OW32597   2.776   2.943   1.208
 5152SOL    HW132598   2.844   3.010   1.205
 5152SOL    HW232599   2.811   2.876   1.267
 5153SOL     OW32600   0.662   6.144   0.417
 5153SOL    HW132601   0.635   6.105   0.334
 5153SOL    HW232602   0.726   6.211   0.393
 5154SOL     OW32603   3.125   1.430   7.612
 5154SOL    HW132604   3.180   1.373   7.665
 5154SOL    HW232605   3.156   1.519   7.632
 5155SOL     OW32606   5.419   5.479   5.389
 5155SOL    HW132607   5.482   5.484   5.461
 5155SOL    HW232608   5.364   5.557   5.400
 5156SOL     OW32609   1.535   6.044   7.254
 5156SOL    HW132610   1.630   6.047   7.258
 5156SOL    HW232611   1.506   6.093   7.332
 5157SOL     OW32612   4.025   0.784   2.329
 5157SOL    HW132613   3.968   0.861   2.325
 5157SOL    HW232614   3.988   0.723   2.266
 5158SOL     OW32615   5.191   0.324   1.198
 5158SOL    HW132616   5.160   0.370   1.120
 5158SOL    HW232617   5.226   0.394   1.254
 5159SOL     OW32618   1.183   5.034   5.544
 5159SOL    HW132619   1.245   5.094   5.504
 5159SOL    HW232620   1.146   4.985   5.471
 5160SOL     OW32621   2.133   5.026   7.074
 5160SOL    HW132622   2.041   5.003   7.057
 5160SOL    HW232623   2.171   5.032   6.987
 5161SOL     OW32624   4.004   6.321   6.378
 5161SOL    HW132625   4.080   6.376   6.358
 5161SOL    HW232626   4.039   6.252   6.434
 5162SOL     OW32627   2.498   5.261   0.876
 5162SOL    HW132628   2.470   5.350   0.900
 5162SOL    HW232629   2.485   5.209   0.955
 5163SOL     OW32630   1.655   6.340   5.915
 5163SOL    HW132631   1.686   6.430   5.912
 5163SOL    HW232632   1.722   6.290   5.868
 5164SOL     OW32633   3.378   1.985   7.138
 5164SOL    HW132634   3.380   1.890   7.139
 5164SOL    HW232635   3.285   2.007   7.129
 5165SOL     OW32636   3.845   1.090   5.596
 5165SOL    HW132637   3.852   0.997   5.617
 5165SOL    HW232638   3.753   1.110   5.613
 5166SOL     OW32639   0.179   1.380   0.719
 5166SOL    HW132640   0.254   1.326   0.743
 5166SOL    HW232641   0.156   1.426   0.800
 5167SOL     OW32642   1.477   6.405   6.780
 5167SOL    HW132643   1.478   6.332   6.718
 5167SOL    HW232644   1.567   6.436   6.783
 5168SOL     OW32645   1.196   4.965   6.483
 5168SOL    HW132646   1.279   4.969   6.530
 5168SOL    HW232647   1.209   5.025   6.409
 5169SOL     OW32648   0.617   1.760   0.041
 5169SOL    HW132649   0.574   1.801   0.116
 5169SOL    HW232650   0.547   1.746  -0.022
 5170SOL     OW32651   3.380   5.456   1.195
 5170SOL    HW132652   3.317   5.446   1.267
 5170SOL    HW232653   3.377   5.549   1.173
 5171SOL     OW32654   3.335   1.348   7.233
 5171SOL    HW132655   3.335   1.322   7.325
 5171SOL    HW232656   3.311   1.268   7.186
 5172SOL     OW32657   3.728   2.706   0.104
 5172SOL    HW132658   3.804   2.730   0.051
 5172SOL    HW232659   3.675   2.786   0.107
 5173SOL     OW32660   4.266   4.596   0.531
 5173SOL    HW132661   4.269   4.561   0.442
 5173SOL    HW232662   4.346   4.647   0.539
 5174SOL     OW32663   1.038   5.179   0.943
 5174SOL    HW132664   1.063   5.188   0.851
 5174SOL    HW232665   0.953   5.135   0.941
 5175SOL     OW32666   5.576   1.865   0.631
 5175SOL    HW132667   5.636   1.875   0.704
 5175SOL    HW232668   5.570   1.952   0.592
 5176SOL     OW32669   4.427   1.273   0.912
 5176SOL    HW132670   4.481   1.271   0.833
 5176SOL    HW232671   4.485   1.240   0.981
 5177SOL     OW32672   1.438   1.990   6.830
 5177SOL    HW132673   1.470   1.932   6.761
 5177SOL    HW232674   1.503   1.984   6.900
 5178SOL     OW32675   0.807   5.671   6.033
 5178SOL    HW132676   0.830   5.667   5.940
 5178SOL    HW232677   0.828   5.760   6.060
 5179SOL     OW32678   3.600   3.388   1.961
 5179SOL    HW132679   3.649   3.331   1.902
 5179SOL    HW232680   3.664   3.417   2.025
 5180SOL     OW32681   3.581   3.269   0.625
 5180SOL    HW132682   3.583   3.233   0.714
 5180SOL    HW232683   3.606   3.361   0.637
 5181SOL     OW32684   6.418   2.224   6.521
 5181SOL    HW132685   6.481   2.283   6.561
 5181SOL    HW232686   6.468   2.178   6.452
 5182SOL     OW32687   0.603   3.624   1.454
 5182SOL    HW132688   0.616   3.614   1.548
 5182SOL    HW232689   0.652   3.703   1.431
 5183SOL     OW32690   3.243   0.194   7.371
 5183SOL    HW132691   3.199   0.185   7.456
 5183SOL    HW232692   3.336   0.197   7.393
 5184SOL     OW32693   0.237   5.528   6.337
 5184SOL    HW132694   0.265   5.437   6.324
 5184SOL    HW232695   0.178   5.546   6.263
 5185SOL     OW32696   4.213   1.990   6.650
 5185SOL    HW132697   4.232   2.013   6.559
 5185SOL    HW232698   4.194   1.896   6.647
 5186SOL     OW32699   4.038   0.222   1.665
 5186SOL    HW132700   3.997   0.139   1.690
 5186SOL    HW232701   3.965   0.277   1.636
 5187SOL     OW32702   5.663   1.042   0.015
 5187SOL    HW132703   5.739   1.046  -0.043
 5187SOL    HW232704   5.655   0.949   0.038
 5188SOL     OW32705   2.229   6.278   6.306
 5188SOL    HW132706   2.297   6.237   6.253
 5188SOL    HW232707   2.268   6.361   6.334
 5189SOL     OW32708   1.097   6.350   5.798
 5189SOL    HW132709   1.135   6.400   5.725
 5189SOL    HW232710   1.172   6.332   5.855
 5190SOL     OW32711   3.486   2.473   2.249
 5190SOL    HW132712   3.538   2.399   2.217
 5190SOL    HW232713   3.549   2.527   2.297
 5191SOL     OW32714   2.221   6.371   7.551
 5191SOL    HW132715   2.143   6.424   7.552
 5191SOL    HW232716   2.218   6.320   7.631
 5192SOL     OW32717   1.810   0.202   1.244
 5192SOL    HW132718   1.881   0.170   1.187
 5192SOL    HW232719   1.798   0.132   1.308
 5193SOL     OW32720   0.743   2.978   0.415
 5193SOL    HW132721   0.713   2.904   0.363
 5193SOL    HW232722   0.806   3.023   0.359
 5194SOL     OW32723   2.510   1.462   5.660
 5194SOL    HW132724   2.507   1.482   5.567
 5194SOL    HW232725   2.434   1.507   5.696
 5195SOL     OW32726   6.012   4.821   1.291
 5195SOL    HW132727   6.003   4.786   1.380
 5195SOL    HW232728   6.022   4.743   1.236
 5196SOL     OW32729   2.805   0.629   6.001
 5196SOL    HW132730   2.729   0.571   6.014
 5196SOL    HW232731   2.880   0.578   6.031
 5197SOL     OW32732   6.269   5.331   5.717
 5197SOL    HW132733   6.324   5.297   5.646
 5197SOL    HW232734   6.313   5.301   5.797
 5198SOL     OW32735   0.868   6.320   0.348
 5198SOL    HW132736   0.899   6.351   0.262
 5198SOL    HW232737   0.889   6.392   0.408
 5199SOL     OW32738   6.375   3.810   1.094
 5199SOL    HW132739   6.321   3.809   1.016
 5199SOL    HW232740   6.373   3.720   1.126
 5200SOL     OW32741   0.510   3.930   0.353
 5200SOL    HW132742   0.477   4.006   0.304
 5200SOL    HW232743   0.605   3.937   0.349
 5201SOL     OW32744   6.032   0.901   6.215
 5201SOL    HW132745   5.947   0.898   6.171
 5201SOL    HW232746   6.047   0.811   6.244
 5202SOL     OW32747   0.234   5.786   6.418
 5202SOL    HW132748   0.267   5.705   6.381
 5202SOL    HW232749   0.144   5.767   6.442
 5203SOL     OW32750   0.265   1.770   5.267
 5203SOL    HW132751   0.184   1.816   5.242
 5203SOL    HW232752   0.266   1.774   5.363
 5204SOL     OW32753   4.556   2.499   7.156
 5204SOL    HW132754   4.611   2.476   7.231
 5204SOL    HW232755   4.612   2.487   7.080
 5205SOL     OW32756   5.511   0.216   7.092
 5205SOL    HW132757   5.577   0.214   7.022
 5205SOL    HW232758   5.560   0.199   7.172
 5206SOL     OW32759   4.934   1.208   0.677
 5206SOL    HW132760   4.917   1.278   0.741
 5206SOL    HW232761   4.895   1.240   0.596
 5207SOL     OW32762   4.256   4.910   0.354
 5207SOL    HW132763   4.302   4.883   0.433
 5207SOL    HW232764   4.261   5.006   0.354
 5208SOL     OW32765   1.401   1.692   6.431
 5208SOL    HW132766   1.372   1.618   6.484
 5208SOL    HW232767   1.492   1.672   6.409
 5209SOL     OW32768   0.847   3.152   7.029
 5209SOL    HW132769   0.752   3.163   7.018
 5209SOL    HW232770   0.882   3.162   6.941
 5210SOL     OW32771   5.924   3.479   6.270
 5210SOL    HW132772   5.937   3.499   6.178
 5210SOL    HW232773   6.012   3.480   6.307
 5211SOL     OW32774   5.859   1.405   6.835
 5211SOL    HW132775   5.944   1.396   6.880
 5211SOL    HW232776   5.817   1.480   6.877
 5212SOL     OW32777   3.837   4.409   7.619
 5212SOL    HW132778   3.905   4.384   7.681
 5212SOL    HW232779   3.782   4.331   7.611
 5213SOL     OW32780   0.434   0.538   7.548
 5213SOL    HW132781   0.522   0.518   7.518
 5213SOL    HW232782   0.377   0.482   7.495
 5214SOL     OW32783   1.556   3.572   5.772
 5214SOL    HW132784   1.614   3.647   5.788
 5214SOL    HW232785   1.531   3.581   5.680
 5215SOL     OW32786   1.198   3.605   7.472
 5215SOL    HW132787   1.116   3.576   7.431
 5215SOL    HW232788   1.243   3.653   7.403
 5216SOL     OW32789   2.579   1.402   7.585
 5216SOL    HW132790   2.567   1.334   7.652
 5216SOL    HW232791   2.672   1.426   7.592
 5217SOL     OW32792   5.066   2.149   1.097
 5217SOL    HW132793   5.090   2.239   1.072
 5217SOL    HW232794   5.041   2.156   1.189
 5218SOL     OW32795   5.794   5.496   1.460
 5218SOL    HW132796   5.848   5.419   1.476
 5218SOL    HW232797   5.738   5.472   1.386
 5219SOL     OW32798   6.102   0.763   1.418
 5219SOL    HW132799   6.014   0.732   1.436
 5219SOL    HW232800   6.109   0.844   1.468
 5220SOL     OW32801   6.036   1.792   1.101
 5220SOL    HW132802   5.968   1.856   1.121
 5220SOL    HW232803   6.001   1.708   1.132
 5221SOL     OW32804   2.740   0.692   6.614
 5221SOL    HW132805   2.677   0.700   6.686
 5221SOL    HW232806   2.823   0.670   6.657
 5222SOL     OW32807   0.223   6.443   6.763
 5222SOL    HW132808   0.288   6.376   6.786
 5222SOL    HW232809   0.245   6.469   6.674
 5223SOL     OW32810   5.497   1.537   1.808
 5223SOL    HW132811   5.583   1.495   1.815
 5223SOL    HW232812   5.492   1.593   1.885
 5224SOL     OW32813   3.525   0.860   6.975
 5224SOL    HW132814   3.595   0.921   7.000
 5224SOL    HW232815   3.482   0.838   7.057
 5225SOL     OW32816   5.066   1.189   6.696
 5225SOL    HW132817   5.053   1.095   6.683
 5225SOL    HW232818   5.022   1.208   6.778
 5226SOL     OW32819   2.071   2.630   6.144
 5226SOL    HW132820   2.120   2.560   6.187
 5226SOL    HW232821   2.138   2.686   6.105
 5227SOL     OW32822   5.788   5.061   6.174
 5227SOL    HW132823   5.852   5.089   6.108
 5227SOL    HW232824   5.792   5.129   6.241
 5228SOL     OW32825   2.716   2.010   0.934
 5228SOL    HW132826   2.654   2.053   0.875
 5228SOL    HW232827   2.784   2.076   0.950
 5229SOL     OW32828   4.249   3.722   1.652
 5229SOL    HW132829   4.167   3.759   1.620
 5229SOL    HW232830   4.222   3.650   1.709
 5230SOL     OW32831   1.061   4.884   5.346
 5230SOL    HW132832   0.981   4.832   5.340
 5230SOL    HW232833   1.132   4.821   5.328
 5231SOL     OW32834   6.077   0.723   7.131
 5231SOL    HW132835   6.083   0.761   7.043
 5231SOL    HW232836   6.106   0.793   7.190
 5232SOL     OW32837   0.810   0.709   7.151
 5232SOL    HW132838   0.897   0.695   7.189
 5232SOL    HW232839   0.761   0.630   7.172
 5233SOL     OW32840   0.909   3.536   5.586
 5233SOL    HW132841   0.985   3.594   5.589
 5233SOL    HW232842   0.842   3.585   5.538
 5234SOL     OW32843   3.376   1.197   1.627
 5234SOL    HW132844   3.415   1.140   1.561
 5234SOL    HW232845   3.321   1.139   1.679
 5235SOL     OW32846   1.170   2.363   2.360
 5235SOL    HW132847   1.234   2.408   2.416
 5235SOL    HW232848   1.217   2.287   2.325
 5236SOL     OW32849   2.286   1.474   0.470
 5236SOL    HW132850   2.193   1.497   0.462
 5236SOL    HW232851   2.311   1.449   0.381
 5237SOL     OW32852   5.636   1.774   7.755
 5237SOL    HW132853   5.616   1.762   7.847
 5237SOL    HW232854   5.614   1.865   7.736
 5238SOL     OW32855   6.155   3.012   1.039
 5238SOL    HW132856   6.198   2.996   1.123
 5238SOL    HW232857   6.222   3.054   0.985
 5239SOL     OW32858   5.149   1.151   2.519
 5239SOL    HW132859   5.243   1.133   2.515
 5239SOL    HW232860   5.108   1.065   2.522
 5240SOL     OW32861   2.988   4.148   7.754
 5240SOL    HW132862   2.912   4.138   7.811
 5240SOL    HW232863   3.053   4.088   7.790
 5241SOL     OW32864   6.367   5.453   2.304
 5241SOL    HW132865   6.341   5.466   2.395
 5241SOL    HW232866   6.458   5.425   2.309
 5242SOL     OW32867   2.835   2.129   7.036
 5242SOL    HW132868   2.860   2.191   6.968
 5242SOL    HW232869   2.751   2.094   7.007
 5243SOL     OW32870   2.654   2.636   1.134
 5243SOL    HW132871   2.640   2.558   1.080
 5243SOL    HW232872   2.733   2.676   1.098
 5244SOL     OW32873   2.806   6.231   1.642
 5244SOL    HW132874   2.840   6.270   1.561
 5244SOL    HW232875   2.743   6.165   1.612
 5245SOL     OW32876   3.478   3.679   7.049
 5245SOL    HW132877   3.408   3.686   7.114
 5245SOL    HW232878   3.553   3.724   7.089
 5246SOL     OW32879   4.476   2.368   1.658
 5246SOL    HW132880   4.553   2.385   1.604
 5246SOL    HW232881   4.506   2.383   1.748
 5247SOL     OW32882   3.785   4.482   0.222
 5247SOL    HW132883   3.722   4.471   0.151
 5247SOL    HW232884   3.803   4.393   0.252
 5248SOL     OW32885   3.919   2.066   6.741
 5248SOL    HW132886   4.005   2.039   6.708
 5248SOL    HW232887   3.863   1.990   6.725
 5249SOL     OW32888   3.286   1.287   1.071
 5249SOL    HW132889   3.360   1.231   1.050
 5249SOL    HW232890   3.276   1.343   0.994
 5250SOL     OW32891   4.228   0.888   2.488
 5250SOL    HW132892   4.153   0.862   2.435
 5250SOL    HW232893   4.222   0.984   2.493
 5251SOL     OW32894   4.697   3.932   1.553
 5251SOL    HW132895   4.737   3.869   1.493
 5251SOL    HW232896   4.643   3.879   1.611
 5252SOL     OW32897   4.260   3.331   6.447
 5252SOL    HW132898   4.336   3.386   6.432
 5252SOL    HW232899   4.205   3.382   6.507
 5253SOL     OW32900   0.588   1.429   6.290
 5253SOL    HW132901   0.617   1.406   6.378
 5253SOL    HW232902   0.492   1.426   6.295
 5254SOL     OW32903   5.851   0.291   0.264
 5254SOL    HW132904   5.768   0.252   0.239
 5254SOL    HW232905   5.880   0.241   0.341
 5255SOL     OW32906   3.402   2.155   0.154
 5255SOL    HW132907   3.376   2.245   0.139
 5255SOL    HW232908   3.345   2.103   0.098
 5256SOL     OW32909   2.594   4.172   7.697
 5256SOL    HW132910   2.627   4.117   7.768
 5256SOL    HW232911   2.668   4.228   7.673
 5257SOL     OW32912   3.222   1.692   7.546
 5257SOL    HW132913   3.214   1.787   7.545
 5257SOL    HW232914   3.187   1.663   7.462
 5258SOL     OW32915   3.385   1.204   7.453
 5258SOL    HW132916   3.318   1.139   7.429
 5258SOL    HW232917   3.412   1.178   7.541
 5259SOL     OW32918   5.564   6.108   6.850
 5259SOL    HW132919   5.598   6.146   6.769
 5259SOL    HW232920   5.639   6.104   6.909
 5260SOL     OW32921   3.491   3.262   6.506
 5260SOL    HW132922   3.477   3.286   6.598
 5260SOL    HW232923   3.413   3.214   6.481
 5261SOL     OW32924   0.379   1.700   0.771
 5261SOL    HW132925   0.420   1.617   0.795
 5261SOL    HW232926   0.407   1.761   0.838
 5262SOL     OW32927   2.316   3.498   0.287
 5262SOL    HW132928   2.392   3.476   0.233
 5262SOL    HW232929   2.245   3.446   0.251
 5263SOL     OW32930   3.972   4.911   6.808
 5263SOL    HW132931   3.976   4.890   6.902
 5263SOL    HW232932   3.878   4.907   6.788
 5264SOL     OW32933   0.504   3.826   5.753
 5264SOL    HW132934   0.473   3.787   5.671
 5264SOL    HW232935   0.454   3.907   5.761
 5265SOL     OW32936   1.324   0.295   5.491
 5265SOL    HW132937   1.362   0.292   5.404
 5265SOL    HW232938   1.357   0.377   5.529
 5266SOL     OW32939   1.436   2.650   6.304
 5266SOL    HW132940   1.444   2.641   6.209
 5266SOL    HW232941   1.398   2.567   6.333
 5267SOL     OW32942   4.586   4.005   1.961
 5267SOL    HW132943   4.592   4.041   1.872
 5267SOL    HW232944   4.572   4.082   2.016
 5268SOL     OW32945   3.275   4.728   6.840
 5268SOL    HW132946   3.266   4.812   6.796
 5268SOL    HW232947   3.349   4.685   6.797
 5269SOL     OW32948   6.217   5.028   7.788
 5269SOL    HW132949   6.270   4.989   7.858
 5269SOL    HW232950   6.188   4.954   7.735
 5270SOL     OW32951   2.197   1.894   6.223
 5270SOL    HW132952   2.235   1.807   6.235
 5270SOL    HW232953   2.251   1.935   6.156
 5271SOL     OW32954   1.176   3.193   6.638
 5271SOL    HW132955   1.225   3.173   6.559
 5271SOL    HW232956   1.149   3.284   6.627
 5272SOL     OW32957   3.099   2.552   0.962
 5272SOL    HW132958   3.093   2.527   1.054
 5272SOL    HW232959   3.147   2.480   0.921
 5273SOL     OW32960   3.351   0.116   1.437
 5273SOL    HW132961   3.344   0.162   1.521
 5273SOL    HW232962   3.261   0.112   1.404
 5274SOL     OW32963   0.590   0.379   7.787
 5274SOL    HW132964   0.608   0.448   7.723
 5274SOL    HW232965   0.537   0.423   7.855
 5275SOL     OW32966   4.151   2.269   6.743
 5275SOL    HW132967   4.179   2.186   6.704
 5275SOL    HW232968   4.157   2.253   6.838
 5276SOL     OW32969   6.206   6.087   5.913
 5276SOL    HW132970   6.248   6.171   5.928
 5276SOL    HW232971   6.241   6.030   5.982
 5277SOL     OW32972   3.174   1.289   6.117
 5277SOL    HW132973   3.167   1.313   6.025
 5277SOL    HW232974   3.123   1.355   6.163
 5278SOL     OW32975   1.780   0.668   5.615
 5278SOL    HW132976   1.863   0.713   5.626
 5278SOL    HW232977   1.759   0.679   5.522
 5279SOL     OW32978   4.055   0.585   0.978
 5279SOL    HW132979   4.082   0.677   0.971
 5279SOL    HW232980   4.137   0.538   0.990
 5280SOL     OW32981   4.448   1.337   6.415
 5280SOL    HW132982   4.513   1.358   6.348
 5280SOL    HW232983   4.418   1.422   6.447
 5281SOL     OW32984   4.119   3.468   1.021
 5281SOL    HW132985   4.077   3.468   0.935
 5281SOL    HW232986   4.208   3.437   1.004
 5282SOL     OW32987   5.017   3.085   6.737
 5282SOL    HW132988   5.108   3.112   6.753
 5282SOL    HW232989   5.024   3.002   6.691
 5283SOL     OW32990   2.600   2.188   7.640
 5283SOL    HW132991   2.693   2.211   7.647
 5283SOL    HW232992   2.566   2.246   7.572
 5284SOL     OW32993   2.476   4.340   1.182
 5284SOL    HW132994   2.446   4.252   1.158
 5284SOL    HW232995   2.398   4.384   1.216
 5285SOL     OW32996   3.397   1.001   1.416
 5285SOL    HW132997   3.320   1.041   1.375
 5285SOL    HW232998   3.364   0.918   1.452
 5286SOL     OW32999   0.679   5.482   6.197
 5286SOL    HW133000   0.703   5.549   6.133
 5286SOL    HW233001   0.653   5.406   6.144
 5287SOL     OW33002   0.147   1.797   0.708
 5287SOL    HW133003   0.226   1.746   0.728
 5287SOL    HW233004   0.120   1.765   0.621
 5288SOL     OW33005   0.888   5.394   5.972
 5288SOL    HW133006   0.958   5.424   5.914
 5288SOL    HW233007   0.870   5.470   6.028
 5289SOL     OW33008   6.380   5.458   7.510
 5289SOL    HW133009   6.364   5.548   7.537
 5289SOL    HW233010   6.352   5.405   7.585
 5290SOL     OW33011   2.275   4.977   1.213
 5290SOL    HW133012   2.229   5.038   1.155
 5290SOL    HW233013   2.277   5.021   1.298
 5291SOL     OW33014   0.344   4.287   6.535
 5291SOL    HW133015   0.374   4.371   6.498
 5291SOL    HW233016   0.423   4.251   6.576
 5292SOL     OW33017   1.504   4.688   7.156
 5292SOL    HW133018   1.463   4.660   7.238
 5292SOL    HW233019   1.516   4.782   7.166
 5293SOL     OW33020   0.588   3.112   7.749
 5293SOL    HW133021   0.598   3.181   7.683
 5293SOL    HW233022   0.500   3.077   7.733
 5294SOL     OW33023   2.668   5.175   6.057
 5294SOL    HW133024   2.618   5.115   6.001
 5294SOL    HW233025   2.721   5.117   6.113
 5295SOL     OW33026   3.549   4.041   7.223
 5295SOL    HW133027   3.620   3.980   7.204
 5295SOL    HW233028   3.592   4.127   7.226
 5296SOL     OW33029   5.598   5.610   7.258
 5296SOL    HW133030   5.677   5.556   7.249
 5296SOL    HW233031   5.602   5.671   7.184
 5297SOL     OW33032   5.249   5.500   2.686
 5297SOL    HW133033   5.203   5.552   2.621
 5297SOL    HW233034   5.310   5.562   2.728
 5298SOL     OW33035   5.661   4.827   2.887
 5298SOL    HW133036   5.596   4.897   2.887
 5298SOL    HW233037   5.721   4.850   2.816
 5299SOL     OW33038   2.556   4.653   7.473
 5299SOL    HW133039   2.494   4.668   7.545
 5299SOL    HW233040   2.632   4.614   7.516
 5300SOL     OW33041   0.803   0.177   5.690
 5300SOL    HW133042   0.871   0.167   5.623
 5300SOL    HW233043   0.724   0.139   5.651
 5301SOL     OW33044   3.081   3.729   6.385
 5301SOL    HW133045   3.064   3.814   6.343
 5301SOL    HW233046   3.165   3.701   6.349
 5302SOL     OW33047   2.629   5.685   6.852
 5302SOL    HW133048   2.666   5.714   6.769
 5302SOL    HW233049   2.546   5.732   6.860
 5303SOL     OW33050   3.583   2.364   6.009
 5303SOL    HW133051   3.495   2.356   5.972
 5303SOL    HW233052   3.640   2.379   5.933
 5304SOL     OW33053   4.768   4.145   7.003
 5304SOL    HW133054   4.813   4.071   7.045
 5304SOL    HW233055   4.803   4.223   7.046
 5305SOL     OW33056   2.909   2.410   6.107
 5305SOL    HW133057   2.815   2.424   6.116
 5305SOL    HW233058   2.927   2.431   6.015
 5306SOL     OW33059   1.842   5.204   6.308
 5306SOL    HW133060   1.854   5.111   6.288
 5306SOL    HW233061   1.803   5.240   6.228
 5307SOL     OW33062   2.034   4.246   6.041
 5307SOL    HW133063   2.050   4.237   5.947
 5307SOL    HW233064   1.939   4.247   6.048
 5308SOL     OW33065   3.726   5.833   7.349
 5308SOL    HW133066   3.740   5.915   7.397
 5308SOL    HW233067   3.697   5.771   7.416
 5309SOL     OW33068   3.462   0.740   0.444
 5309SOL    HW133069   3.466   0.782   0.530
 5309SOL    HW233070   3.397   0.791   0.395
 5310SOL     OW33071   0.673   4.037   0.649
 5310SOL    HW133072   0.686   4.108   0.711
 5310SOL    HW233073   0.691   4.076   0.563
 5311SOL     OW33074   0.268   4.288   1.329
 5311SOL    HW133075   0.304   4.199   1.331
 5311SOL    HW233076   0.339   4.342   1.293
 5312SOL     OW33077   5.191   5.737   1.482
 5312SOL    HW133078   5.230   5.721   1.568
 5312SOL    HW233079   5.168   5.650   1.450
 5313SOL     OW33080   0.745   5.284   1.104
 5313SOL    HW133081   0.657   5.310   1.133
 5313SOL    HW233082   0.795   5.366   1.103
 5314SOL     OW33083   0.303   1.113   7.225
 5314SOL    HW133084   0.288   1.111   7.131
 5314SOL    HW233085   0.290   1.022   7.253
 5315SOL     OW33086   2.116   0.290   6.508
 5315SOL    HW133087   2.140   0.382   6.521
 5315SOL    HW233088   2.026   0.283   6.541
 5316SOL     OW33089   2.863   1.683   5.884
 5316SOL    HW133090   2.916   1.610   5.915
 5316SOL    HW233091   2.875   1.684   5.789
 5317SOL     OW33092   1.525   5.118   7.246
 5317SOL    HW133093   1.467   5.133   7.321
 5317SOL    HW233094   1.589   5.189   7.251
 5318SOL     OW33095   5.727   0.950   1.328
 5318SOL    HW133096   5.672   0.983   1.399
 5318SOL    HW233097   5.665   0.916   1.264
 5319SOL     OW33098   0.404   4.773   0.099
 5319SOL    HW133099   0.463   4.837   0.058
 5319SOL    HW233100   0.445   4.755   0.184
 5320SOL     OW33101   0.370   1.894   7.450
 5320SOL    HW133102   0.417   1.865   7.372
 5320SOL    HW233103   0.439   1.925   7.509
 5321SOL     OW33104   3.339   3.114   1.003
 5321SOL    HW133105   3.345   3.019   1.001
 5321SOL    HW233106   3.257   3.134   0.957
 5322SOL     OW33107   4.559   2.694   6.872
 5322SOL    HW133108   4.521   2.693   6.960
 5322SOL    HW233109   4.485   2.709   6.813
 5323SOL     OW33110   3.544   6.418   0.673
 5323SOL    HW133111   3.527   6.443   0.764
 5323SOL    HW233112   3.607   6.483   0.642
 5324SOL     OW33113   5.224   2.426   1.374
 5324SOL    HW133114   5.242   2.336   1.402
 5324SOL    HW233115   5.233   2.424   1.279
 5325SOL     OW33116   2.356   3.449   6.818
 5325SOL    HW133117   2.281   3.507   6.815
 5325SOL    HW233118   2.431   3.504   6.836
 5326SOL     OW33119   1.748   3.471   2.103
 5326SOL    HW133120   1.720   3.501   2.017
 5326SOL    HW233121   1.744   3.377   2.099
 5327SOL     OW33122   2.525   1.163   1.587
 5327SOL    HW133123   2.563   1.221   1.520
 5327SOL    HW233124   2.438   1.198   1.603
 5328SOL     OW33125   4.772   4.631   1.477
 5328SOL    HW133126   4.812   4.545   1.467
 5328SOL    HW233127   4.839   4.684   1.519
 5329SOL     OW33128   4.899   0.632   7.537
 5329SOL    HW133129   4.979   0.667   7.498
 5329SOL    HW233130   4.836   0.704   7.532
 5330SOL     OW33131   4.525   3.208   0.054
 5330SOL    HW133132   4.597   3.270   0.070
 5330SOL    HW233133   4.447   3.263   0.050
 5331SOL     OW33134   3.737   4.174   6.576
 5331SOL    HW133135   3.744   4.196   6.669
 5331SOL    HW233136   3.812   4.217   6.535
 5332SOL     OW33137   0.675   5.149   7.730
 5332SOL    HW133138   0.605   5.194   7.778
 5332SOL    HW233139   0.659   5.056   7.746
 5333SOL     OW33140   0.955   2.292   7.315
 5333SOL    HW133141   1.017   2.273   7.245
 5333SOL    HW233142   1.005   2.346   7.377
 5334SOL     OW33143   5.551   3.578   5.917
 5334SOL    HW133144   5.499   3.504   5.949
 5334SOL    HW233145   5.552   3.568   5.822
 5335SOL     OW33146   2.557   4.240   0.487
 5335SOL    HW133147   2.644   4.203   0.498
 5335SOL    HW233148   2.500   4.165   0.474
 5336SOL     OW33149   5.151   4.016   6.875
 5336SOL    HW133150   5.177   3.952   6.809
 5336SOL    HW233151   5.190   3.984   6.957
 5337SOL     OW33152   2.401   1.961   1.133
 5337SOL    HW133153   2.446   1.902   1.073
 5337SOL    HW233154   2.398   1.915   1.216
 5338SOL     OW33155   0.943   5.532   7.108
 5338SOL    HW133156   0.905   5.445   7.097
 5338SOL    HW233157   1.013   5.536   7.043
 5339SOL     OW33158   1.607   5.958   0.447
 5339SOL    HW133159   1.683   5.900   0.439
 5339SOL    HW233160   1.644   6.046   0.454
 5340SOL     OW33161   0.749   3.667   6.816
 5340SOL    HW133162   0.812   3.599   6.842
 5340SOL    HW233163   0.731   3.714   6.897
 5341SOL     OW33164   3.030   0.797   0.179
 5341SOL    HW133165   3.081   0.725   0.217
 5341SOL    HW233166   2.943   0.760   0.167
 5342SOL     OW33167   3.969   2.820   1.417
 5342SOL    HW133168   3.994   2.867   1.496
 5342SOL    HW233169   3.921   2.744   1.448
 5343SOL     OW33170   3.435   1.625   6.008
 5343SOL    HW133171   3.349   1.633   6.048
 5343SOL    HW233172   3.445   1.532   5.991
 5344SOL     OW33173   5.846   1.588   1.103
 5344SOL    HW133174   5.775   1.593   1.168
 5344SOL    HW233175   5.801   1.567   1.021
 5345SOL     OW33176   5.302   1.215   0.848
 5345SOL    HW133177   5.254   1.271   0.909
 5345SOL    HW233178   5.346   1.151   0.904
 5346SOL     OW33179   2.141   3.181   1.327
 5346SOL    HW133180   2.098   3.266   1.336
 5346SOL    HW233181   2.168   3.159   1.416
 5347SOL     OW33182   4.498   4.030   0.199
 5347SOL    HW133183   4.510   4.053   0.291
 5347SOL    HW233184   4.452   4.104   0.161
 5348SOL     OW33185   4.088   5.836   1.664
 5348SOL    HW133186   4.038   5.761   1.632
 5348SOL    HW233187   4.144   5.800   1.733
 5349SOL     OW33188   0.094   3.901   6.318
 5349SOL    HW133189   0.055   3.886   6.232
 5349SOL    HW233190   0.133   3.988   6.313
 5350SOL     OW33191   0.906   4.687   0.635
 5350SOL    HW133192   0.968   4.618   0.612
 5350SOL    HW233193   0.961   4.759   0.666
 5351SOL     OW33194   0.543   2.548   5.942
 5351SOL    HW133195   0.603   2.483   5.906
 5351SOL    HW233196   0.539   2.617   5.875
 5352SOL     OW33197   2.084   0.342   0.597
 5352SOL    HW133198   2.039   0.276   0.650
 5352SOL    HW233199   2.124   0.401   0.660
 5353SOL     OW33200   0.496   0.524   1.416
 5353SOL    HW133201   0.499   0.619   1.428
 5353SOL    HW233202   0.403   0.501   1.426
 5354SOL     OW33203   2.003   2.451   7.120
 5354SOL    HW133204   1.949   2.439   7.042
 5354SOL    HW233205   2.063   2.522   7.097
 5355SOL     OW33206   0.747   1.630   0.421
 5355SOL    HW133207   0.657   1.660   0.438
 5355SOL    HW233208   0.762   1.649   0.328
 5356SOL     OW33209   3.058   6.441   0.557
 5356SOL    HW133210   3.002   6.490   0.618
 5356SOL    HW233211   2.997   6.389   0.505
 5357SOL     OW33212   1.610   3.126   0.192
 5357SOL    HW133213   1.570   3.191   0.250
 5357SOL    HW233214   1.675   3.175   0.142
 5358SOL     OW33215   2.579   2.537   0.124
 5358SOL    HW133216   2.659   2.588   0.108
 5358SOL    HW233217   2.599   2.488   0.204
 5359SOL     OW33218   3.061   6.264   6.779
 5359SOL    HW133219   3.051   6.284   6.686
 5359SOL    HW233220   3.028   6.341   6.824
 5360SOL     OW33221   5.442   1.027   7.210
 5360SOL    HW133222   5.493   1.098   7.250
 5360SOL    HW233223   5.487   0.947   7.236
 5361SOL     OW33224   4.523   3.789   7.020
 5361SOL    HW133225   4.548   3.850   6.950
 5361SOL    HW233226   4.587   3.804   7.089
 5362SOL     OW33227   0.249   5.853   0.318
 5362SOL    HW133228   0.317   5.799   0.277
 5362SOL    HW233229   0.271   5.850   0.411
 5363SOL     OW33230   4.689   2.104   0.163
 5363SOL    HW133231   4.654   2.137   0.081
 5363SOL    HW233232   4.672   2.010   0.161
 5364SOL     OW33233   1.609   0.521   7.417
 5364SOL    HW133234   1.696   0.484   7.403
 5364SOL    HW233235   1.549   0.449   7.396
 5365SOL     OW33236   1.730   6.171   1.547
 5365SOL    HW133237   1.675   6.227   1.492
 5365SOL    HW233238   1.767   6.107   1.487
 5366SOL     OW33239   4.190   0.760   6.099
 5366SOL    HW133240   4.251   0.770   6.171
 5366SOL    HW233241   4.200   0.840   6.048
 5367SOL     OW33242   0.358   6.201   1.760
 5367SOL    HW133243   0.298   6.225   1.831
 5367SOL    HW233244   0.442   6.239   1.786
 5368SOL     OW33245   2.960   1.396   1.502
 5368SOL    HW133246   2.992   1.307   1.519
 5368SOL    HW233247   2.878   1.401   1.551
 5369SOL     OW33248   0.171   5.072   7.630
 5369SOL    HW133249   0.180   5.161   7.665
 5369SOL    HW233250   0.181   5.015   7.706
 5370SOL     OW33251   4.461   0.440   6.962
 5370SOL    HW133252   4.485   0.531   6.980
 5370SOL    HW233253   4.484   0.393   7.042
 5371SOL     OW33254   0.199   2.612   6.913
 5371SOL    HW133255   0.123   2.559   6.891
 5371SOL    HW233256   0.229   2.576   6.997
 5372SOL     OW33257   5.534   3.732   0.184
 5372SOL    HW133258   5.488   3.676   0.247
 5372SOL    HW233259   5.591   3.787   0.239
 5373SOL     OW33260   3.534   5.667   0.699
 5373SOL    HW133261   3.602   5.714   0.746
 5373SOL    HW233262   3.455   5.719   0.712
 5374SOL     OW33263   0.044   2.409   0.144
 5374SOL    HW133264   0.058   2.400   0.238
 5374SOL    HW233265   0.132   2.409   0.106
 5375SOL     OW33266   4.930   5.089   6.274
 5375SOL    HW133267   4.877   5.079   6.353
 5375SOL    HW233268   4.909   5.178   6.243
 5376SOL     OW33269   0.611   1.798   7.273
 5376SOL    HW133270   0.527   1.779   7.232
 5376SOL    HW233271   0.633   1.886   7.244
 5377SOL     OW33272   5.146   5.334   1.976
 5377SOL    HW133273   5.127   5.371   1.890
 5377SOL    HW233274   5.102   5.392   2.038
 5378SOL     OW33275   2.177   3.575   6.510
 5378SOL    HW133276   2.183   3.650   6.570
 5378SOL    HW233277   2.177   3.498   6.567
 5379SOL     OW33278   6.098   2.908   6.398
 5379SOL    HW133279   6.013   2.952   6.399
 5379SOL    HW233280   6.083   2.829   6.345
 5380SOL     OW33281   2.383   1.083   6.683
 5380SOL    HW133282   2.314   1.145   6.709
 5380SOL    HW233283   2.445   1.085   6.757
 5381SOL     OW33284   3.781   1.135   6.258
 5381SOL    HW133285   3.866   1.174   6.278
 5381SOL    HW233286   3.730   1.206   6.220
 5382SOL     OW33287   4.313   2.955   6.861
 5382SOL    HW133288   4.295   2.908   6.780
 5382SOL    HW233289   4.354   2.891   6.918
 5383SOL     OW33290   5.275   1.082   7.536
 5383SOL    HW133291   5.255   1.135   7.459
 5383SOL    HW233292   5.340   1.134   7.584
 5384SOL     OW33293   0.813   3.461   1.360
 5384SOL    HW133294   0.843   3.516   1.288
 5384SOL    HW233295   0.736   3.507   1.394
 5385SOL     OW33296   4.859   0.559   1.847
 5385SOL    HW133297   4.836   0.480   1.896
 5385SOL    HW233298   4.933   0.596   1.895
 5386SOL     OW33299   5.077   2.140   0.554
 5386SOL    HW133300   5.038   2.066   0.508
 5386SOL    HW233301   5.062   2.122   0.646
 5387SOL     OW33302   4.971   2.303   6.267
 5387SOL    HW133303   4.929   2.368   6.212
 5387SOL    HW233304   4.900   2.264   6.317
 5388SOL     OW33305   0.514   5.095   0.166
 5388SOL    HW133306   0.469   5.162   0.114
 5388SOL    HW233307   0.549   5.143   0.241
 5389SOL     OW33308   2.876   0.465   6.343
 5389SOL    HW133309   2.892   0.436   6.254
 5389SOL    HW233310   2.781   0.469   6.350
 5390SOL     OW33311   1.452   1.211   6.365
 5390SOL    HW133312   1.522   1.147   6.374
 5390SOL    HW233313   1.496   1.296   6.366
 5391SOL     OW33314   0.771   4.248   0.818
 5391SOL    HW133315   0.859   4.223   0.846
 5391SOL    HW233316   0.772   4.344   0.816
 5392SOL     OW33317   3.303   5.321   5.633
 5392SOL    HW133318   3.288   5.300   5.725
 5392SOL    HW233319   3.345   5.243   5.597
 5393SOL     OW33320   1.763   1.674   1.377
 5393SOL    HW133321   1.847   1.718   1.390
 5393SOL    HW233322   1.782   1.605   1.313
 5394SOL     OW33323   2.663   1.710   1.247
 5394SOL    HW133324   2.737   1.653   1.225
 5394SOL    HW233325   2.690   1.754   1.327
 5395SOL     OW33326   3.006   5.608   6.851
 5395SOL    HW133327   2.996   5.700   6.827
 5395SOL    HW233328   3.071   5.608   6.920
 5396SOL     OW33329   1.721   4.618   0.325
 5396SOL    HW133330   1.768   4.538   0.301
 5396SOL    HW233331   1.789   4.675   0.361
 5397SOL     OW33332   5.166   3.250   7.754
 5397SOL    HW133333   5.091   3.291   7.797
 5397SOL    HW233334   5.239   3.310   7.770
 5398SOL     OW33335   3.779   1.338   0.225
 5398SOL    HW133336   3.816   1.274   0.286
 5398SOL    HW233337   3.806   1.307   0.139
 5399SOL     OW33338   2.176   5.351   6.652
 5399SOL    HW133339   2.147   5.440   6.669
 5399SOL    HW233340   2.101   5.296   6.672
 5400SOL     OW33341   4.295   4.432   6.366
 5400SOL    HW133342   4.277   4.342   6.341
 5400SOL    HW233343   4.341   4.470   6.291
 5401SOL     OW33344   0.783   3.186   1.748
 5401SOL    HW133345   0.870   3.183   1.788
 5401SOL    HW233346   0.796   3.233   1.666
 5402SOL     OW33347   2.261   2.826   0.262
 5402SOL    HW133348   2.210   2.757   0.305
 5402SOL    HW233349   2.352   2.804   0.280
 5403SOL     OW33350   0.438   3.870   6.166
 5403SOL    HW133351   0.421   3.784   6.128
 5403SOL    HW233352   0.367   3.925   6.133
 5404SOL     OW33353   0.457   2.265   6.870
 5404SOL    HW133354   0.426   2.181   6.837
 5404SOL    HW233355   0.526   2.291   6.809
 5405SOL     OW33356   5.746   4.889   2.011
 5405SOL    HW133357   5.754   4.880   1.916
 5405SOL    HW233358   5.814   4.832   2.046
 5406SOL     OW33359   5.454   5.887   2.707
 5406SOL    HW133360   5.528   5.948   2.699
 5406SOL    HW233361   5.377   5.943   2.698
 5407SOL     OW33362   2.581   2.551   0.571
 5407SOL    HW133363   2.578   2.621   0.636
 5407SOL    HW233364   2.490   2.544   0.540
 5408SOL     OW33365   0.062   0.268   1.603
 5408SOL    HW133366   0.080   0.175   1.591
 5408SOL    HW233367   0.048   0.278   1.697
 5409SOL     OW33368   3.804   4.832   0.939
 5409SOL    HW133369   3.830   4.790   1.021
 5409SOL    HW233370   3.836   4.922   0.948
 5410SOL     OW33371   5.217   2.844   6.322
 5410SOL    HW133372   5.186   2.763   6.363
 5410SOL    HW233373   5.309   2.827   6.302
 5411SOL     OW33374   0.933   3.071   0.238
 5411SOL    HW133375   0.959   3.153   0.196
 5411SOL    HW233376   1.015   3.031   0.267
 5412SOL     OW33377   2.952   6.005   1.466
 5412SOL    HW133378   2.861   5.980   1.477
 5412SOL    HW233379   3.001   5.947   1.524
 5413SOL     OW33380   1.160   3.564   0.826
 5413SOL    HW133381   1.226   3.503   0.859
 5413SOL    HW233382   1.086   3.509   0.801
 5414SOL     OW33383   4.083   3.953   1.296
 5414SOL    HW133384   4.088   3.866   1.256
 5414SOL    HW233385   3.989   3.967   1.311
 5415SOL     OW33386   5.969   4.180   7.044
 5415SOL    HW133387   5.958   4.086   7.025
 5415SOL    HW233388   5.981   4.220   6.958
 5416SOL     OW33389   1.688   6.110   1.822
 5416SOL    HW133390   1.684   6.121   1.727
 5416SOL    HW233391   1.753   6.042   1.836
 5417SOL     OW33392   6.421   4.276   6.358
 5417SOL    HW133393   6.500   4.222   6.360
 5417SOL    HW233394   6.386   4.272   6.447
 5418SOL     OW33395   6.057   3.160   6.842
 5418SOL    HW133396   5.988   3.225   6.835
 5418SOL    HW233397   6.024   3.084   6.794
 5419SOL     OW33398   0.305   5.813   0.621
 5419SOL    HW133399   0.371   5.882   0.616
 5419SOL    HW233400   0.253   5.834   0.699
 5420SOL     OW33401   4.003   3.055   0.489
 5420SOL    HW133402   4.011   3.069   0.395
 5420SOL    HW233403   3.952   2.974   0.497
 5421SOL     OW33404   1.983   3.414   1.004
 5421SOL    HW133405   1.994   3.501   1.040
 5421SOL    HW233406   1.937   3.366   1.073
 5422SOL     OW33407   5.273   4.902   7.240
 5422SOL    HW133408   5.343   4.966   7.250
 5422SOL    HW233409   5.317   4.817   7.245
 5423SOL     OW33410   1.104   4.344   5.252
 5423SOL    HW133411   1.172   4.356   5.318
 5423SOL    HW233412   1.074   4.433   5.232
 5424SOL     OW33413   1.959   5.880   7.031
 5424SOL    HW133414   1.962   5.805   7.089
 5424SOL    HW233415   2.035   5.869   6.973
 5425SOL     OW33416   0.037   4.157   5.460
 5425SOL    HW133417   0.008   4.192   5.544
 5425SOL    HW233418   0.116   4.107   5.481
 5426SOL     OW33419   0.298   2.582   5.743
 5426SOL    HW133420   0.291   2.590   5.648
 5426SOL    HW233421   0.364   2.645   5.768
 5427SOL     OW33422   1.480   4.907   6.290
 5427SOL    HW133423   1.507   4.900   6.382
 5427SOL    HW233424   1.414   4.838   6.279
 5428SOL     OW33425   5.957   0.153   6.329
 5428SOL    HW133426   5.978   0.150   6.422
 5428SOL    HW233427   5.979   0.242   6.302
 5429SOL     OW33428   1.115   1.417   6.157
 5429SOL    HW133429   1.175   1.379   6.093
 5429SOL    HW233430   1.096   1.345   6.218
 5430SOL     OW33431   1.159   0.735   0.553
 5430SOL    HW133432   1.235   0.769   0.600
 5430SOL    HW233433   1.091   0.800   0.567
 5431SOL     OW33434   4.619   6.228   7.019
 5431SOL    HW133435   4.657   6.212   7.105
 5431SOL    HW233436   4.650   6.154   6.966
 5432SOL     OW33437   3.092   3.167   7.087
 5432SOL    HW133438   3.131   3.155   7.173
 5432SOL    HW233439   3.031   3.093   7.078
 5433SOL     OW33440   5.224   3.065   6.488
 5433SOL    HW133441   5.238   2.988   6.433
 5433SOL    HW233442   5.213   3.137   6.426
 5434SOL     OW33443   5.101   0.518   2.187
 5434SOL    HW133444   5.092   0.489   2.097
 5434SOL    HW233445   5.051   0.454   2.238
 5435SOL     OW33446   1.079   0.095   0.975
 5435SOL    HW133447   1.172   0.099   0.952
 5435SOL    HW233448   1.077   0.108   1.069
 5436SOL     OW33449   2.972   1.413   0.044
 5436SOL    HW133450   2.990   1.400  -0.050
 5436SOL    HW233451   2.978   1.507   0.056
 5437SOL     OW33452   4.976   4.407   7.394
 5437SOL    HW133453   4.882   4.390   7.386
 5437SOL    HW233454   5.017   4.329   7.358
 5438SOL     OW33455   1.431   2.377   2.157
 5438SOL    HW133456   1.437   2.361   2.251
 5438SOL    HW233457   1.479   2.304   2.118
 5439SOL     OW33458   5.677   3.079   0.707
 5439SOL    HW133459   5.689   3.012   0.641
 5439SOL    HW233460   5.648   3.032   0.785
 5440SOL     OW33461   4.157   5.402   0.581
 5440SOL    HW133462   4.156   5.413   0.676
 5440SOL    HW233463   4.225   5.462   0.551
 5441SOL     OW33464   2.163   2.708   1.302
 5441SOL    HW133465   2.141   2.797   1.276
 5441SOL    HW233466   2.254   2.714   1.331
 5442SOL     OW33467   4.983   1.046   0.898
 5442SOL    HW133468   4.996   1.097   0.818
 5442SOL    HW233469   5.071   1.039   0.937
 5443SOL     OW33470   3.430   6.208   6.628
 5443SOL    HW133471   3.455   6.240   6.541
 5443SOL    HW233472   3.408   6.288   6.677
 5444SOL     OW33473   5.525   5.939   1.283
 5444SOL    HW133474   5.555   5.862   1.332
 5444SOL    HW233475   5.430   5.928   1.277
 5445SOL     OW33476   1.352   4.863   0.879
 5445SOL    HW133477   1.315   4.859   0.791
 5445SOL    HW233478   1.446   4.874   0.866
 5446SOL     OW33479   0.715   4.114   7.248
 5446SOL    HW133480   0.766   4.183   7.290
 5446SOL    HW233481   0.736   4.121   7.155
 5447SOL     OW33482   5.759   6.411   6.239
 5447SOL    HW133483   5.728   6.451   6.158
 5447SOL    HW233484   5.812   6.479   6.280
 5448SOL     OW33485   1.366   0.908   0.958
 5448SOL    HW133486   1.428   0.864   1.016
 5448SOL    HW233487   1.382   1.001   0.971
 5449SOL     OW33488   1.547   2.664   2.003
 5449SOL    HW133489   1.480   2.660   1.934
 5449SOL    HW233490   1.618   2.609   1.971
 5450SOL     OW33491   0.442   3.774   7.319
 5450SOL    HW133492   0.481   3.805   7.237
 5450SOL    HW233493   0.513   3.725   7.362
 5451SOL     OW33494   4.307   4.233   2.050
 5451SOL    HW133495   4.395   4.235   2.086
 5451SOL    HW233496   4.284   4.140   2.048
 5452SOL     OW33497   5.907   3.207   1.225
 5452SOL    HW133498   5.952   3.210   1.309
 5452SOL    HW233499   5.850   3.284   1.225
 5453SOL     OW33500   1.082   3.389   1.842
 5453SOL    HW133501   1.019   3.435   1.787
 5453SOL    HW233502   1.059   3.297   1.833
 5454SOL     OW33503   2.215   3.270   1.047
 5454SOL    HW133504   2.204   3.234   1.135
 5454SOL    HW233505   2.149   3.337   1.040
 5455SOL     OW33506   1.081   1.536   5.884
 5455SOL    HW133507   1.082   1.534   5.980
 5455SOL    HW233508   1.013   1.601   5.863
 5456SOL     OW33509   0.720   2.597   7.776
 5456SOL    HW133510   0.798   2.566   7.730
 5456SOL    HW233511   0.741   2.687   7.800
 5457SOL     OW33512   2.894   2.741   0.547
 5457SOL    HW133513   2.916   2.814   0.489
 5457SOL    HW233514   2.800   2.751   0.563
 5458SOL     OW33515   5.732   2.018   6.589
 5458SOL    HW133516   5.798   2.086   6.605
 5458SOL    HW233517   5.687   2.007   6.673
 5459SOL     OW33518   3.875   0.274   2.085
 5459SOL    HW133519   3.942   0.236   2.028
 5459SOL    HW233520   3.812   0.203   2.098
 5460SOL     OW33521   3.331   6.216   7.014
 5460SOL    HW133522   3.336   6.148   6.948
 5460SOL    HW233523   3.394   6.190   7.081
 5461SOL     OW33524   4.587   4.874   0.230
 5461SOL    HW133525   4.550   4.927   0.160
 5461SOL    HW233526   4.678   4.902   0.237
 5462SOL     OW33527   0.281   4.376   0.260
 5462SOL    HW133528   0.196   4.395   0.220
 5462SOL    HW233529   0.260   4.343   0.347
 5463SOL     OW33530   0.248   4.137   6.343
 5463SOL    HW133531   0.271   4.185   6.422
 5463SOL    HW233532   0.311   4.167   6.277
 5464SOL     OW33533   3.252   2.261   0.578
 5464SOL    HW133534   3.172   2.315   0.583
 5464SOL    HW233535   3.238   2.192   0.643
 5465SOL     OW33536   0.326   2.305   2.074
 5465SOL    HW133537   0.398   2.329   2.133
 5465SOL    HW233538   0.293   2.389   2.042
 5466SOL     OW33539   6.018   4.693   5.954
 5466SOL    HW133540   6.037   4.772   5.902
 5466SOL    HW233541   6.008   4.624   5.889
 5467SOL     OW33542   6.016   1.433   6.368
 5467SOL    HW133543   6.029   1.396   6.456
 5467SOL    HW233544   6.031   1.359   6.309
 5468SOL     OW33545   1.117   4.805   5.705
 5468SOL    HW133546   1.149   4.878   5.652
 5468SOL    HW233547   1.049   4.764   5.652
 5469SOL     OW33548   1.279   2.654   0.302
 5469SOL    HW133549   1.316   2.711   0.369
 5469SOL    HW233550   1.269   2.710   0.225
 5470SOL     OW33551   5.123   5.603   6.143
 5470SOL    HW133552   5.208   5.567   6.116
 5470SOL    HW233553   5.097   5.549   6.219
 5471SOL     OW33554   4.939   4.436   1.426
 5471SOL    HW133555   4.956   4.363   1.366
 5471SOL    HW233556   5.026   4.467   1.451
 5472SOL     OW33557   1.668   5.843   6.316
 5472SOL    HW133558   1.628   5.874   6.397
 5472SOL    HW233559   1.598   5.799   6.270
 5473SOL     OW33560   2.662   5.982   7.627
 5473SOL    HW133561   2.594   6.050   7.628
 5473SOL    HW233562   2.631   5.917   7.689
 5474SOL     OW33563   0.876   0.521   5.948
 5474SOL    HW133564   0.883   0.545   5.855
 5474SOL    HW233565   0.784   0.495   5.958
 5475SOL     OW33566   0.558   3.759   7.053
 5475SOL    HW133567   0.650   3.744   7.076
 5475SOL    HW233568   0.515   3.675   7.069
 5476SOL     OW33569   5.921   0.832   1.117
 5476SOL    HW133570   5.957   0.853   1.203
 5476SOL    HW233571   5.996   0.835   1.057
 5477SOL     OW33572   0.738   1.038   7.558
 5477SOL    HW133573   0.768   1.129   7.564
 5477SOL    HW233574   0.659   1.042   7.504
 5478SOL     OW33575   6.410   1.579   0.855
 5478SOL    HW133576   6.373   1.623   0.931
 5478SOL    HW233577   6.406   1.644   0.785
 5479SOL     OW33578   0.285   3.435   1.225
 5479SOL    HW133579   0.300   3.347   1.191
 5479SOL    HW233580   0.367   3.481   1.207
 5480SOL     OW33581   1.949   2.051   0.556
 5480SOL    HW133582   2.036   2.031   0.522
 5480SOL    HW233583   1.941   2.146   0.546
 5481SOL     OW33584   3.175   1.532   1.881
 5481SOL    HW133585   3.217   1.617   1.885
 5481SOL    HW233586   3.247   1.470   1.868
 5482SOL     OW33587   4.193   6.394   0.548
 5482SOL    HW133588   4.283   6.365   0.530
 5482SOL    HW233589   4.200   6.489   0.554
 5483SOL     OW33590   2.009   3.260   7.682
 5483SOL    HW133591   2.045   3.177   7.650
 5483SOL    HW233592   1.958   3.293   7.608
 5484SOL     OW33593   1.245   6.331   5.137
 5484SOL    HW133594   1.184   6.381   5.192
 5484SOL    HW233595   1.194   6.255   5.109
 5485SOL     OW33596   0.474   0.046   7.688
 5485SOL    HW133597   0.554   0.023   7.640
 5485SOL    HW233598   0.404   0.001   7.642
 5486SOL     OW33599   2.425   5.325   7.041
 5486SOL    HW133600   2.488   5.353   6.975
 5486SOL    HW233601   2.455   5.237   7.066
 5487SOL     OW33602   1.308   1.486   6.621
 5487SOL    HW133603   1.225   1.454   6.586
 5487SOL    HW233604   1.288   1.514   6.710
 5488SOL     OW33605   2.993   3.297   1.517
 5488SOL    HW133606   3.074   3.265   1.477
 5488SOL    HW233607   3.016   3.309   1.610
 5489SOL     OW33608   0.569   0.775   0.109
 5489SOL    HW133609   0.543   0.866   0.127
 5489SOL    HW233610   0.486   0.730   0.093
 5490SOL     OW33611   1.082   3.106   1.571
 5490SOL    HW133612   1.047   3.118   1.660
 5490SOL    HW233613   1.163   3.057   1.585
 5491SOL     OW33614   1.458   4.471   0.323
 5491SOL    HW133615   1.528   4.518   0.369
 5491SOL    HW233616   1.501   4.392   0.290
 5492SOL     OW33617   5.513   2.881   2.646
 5492SOL    HW133618   5.596   2.863   2.602
 5492SOL    HW233619   5.508   2.977   2.648
 5493SOL     OW33620   0.274   3.783   0.366
 5493SOL    HW133621   0.218   3.819   0.435
 5493SOL    HW233622   0.352   3.840   0.367
 5494SOL     OW33623   2.938   6.139   6.507
 5494SOL    HW133624   2.941   6.048   6.478
 5494SOL    HW233625   3.016   6.179   6.468
 5495SOL     OW33626   4.314   4.400   0.873
 5495SOL    HW133627   4.278   4.325   0.920
 5495SOL    HW233628   4.247   4.468   0.880
 5496SOL     OW33629   3.895   1.995   0.111
 5496SOL    HW133630   3.820   2.051   0.091
 5496SOL    HW233631   3.968   2.056   0.120
 5497SOL     OW33632   4.018   4.195   6.433
 5497SOL    HW133633   4.019   4.111   6.479
 5497SOL    HW233634   4.106   4.203   6.396
 5498SOL     OW33635   2.933   0.432   0.654
 5498SOL    HW133636   3.018   0.469   0.630
 5498SOL    HW233637   2.885   0.504   0.695
 5499SOL     OW33638   4.564   1.616   0.886
 5499SOL    HW133639   4.491   1.574   0.840
 5499SOL    HW233640   4.591   1.552   0.952
 5500SOL     OW33641   2.582   1.909   7.642
 5500SOL    HW133642   2.549   1.918   7.553
 5500SOL    HW233643   2.589   1.999   7.674
 5501SOL     OW33644   5.951   2.659   7.576
 5501SOL    HW133645   5.980   2.742   7.614
 5501SOL    HW233646   6.032   2.608   7.566
 5502SOL     OW33647   5.816   0.814   2.067
 5502SOL    HW133648   5.815   0.796   2.161
 5502SOL    HW233649   5.870   0.744   2.030
 5503SOL     OW33650   1.847   2.869   7.625
 5503SOL    HW133651   1.850   2.873   7.529
 5503SOL    HW233652   1.753   2.875   7.646
 5504SOL     OW33653   4.457   1.574   0.604
 5504SOL    HW133654   4.549   1.578   0.627
 5504SOL    HW233655   4.456   1.543   0.513
 5505SOL     OW33656   0.475   1.605   1.715
 5505SOL    HW133657   0.538   1.590   1.645
 5505SOL    HW233658   0.525   1.597   1.796
 5506SOL     OW33659   3.907   5.780   0.817
 5506SOL    HW133660   3.897   5.844   0.747
 5506SOL    HW233661   3.911   5.695   0.772
 5507SOL     OW33662   4.392   0.743   6.291
 5507SOL    HW133663   4.366   0.814   6.349
 5507SOL    HW233664   4.484   0.761   6.270
 5508SOL     OW33665   3.483   1.763   7.473
 5508SOL    HW133666   3.420   1.697   7.501
 5508SOL    HW233667   3.566   1.736   7.513
 5509SOL     OW33668   5.525   4.769   0.771
 5509SOL    HW133669   5.510   4.674   0.768
 5509SOL    HW233670   5.545   4.787   0.863
 5510SOL     OW33671   4.919   1.866   7.181
 5510SOL    HW133672   4.889   1.774   7.182
 5510SOL    HW233673   4.876   1.906   7.256
 5511SOL     OW33674   5.436   2.233   6.488
 5511SOL    HW133675   5.364   2.275   6.441
 5511SOL    HW233676   5.498   2.304   6.506
 5512SOL     OW33677   3.024   5.657   1.394
 5512SOL    HW133678   2.937   5.630   1.422
 5512SOL    HW233679   3.059   5.707   1.468
 5513SOL     OW33680   4.424   1.758   0.326
 5513SOL    HW133681   4.438   1.663   0.324
 5513SOL    HW233682   4.338   1.770   0.286
 5514SOL     OW33683   3.502   4.643   6.654
 5514SOL    HW133684   3.569   4.686   6.601
 5514SOL    HW233685   3.499   4.553   6.622
 5515SOL     OW33686   1.825   2.152   0.258
 5515SOL    HW133687   1.863   2.172   0.343
 5515SOL    HW233688   1.743   2.106   0.279
 5516SOL     OW33689   3.118   1.443   0.537
 5516SOL    HW133690   3.083   1.387   0.468
 5516SOL    HW233691   3.042   1.476   0.584
 5517SOL     OW33692   5.090   6.093   5.300
 5517SOL    HW133693   5.114   6.058   5.385
 5517SOL    HW233694   5.152   6.053   5.239
 5518SOL     OW33695   3.929   3.902   6.935
 5518SOL    HW133696   3.938   3.840   7.007
 5518SOL    HW233697   3.890   3.980   6.975
 5519SOL     OW33698   3.808   4.793   6.256
 5519SOL    HW133699   3.874   4.726   6.239
 5519SOL    HW233700   3.725   4.750   6.235
 5520SOL     OW33701   0.622   4.465   7.723
 5520SOL    HW133702   0.562   4.477   7.649
 5520SOL    HW233703   0.674   4.546   7.725
 5521SOL     OW33704   3.642   6.155   1.800
 5521SOL    HW133705   3.734   6.159   1.775
 5521SOL    HW233706   3.603   6.234   1.761
 5522SOL     OW33707   1.313   2.186   0.031
 5522SOL    HW133708   1.249   2.204  -0.039
 5522SOL    HW233709   1.368   2.265   0.033
 5523SOL     OW33710   1.831   5.311   7.533
 5523SOL    HW133711   1.854   5.231   7.485
 5523SOL    HW233712   1.735   5.309   7.539
 5524SOL     OW33713   2.537   1.654   7.162
 5524SOL    HW133714   2.475   1.660   7.235
 5524SOL    HW233715   2.580   1.740   7.160
 5525SOL     OW33716   6.137   5.603   1.902
 5525SOL    HW133717   6.185   5.589   1.984
 5525SOL    HW233718   6.050   5.566   1.918
 5526SOL     OW33719   0.795   3.709   7.175
 5526SOL    HW133720   0.748   3.659   7.241
 5526SOL    HW233721   0.825   3.787   7.222
 5527SOL     OW33722   2.430   1.320   7.187
 5527SOL    HW133723   2.449   1.248   7.248
 5527SOL    HW233724   2.514   1.365   7.177
 5528SOL     OW33725   5.547   1.191   0.543
 5528SOL    HW133726   5.474   1.128   0.543
 5528SOL    HW233727   5.580   1.189   0.453
 5529SOL     OW33728   2.272   3.418   7.685
 5529SOL    HW133729   2.219   3.339   7.679
 5529SOL    HW233730   2.279   3.449   7.594
 5530SOL     OW33731   1.897   4.145   0.535
 5530SOL    HW133732   1.836   4.192   0.592
 5530SOL    HW233733   1.886   4.186   0.449
 5531SOL     OW33734   0.427   4.119   0.206
 5531SOL    HW133735   0.374   4.197   0.224
 5531SOL    HW233736   0.492   4.149   0.142
 5532SOL     OW33737   6.149   2.151   6.882
 5532SOL    HW133738   6.084   2.188   6.942
 5532SOL    HW233739   6.177   2.070   6.924
 5533SOL     OW33740   5.627   1.587   1.446
 5533SOL    HW133741   5.588   1.664   1.487
 5533SOL    HW233742   5.618   1.603   1.352
 5534SOL     OW33743   5.009   6.072   0.610
 5534SOL    HW133744   5.060   6.055   0.689
 5534SOL    HW233745   5.064   6.040   0.539
 5535SOL     OW33746   2.075   3.637   1.131
 5535SOL    HW133747   2.153   3.648   1.077
 5535SOL    HW233748   2.109   3.623   1.219
 5536SOL     OW33749   4.174   6.040   0.225
 5536SOL    HW133750   4.086   6.013   0.198
 5536SOL    HW233751   4.160   6.098   0.300
 5537SOL     OW33752   6.420   2.773   0.576
 5537SOL    HW133753   6.406   2.802   0.666
 5537SOL    HW233754   6.462   2.847   0.533
 5538SOL     OW33755   0.671   2.891   1.193
 5538SOL    HW133756   0.610   2.822   1.169
 5538SOL    HW233757   0.641   2.921   1.279
 5539SOL     OW33758   3.987   3.662   0.692
 5539SOL    HW133759   4.047   3.600   0.650
 5539SOL    HW233760   3.930   3.607   0.746
 5540SOL     OW33761   1.054   4.432   0.290
 5540SOL    HW133762   1.069   4.341   0.266
 5540SOL    HW233763   0.963   4.448   0.267
 5541SOL     OW33764   0.722   1.388   1.673
 5541SOL    HW133765   0.793   1.439   1.712
 5541SOL    HW233766   0.746   1.382   1.580
 5542SOL     OW33767   1.946   0.143   6.982
 5542SOL    HW133768   1.993   0.098   6.913
 5542SOL    HW233769   1.912   0.222   6.940
 5543SOL     OW33770   3.136   1.552   6.457
 5543SOL    HW133771   3.069   1.571   6.523
 5543SOL    HW233772   3.211   1.606   6.483
 5544SOL     OW33773   5.518   1.102   1.047
 5544SOL    HW133774   5.481   1.140   1.127
 5544SOL    HW233775   5.587   1.163   1.022
 5545SOL     OW33776   4.216   4.842   2.590
 5545SOL    HW133777   4.210   4.768   2.649
 5545SOL    HW233778   4.302   4.881   2.608
 5546SOL     OW33779   5.718   0.243   0.982
 5546SOL    HW133780   5.799   0.275   0.942
 5546SOL    HW233781   5.648   0.277   0.928
 5547SOL     OW33782   4.007   3.472   5.866
 5547SOL    HW133783   4.057   3.423   5.802
 5547SOL    HW233784   3.994   3.412   5.939
 5548SOL     OW33785   3.349   2.059   0.400
 5548SOL    HW133786   3.377   2.095   0.316
 5548SOL    HW233787   3.303   2.131   0.443
 5549SOL     OW33788   5.094   2.594   1.571
 5549SOL    HW133789   5.126   2.553   1.651
 5549SOL    HW233790   5.126   2.537   1.501
 5550SOL     OW33791   0.996   1.101   7.243
 5550SOL    HW133792   1.054   1.054   7.183
 5550SOL    HW233793   1.026   1.075   7.330
 5551SOL     OW33794   4.280   1.594   1.217
 5551SOL    HW133795   4.230   1.526   1.173
 5551SOL    HW233796   4.366   1.554   1.233
 5552SOL     OW33797   3.337   2.645   0.678
 5552SOL    HW133798   3.281   2.602   0.742
 5552SOL    HW233799   3.278   2.701   0.628
 5553SOL     OW33800   2.066   0.771   1.354
 5553SOL    HW133801   2.030   0.832   1.418
 5553SOL    HW233802   2.000   0.769   1.284
 5554SOL     OW33803   3.768   2.001   7.462
 5554SOL    HW133804   3.859   1.990   7.490
 5554SOL    HW233805   3.721   2.025   7.542
 5555SOL     OW33806   5.825   2.451   1.048
 5555SOL    HW133807   5.866   2.508   0.983
 5555SOL    HW233808   5.819   2.365   1.005
 5556SOL     OW33809   4.352   5.244   1.950
 5556SOL    HW133810   4.330   5.333   1.978
 5556SOL    HW233811   4.369   5.197   2.031
 5557SOL     OW33812   3.584   5.906   2.218
 5557SOL    HW133813   3.584   6.002   2.226
 5557SOL    HW233814   3.659   5.878   2.271
 5558SOL     OW33815   4.004   4.851   1.578
 5558SOL    HW133816   4.083   4.819   1.621
 5558SOL    HW233817   3.934   4.796   1.615
 5559SOL     OW33818   1.922   1.387   0.130
 5559SOL    HW133819   1.907   1.338   0.211
 5559SOL    HW233820   1.930   1.320   0.062
 5560SOL     OW33821   4.437   1.726   6.751
 5560SOL    HW133822   4.442   1.819   6.730
 5560SOL    HW233823   4.504   1.714   6.819
 5561SOL     OW33824   3.372   5.368   2.315
 5561SOL    HW133825   3.297   5.409   2.272
 5561SOL    HW233826   3.338   5.338   2.399
 5562SOL     OW33827   1.404   0.027   6.372
 5562SOL    HW133828   1.435  -0.063   6.382
 5562SOL    HW233829   1.483   0.080   6.376
 5563SOL     OW33830   2.747   2.936   6.409
 5563SOL    HW133831   2.769   2.946   6.316
 5563SOL    HW233832   2.669   2.991   6.421
 5564SOL     OW33833   5.324   4.139   1.138
 5564SOL    HW133834   5.293   4.065   1.190
 5564SOL    HW233835   5.356   4.100   1.057
 5565SOL     OW33836   2.790   4.052   7.269
 5565SOL    HW133837   2.804   3.994   7.343
 5565SOL    HW233838   2.777   3.994   7.194
 5566SOL     OW33839   2.853   1.704   6.572
 5566SOL    HW133840   2.871   1.655   6.653
 5566SOL    HW233841   2.759   1.721   6.575
 5567SOL     OW33842   3.513   4.235   0.877
 5567SOL    HW133843   3.489   4.170   0.811
 5567SOL    HW233844   3.557   4.305   0.828
 5568SOL     OW33845   1.727   4.759   1.375
 5568SOL    HW133846   1.733   4.723   1.286
 5568SOL    HW233847   1.709   4.683   1.430
 5569SOL     OW33848   3.032   0.418   1.471
 5569SOL    HW133849   2.942   0.415   1.503
 5569SOL    HW233850   3.084   0.427   1.551
 5570SOL     OW33851   0.589   4.172   7.799
 5570SOL    HW133852   0.605   4.255   7.755
 5570SOL    HW233853   0.664   4.161   7.857
 5571SOL     OW33854   5.366   0.911  -0.001
 5571SOL    HW133855   5.285   0.895  -0.050
 5571SOL    HW233856   5.342   0.894   0.090
 5572SOL     OW33857   4.551   2.305   7.748
 5572SOL    HW133858   4.513   2.380   7.702
 5572SOL    HW233859   4.616   2.270   7.687
 5573SOL     OW33860   1.516   3.152   6.729
 5573SOL    HW133861   1.423   3.170   6.717
 5573SOL    HW233862   1.533   3.077   6.672
 5574SOL     OW33863   0.450   6.033   0.555
 5574SOL    HW133864   0.518   6.078   0.505
 5574SOL    HW233865   0.395   6.103   0.589
 5575SOL     OW33866   3.155   5.584   7.072
 5575SOL    HW133867   3.236   5.596   7.121
 5575SOL    HW233868   3.112   5.510   7.115
 5576SOL     OW33869   1.207   3.024   0.311
 5576SOL    HW133870   1.264   2.983   0.246
 5576SOL    HW233871   1.249   3.108   0.330
 5577SOL     OW33872   5.327   0.197   6.828
 5577SOL    HW133873   5.390   0.130   6.802
 5577SOL    HW233874   5.366   0.279   6.800
 5578SOL     OW33875   1.766   6.029   6.865
 5578SOL    HW133876   1.838   5.979   6.903
 5578SOL    HW233877   1.700   5.964   6.842
 5579SOL     OW33878   0.887   3.167   7.557
 5579SOL    HW133879   0.845   3.081   7.564
 5579SOL    HW233880   0.818   3.224   7.524
 5580SOL     OW33881   1.034   4.282   1.373
 5580SOL    HW133882   0.995   4.333   1.303
 5580SOL    HW233883   1.102   4.230   1.330
 5581SOL     OW33884   3.769   5.301   7.599
 5581SOL    HW133885   3.729   5.257   7.524
 5581SOL    HW233886   3.699   5.355   7.636
 5582SOL     OW33887   3.819   5.083   1.619
 5582SOL    HW133888   3.879   5.022   1.662
 5582SOL    HW233889   3.821   5.057   1.526
 5583SOL     OW33890   4.590   4.018   1.144
 5583SOL    HW133891   4.499   4.032   1.171
 5583SOL    HW233892   4.642   4.044   1.220
 5584SOL     OW33893   3.964   5.714   2.048
 5584SOL    HW133894   4.051   5.704   2.087
 5584SOL    HW233895   3.905   5.671   2.109
 5585SOL     OW33896   5.705   1.101   1.893
 5585SOL    HW133897   5.649   1.045   1.947
 5585SOL    HW233898   5.690   1.189   1.928
 5586SOL     OW33899   2.395   1.441   0.751
 5586SOL    HW133900   2.352   1.440   0.666
 5586SOL    HW233901   2.420   1.532   0.764
 5587SOL     OW33902   0.066   0.957   5.594
 5587SOL    HW133903   0.152   0.985   5.623
 5587SOL    HW233904   0.081   0.871   5.555
 5588SOL     OW33905   1.510   1.956   7.238
 5588SOL    HW133906   1.568   2.030   7.218
 5588SOL    HW233907   1.567   1.893   7.281
 5589SOL     OW33908   4.261   2.079   0.620
 5589SOL    HW133909   4.323   2.022   0.575
 5589SOL    HW233910   4.308   2.162   0.629
 5590SOL     OW33911   4.140   5.532   6.556
 5590SOL    HW133912   4.171   5.498   6.640
 5590SOL    HW233913   4.214   5.579   6.519
 5591SOL     OW33914   3.731   1.345   1.024
 5591SOL    HW133915   3.734   1.263   0.975
 5591SOL    HW233916   3.676   1.402   0.971
 5592SOL     OW33917   3.207   0.307   6.942
 5592SOL    HW133918   3.239   0.290   6.853
 5592SOL    HW233919   3.261   0.251   6.997
 5593SOL     OW33920   3.964   3.891   5.777
 5593SOL    HW133921   3.968   3.984   5.756
 5593SOL    HW233922   3.933   3.849   5.697
 5594SOL     OW33923   3.551   5.950   0.579
 5594SOL    HW133924   3.478   5.980   0.524
 5594SOL    HW233925   3.614   6.022   0.576
 5595SOL     OW33926   5.976   0.766   6.616
 5595SOL    HW133927   5.955   0.830   6.684
 5595SOL    HW233928   5.949   0.808   6.535
 5596SOL     OW33929   2.945   3.278   5.410
 5596SOL    HW133930   2.992   3.361   5.402
 5596SOL    HW233931   3.011   3.216   5.438
 5597SOL     OW33932   3.564   1.108   7.223
 5597SOL    HW133933   3.614   1.030   7.245
 5597SOL    HW233934   3.479   1.096   7.266
 5598SOL     OW33935   1.340   1.726   2.565
 5598SOL    HW133936   1.391   1.776   2.629
 5598SOL    HW233937   1.287   1.792   2.520
 5599SOL     OW33938   2.047   0.383   5.803
 5599SOL    HW133939   1.985   0.411   5.870
 5599SOL    HW233940   2.051   0.456   5.742
 5600SOL     OW33941   5.904   5.066   6.513
 5600SOL    HW133942   5.810   5.053   6.499
 5600SOL    HW233943   5.911   5.086   6.606
 5601SOL     OW33944   2.839   5.408   6.746
 5601SOL    HW133945   2.765   5.404   6.806
 5601SOL    HW233946   2.882   5.491   6.766
 5602SOL     OW33947   6.220   4.969   6.982
 5602SOL    HW133948   6.197   5.061   6.995
 5602SOL    HW233949   6.294   4.971   6.922
 5603SOL     OW33950   6.350   3.946   6.135
 5603SOL    HW133951   6.294   4.014   6.173
 5603SOL    HW233952   6.292   3.871   6.122
 5604SOL     OW33953   4.189   3.461   0.633
 5604SOL    HW133954   4.193   3.374   0.669
 5604SOL    HW233955   4.249   3.459   0.558
 5605SOL     OW33956   0.225   0.148   1.151
 5605SOL    HW133957   0.285   0.223   1.146
 5605SOL    HW233958   0.173   0.164   1.230
 5606SOL     OW33959   3.247   1.087   7.155
 5606SOL    HW133960   3.172   1.051   7.202
 5606SOL    HW233961   3.259   1.027   7.081
 5607SOL     OW33962   4.625   1.434   6.210
 5607SOL    HW133963   4.692   1.367   6.218
 5607SOL    HW233964   4.656   1.506   6.265
 5608SOL     OW33965   1.608   4.237   1.741
 5608SOL    HW133966   1.565   4.248   1.826
 5608SOL    HW233967   1.547   4.184   1.690
 5609SOL     OW33968   3.131   2.695   1.360
 5609SOL    HW133969   3.159   2.685   1.451
 5609SOL    HW233970   3.212   2.691   1.309
 5610SOL     OW33971   5.898   1.068   0.828
 5610SOL    HW133972   5.909   0.977   0.800
 5610SOL    HW233973   5.876   1.115   0.747
 5611SOL     OW33974   2.340   4.050   0.533
 5611SOL    HW133975   2.254   4.068   0.570
 5611SOL    HW233976   2.324   3.988   0.463
 5612SOL     OW33977   0.314   4.878   1.836
 5612SOL    HW133978   0.283   4.961   1.874
 5612SOL    HW233979   0.374   4.905   1.767
 5613SOL     OW33980   6.253   6.324   1.966
 5613SOL    HW133981   6.163   6.344   1.993
 5613SOL    HW233982   6.275   6.243   2.012
 5614SOL     OW33983   3.766   2.635   5.998
 5614SOL    HW133984   3.702   2.631   6.069
 5614SOL    HW233985   3.742   2.562   5.941
 5615SOL     OW33986   4.758   4.092   1.357
 5615SOL    HW133987   4.729   4.063   1.444
 5615SOL    HW233988   4.854   4.086   1.360
 5616SOL     OW33989   5.886   6.127   0.917
 5616SOL    HW133990   5.842   6.152   0.836
 5616SOL    HW233991   5.828   6.063   0.957
 5617SOL     OW33992   5.119   0.093   7.393
 5617SOL    HW133993   5.150   0.144   7.318
 5617SOL    HW233994   5.062   0.153   7.441
 5618SOL     OW33995   0.839   1.404   0.324
 5618SOL    HW133996   0.811   1.477   0.380
 5618SOL    HW233997   0.817   1.326   0.374
 5619SOL     OW33998   6.439   3.668   6.457
 5619SOL    HW133999   6.499   3.742   6.446
 5619SOL    HW234000   6.377   3.677   6.384
 5620SOL     OW34001   2.718   2.503   6.684
 5620SOL    HW134002   2.648   2.468   6.628
 5620SOL    HW234003   2.720   2.597   6.664
 5621SOL     OW34004   2.085   5.361   0.294
 5621SOL    HW134005   2.046   5.413   0.223
 5621SOL    HW234006   2.152   5.419   0.332
 5622SOL     OW34007   3.980   2.548   6.550
 5622SOL    HW134008   3.931   2.575   6.472
 5622SOL    HW234009   3.935   2.469   6.581
 5623SOL     OW34010   5.817   4.160   6.004
 5623SOL    HW134011   5.857   4.109   5.933
 5623SOL    HW234012   5.854   4.247   5.994
 5624SOL     OW34013   1.982   0.035   0.228
 5624SOL    HW134014   2.021   0.102   0.172
 5624SOL    HW234015   1.964   0.079   0.310
 5625SOL     OW34016   2.993   2.528   1.221
 5625SOL    HW134017   3.005   2.444   1.267
 5625SOL    HW234018   3.045   2.590   1.271
 5626SOL     OW34019   5.255   6.228   7.227
 5626SOL    HW134020   5.167   6.267   7.221
 5626SOL    HW234021   5.293   6.241   7.140
 5627SOL     OW34022   3.833   1.631   1.192
 5627SOL    HW134023   3.846   1.536   1.185
 5627SOL    HW234024   3.853   1.651   1.283
 5628SOL     OW34025   1.628   0.877   6.314
 5628SOL    HW134026   1.587   0.834   6.389
 5628SOL    HW234027   1.657   0.805   6.258
 5629SOL     OW34028   2.349   2.754   0.720
 5629SOL    HW134029   2.319   2.690   0.656
 5629SOL    HW234030   2.308   2.836   0.694
 5630SOL     OW34031   3.100   2.106   1.711
 5630SOL    HW134032   3.164   2.050   1.668
 5630SOL    HW234033   3.150   2.183   1.738
 5631SOL     OW34034   2.503   5.741   7.154
 5631SOL    HW134035   2.461   5.675   7.208
 5631SOL    HW234036   2.570   5.693   7.105
 5632SOL     OW34037   0.464   5.306   0.008
 5632SOL    HW134038   0.493   5.395  -0.015
 5632SOL    HW234039   0.370   5.306  -0.011
 5633SOL     OW34040   4.035   4.107   7.742
 5633SOL    HW134041   4.020   4.046   7.669
 5633SOL    HW234042   4.106   4.163   7.712
 5634SOL     OW34043   6.352   0.949   1.434
 5634SOL    HW134044   6.305   1.033   1.434
 5634SOL    HW234045   6.321   0.904   1.355
 5635SOL     OW34046   1.100   3.369   5.676
 5635SOL    HW134047   1.042   3.418   5.618
 5635SOL    HW234048   1.158   3.436   5.713
 5636SOL     OW34049   5.541   4.699   7.286
 5636SOL    HW134050   5.498   4.643   7.351
 5636SOL    HW234051   5.610   4.743   7.335
 5637SOL     OW34052   1.984   0.953   1.556
 5637SOL    HW134053   1.906   1.009   1.562
 5637SOL    HW234054   1.986   0.907   1.640
 5638SOL     OW34055   4.232   4.711   5.433
 5638SOL    HW134056   4.165   4.778   5.425
 5638SOL    HW234057   4.309   4.758   5.468
 5639SOL     OW34058   4.445   5.337   6.426
 5639SOL    HW134059   4.377   5.280   6.462
 5639SOL    HW234060   4.448   5.315   6.333
 5640SOL     OW34061   4.077   5.583   6.952
 5640SOL    HW134062   3.985   5.610   6.957
 5640SOL    HW234063   4.119   5.654   6.903
 5641SOL     OW34064   5.111   3.675   0.344
 5641SOL    HW134065   5.117   3.709   0.255
 5641SOL    HW234066   5.017   3.673   0.362
 5642SOL     OW34067   5.609   2.327   7.629
 5642SOL    HW134068   5.675   2.286   7.685
 5642SOL    HW234069   5.619   2.421   7.646
 5643SOL     OW34070   1.074   5.790   7.155
 5643SOL    HW134071   1.030   5.706   7.167
 5643SOL    HW234072   1.167   5.768   7.149
 5644SOL     OW34073   1.336   0.906   6.100
 5644SOL    HW134074   1.383   0.934   6.022
 5644SOL    HW234075   1.269   0.973   6.114
 5645SOL     OW34076   1.186   2.463   1.934
 5645SOL    HW134077   1.142   2.379   1.927
 5645SOL    HW234078   1.255   2.449   1.998
 5646SOL     OW34079   5.838   3.491   7.405
 5646SOL    HW134080   5.787   3.537   7.338
 5646SOL    HW234081   5.834   3.548   7.481
 5647SOL     OW34082   1.104   4.185   0.026
 5647SOL    HW134083   1.140   4.214  -0.058
 5647SOL    HW234084   1.178   4.191   0.087
 5648SOL     OW34085   1.617   2.363   0.491
 5648SOL    HW134086   1.554   2.324   0.552
 5648SOL    HW234087   1.571   2.365   0.407
 5649SOL     OW34088   0.685   2.150   5.887
 5649SOL    HW134089   0.777   2.173   5.879
 5649SOL    HW234090   0.642   2.196   5.815
 5650SOL     OW34091   5.554   2.227   0.925
 5650SOL    HW134092   5.492   2.162   0.892
 5650SOL    HW234093   5.507   2.311   0.918
 5651SOL     OW34094   2.392   4.949   0.966
 5651SOL    HW134095   2.341   4.964   1.046
 5651SOL    HW234096   2.458   4.885   0.992
 5652SOL     OW34097   4.658   5.389   0.926
 5652SOL    HW134098   4.589   5.419   0.986
 5652SOL    HW234099   4.611   5.341   0.858
 5653SOL     OW34100   6.166   3.467   7.306
 5653SOL    HW134101   6.171   3.403   7.236
 5653SOL    HW234102   6.079   3.504   7.297
 5654SOL     OW34103   4.592   1.847   0.754
 5654SOL    HW134104   4.658   1.875   0.818
 5654SOL    HW234105   4.565   1.760   0.784
 5655SOL     OW34106   3.659   3.702   0.300
 5655SOL    HW134107   3.717   3.626   0.307
 5655SOL    HW234108   3.583   3.670   0.250
 5656MOL     C134109   4.027   3.000   5.833
 5656MOL     C234110   4.062   3.092   5.944
 5656MOL     N134111   3.816   2.925   5.940
 5656MOL     N234112   3.977   3.172   5.997
 5656MOL     C334113   3.766   3.038   6.002
 5656MOL     C434114   3.833   3.170   5.969
 5656MOL     H134115   3.818   3.198   5.864
 5656MOL     H234116   3.776   3.247   6.023
 5656MOL     C534117   3.889   2.830   5.734
 5656MOL     C634118   3.973   2.830   5.622
 5656MOL     C734119   3.910   2.925   5.834
 5656MOL     C834120   4.084   2.913   5.614
 5656MOL     C934121   4.115   2.993   5.725
 5656MOL     H334122   3.953   2.770   5.533
 5656MOL     H434123   4.208   3.049   5.719
 5656MOL     H534124   3.809   2.758   5.749
 5656MOL     O134125   3.681   3.024   6.088
 5656MOL    C1034126   4.201   3.115   5.987
 5656MOL    C1134127   4.252   3.235   6.038
 5656MOL     N334128   4.278   3.006   5.985
 5656MOL    C1234129   4.385   3.250   6.079
 5656MOL    C1334130   4.406   3.016   6.023
 5656MOL    C1434131   4.465   3.137   6.059
 5656MOL     H634132   4.191   3.325   6.048
 5656MOL     H734133   4.418   3.347   6.116
 5656MOL     H834134   4.465   2.926   6.010
 5656MOL     H934135   4.572   3.139   6.080
 5656MOL    H1034136   3.757   2.843   5.952
 5656MOL    BR134137   4.213   2.912   5.473
 5656MOL     EP34138   4.348   2.911   5.323
   6.44291   6.44291   7.80027
