POPC bilayer and 5FIBZ with EP hydrated t= 60690.00000 step= 345000
34138
    1PA    C116    1   0.770   2.677   3.866
    1PA    H16R    2   0.772   2.568   3.853
    1PA    H16S    3   0.874   2.711   3.855
    1PA    H16T    4   0.717   2.715   3.779
    1PA    C115    5   0.695   2.710   3.996
    1PA    H15R    6   0.667   2.815   3.985
    1PA    H15S    7   0.605   2.650   4.009
    1PA    C114    8   0.786   2.688   4.118
    1PA    H14R    9   0.832   2.589   4.126
    1PA    H14S   10   0.874   2.752   4.105
    1PA    C113   11   0.717   2.718   4.251
    1PA    H13R   12   0.696   2.824   4.269
    1PA    H13S   13   0.618   2.671   4.241
    1PA    C112   14   0.780   2.644   4.370
    1PA    H12R   15   0.704   2.636   4.448
    1PA    H12S   16   0.827   2.551   4.339
    1PA    C111   17   0.892   2.735   4.425
    1PA    H11R   18   0.956   2.769   4.343
    1PA    H11S   19   0.843   2.820   4.472
    1PA    C110   20   0.979   2.671   4.535
    1PA    H10R   21   0.904   2.647   4.610
    1PA    H10S   22   1.029   2.580   4.500
    1PA     C19   23   1.075   2.774   4.595
    1PA     H9R   24   1.146   2.811   4.520
    1PA     H9S   25   1.025   2.865   4.627
    1PA     C18   26   1.154   2.707   4.709
    1PA     H8R   27   1.080   2.684   4.786
    1PA     H8S   28   1.199   2.613   4.674
    1PA     C17   29   1.262   2.799   4.766
    1PA     H7R   30   1.338   2.807   4.687
    1PA     H7S   31   1.234   2.901   4.792
    1PA     C16   32   1.337   2.732   4.882
    1PA     H6R   33   1.283   2.729   4.976
    1PA     H6S   34   1.357   2.628   4.854
    1PA     C15   35   1.465   2.811   4.915
    1PA     H5R   36   1.516   2.845   4.825
    1PA     H5S   37   1.435   2.903   4.967
    1PA     C14   38   1.556   2.726   5.004
    1PA     H4R   39   1.572   2.631   4.952
    1PA     H4S   40   1.657   2.766   5.007
    1PA     C13   41   1.506   2.714   5.149
    1PA     H3R   42   1.496   2.808   5.204
    1PA     H3S   43   1.405   2.674   5.155
    1PA     C12   44   1.609   2.632   5.228
    1PA     H2R   45   1.636   2.534   5.188
    1PA     H2S   46   1.698   2.693   5.244
    2PC     C11   47   1.557   2.606   5.367
    2PC     O12   48   1.571   2.501   5.427
    2PC     O11   49   1.503   2.712   5.430
    2PC      C1   50   1.493   2.727   5.573
    2PC      HR   51   1.533   2.647   5.637
    2PC      HS   52   1.565   2.805   5.599
    2PC      C2   53   1.347   2.762   5.607
    2PC      HX   54   1.341   2.790   5.713
    2PC      C3   55   1.241   2.659   5.569
    2PC      HA   56   1.206   2.667   5.466
    2PC      HB   57   1.286   2.560   5.571
    2PC     O31   58   1.134   2.650   5.665
    2PC     P31   59   1.153   2.589   5.811
    2PC     O32   60   1.002   2.557   5.853
    2PC     C31   61   0.975   2.423   5.899
    2PC     H1A   62   0.952   2.363   5.811
    2PC     H1B   63   1.073   2.392   5.937
    2PC     C32   64   0.864   2.423   6.005
    2PC     H2A   65   0.782   2.474   5.954
    2PC     H2B   66   0.839   2.321   6.033
    2PC     N31   67   0.907   2.493   6.130
    2PC     C33   68   0.927   2.641   6.114
    2PC     H3A   69   0.927   2.687   6.213
    2PC     H3B   70   1.017   2.670   6.060
    2PC     H3C   71   0.837   2.669   6.058
    2PC     C34   72   0.809   2.463   6.241
    2PC     H4A   73   0.711   2.490   6.203
    2PC     H4B   74   0.808   2.355   6.251
    2PC     H4C   75   0.843   2.525   6.324
    2PC     C35   76   1.036   2.445   6.189
    2PC     H5A   77   1.058   2.515   6.269
    2PC     H5B   78   1.118   2.447   6.118
    2PC     H5C   79   1.016   2.343   6.224
    2PC     O33   80   1.229   2.462   5.802
    2PC     O34   81   1.222   2.680   5.905
    2PC     O21   82   1.307   2.882   5.539
    2PC     C21   83   1.359   2.998   5.583
    2PC     O22   84   1.446   3.006   5.667
    3OL     C12   85   1.298   3.112   5.506
    3OL     H2R   86   1.339   3.210   5.532
    3OL     H2S   87   1.193   3.121   5.535
    3OL     C13   88   1.321   3.092   5.356
    3OL     H3R   89   1.237   3.040   5.310
    3OL     H3S   90   1.413   3.037   5.339
    3OL     C14   91   1.341   3.228   5.287
    3OL     H4R   92   1.429   3.277   5.331
    3OL     H4S   93   1.261   3.295   5.316
    3OL     C15   94   1.366   3.209   5.136
    3OL     H5R   95   1.436   3.129   5.111
    3OL     H5S   96   1.416   3.286   5.077
    3OL     C16   97   1.225   3.193   5.078
    3OL     H6R   98   1.157   3.271   5.113
    3OL     H6S   99   1.180   3.097   5.104
    3OL     C17  100   1.229   3.209   4.925
    3OL     H7R  101   1.147   3.143   4.897
    3OL     H7S  102   1.323   3.168   4.887
    3OL     C18  103   1.203   3.350   4.870
    3OL     H8R  104   1.228   3.350   4.764
    3OL     H8S  105   1.251   3.436   4.918
    3OL     C19  106   1.055   3.378   4.875
    3OL     H9R  107   1.012   3.383   4.975
    3OL    C110  108   0.970   3.414   4.780
    3OL    H10R  109   0.867   3.437   4.806
    3OL    C111  110   1.004   3.445   4.636
    3OL    H11R  111   1.113   3.436   4.628
    3OL    H11S  112   0.977   3.550   4.625
    3OL    C112  113   0.934   3.355   4.534
    3OL    H12R  114   0.825   3.367   4.540
    3OL    H12S  115   0.943   3.252   4.571
    3OL    C113  116   0.983   3.373   4.390
    3OL    H13R  117   0.979   3.279   4.334
    3OL    H13S  118   1.086   3.407   4.381
    3OL    C114  119   0.894   3.469   4.310
    3OL    H14R  120   0.881   3.567   4.357
    3OL    H14S  121   0.794   3.423   4.316
    3OL    C115  122   0.941   3.472   4.164
    3OL    H15R  123   0.932   3.371   4.124
    3OL    H15S  124   1.047   3.498   4.163
    3OL    C116  125   0.851   3.560   4.076
    3OL    H16R  126   0.845   3.661   4.117
    3OL    H16S  127   0.747   3.525   4.081
    3OL    C117  128   0.896   3.563   3.929
    3OL    H17R  129   1.002   3.584   3.918
    3OL    H17S  130   0.843   3.648   3.884
    3OL    C118  131   0.871   3.434   3.848
    3OL    H18R  132   0.881   3.459   3.742
    3OL    H18S  133   0.767   3.404   3.863
    3OL    H18T  134   0.942   3.354   3.868
    1PA    C116  135  -0.004   1.791   4.264
    1PA    H16R  136   0.027   1.718   4.188
    1PA    H16S  137   0.036   1.880   4.216
    1PA    H16T  138  -0.113   1.780   4.271
    1PA    C115  139   0.051   1.777   4.406
    1PA    H15R  140  -0.001   1.844   4.475
    1PA    H15S  141   0.038   1.674   4.441
    1PA    C114  142   0.197   1.822   4.406
    1PA    H14R  143   0.255   1.746   4.352
    1PA    H14S  144   0.219   1.917   4.356
    1PA    C113  145   0.244   1.837   4.551
    1PA    H13R  146   0.205   1.927   4.599
    1PA    H13S  147   0.234   1.742   4.603
    1PA    C112  148   0.395   1.867   4.544
    1PA    H12R  149   0.446   1.784   4.494
    1PA    H12S  150   0.421   1.960   4.494
    1PA    C111  151   0.455   1.887   4.683
    1PA    H11R  152   0.557   1.926   4.674
    1PA    H11S  153   0.400   1.967   4.733
    1PA    C110  154   0.458   1.752   4.755
    1PA    H10R  155   0.460   1.670   4.683
    1PA    H10S  156   0.552   1.753   4.811
    1PA     C19  157   0.340   1.724   4.850
    1PA     H9R  158   0.319   1.807   4.918
    1PA     H9S  159   0.249   1.716   4.790
    1PA     C18  160   0.350   1.589   4.922
    1PA     H8R  161   0.257   1.554   4.968
    1PA     H8S  162   0.375   1.511   4.850
    1PA     C17  163   0.465   1.574   5.023
    1PA     H7R  164   0.469   1.470   5.054
    1PA     H7S  165   0.554   1.600   4.965
    1PA     C16  166   0.441   1.651   5.153
    1PA     H6R  167   0.434   1.755   5.119
    1PA     H6S  168   0.344   1.612   5.185
    1PA     C15  169   0.559   1.642   5.251
    1PA     H5R  170   0.604   1.543   5.252
    1PA     H5S  171   0.637   1.714   5.226
    1PA     C14  172   0.519   1.690   5.392
    1PA     H4R  173   0.492   1.796   5.382
    1PA     H4S  174   0.441   1.629   5.439
    1PA     C13  175   0.641   1.687   5.484
    1PA     H3R  176   0.687   1.588   5.483
    1PA     H3S  177   0.719   1.757   5.452
    1PA     C12  178   0.599   1.715   5.629
    1PA     H2R  179   0.577   1.822   5.639
    1PA     H2S  180   0.506   1.664   5.656
    2PC     C11  181   0.710   1.677   5.724
    2PC     O12  182   0.714   1.567   5.776
    2PC     O11  183   0.798   1.776   5.740
    2PC      C1  184   0.925   1.749   5.804
    2PC      HR  185   0.908   1.710   5.905
    2PC      HS  186   0.983   1.670   5.756
    2PC      C2  187   1.004   1.880   5.815
    2PC      HX  188   1.093   1.860   5.875
    2PC      C3  189   0.911   1.991   5.866
    2PC      HA  190   0.865   2.040   5.780
    2PC      HB  191   0.832   1.954   5.933
    2PC     O31  192   0.998   2.087   5.930
    2PC     P31  193   1.008   2.087   6.090
    2PC     O32  194   1.150   2.160   6.109
    2PC     C31  195   1.265   2.081   6.074
    2PC     H1A  196   1.273   1.987   6.129
    2PC     H1B  197   1.263   2.060   5.966
    2PC     C32  198   1.398   2.154   6.096
    2PC     H2A  199   1.461   2.069   6.072
    2PC     H2B  200   1.406   2.237   6.025
    2PC     N31  201   1.433   2.200   6.235
    2PC     C33  202   1.323   2.282   6.294
    2PC     H3A  203   1.297   2.373   6.238
    2PC     H3B  204   1.226   2.231   6.291
    2PC     H3C  205   1.351   2.310   6.395
    2PC     C34  206   1.463   2.080   6.319
    2PC     H4A  207   1.557   2.038   6.284
    2PC     H4B  208   1.477   2.117   6.421
    2PC     H4C  209   1.379   2.010   6.318
    2PC     C35  210   1.547   2.298   6.236
    2PC     H5A  211   1.526   2.390   6.180
    2PC     H5B  212   1.637   2.256   6.190
    2PC     H5C  213   1.575   2.326   6.337
    2PC     O33  214   0.906   2.156   6.172
    2PC     O34  215   1.012   1.948   6.141
    2PC     O21  216   1.050   1.917   5.684
    2PC     C21  217   1.153   1.864   5.616
    2PC     O22  218   1.206   1.760   5.649
    3OL     C12  219   1.177   1.949   5.494
    3OL     H2R  220   1.282   1.971   5.474
    3OL     H2S  221   1.115   2.039   5.495
    3OL     C13  222   1.131   1.861   5.377
    3OL     H3R  223   1.023   1.849   5.383
    3OL     H3S  224   1.184   1.766   5.389
    3OL     C14  225   1.157   1.921   5.238
    3OL     H4R  226   1.265   1.939   5.231
    3OL     H4S  227   1.107   2.018   5.231
    3OL     C15  228   1.105   1.819   5.137
    3OL     H5R  229   0.999   1.794   5.141
    3OL     H5S  230   1.154   1.721   5.139
    3OL     C16  231   1.119   1.881   4.997
    3OL     H6R  232   1.212   1.937   4.996
    3OL     H6S  233   1.034   1.950   4.992
    3OL     C17  234   1.096   1.791   4.875
    3OL     H7R  235   1.104   1.848   4.783
    3OL     H7S  236   0.991   1.760   4.874
    3OL     C18  237   1.192   1.672   4.874
    3OL     H8R  238   1.156   1.599   4.947
    3OL     H8S  239   1.295   1.693   4.902
    3OL     C19  240   1.183   1.609   4.737
    3OL     H9R  241   1.114   1.524   4.732
    3OL    C110  242   1.258   1.644   4.633
    3OL    H10R  243   1.259   1.587   4.541
    3OL    C111  244   1.352   1.761   4.632
    3OL    H11R  245   1.456   1.736   4.611
    3OL    H11S  246   1.372   1.789   4.735
    3OL    C112  247   1.294   1.874   4.545
    3OL    H12R  248   1.343   1.971   4.557
    3OL    H12S  249   1.189   1.886   4.569
    3OL    C113  250   1.301   1.842   4.395
    3OL    H13R  251   1.239   1.754   4.375
    3OL    H13S  252   1.403   1.822   4.363
    3OL    C114  253   1.254   1.955   4.302
    3OL    H14R  254   1.259   1.925   4.197
    3OL    H14S  255   1.321   2.041   4.305
    3OL    C115  256   1.106   1.983   4.331
    3OL    H15R  257   1.100   2.025   4.431
    3OL    H15S  258   1.054   1.886   4.336
    3OL    C116  259   1.031   2.065   4.226
    3OL    H16R  260   1.034   2.001   4.137
    3OL    H16S  261   1.075   2.162   4.203
    3OL    C117  262   0.885   2.086   4.268
    3OL    H17R  263   0.883   2.137   4.364
    3OL    H17S  264   0.828   1.993   4.279
    3OL    C118  265   0.803   2.164   4.163
    3OL    H18R  266   0.853   2.260   4.146
    3OL    H18S  267   0.707   2.168   4.214
    3OL    H18T  268   0.805   2.107   4.070
    1PA    C116  269   5.848   1.653   4.517
    1PA    H16R  270   5.790   1.740   4.550
    1PA    H16S  271   5.864   1.580   4.596
    1PA    H16T  272   5.800   1.619   4.425
    1PA    C115  273   5.985   1.708   4.476
    1PA    H15R  274   5.981   1.767   4.384
    1PA    H15S  275   6.041   1.763   4.552
    1PA    C114  276   6.079   1.589   4.455
    1PA    H14R  277   6.185   1.618   4.458
    1PA    H14S  278   6.069   1.516   4.536
    1PA    C113  279   6.067   1.526   4.316
    1PA    H13R  280   5.965   1.505   4.282
    1PA    H13S  281   6.105   1.602   4.247
    1PA    C112  282   6.157   1.402   4.311
    1PA    H12R  283   6.200   1.397   4.211
    1PA    H12S  284   6.246   1.415   4.373
    1PA    C111  285   6.074   1.277   4.344
    1PA    H11R  286   6.014   1.284   4.435
    1PA    H11S  287   6.008   1.266   4.258
    1PA    C110  288   6.159   1.150   4.342
    1PA    H10R  289   6.208   1.146   4.244
    1PA    H10S  290   6.239   1.161   4.416
    1PA     C19  291   6.074   1.024   4.365
    1PA     H9R  292   5.986   1.031   4.301
    1PA     H9S  293   6.128   0.938   4.325
    1PA     C18  294   6.028   0.999   4.510
    1PA     H8R  295   6.013   1.092   4.565
    1PA     H8S  296   5.936   0.941   4.506
    1PA     C17  297   6.146   0.931   4.579
    1PA     H7R  298   6.169   0.832   4.537
    1PA     H7S  299   6.239   0.986   4.566
    1PA     C16  300   6.117   0.910   4.729
    1PA     H6R  301   6.071   1.000   4.772
    1PA     H6S  302   6.039   0.838   4.751
    1PA     C15  303   6.249   0.889   4.805
    1PA     H5R  304   6.300   0.804   4.759
    1PA     H5S  305   6.321   0.972   4.805
    1PA     C14  306   6.215   0.864   4.952
    1PA     H4R  307   6.156   0.953   4.979
    1PA     H4S  308   6.161   0.772   4.975
    1PA     C13  309   6.339   0.870   5.042
    1PA     H3R  310   6.414   0.803   4.999
    1PA     H3S  311   6.378   0.973   5.048
    1PA     C12  312   6.308   0.821   5.184
    1PA     H2R  313   6.265   0.721   5.183
    1PA     H2S  314   6.402   0.821   5.239
    2PC     C11  315   6.231   0.924   5.263
    2PC     O12  316   6.279   1.013   5.331
    2PC     O11  317   6.098   0.908   5.255
    2PC      C1  318   6.013   0.965   5.357
    2PC      HR  319   5.933   0.895   5.383
    2PC      HS  320   6.065   0.964   5.453
    2PC      C2  321   5.976   1.112   5.334
    2PC      HX  322   6.064   1.171   5.305
    2PC      C3  323   5.928   1.187   5.459
    2PC      HA  324   6.013   1.211   5.523
    2PC      HB  325   5.899   1.289   5.431
    2PC     O31  326   5.824   1.111   5.522
    2PC     P31  327   5.802   1.128   5.680
    2PC     O32  328   5.954   1.099   5.721
    2PC     C31  329   5.984   0.964   5.763
    2PC     H1A  330   5.903   0.930   5.828
    2PC     H1B  331   5.993   0.900   5.675
    2PC     C32  332   6.114   0.961   5.845
    2PC     H2A  333   6.123   0.862   5.893
    2PC     H2B  334   6.202   0.975   5.783
    2PC     N31  335   6.133   1.065   5.951
    2PC     C33  336   6.117   1.208   5.908
    2PC     H3A  337   6.141   1.260   6.001
    2PC     H3B  338   6.188   1.234   5.829
    2PC     H3C  339   6.013   1.225   5.879
    2PC     C34  340   6.033   1.049   6.062
    2PC     H4A  341   6.018   0.943   6.082
    2PC     H4B  342   6.087   1.093   6.146
    2PC     H4C  343   5.944   1.099   6.023
    2PC     C35  344   6.267   1.050   6.016
    2PC     H5A  345   6.279   1.110   6.106
    2PC     H5B  346   6.346   1.076   5.945
    2PC     H5C  347   6.278   0.944   6.039
    2PC     O33  348   5.754   1.260   5.728
    2PC     O34  349   5.716   1.028   5.747
    2PC     O21  350   5.884   1.121   5.223
    2PC     C21  351   5.861   1.236   5.159
    2PC     O22  352   5.909   1.339   5.203
    3OL     C12  353   5.767   1.220   5.042
    3OL     H2R  354   5.742   1.319   5.003
    3OL     H2S  355   5.676   1.174   5.081
    3OL     C13  356   5.837   1.135   4.936
    3OL     H3R  357   5.850   1.033   4.973
    3OL     H3S  358   5.933   1.183   4.917
    3OL     C14  359   5.756   1.125   4.806
    3OL     H4R  360   5.655   1.094   4.834
    3OL     H4S  361   5.788   1.032   4.758
    3OL     C15  362   5.767   1.248   4.715
    3OL     H5R  363   5.871   1.280   4.703
    3OL     H5S  364   5.721   1.340   4.753
    3OL     C16  365   5.721   1.211   4.574
    3OL     H6R  366   5.626   1.159   4.583
    3OL     H6S  367   5.791   1.140   4.528
    3OL     C17  368   5.700   1.331   4.480
    3OL     H7R  369   5.796   1.384   4.472
    3OL     H7S  370   5.626   1.399   4.521
    3OL     C18  371   5.651   1.294   4.339
    3OL     H8R  372   5.582   1.211   4.355
    3OL     H8S  373   5.737   1.260   4.282
    3OL     C19  374   5.577   1.409   4.274
    3OL     H9R  375   5.617   1.502   4.313
    3OL    C110  376   5.473   1.403   4.193
    3OL    H10R  377   5.434   1.495   4.150
    3OL    C111  378   5.404   1.277   4.149
    3OL    H11R  379   5.343   1.250   4.235
    3OL    H11S  380   5.468   1.195   4.115
    3OL    C112  381   5.309   1.314   4.034
    3OL    H12R  382   5.357   1.344   3.941
    3OL    H12S  383   5.251   1.405   4.055
    3OL    C113  384   5.206   1.202   4.013
    3OL    H13R  385   5.147   1.192   4.105
    3OL    H13S  386   5.248   1.104   3.990
    3OL    C114  387   5.103   1.238   3.905
    3OL    H14R  388   5.069   1.141   3.869
    3OL    H14S  389   5.147   1.299   3.826
    3OL    C115  390   4.983   1.308   3.969
    3OL    H15R  391   5.017   1.403   4.010
    3OL    H15S  392   4.956   1.248   4.057
    3OL    C116  393   4.866   1.338   3.874
    3OL    H16R  394   4.898   1.397   3.788
    3OL    H16S  395   4.791   1.396   3.928
    3OL    C117  396   4.805   1.206   3.825
    3OL    H17R  397   4.697   1.223   3.834
    3OL    H17S  398   4.833   1.120   3.886
    3OL    C118  399   4.845   1.178   3.680
    3OL    H18R  400   4.791   1.242   3.610
    3OL    H18S  401   4.826   1.073   3.656
    3OL    H18T  402   4.953   1.194   3.678
    1PA    C116  403   1.006   2.519   4.996
    1PA    H16R  404   1.089   2.584   5.027
    1PA    H16S  405   0.939   2.591   4.948
    1PA    H16T  406   1.035   2.444   4.922
    1PA    C115  407   0.926   2.451   5.107
    1PA    H15R  408   0.888   2.525   5.177
    1PA    H15S  409   0.841   2.398   5.061
    1PA    C114  410   1.021   2.361   5.187
    1PA    H14R  411   0.968   2.326   5.275
    1PA    H14S  412   1.058   2.278   5.126
    1PA    C113  413   1.146   2.435   5.239
    1PA    H13R  414   1.212   2.472   5.161
    1PA    H13S  415   1.122   2.524   5.298
    1PA    C112  416   1.232   2.349   5.332
    1PA    H12R  417   1.305   2.411   5.386
    1PA    H12S  418   1.175   2.304   5.414
    1PA    C111  419   1.307   2.232   5.266
    1PA    H11R  420   1.345   2.176   5.352
    1PA    H11S  421   1.233   2.173   5.212
    1PA    C110  422   1.411   2.285   5.168
    1PA    H10R  423   1.377   2.347   5.084
    1PA    H10S  424   1.484   2.340   5.228
    1PA     C19  425   1.488   2.168   5.105
    1PA     H9R  426   1.416   2.101   5.058
    1PA     H9S  427   1.558   2.206   5.031
    1PA     C18  428   1.562   2.082   5.209
    1PA     H8R  429   1.626   2.143   5.274
    1PA     H8S  430   1.485   2.043   5.276
    1PA     C17  431   1.642   1.967   5.147
    1PA     H7R  432   1.569   1.906   5.093
    1PA     H7S  433   1.703   2.015   5.070
    1PA     C16  434   1.729   1.886   5.243
    1PA     H6R  435   1.785   1.948   5.314
    1PA     H6S  436   1.664   1.824   5.305
    1PA     C15  437   1.820   1.787   5.168
    1PA     H5R  438   1.847   1.846   5.080
    1PA     H5S  439   1.913   1.762   5.220
    1PA     C14  440   1.745   1.663   5.116
    1PA     H4R  441   1.645   1.692   5.085
    1PA     H4S  442   1.799   1.616   5.034
    1PA     C13  443   1.735   1.558   5.227
    1PA     H3R  444   1.742   1.605   5.326
    1PA     H3S  445   1.632   1.522   5.232
    1PA     C12  446   1.841   1.447   5.217
    1PA     H2R  447   1.841   1.381   5.131
    1PA     H2S  448   1.938   1.495   5.207
    2PC     C11  449   1.838   1.358   5.339
    2PC     O12  450   1.867   1.402   5.449
    2PC     O11  451   1.819   1.228   5.313
    2PC      C1  452   1.833   1.138   5.424
    2PC      HR  453   1.797   1.043   5.384
    2PC      HS  454   1.933   1.140   5.468
    2PC      C2  455   1.727   1.167   5.532
    2PC      HX  456   1.759   1.261   5.578
    2PC      C3  457   1.738   1.068   5.648
    2PC      HA  458   1.828   1.090   5.706
    2PC      HB  459   1.650   1.073   5.712
    2PC     O31  460   1.733   0.930   5.605
    2PC     P31  461   1.772   0.820   5.715
    2PC     O32  462   1.679   0.860   5.839
    2PC     C31  463   1.588   0.756   5.880
    2PC     H1A  464   1.497   0.770   5.821
    2PC     H1B  465   1.626   0.656   5.858
    2PC     C32  466   1.551   0.781   6.027
    2PC     H2A  467   1.529   0.884   6.055
    2PC     H2B  468   1.464   0.717   6.044
    2PC     N31  469   1.643   0.734   6.136
    2PC     C33  470   1.593   0.772   6.272
    2PC     H3A  471   1.659   0.721   6.342
    2PC     H3B  472   1.601   0.880   6.280
    2PC     H3C  473   1.489   0.739   6.279
    2PC     C34  474   1.668   0.587   6.127
    2PC     H4A  475   1.687   0.559   6.023
    2PC     H4B  476   1.739   0.548   6.200
    2PC     H4C  477   1.569   0.542   6.141
    2PC     C35  478   1.770   0.810   6.116
    2PC     H5A  479   1.844   0.766   6.182
    2PC     H5B  480   1.750   0.917   6.125
    2PC     H5C  481   1.797   0.805   6.010
    2PC     O33  482   1.764   0.678   5.673
    2PC     O34  483   1.912   0.831   5.764
    2PC     O21  484   1.592   1.155   5.481
    2PC     C21  485   1.527   1.260   5.428
    2PC     O22  486   1.575   1.371   5.427
    3OL     C12  487   1.391   1.230   5.371
    3OL     H2R  488   1.326   1.287   5.436
    3OL     H2S  489   1.363   1.124   5.373
    3OL     C13  490   1.401   1.273   5.224
    3OL     H3R  491   1.483   1.226   5.167
    3OL     H3S  492   1.405   1.382   5.221
    3OL     C14  493   1.280   1.233   5.138
    3OL     H4R  494   1.194   1.279   5.187
    3OL     H4S  495   1.256   1.127   5.142
    3OL     C15  496   1.294   1.278   4.992
    3OL     H5R  497   1.398   1.260   4.963
    3OL     H5S  498   1.266   1.384   4.999
    3OL     C16  499   1.194   1.206   4.902
    3OL     H6R  500   1.093   1.239   4.928
    3OL     H6S  501   1.188   1.098   4.923
    3OL     C17  502   1.226   1.224   4.753
    3OL     H7R  503   1.330   1.202   4.725
    3OL     H7S  504   1.205   1.329   4.731
    3OL     C18  505   1.136   1.157   4.649
    3OL     H8R  506   1.031   1.181   4.668
    3OL     H8S  507   1.133   1.050   4.669
    3OL     C19  508   1.176   1.198   4.509
    3OL     H9R  509   1.187   1.305   4.494
    3OL    C110  510   1.193   1.124   4.401
    3OL    H10R  511   1.227   1.175   4.311
    3OL    C111  512   1.152   0.980   4.382
    3OL    H11R  513   1.062   0.969   4.322
    3OL    H11S  514   1.127   0.936   4.479
    3OL    C112  515   1.264   0.900   4.312
    3OL    H12R  516   1.235   0.796   4.304
    3OL    H12S  517   1.356   0.903   4.372
    3OL    C113  518   1.312   0.966   4.182
    3OL    H13R  519   1.361   1.060   4.210
    3OL    H13S  520   1.217   0.991   4.135
    3OL    C114  521   1.401   0.868   4.104
    3OL    H14R  522   1.362   0.766   4.092
    3OL    H14S  523   1.493   0.850   4.159
    3OL    C115  524   1.441   0.924   3.966
    3OL    H15R  525   1.519   0.856   3.931
    3OL    H15S  526   1.484   1.023   3.983
    3OL    C116  527   1.326   0.937   3.865
    3OL    H16R  528   1.361   0.966   3.766
    3OL    H16S  529   1.271   1.026   3.895
    3OL    C117  530   1.228   0.819   3.860
    3OL    H17R  531   1.164   0.834   3.948
    3OL    H17S  532   1.287   0.727   3.865
    3OL    C118  533   1.140   0.809   3.735
    3OL    H18R  534   1.209   0.803   3.652
    3OL    H18S  535   1.076   0.897   3.729
    3OL    H18T  536   1.070   0.724   3.738
    1PA    C116  537   0.599   1.437   3.945
    1PA    H16R  538   0.537   1.512   3.896
    1PA    H16S  539   0.568   1.335   3.921
    1PA    H16T  540   0.702   1.462   3.918
    1PA    C115  541   0.596   1.453   4.097
    1PA    H15R  542   0.649   1.374   4.152
    1PA    H15S  543   0.629   1.552   4.129
    1PA    C114  544   0.451   1.432   4.142
    1PA    H14R  545   0.397   1.521   4.110
    1PA    H14S  546   0.405   1.347   4.091
    1PA    C113  547   0.436   1.407   4.293
    1PA    H13R  548   0.476   1.306   4.310
    1PA    H13S  549   0.504   1.472   4.348
    1PA    C112  550   0.293   1.419   4.348
    1PA    H12R  551   0.264   1.524   4.357
    1PA    H12S  552   0.228   1.373   4.273
    1PA    C111  553   0.274   1.351   4.484
    1PA    H11R  554   0.278   1.243   4.467
    1PA    H11S  555   0.356   1.375   4.552
    1PA    C110  556   0.137   1.392   4.540
    1PA    H10R  557   0.125   1.500   4.540
    1PA    H10S  558   0.057   1.348   4.479
    1PA     C19  559   0.120   1.340   4.683
    1PA     H9R  560   0.146   1.233   4.684
    1PA     H9S  561   0.202   1.384   4.740
    1PA     C18  562  -0.010   1.376   4.755
    1PA     H8R  563  -0.006   1.485   4.748
    1PA     H8S  564  -0.100   1.343   4.702
    1PA     C17  565  -0.010   1.318   4.897
    1PA     H7R  566   0.002   1.210   4.887
    1PA     H7S  567   0.078   1.348   4.954
    1PA     C16  568  -0.146   1.344   4.964
    1PA     H6R  569  -0.161   1.452   4.958
    1PA     H6S  570  -0.225   1.300   4.902
    1PA     C15  571  -0.152   1.285   5.105
    1PA     H5R  572  -0.257   1.282   5.137
    1PA     H5S  573  -0.110   1.184   5.113
    1PA     C14  574  -0.073   1.375   5.201
    1PA     H4R  575   0.034   1.373   5.178
    1PA     H4S  576  -0.098   1.481   5.185
    1PA     C13  577  -0.101   1.340   5.347
    1PA     H3R  578  -0.133   1.236   5.361
    1PA     H3S  579  -0.008   1.346   5.403
    1PA     C12  580  -0.215   1.419   5.413
    1PA     H2R  581  -0.224   1.524   5.385
    1PA     H2S  582  -0.312   1.370   5.397
    2PC     C11  583  -0.194   1.416   5.562
    2PC     O12  584  -0.250   1.336   5.634
    2PC     O11  585  -0.093   1.495   5.604
    2PC      C1  586  -0.062   1.500   5.744
    2PC      HR  587   0.022   1.569   5.752
    2PC      HS  588  -0.154   1.518   5.799
    2PC      C2  589   0.003   1.368   5.790
    2PC      HX  590  -0.046   1.282   5.744
    2PC      C3  591   0.004   1.361   5.943
    2PC      HA  592  -0.103   1.362   5.968
    2PC      HB  593   0.048   1.265   5.974
    2PC     O31  594   0.070   1.471   6.007
    2PC     P31  595   0.071   1.492   6.166
    2PC     O32  596   0.134   1.349   6.203
    2PC     C31  597   0.264   1.335   6.264
    2PC     H1A  598   0.345   1.386   6.213
    2PC     H1B  599   0.263   1.371   6.367
    2PC     C32  600   0.295   1.185   6.253
    2PC     H2A  601   0.278   1.161   6.148
    2PC     H2B  602   0.397   1.163   6.285
    2PC     N31  603   0.207   1.090   6.328
    2PC     C33  604   0.259   0.950   6.315
    2PC     H3A  605   0.265   0.933   6.207
    2PC     H3B  606   0.363   0.940   6.348
    2PC     H3C  607   0.208   0.865   6.362
    2PC     C34  608   0.223   1.123   6.474
    2PC     H4A  609   0.172   1.219   6.488
    2PC     H4B  610   0.174   1.045   6.532
    2PC     H4C  611   0.327   1.119   6.506
    2PC     C35  612   0.060   1.088   6.297
    2PC     H5A  613   0.028   1.184   6.340
    2PC     H5B  614   0.022   0.999   6.347
    2PC     H5C  615   0.044   1.072   6.191
    2PC     O33  616   0.150   1.609   6.212
    2PC     O34  617  -0.056   1.506   6.241
    2PC     O21  618   0.136   1.364   5.734
    2PC     C21  619   0.215   1.256   5.745
    2PC     O22  620   0.182   1.148   5.790
    3OL     C12  621   0.360   1.282   5.716
    3OL     H2R  622   0.430   1.235   5.785
    3OL     H2S  623   0.398   1.384   5.727
    3OL     C13  624   0.385   1.232   5.573
    3OL     H3R  625   0.299   1.249   5.507
    3OL     H3S  626   0.414   1.127   5.576
    3OL     C14  627   0.508   1.300   5.511
    3OL     H4R  628   0.599   1.298   5.571
    3OL     H4S  629   0.483   1.406   5.508
    3OL     C15  630   0.548   1.251   5.371
    3OL     H5R  631   0.593   1.154   5.388
    3OL     H5S  632   0.627   1.315   5.331
    3OL     C16  633   0.434   1.235   5.268
    3OL     H6R  634   0.389   1.329   5.235
    3OL     H6S  635   0.369   1.168   5.326
    3OL     C17  636   0.474   1.171   5.135
    3OL     H7R  637   0.515   1.071   5.150
    3OL     H7S  638   0.548   1.235   5.086
    3OL     C18  639   0.347   1.163   5.050
    3OL     H8R  640   0.372   1.138   4.947
    3OL     H8S  641   0.307   1.263   5.036
    3OL     C19  642   0.249   1.068   5.115
    3OL     H9R  643   0.186   1.101   5.197
    3OL    C110  644   0.222   0.944   5.075
    3OL    H10R  645   0.135   0.903   5.127
    3OL    C111  646   0.315   0.853   4.998
    3OL    H11R  647   0.330   0.759   5.051
    3OL    H11S  648   0.407   0.909   4.982
    3OL    C112  649   0.268   0.813   4.857
    3OL    H12R  650   0.172   0.761   4.859
    3OL    H12S  651   0.345   0.749   4.812
    3OL    C113  652   0.247   0.926   4.755
    3OL    H13R  653   0.343   0.971   4.728
    3OL    H13S  654   0.186   1.011   4.788
    3OL    C114  655   0.193   0.862   4.626
    3OL    H14R  656   0.103   0.804   4.643
    3OL    H14S  657   0.265   0.793   4.582
    3OL    C115  658   0.144   0.968   4.525
    3OL    H15R  659   0.224   1.039   4.503
    3OL    H15S  660   0.067   1.036   4.561
    3OL    C116  661   0.090   0.917   4.391
    3OL    H16R  662  -0.010   0.875   4.401
    3OL    H16S  663   0.159   0.839   4.356
    3OL    C117  664   0.082   1.028   4.285
    3OL    H17R  665   0.180   1.070   4.261
    3OL    H17S  666   0.023   1.112   4.323
    3OL    C118  667   0.006   0.973   4.164
    3OL    H18R  668  -0.025   1.054   4.097
    3OL    H18S  669  -0.081   0.911   4.191
    3OL    H18T  670   0.070   0.899   4.114
    1PA    C116  671   5.944   1.559   4.863
    1PA    H16R  672   6.025   1.627   4.835
    1PA    H16S  673   5.939   1.480   4.788
    1PA    H16T  674   5.970   1.512   4.958
    1PA    C115  675   5.812   1.637   4.878
    1PA    H15R  676   5.809   1.703   4.791
    1PA    H15S  677   5.734   1.561   4.869
    1PA    C114  678   5.794   1.724   5.003
    1PA    H14R  679   5.706   1.785   4.986
    1PA    H14S  680   5.780   1.650   5.082
    1PA    C113  681   5.920   1.807   5.033
    1PA    H13R  682   6.009   1.744   5.036
    1PA    H13S  683   5.948   1.878   4.954
    1PA    C112  684   5.902   1.885   5.164
    1PA    H12R  685   5.815   1.950   5.168
    1PA    H12S  686   5.879   1.813   5.242
    1PA    C111  687   6.036   1.950   5.203
    1PA    H11R  688   6.031   1.976   5.309
    1PA    H11S  689   6.128   1.894   5.186
    1PA    C110  690   6.058   2.084   5.131
    1PA    H10R  691   6.051   2.075   5.023
    1PA    H10S  692   5.970   2.145   5.149
    1PA     C19  693   6.185   2.161   5.171
    1PA     H9R  694   6.269   2.111   5.122
    1PA     H9S  695   6.191   2.261   5.128
    1PA     C18  696   6.205   2.175   5.322
    1PA     H8R  697   6.111   2.183   5.376
    1PA     H8S  698   6.259   2.084   5.351
    1PA     C17  699   6.297   2.293   5.358
    1PA     H7R  700   6.242   2.387   5.348
    1PA     H7S  701   6.319   2.277   5.463
    1PA     C16  702   6.431   2.296   5.283
    1PA     H6R  703   6.479   2.198   5.291
    1PA     H6S  704   6.410   2.316   5.178
    1PA     C15  705   6.531   2.405   5.323
    1PA     H5R  706   6.604   2.422   5.243
    1PA     H5S  707   6.468   2.493   5.335
    1PA     C14  708   6.598   2.372   5.457
    1PA     H4R  709   6.635   2.467   5.496
    1PA     H4S  710   6.524   2.339   5.531
    1PA     C13  711   6.707   2.264   5.454
    1PA     H3R  712   6.664   2.167   5.428
    1PA     H3S  713   6.783   2.297   5.383
    1PA     C12  714   6.771   2.245   5.592
    1PA     H2R  715   6.866   2.192   5.582
    1PA     H2S  716   6.807   2.335   5.644
    2PC     C11  717   6.678   2.166   5.681
    2PC     O12  718   6.670   2.045   5.681
    2PC     O11  719   6.620   2.250   5.768
    2PC      C1  720   6.548   2.190   5.877
    2PC      HR  721   6.592   2.094   5.906
    2PC      HS  722   6.558   2.256   5.964
    2PC      C2  723   6.402   2.172   5.835
    2PC      HX  724   6.365   2.254   5.772
    2PC      C3  725   6.302   2.159   5.951
    2PC      HA  726   6.270   2.253   5.995
    2PC      HB  727   6.212   2.113   5.911
    2PC     O31  728   6.347   2.076   6.060
    2PC     P31  729   6.245   2.013   6.166
    2PC     O32  730   6.256   2.091   6.305
    2PC     C31  731   6.138   2.147   6.366
    2PC     H1A  732   6.098   2.232   6.311
    2PC     H1B  733   6.065   2.065   6.363
    2PC     C32  734   6.179   2.188   6.508
    2PC     H2A  735   6.236   2.109   6.558
    2PC     H2B  736   6.234   2.282   6.497
    2PC     N31  737   6.065   2.231   6.595
    2PC     C33  738   5.978   2.115   6.634
    2PC     H3A  739   6.053   2.049   6.677
    2PC     H3B  740   5.910   2.153   6.711
    2PC     H3C  741   5.931   2.070   6.546
    2PC     C34  742   6.127   2.286   6.720
    2PC     H4A  743   6.180   2.196   6.752
    2PC     H4B  744   6.184   2.373   6.687
    2PC     H4C  745   6.044   2.325   6.779
    2PC     C35  746   5.982   2.340   6.534
    2PC     H5A  747   5.938   2.311   6.438
    2PC     H5B  748   6.055   2.419   6.514
    2PC     H5C  749   5.905   2.366   6.606
    2PC     O33  750   6.108   2.011   6.111
    2PC     O34  751   6.284   1.870   6.174
    2PC     O21  752   6.392   2.050   5.758
    2PC     C21  753   6.287   2.036   5.676
    2PC     O22  754   6.193   2.113   5.665
    3OL     C12  755   6.291   1.910   5.594
    3OL     H2R  756   6.205   1.918   5.526
    3OL     H2S  757   6.292   1.820   5.657
    3OL     C13  758   6.415   1.909   5.504
    3OL     H3R  759   6.509   1.918   5.558
    3OL     H3S  760   6.419   1.998   5.440
    3OL     C14  761   6.406   1.787   5.412
    3OL     H4R  762   6.310   1.793   5.359
    3OL     H4S  763   6.395   1.700   5.477
    3OL     C15  764   6.519   1.776   5.309
    3OL     H5R  765   6.553   1.673   5.291
    3OL     H5S  766   6.604   1.838   5.340
    3OL     C16  767   6.474   1.845   5.180
    3OL     H6R  768   6.562   1.885   5.128
    3OL     H6S  769   6.394   1.918   5.196
    3OL     C17  770   6.425   1.732   5.088
    3OL     H7R  771   6.329   1.702   5.130
    3OL     H7S  772   6.494   1.647   5.080
    3OL     C18  773   6.387   1.770   4.944
    3OL     H8R  774   6.341   1.681   4.901
    3OL     H8S  775   6.470   1.787   4.876
    3OL     C19  776   6.293   1.884   4.915
    3OL     H9R  777   6.186   1.868   4.924
    3OL    C110  778   6.338   2.002   4.876
    3OL    H10R  779   6.269   2.081   4.846
    3OL    C111  780   6.483   2.037   4.858
    3OL    H11R  781   6.506   2.067   4.756
    3OL    H11S  782   6.555   1.955   4.869
    3OL    C112  783   6.521   2.146   4.960
    3OL    H12R  784   6.501   2.098   5.055
    3OL    H12S  785   6.443   2.223   4.958
    3OL    C113  786   6.666   2.191   4.941
    3OL    H13R  787   6.732   2.105   4.924
    3OL    H13S  788   6.701   2.242   5.031
    3OL    C114  789   6.666   2.288   4.822
    3OL    H14R  790   6.621   2.381   4.858
    3OL    H14S  791   6.613   2.253   4.734
    3OL    C115  792   6.809   2.317   4.774
    3OL    H15R  793   6.866   2.226   4.752
    3OL    H15S  794   6.864   2.360   4.858
    3OL    C116  795   6.795   2.405   4.650
    3OL    H16R  796   6.739   2.493   4.684
    3OL    H16S  797   6.743   2.349   4.572
    3OL    C117  798   6.931   2.448   4.594
    3OL    H17R  799   6.974   2.501   4.679
    3OL    H17S  800   6.914   2.517   4.511
    3OL    C118  801   7.027   2.337   4.548
    3OL    H18R  802   7.031   2.254   4.620
    3OL    H18S  803   7.132   2.369   4.547
    3OL    H18T  804   7.003   2.309   4.446
    1PA    C116  805   4.841   5.896   4.122
    1PA    H16R  806   4.772   5.823   4.079
    1PA    H16S  807   4.934   5.842   4.144
    1PA    H16T  808   4.858   5.978   4.051
    1PA    C115  809   4.775   5.942   4.252
    1PA    H15R  810   4.675   5.985   4.237
    1PA    H15S  811   4.756   5.857   4.317
    1PA    C114  812   4.854   6.042   4.338
    1PA    H14R  813   4.952   5.997   4.350
    1PA    H14S  814   4.874   6.134   4.282
    1PA    C113  815   4.795   6.081   4.474
    1PA    H13R  816   4.695   6.124   4.467
    1PA    H13S  817   4.764   5.989   4.525
    1PA    C112  818   4.869   6.169   4.575
    1PA    H12R  819   4.886   6.267   4.530
    1PA    H12S  820   4.804   6.194   4.660
    1PA    C111  821   5.003   6.111   4.623
    1PA    H11R  822   5.058   6.103   4.529
    1PA    H11S  823   5.057   6.176   4.692
    1PA    C110  824   5.004   5.976   4.695
    1PA    H10R  825   4.930   5.974   4.775
    1PA    H10S  826   4.980   5.910   4.612
    1PA     C19  827   5.140   5.923   4.744
    1PA     H9R  828   5.119   5.816   4.746
    1PA     H9S  829   5.228   5.943   4.683
    1PA     C18  830   5.151   5.966   4.891
    1PA     H8R  831   5.129   6.073   4.891
    1PA     H8S  832   5.078   5.922   4.960
    1PA     C17  833   5.281   5.931   4.964
    1PA     H7R  834   5.281   5.824   4.986
    1PA     H7S  835   5.370   5.959   4.907
    1PA     C16  836   5.295   6.003   5.099
    1PA     H6R  837   5.201   6.011   5.154
    1PA     H6S  838   5.359   5.941   5.163
    1PA     C15  839   5.358   6.142   5.086
    1PA     H5R  840   5.460   6.143   5.047
    1PA     H5S  841   5.304   6.198   5.010
    1PA     C14  842   5.353   6.217   5.220
    1PA     H4R  843   5.384   6.321   5.212
    1PA     H4S  844   5.252   6.214   5.261
    1PA     C13  845   5.437   6.152   5.331
    1PA     H3R  846   5.416   6.194   5.430
    1PA     H3S  847   5.414   6.046   5.339
    1PA     C12  848   5.584   6.180   5.298
    1PA     H2R  849   5.614   6.119   5.212
    1PA     H2S  850   5.597   6.284   5.265
    2PC     C11  851   5.671   6.155   5.419
    2PC     O12  852   5.624   6.125   5.526
    2PC     O11  853   5.801   6.179   5.396
    2PC      C1  854   5.892   6.151   5.504
    2PC      HR  855   5.984   6.204   5.482
    2PC      HS  856   5.855   6.202   5.594
    2PC      C2  857   5.907   5.999   5.525
    2PC      HX  858   5.812   5.948   5.543
    2PC      C3  859   6.015   5.987   5.633
    2PC      HA  860   6.114   6.015   5.596
    2PC      HB  861   6.003   6.048   5.723
    2PC     O31  862   6.009   5.851   5.681
    2PC     P31  863   6.108   5.801   5.796
    2PC     O32  864   6.018   5.712   5.895
    2PC     C31  865   5.994   5.579   5.846
    2PC     H1A  866   5.940   5.579   5.751
    2PC     H1B  867   6.094   5.535   5.840
    2PC     C32  868   5.912   5.507   5.954
    2PC     H2A  869   5.813   5.553   5.958
    2PC     H2B  870   5.891   5.405   5.922
    2PC     N31  871   5.954   5.494   6.097
    2PC     C33  872   5.978   5.623   6.169
    2PC     H3A  873   5.887   5.681   6.155
    2PC     H3B  874   5.996   5.599   6.274
    2PC     H3C  875   6.066   5.672   6.127
    2PC     C34  876   5.843   5.416   6.160
    2PC     H4A  877   5.850   5.313   6.125
    2PC     H4B  878   5.875   5.416   6.264
    2PC     H4C  879   5.752   5.474   6.141
    2PC     C35  880   6.083   5.419   6.109
    2PC     H5A  881   6.124   5.453   6.204
    2PC     H5B  882   6.157   5.463   6.043
    2PC     H5C  883   6.062   5.313   6.092
    2PC     O33  884   6.233   5.730   5.759
    2PC     O34  885   6.156   5.913   5.880
    2PC     O21  886   5.965   5.951   5.402
    2PC     C21  887   5.884   5.884   5.318
    2PC     O22  888   5.766   5.870   5.342
    3OL     C12  889   5.961   5.847   5.194
    3OL     H2R  890   6.045   5.785   5.227
    3OL     H2S  891   5.997   5.932   5.135
    3OL     C13  892   5.878   5.749   5.111
    3OL     H3R  893   5.798   5.804   5.061
    3OL     H3S  894   5.835   5.674   5.178
    3OL     C14  895   5.955   5.684   4.995
    3OL     H4R  896   6.040   5.632   5.040
    3OL     H4S  897   5.993   5.760   4.926
    3OL     C15  898   5.870   5.591   4.908
    3OL     H5R  899   5.785   5.644   4.865
    3OL     H5S  900   5.828   5.503   4.958
    3OL     C16  901   5.958   5.532   4.797
    3OL     H6R  902   6.052   5.493   4.837
    3OL     H6S  903   5.994   5.617   4.740
    3OL     C17  904   5.886   5.434   4.704
    3OL     H7R  905   5.821   5.368   4.761
    3OL     H7S  906   5.961   5.379   4.647
    3OL     C18  907   5.811   5.518   4.599
    3OL     H8R  908   5.870   5.590   4.541
    3OL     H8S  909   5.740   5.585   4.647
    3OL     C19  910   5.740   5.431   4.500
    3OL     H9R  911   5.657   5.367   4.531
    3OL    C110  912   5.774   5.416   4.373
    3OL    H10R  913   5.713   5.358   4.305
    3OL    C111  914   5.890   5.487   4.308
    3OL    H11R  915   5.965   5.409   4.297
    3OL    H11S  916   5.940   5.569   4.361
    3OL    C112  917   5.852   5.543   4.170
    3OL    H12R  918   5.785   5.628   4.185
    3OL    H12S  919   5.795   5.473   4.108
    3OL    C113  920   5.974   5.577   4.084
    3OL    H13R  921   6.035   5.487   4.080
    3OL    H13S  922   6.035   5.657   4.125
    3OL    C114  923   5.934   5.612   3.940
    3OL    H14R  924   5.875   5.703   3.957
    3OL    H14S  925   5.863   5.544   3.892
    3OL    C115  926   6.057   5.642   3.854
    3OL    H15R  927   6.123   5.556   3.851
    3OL    H15S  928   6.105   5.723   3.910
    3OL    C116  929   6.030   5.697   3.713
    3OL    H16R  930   5.973   5.789   3.698
    3OL    H16S  931   5.976   5.616   3.664
    3OL    C117  932   6.170   5.723   3.655
    3OL    H17R  933   6.239   5.751   3.734
    3OL    H17S  934   6.168   5.809   3.588
    3OL    C118  935   6.226   5.600   3.581
    3OL    H18R  936   6.151   5.562   3.511
    3OL    H18S  937   6.249   5.518   3.649
    3OL    H18T  938   6.318   5.623   3.527
    1PA    C116  939   1.564   3.067   3.904
    1PA    H16R  940   1.509   3.075   3.998
    1PA    H16S  941   1.484   3.062   3.831
    1PA    H16T  942   1.605   3.167   3.891
    1PA    C115  943   1.675   2.961   3.915
    1PA    H15R  944   1.735   2.961   3.824
    1PA    H15S  945   1.739   2.996   3.996
    1PA    C114  946   1.624   2.820   3.950
    1PA    H14R  947   1.546   2.806   3.875
    1PA    H14S  948   1.708   2.751   3.938
    1PA    C113  949   1.584   2.806   4.097
    1PA    H13R  950   1.509   2.883   4.119
    1PA    H13S  951   1.524   2.717   4.113
    1PA    C112  952   1.690   2.841   4.203
    1PA    H12R  953   1.777   2.776   4.189
    1PA    H12S  954   1.720   2.946   4.207
    1PA    C111  955   1.633   2.809   4.342
    1PA    H11R  956   1.553   2.876   4.374
    1PA    H11S  957   1.599   2.706   4.349
    1PA    C110  958   1.742   2.830   4.448
    1PA    H10R  959   1.816   2.756   4.416
    1PA    H10S  960   1.786   2.930   4.442
    1PA     C19  961   1.692   2.805   4.591
    1PA     H9R  962   1.770   2.842   4.657
    1PA     H9S  963   1.604   2.868   4.607
    1PA     C18  964   1.675   2.657   4.625
    1PA     H8R  965   1.580   2.650   4.679
    1PA     H8S  966   1.660   2.586   4.543
    1PA     C17  967   1.786   2.613   4.721
    1PA     H7R  968   1.883   2.645   4.682
    1PA     H7S  969   1.774   2.668   4.815
    1PA     C16  970   1.799   2.463   4.751
    1PA     H6R  971   1.714   2.411   4.796
    1PA     H6S  972   1.833   2.413   4.661
    1PA     C15  973   1.911   2.431   4.851
    1PA     H5R  974   2.008   2.432   4.801
    1PA     H5S  975   1.913   2.486   4.945
    1PA     C14  976   1.896   2.286   4.898
    1PA     H4R  977   1.793   2.274   4.930
    1PA     H4S  978   1.915   2.210   4.822
    1PA     C13  979   2.003   2.263   5.007
    1PA     H3R  980   2.105   2.262   4.969
    1PA     H3S  981   1.995   2.349   5.074
    1PA     C12  982   1.974   2.138   5.090
    1PA     H2R  983   1.870   2.146   5.122
    1PA     H2S  984   1.983   2.060   5.014
    2PC     C11  985   2.071   2.113   5.203
    2PC     O12  986   2.043   2.038   5.294
    2PC     O11  987   2.186   2.181   5.193
    2PC      C1  988   2.294   2.154   5.284
    2PC      HR  989   2.379   2.220   5.264
    2PC      HS  990   2.263   2.172   5.387
    2PC      C2  991   2.350   2.011   5.282
    2PC      HX  992   2.262   1.947   5.293
    2PC      C3  993   2.440   1.983   5.404
    2PC      HA  994   2.381   1.965   5.495
    2PC      HB  995   2.503   1.898   5.378
    2PC     O31  996   2.518   2.098   5.440
    2PC     P31  997   2.617   2.085   5.565
    2PC     O32  998   2.510   2.027   5.670
    2PC     C31  999   2.564   1.996   5.800
    2PC     H1A 1000   2.621   1.905   5.781
    2PC     H1B 1001   2.625   2.080   5.835
    2PC     C32 1002   2.447   1.970   5.896
    2PC     H2A 1003   2.370   1.903   5.858
    2PC     H2B 1004   2.501   1.930   5.983
    2PC     N31 1005   2.370   2.094   5.929
    2PC     C33 1006   2.276   2.064   6.043
    2PC     H3A 1007   2.350   2.050   6.122
    2PC     H3B 1008   2.205   2.146   6.054
    2PC     H3C 1009   2.226   1.967   6.043
    2PC     C34 1010   2.452   2.210   5.975
    2PC     H4A 1011   2.490   2.264   5.888
    2PC     H4B 1012   2.398   2.282   6.036
    2PC     H4C 1013   2.534   2.178   6.041
    2PC     C35 1014   2.282   2.141   5.817
    2PC     H5A 1015   2.351   2.174   5.739
    2PC     H5B 1016   2.211   2.216   5.854
    2PC     H5C 1017   2.224   2.057   5.779
    2PC     O33 1018   2.726   1.986   5.547
    2PC     O34 1019   2.673   2.211   5.620
    2PC     O21 1020   2.417   1.981   5.158
    2PC     C21 1021   2.452   1.855   5.129
    2PC     O22 1022   2.402   1.758   5.182
    3OL     C12 1023   2.549   1.842   5.015
    3OL     H2R 1024   2.569   1.936   4.963
    3OL     H2S 1025   2.494   1.783   4.942
    3OL     C13 1026   2.678   1.770   5.057
    3OL     H3R 1027   2.664   1.672   5.103
    3OL     H3S 1028   2.737   1.829   5.128
    3OL     C14 1029   2.774   1.737   4.942
    3OL     H4R 1030   2.753   1.652   4.878
    3OL     H4S 1031   2.867   1.704   4.989
    3OL     C15 1032   2.796   1.859   4.852
    3OL     H5R 1033   2.800   1.946   4.919
    3OL     H5S 1034   2.701   1.876   4.801
    3OL     C16 1035   2.910   1.838   4.751
    3OL     H6R 1036   2.915   1.741   4.702
    3OL     H6S 1037   3.003   1.846   4.809
    3OL     C17 1038   2.923   1.942   4.639
    3OL     H7R 1039   2.918   2.043   4.681
    3OL     H7S 1040   2.840   1.944   4.568
    3OL     C18 1041   3.040   1.914   4.545
    3OL     H8R 1042   3.038   1.810   4.510
    3OL     H8S 1043   3.133   1.930   4.600
    3OL     C19 1044   3.042   2.008   4.427
    3OL     H9R 1045   3.027   2.115   4.439
    3OL    C110 1046   3.050   1.966   4.301
    3OL    H10R 1047   3.050   2.042   4.223
    3OL    C111 1048   3.063   1.827   4.245
    3OL    H11R 1049   2.997   1.822   4.158
    3OL    H11S 1050   3.030   1.747   4.312
    3OL    C112 1051   3.205   1.796   4.197
    3OL    H12R 1052   3.243   1.872   4.128
    3OL    H12S 1053   3.200   1.705   4.138
    3OL    C113 1054   3.306   1.793   4.313
    3OL    H13R 1055   3.286   1.719   4.391
    3OL    H13S 1056   3.311   1.893   4.356
    3OL    C114 1057   3.451   1.782   4.263
    3OL    H14R 1058   3.514   1.839   4.332
    3OL    H14S 1059   3.460   1.817   4.160
    3OL    C115 1060   3.488   1.633   4.261
    3OL    H15R 1061   3.417   1.570   4.208
    3OL    H15S 1062   3.488   1.591   4.362
    3OL    C116 1063   3.627   1.602   4.204
    3OL    H16R 1064   3.693   1.652   4.275
    3OL    H16S 1065   3.647   1.495   4.198
    3OL    C117 1066   3.656   1.665   4.067
    3OL    H17R 1067   3.637   1.773   4.067
    3OL    H17S 1068   3.587   1.613   4.000
    3OL    C118 1069   3.797   1.621   4.027
    3OL    H18R 1070   3.797   1.513   4.046
    3OL    H18S 1071   3.824   1.635   3.922
    3OL    H18T 1072   3.874   1.674   4.082
    1PA    C116 1073   4.973   2.309   4.730
    1PA    H16R 1074   4.930   2.408   4.712
    1PA    H16S 1075   5.036   2.327   4.817
    1PA    H16T 1076   4.887   2.246   4.754
    1PA    C115 1077   5.053   2.244   4.617
    1PA    H15R 1078   4.982   2.224   4.536
    1PA    H15S 1079   5.130   2.315   4.586
    1PA    C114 1080   5.120   2.117   4.670
    1PA    H14R 1081   5.214   2.093   4.621
    1PA    H14S 1082   5.134   2.128   4.778
    1PA    C113 1083   5.028   1.996   4.649
    1PA    H13R 1084   4.936   2.009   4.706
    1PA    H13S 1085   4.993   1.997   4.545
    1PA    C112 1086   5.097   1.861   4.677
    1PA    H12R 1087   5.019   1.788   4.657
    1PA    H12S 1088   5.183   1.846   4.611
    1PA    C111 1089   5.152   1.851   4.820
    1PA    H11R 1090   5.183   1.748   4.835
    1PA    H11S 1091   5.240   1.914   4.830
    1PA    C110 1092   5.045   1.885   4.924
    1PA    H10R 1093   5.006   1.987   4.912
    1PA    H10S 1094   4.958   1.820   4.917
    1PA     C19 1095   5.099   1.873   5.067
    1PA     H9R 1096   5.011   1.870   5.132
    1PA     H9S 1097   5.148   1.775   5.074
    1PA     C18 1098   5.187   1.991   5.110
    1PA     H8R 1099   5.263   1.995   5.032
    1PA     H8S 1100   5.135   2.087   5.115
    1PA     C17 1101   5.264   1.977   5.242
    1PA     H7R 1102   5.284   2.075   5.287
    1PA     H7S 1103   5.211   1.921   5.319
    1PA     C16 1104   5.390   1.896   5.211
    1PA     H6R 1105   5.356   1.794   5.190
    1PA     H6S 1106   5.442   1.930   5.121
    1PA     C15 1107   5.502   1.893   5.316
    1PA     H5R 1108   5.461   1.870   5.415
    1PA     H5S 1109   5.568   1.810   5.293
    1PA     C14 1110   5.576   2.026   5.301
    1PA     H4R 1111   5.639   2.027   5.211
    1PA     H4S 1112   5.508   2.111   5.293
    1PA     C13 1113   5.674   2.037   5.419
    1PA     H3R 1114   5.625   2.013   5.513
    1PA     H3S 1115   5.750   1.959   5.404
    1PA     C12 1116   5.738   2.177   5.415
    1PA     H2R 1117   5.836   2.174   5.366
    1PA     H2S 1118   5.674   2.241   5.354
    2PC     C11 1119   5.747   2.251   5.545
    2PC     O12 1120   5.665   2.241   5.634
    2PC     O11 1121   5.852   2.334   5.559
    2PC      C1 1122   5.870   2.408   5.682
    2PC      HR 1123   5.842   2.514   5.679
    2PC      HS 1124   5.823   2.359   5.767
    2PC      C2 1125   6.021   2.415   5.707
    2PC      HX 1126   6.066   2.316   5.697
    2PC      C3 1127   6.037   2.464   5.852
    2PC      HA 1128   5.977   2.410   5.926
    2PC      HB 1129   6.137   2.449   5.892
    2PC     O31 1130   5.997   2.601   5.867
    2PC     P31 1131   6.062   2.689   5.985
    2PC     O32 1132   6.214   2.708   5.938
    2PC     C31 1133   6.307   2.774   6.027
    2PC     H1A 1134   6.276   2.875   6.056
    2PC     H1B 1135   6.300   2.731   6.127
    2PC     C32 1136   6.446   2.770   5.962
    2PC     H2A 1137   6.425   2.791   5.857
    2PC     H2B 1138   6.509   2.849   6.002
    2PC     N31 1139   6.532   2.647   5.963
    2PC     C33 1140   6.452   2.536   5.902
    2PC     H3A 1141   6.521   2.452   5.889
    2PC     H3B 1142   6.385   2.508   5.984
    2PC     H3C 1143   6.394   2.555   5.812
    2PC     C34 1144   6.650   2.678   5.876
    2PC     H4A 1145   6.624   2.682   5.770
    2PC     H4B 1146   6.693   2.773   5.909
    2PC     H4C 1147   6.722   2.598   5.890
    2PC     C35 1148   6.585   2.605   6.097
    2PC     H5A 1149   6.633   2.508   6.084
    2PC     H5B 1150   6.496   2.595   6.160
    2PC     H5C 1151   6.649   2.680   6.143
    2PC     O33 1152   5.987   2.816   5.990
    2PC     O34 1153   6.069   2.624   6.118
    2PC     O21 1154   6.073   2.520   5.622
    2PC     C21 1155   6.207   2.533   5.621
    2PC     O22 1156   6.278   2.448   5.670
    3OL     C12 1157   6.262   2.655   5.551
    3OL     H2R 1158   6.199   2.736   5.589
    3OL     H2S 1159   6.250   2.635   5.444
    3OL     C13 1160   6.411   2.682   5.571
    3OL     H3R 1161   6.458   2.597   5.521
    3OL     H3S 1162   6.439   2.687   5.676
    3OL     C14 1163   6.450   2.813   5.500
    3OL     H4R 1164   6.412   2.895   5.562
    3OL     H4S 1165   6.408   2.822   5.399
    3OL     C15 1166   6.602   2.820   5.482
    3OL     H5R 1167   6.628   2.736   5.416
    3OL     H5S 1168   6.647   2.796   5.579
    3OL     C16 1169   6.655   2.947   5.415
    3OL     H6R 1170   6.763   2.948   5.430
    3OL     H6S 1171   6.612   3.035   5.465
    3OL     C17 1172   6.626   2.966   5.266
    3OL     H7R 1173   6.522   2.938   5.244
    3OL     H7S 1174   6.692   2.900   5.210
    3OL     C18 1175   6.665   3.103   5.209
    3OL     H8R 1176   6.631   3.185   5.273
    3OL     H8S 1177   6.617   3.104   5.112
    3OL     C19 1178   6.814   3.110   5.184
    3OL     H9R 1179   6.876   3.026   5.214
    3OL    C110 1180   6.872   3.220   5.138
    3OL    H10R 1181   6.980   3.220   5.145
    3OL    C111 1182   6.813   3.356   5.108
    3OL    H11R 1183   6.831   3.411   5.200
    3OL    H11S 1184   6.705   3.350   5.087
    3OL    C112 1185   6.874   3.416   4.981
    3OL    H12R 1186   6.847   3.339   4.909
    3OL    H12S 1187   6.983   3.418   4.984
    3OL    C113 1188   6.808   3.552   4.951
    3OL    H13R 1189   6.859   3.595   4.865
    3OL    H13S 1190   6.825   3.619   5.035
    3OL    C114 1191   6.657   3.558   4.922
    3OL    H14R 1192   6.606   3.517   5.009
    3OL    H14S 1193   6.632   3.494   4.838
    3OL    C115 1194   6.604   3.700   4.895
    3OL    H15R 1195   6.510   3.688   4.840
    3OL    H15S 1196   6.674   3.752   4.829
    3OL    C116 1197   6.596   3.784   5.023
    3OL    H16R 1198   6.689   3.783   5.080
    3OL    H16S 1199   6.516   3.741   5.084
    3OL    C117 1200   6.547   3.928   5.000
    3OL    H17R 1201   6.625   3.971   4.937
    3OL    H17S 1202   6.540   3.967   5.101
    3OL    C118 1203   6.409   3.941   4.934
    3OL    H18R 1204   6.420   3.904   4.832
    3OL    H18S 1205   6.381   4.046   4.929
    3OL    H18T 1206   6.345   3.875   4.993
    1PA    C116 1207   6.215   0.658   3.823
    1PA    H16R 1208   6.323   0.645   3.829
    1PA    H16S 1209   6.202   0.732   3.744
    1PA    H16T 1210   6.167   0.566   3.790
    1PA    C115 1211   6.151   0.710   3.953
    1PA    H15R 1212   6.187   0.813   3.963
    1PA    H15S 1213   6.044   0.728   3.938
    1PA    C114 1214   6.183   0.614   4.069
    1PA    H14R 1215   6.128   0.520   4.069
    1PA    H14S 1216   6.290   0.592   4.076
    1PA    C113 1217   6.143   0.680   4.201
    1PA    H13R 1218   6.218   0.659   4.279
    1PA    H13S 1219   6.144   0.790   4.199
    1PA    C112 1220   5.997   0.656   4.242
    1PA    H12R 1221   5.942   0.735   4.294
    1PA    H12S 1222   5.935   0.642   4.153
    1PA    C111 1223   5.982   0.523   4.316
    1PA    H11R 1224   5.981   0.446   4.240
    1PA    H11S 1225   6.074   0.517   4.374
    1PA    C110 1226   5.859   0.515   4.408
    1PA    H10R 1227   5.774   0.531   4.342
    1PA    H10S 1228   5.872   0.420   4.459
    1PA     C19 1229   5.846   0.627   4.512
    1PA     H9R 1230   5.947   0.655   4.545
    1PA     H9S 1231   5.817   0.721   4.465
    1PA     C18 1232   5.758   0.592   4.633
    1PA     H8R 1233   5.658   0.556   4.607
    1PA     H8S 1234   5.804   0.502   4.676
    1PA     C17 1235   5.768   0.693   4.747
    1PA     H7R 1236   5.871   0.702   4.783
    1PA     H7S 1237   5.737   0.790   4.707
    1PA     C16 1238   5.682   0.660   4.870
    1PA     H6R 1239   5.576   0.642   4.851
    1PA     H6S 1240   5.720   0.571   4.920
    1PA     C15 1241   5.676   0.776   4.970
    1PA     H5R 1242   5.776   0.793   5.011
    1PA     H5S 1243   5.645   0.871   4.925
    1PA     C14 1244   5.580   0.756   5.088
    1PA     H4R 1245   5.481   0.737   5.045
    1PA     H4S 1246   5.622   0.670   5.138
    1PA     C13 1247   5.584   0.867   5.194
    1PA     H3R 1248   5.688   0.875   5.228
    1PA     H3S 1249   5.556   0.964   5.150
    1PA     C12 1250   5.491   0.834   5.311
    1PA     H2R 1251   5.387   0.835   5.280
    1PA     H2S 1252   5.514   0.736   5.355
    2PC     C11 1253   5.497   0.939   5.420
    2PC     O12 1254   5.478   0.903   5.534
    2PC     O11 1255   5.500   1.067   5.379
    2PC      C1 1256   5.493   1.167   5.482
    2PC      HR 1257   5.392   1.176   5.525
    2PC      HS 1258   5.562   1.146   5.564
    2PC      C2 1259   5.530   1.306   5.428
    2PC      HX 1260   5.631   1.295   5.386
    2PC      C3 1261   5.532   1.423   5.527
    2PC      HA 1262   5.621   1.397   5.585
    2PC      HB 1263   5.541   1.519   5.476
    2PC     O31 1264   5.421   1.421   5.618
    2PC     P31 1265   5.408   1.526   5.739
    2PC     O32 1266   5.441   1.662   5.661
    2PC     C31 1267   5.556   1.740   5.700
    2PC     H1A 1268   5.648   1.682   5.713
    2PC     H1B 1269   5.557   1.829   5.637
    2PC     C32 1270   5.529   1.793   5.842
    2PC     H2A 1271   5.432   1.843   5.842
    2PC     H2B 1272   5.528   1.710   5.912
    2PC     N31 1273   5.618   1.904   5.891
    2PC     C33 1274   5.762   1.864   5.909
    2PC     H3A 1275   5.802   1.871   5.808
    2PC     H3B 1276   5.830   1.927   5.967
    2PC     H3C 1277   5.756   1.761   5.942
    2PC     C34 1278   5.610   2.031   5.812
    2PC     H4A 1279   5.674   2.012   5.726
    2PC     H4B 1280   5.507   2.054   5.784
    2PC     H4C 1281   5.661   2.112   5.866
    2PC     C35 1282   5.567   1.946   6.026
    2PC     H5A 1283   5.643   2.010   6.071
    2PC     H5B 1284   5.546   1.859   6.087
    2PC     H5C 1285   5.479   2.009   6.008
    2PC     O33 1286   5.271   1.531   5.794
    2PC     O34 1287   5.491   1.499   5.859
    2PC     O21 1288   5.437   1.337   5.323
    2PC     C21 1289   5.465   1.444   5.245
    2PC     O22 1290   5.570   1.505   5.256
    3OL     C12 1291   5.355   1.487   5.152
    3OL     H2R 1292   5.294   1.551   5.217
    3OL     H2S 1293   5.298   1.398   5.124
    3OL     C13 1294   5.393   1.574   5.031
    3OL     H3R 1295   5.466   1.651   5.058
    3OL     H3S 1296   5.313   1.644   5.009
    3OL     C14 1297   5.450   1.486   4.918
    3OL     H4R 1298   5.395   1.396   4.891
    3OL     H4S 1299   5.546   1.453   4.957
    3OL     C15 1300   5.485   1.568   4.793
    3OL     H5R 1301   5.569   1.525   4.737
    3OL     H5S 1302   5.514   1.666   4.831
    3OL     C16 1303   5.381   1.576   4.681
    3OL     H6R 1304   5.280   1.597   4.716
    3OL     H6S 1305   5.372   1.477   4.635
    3OL     C17 1306   5.416   1.667   4.563
    3OL     H7R 1307   5.520   1.643   4.541
    3OL     H7S 1308   5.413   1.773   4.588
    3OL     C18 1309   5.324   1.644   4.442
    3OL     H8R 1310   5.219   1.639   4.471
    3OL     H8S 1311   5.336   1.542   4.406
    3OL     C19 1312   5.358   1.728   4.321
    3OL     H9R 1313   5.448   1.701   4.267
    3OL    C110 1314   5.283   1.826   4.273
    3OL    H10R 1315   5.320   1.881   4.187
    3OL    C111 1316   5.136   1.850   4.296
    3OL    H11R 1317   5.130   1.947   4.346
    3OL    H11S 1318   5.097   1.772   4.363
    3OL    C112 1319   5.060   1.860   4.163
    3OL    H12R 1320   5.110   1.934   4.100
    3OL    H12S 1321   4.957   1.888   4.186
    3OL    C113 1322   5.063   1.727   4.086
    3OL    H13R 1323   5.025   1.650   4.153
    3OL    H13S 1324   5.169   1.714   4.061
    3OL    C114 1325   4.977   1.735   3.958
    3OL    H14R 1326   5.017   1.675   3.877
    3OL    H14S 1327   4.993   1.838   3.926
    3OL    C115 1328   4.829   1.704   3.981
    3OL    H15R 1329   4.786   1.789   4.035
    3OL    H15S 1330   4.822   1.614   4.042
    3OL    C116 1331   4.754   1.685   3.848
    3OL    H16R 1332   4.812   1.617   3.786
    3OL    H16S 1333   4.761   1.780   3.796
    3OL    C117 1334   4.612   1.630   3.871
    3OL    H17R 1335   4.563   1.672   3.959
    3OL    H17S 1336   4.628   1.524   3.888
    3OL    C118 1337   4.530   1.646   3.742
    3OL    H18R 1338   4.500   1.751   3.735
    3OL    H18S 1339   4.444   1.580   3.748
    3OL    H18T 1340   4.598   1.627   3.658
    1PA    C116 1341   6.059  -0.257   3.954
    1PA    H16R 1342   6.098  -0.356   3.932
    1PA    H16S 1343   6.147  -0.192   3.963
    1PA    H16T 1344   6.005  -0.221   3.866
    1PA    C115 1345   5.972  -0.264   4.080
    1PA    H15R 1346   5.882  -0.323   4.063
    1PA    H15S 1347   6.035  -0.310   4.156
    1PA    C114 1348   5.938  -0.120   4.119
    1PA    H14R 1349   6.022  -0.052   4.131
    1PA    H14S 1350   5.876  -0.076   4.040
    1PA    C113 1351   5.868  -0.117   4.256
    1PA    H13R 1352   5.814  -0.024   4.276
    1PA    H13S 1353   5.790  -0.193   4.264
    1PA    C112 1354   5.975  -0.138   4.364
    1PA    H12R 1355   6.022  -0.237   4.363
    1PA    H12S 1356   6.050  -0.063   4.340
    1PA    C111 1357   5.927  -0.118   4.508
    1PA    H11R 1358   5.839  -0.178   4.532
    1PA    H11S 1359   6.007  -0.148   4.576
    1PA    C110 1360   5.882   0.027   4.531
    1PA    H10R 1361   5.959   0.098   4.502
    1PA    H10S 1362   5.786   0.044   4.481
    1PA     C19 1363   5.859   0.054   4.681
    1PA     H9R 1364   5.790  -0.017   4.726
    1PA     H9S 1365   5.958   0.038   4.724
    1PA     C18 1366   5.819   0.200   4.705
    1PA     H8R 1367   5.906   0.259   4.674
    1PA     H8S 1368   5.739   0.228   4.636
    1PA     C17 1369   5.776   0.245   4.845
    1PA     H7R 1370   5.861   0.231   4.912
    1PA     H7S 1371   5.746   0.350   4.840
    1PA     C16 1372   5.661   0.164   4.907
    1PA     H6R 1373   5.566   0.178   4.856
    1PA     H6S 1374   5.683   0.057   4.896
    1PA     C15 1375   5.663   0.196   5.057
    1PA     H5R 1376   5.761   0.179   5.103
    1PA     H5S 1377   5.641   0.303   5.061
    1PA     C14 1378   5.549   0.118   5.124
    1PA     H4R 1379   5.551   0.016   5.087
    1PA     H4S 1380   5.560   0.112   5.233
    1PA     C13 1381   5.416   0.191   5.100
    1PA     H3R 1382   5.391   0.206   4.995
    1PA     H3S 1383   5.345   0.121   5.144
    1PA     C12 1384   5.398   0.326   5.172
    1PA     H2R 1385   5.465   0.400   5.127
    1PA     H2S 1386   5.295   0.358   5.158
    2PC     C11 1387   5.424   0.319   5.320
    2PC     O12 1388   5.436   0.215   5.381
    2PC     O11 1389   5.432   0.444   5.368
    2PC      C1 1390   5.453   0.477   5.507
    2PC      HR 1391   5.449   0.585   5.520
    2PC      HS 1392   5.374   0.429   5.565
    2PC      C2 1393   5.596   0.434   5.543
    2PC      HX 1394   5.629   0.337   5.505
    2PC      C3 1395   5.615   0.420   5.694
    2PC      HA 1396   5.588   0.321   5.731
    2PC      HB 1397   5.723   0.434   5.708
    2PC     O31 1398   5.533   0.516   5.762
    2PC     P31 1399   5.504   0.507   5.920
    2PC     O32 1400   5.448   0.656   5.936
    2PC     C31 1401   5.537   0.739   6.013
    2PC     H1A 1402   5.644   0.729   5.992
    2PC     H1B 1403   5.514   0.842   5.983
    2PC     C32 1404   5.510   0.710   6.161
    2PC     H2A 1405   5.508   0.603   6.182
    2PC     H2B 1406   5.583   0.761   6.224
    2PC     N31 1407   5.381   0.764   6.216
    2PC     C33 1408   5.374   0.913   6.214
    2PC     H3A 1409   5.472   0.948   6.248
    2PC     H3B 1410   5.347   0.950   6.115
    2PC     H3C 1411   5.293   0.941   6.283
    2PC     C34 1412   5.257   0.698   6.162
    2PC     H4A 1413   5.258   0.710   6.054
    2PC     H4B 1414   5.257   0.591   6.179
    2PC     H4C 1415   5.169   0.739   6.211
    2PC     C35 1416   5.372   0.722   6.360
    2PC     H5A 1417   5.467   0.745   6.409
    2PC     H5B 1418   5.336   0.619   6.368
    2PC     H5C 1419   5.285   0.779   6.394
    2PC     O33 1420   5.393   0.415   5.953
    2PC     O34 1421   5.620   0.459   5.999
    2PC     O21 1422   5.686   0.533   5.490
    2PC     C21 1423   5.752   0.504   5.377
    2PC     O22 1424   5.731   0.407   5.307
    3OL     C12 1425   5.865   0.601   5.354
    3OL     H2R 1426   5.917   0.627   5.447
    3OL     H2S 1427   5.818   0.693   5.318
    3OL     C13 1428   5.981   0.552   5.266
    3OL     H3R 1429   6.019   0.456   5.301
    3OL     H3S 1430   6.055   0.630   5.284
    3OL     C14 1431   5.943   0.533   5.118
    3OL     H4R 1432   5.935   0.632   5.072
    3OL     H4S 1433   5.840   0.501   5.105
    3OL     C15 1434   6.043   0.452   5.035
    3OL     H5R 1435   6.029   0.344   5.040
    3OL     H5S 1436   6.138   0.473   5.086
    3OL     C16 1437   6.055   0.483   4.885
    3OL     H6R 1438   6.096   0.585   4.879
    3OL     H6S 1439   5.952   0.485   4.848
    3OL     C17 1440   6.151   0.388   4.813
    3OL     H7R 1441   6.114   0.285   4.814
    3OL     H7S 1442   6.249   0.390   4.861
    3OL     C18 1443   6.159   0.428   4.665
    3OL     H8R 1444   6.057   0.447   4.632
    3OL     H8S 1445   6.208   0.347   4.609
    3OL     C19 1446   6.229   0.561   4.650
    3OL     H9R 1447   6.187   0.639   4.713
    3OL    C110 1448   6.334   0.595   4.577
    3OL    H10R 1449   6.369   0.697   4.574
    3OL    C111 1450   6.399   0.507   4.473
    3OL    H11R 1451   6.432   0.573   4.392
    3OL    H11S 1452   6.329   0.438   4.425
    3OL    C112 1453   6.523   0.435   4.528
    3OL    H12R 1454   6.601   0.508   4.553
    3OL    H12S 1455   6.558   0.378   4.442
    3OL    C113 1456   6.497   0.348   4.651
    3OL    H13R 1457   6.428   0.267   4.628
    3OL    H13S 1458   6.463   0.405   4.738
    3OL    C114 1459   6.628   0.275   4.686
    3OL    H14R 1460   6.681   0.247   4.595
    3OL    H14S 1461   6.609   0.180   4.736
    3OL    C115 1462   6.722   0.349   4.781
    3OL    H15R 1463   6.748   0.450   4.749
    3OL    H15S 1464   6.818   0.298   4.774
    3OL    C116 1465   6.683   0.354   4.929
    3OL    H16R 1466   6.647   0.257   4.965
    3OL    H16S 1467   6.606   0.429   4.949
    3OL    C117 1468   6.806   0.403   5.007
    3OL    H17R 1469   6.838   0.505   4.985
    3OL    H17S 1470   6.880   0.332   4.970
    3OL    C118 1471   6.803   0.373   5.158
    3OL    H18R 1472   6.895   0.406   5.208
    3OL    H18S 1473   6.793   0.265   5.159
    3OL    H18T 1474   6.722   0.430   5.203
    1PA    C116 1475  -0.745   5.921   4.407
    1PA    H16R 1476  -0.736   5.990   4.323
    1PA    H16S 1477  -0.837   5.951   4.458
    1PA    H16T 1478  -0.752   5.818   4.373
    1PA    C115 1479  -0.625   5.938   4.501
    1PA    H15R 1480  -0.619   6.033   4.555
    1PA    H15S 1481  -0.642   5.868   4.584
    1PA    C114 1482  -0.496   5.900   4.426
    1PA    H14R 1483  -0.494   5.797   4.389
    1PA    H14S 1484  -0.482   5.969   4.343
    1PA    C113 1485  -0.367   5.927   4.504
    1PA    H13R 1486  -0.282   5.914   4.438
    1PA    H13S 1487  -0.356   6.027   4.549
    1PA    C112 1488  -0.348   5.824   4.616
    1PA    H12R 1489  -0.426   5.822   4.692
    1PA    H12S 1490  -0.340   5.722   4.577
    1PA    C111 1491  -0.218   5.858   4.689
    1PA    H11R 1492  -0.209   5.966   4.704
    1PA    H11S 1493  -0.221   5.814   4.789
    1PA    C110 1494  -0.094   5.800   4.619
    1PA    H10R 1495  -0.110   5.693   4.604
    1PA    H10S 1496  -0.072   5.864   4.533
    1PA     C19 1497   0.030   5.811   4.708
    1PA     H9R 1498   0.050   5.917   4.726
    1PA     H9S 1499   0.017   5.764   4.806
    1PA     C18 1500   0.157   5.755   4.642
    1PA     H8R 1501   0.156   5.647   4.626
    1PA     H8S 1502   0.177   5.792   4.542
    1PA     C17 1503   0.270   5.784   4.742
    1PA     H7R 1504   0.287   5.892   4.741
    1PA     H7S 1505   0.239   5.752   4.842
    1PA     C16 1506   0.403   5.713   4.710
    1PA     H6R 1507   0.382   5.606   4.699
    1PA     H6S 1508   0.444   5.751   4.616
    1PA     C15 1509   0.508   5.728   4.821
    1PA     H5R 1510   0.461   5.694   4.913
    1PA     H5S 1511   0.586   5.653   4.805
    1PA     C14 1512   0.560   5.872   4.816
    1PA     H4R 1513   0.598   5.877   4.713
    1PA     H4S 1514   0.485   5.950   4.828
    1PA     C13 1515   0.678   5.908   4.907
    1PA     H3R 1516   0.769   5.919   4.847
    1PA     H3S 1517   0.641   6.001   4.950
    1PA     C12 1518   0.701   5.807   5.020
    1PA     H2R 1519   0.687   5.702   4.991
    1PA     H2S 1520   0.802   5.817   5.061
    2PC     C11 1521   0.603   5.828   5.132
    2PC     O12 1522   0.530   5.925   5.140
    2PC     O11 1523   0.606   5.734   5.227
    2PC      C1 1524   0.524   5.750   5.345
    2PC      HR 1525   0.556   5.672   5.414
    2PC      HS 1526   0.527   5.848   5.393
    2PC      C2 1527   0.384   5.711   5.298
    2PC      HX 1528   0.348   5.782   5.223
    2PC      C3 1529   0.284   5.714   5.415
    2PC      HA 1530   0.277   5.816   5.452
    2PC      HB 1531   0.185   5.678   5.388
    2PC     O31 1532   0.349   5.633   5.515
    2PC     P31 1533   0.279   5.625   5.659
    2PC     O32 1534   0.378   5.511   5.713
    2PC     C31 1535   0.383   5.487   5.855
    2PC     H1A 1536   0.452   5.555   5.904
    2PC     H1B 1537   0.286   5.511   5.901
    2PC     C32 1538   0.418   5.339   5.876
    2PC     H2A 1539   0.399   5.309   5.979
    2PC     H2B 1540   0.354   5.277   5.812
    2PC     N31 1541   0.563   5.302   5.868
    2PC     C33 1542   0.585   5.163   5.919
    2PC     H3A 1543   0.686   5.132   5.892
    2PC     H3B 1544   0.575   5.167   6.028
    2PC     H3C 1545   0.505   5.103   5.876
    2PC     C34 1546   0.631   5.330   5.737
    2PC     H4A 1547   0.731   5.286   5.739
    2PC     H4B 1548   0.570   5.276   5.664
    2PC     H4C 1549   0.627   5.439   5.733
    2PC     C35 1550   0.632   5.381   5.975
    2PC     H5A 1551   0.600   5.368   6.079
    2PC     H5B 1552   0.625   5.486   5.947
    2PC     H5C 1553   0.734   5.344   5.970
    2PC     O33 1554   0.302   5.751   5.733
    2PC     O34 1555   0.132   5.604   5.664
    2PC     O21 1556   0.381   5.583   5.231
    2PC     C21 1557   0.301   5.557   5.126
    2PC     O22 1558   0.209   5.631   5.097
    3OL     C12 1559   0.352   5.432   5.060
    3OL     H2R 1560   0.343   5.349   5.130
    3OL     H2S 1561   0.455   5.443   5.025
    3OL     C13 1562   0.258   5.398   4.944
    3OL     H3R 1563   0.239   5.478   4.873
    3OL     H3S 1564   0.162   5.376   4.992
    3OL     C14 1565   0.306   5.270   4.873
    3OL     H4R 1566   0.307   5.184   4.940
    3OL     H4S 1567   0.406   5.291   4.835
    3OL     C15 1568   0.230   5.225   4.748
    3OL     H5R 1569   0.235   5.296   4.665
    3OL     H5S 1570   0.125   5.220   4.777
    3OL     C16 1571   0.280   5.090   4.695
    3OL     H6R 1572   0.205   5.046   4.628
    3OL     H6S 1573   0.280   5.025   4.783
    3OL     C17 1574   0.415   5.092   4.620
    3OL     H7R 1575   0.436   4.989   4.591
    3OL     H7S 1576   0.489   5.111   4.699
    3OL     C18 1577   0.425   5.199   4.510
    3OL     H8R 1578   0.517   5.177   4.455
    3OL     H8S 1579   0.447   5.296   4.555
    3OL     C19 1580   0.306   5.208   4.419
    3OL     H9R 1581   0.217   5.239   4.473
    3OL    C110 1582   0.312   5.194   4.287
    3OL    H10R 1583   0.223   5.222   4.230
    3OL    C111 1584   0.431   5.153   4.204
    3OL    H11R 1585   0.505   5.109   4.271
    3OL    H11S 1586   0.479   5.244   4.169
    3OL    C112 1587   0.391   5.070   4.081
    3OL    H12R 1588   0.481   5.054   4.021
    3OL    H12S 1589   0.320   5.131   4.025
    3OL    C113 1590   0.334   4.929   4.104
    3OL    H13R 1591   0.239   4.942   4.155
    3OL    H13S 1592   0.399   4.876   4.174
    3OL    C114 1593   0.315   4.849   3.974
    3OL    H14R 1594   0.409   4.834   3.922
    3OL    H14S 1595   0.244   4.901   3.910
    3OL    C115 1596   0.263   4.706   3.998
    3OL    H15R 1597   0.238   4.651   3.907
    3OL    H15S 1598   0.168   4.718   4.051
    3OL    C116 1599   0.365   4.621   4.076
    3OL    H16R 1600   0.407   4.668   4.165
    3OL    H16S 1601   0.445   4.605   4.003
    3OL    C117 1602   0.298   4.494   4.130
    3OL    H17R 1603   0.253   4.433   4.051
    3OL    H17S 1604   0.215   4.511   4.199
    3OL    C118 1605   0.405   4.408   4.197
    3OL    H18R 1606   0.503   4.413   4.149
    3OL    H18S 1607   0.362   4.308   4.190
    3OL    H18T 1608   0.412   4.433   4.303
    1PA    C116 1609   6.374   3.020   4.039
    1PA    H16R 1610   6.466   3.047   4.091
    1PA    H16S 1611   6.339   3.106   3.981
    1PA    H16T 1612   6.394   2.943   3.963
    1PA    C115 1613   6.271   2.978   4.145
    1PA    H15R 1614   6.177   2.953   4.094
    1PA    H15S 1615   6.295   2.888   4.201
    1PA    C114 1616   6.240   3.097   4.237
    1PA    H14R 1617   6.332   3.125   4.289
    1PA    H14S 1618   6.212   3.185   4.177
    1PA    C113 1619   6.131   3.071   4.341
    1PA    H13R 1620   6.033   3.066   4.293
    1PA    H13S 1621   6.146   2.971   4.382
    1PA    C112 1622   6.116   3.178   4.450
    1PA    H12R 1623   6.215   3.205   4.489
    1PA    H12S 1624   6.080   3.266   4.397
    1PA    C111 1625   6.016   3.134   4.558
    1PA    H11R 1626   5.916   3.119   4.516
    1PA    H11S 1627   6.054   3.043   4.605
    1PA    C110 1628   6.008   3.246   4.662
    1PA    H10R 1629   6.108   3.263   4.703
    1PA    H10S 1630   5.981   3.339   4.611
    1PA     C19 1631   5.915   3.196   4.773
    1PA     H9R 1632   5.817   3.177   4.729
    1PA     H9S 1633   5.951   3.102   4.816
    1PA     C18 1634   5.897   3.299   4.885
    1PA     H8R 1635   5.988   3.314   4.943
    1PA     H8S 1636   5.868   3.397   4.848
    1PA     C17 1637   5.778   3.269   4.978
    1PA     H7R 1638   5.694   3.237   4.916
    1PA     H7S 1639   5.809   3.185   5.042
    1PA     C16 1640   5.751   3.391   5.066
    1PA     H6R 1641   5.834   3.423   5.129
    1PA     H6S 1642   5.733   3.474   4.997
    1PA     C15 1643   5.622   3.371   5.147
    1PA     H5R 1644   5.576   3.462   5.187
    1PA     H5S 1645   5.544   3.331   5.082
    1PA     C14 1646   5.648   3.274   5.262
    1PA     H4R 1647   5.558   3.221   5.293
    1PA     H4S 1648   5.704   3.188   5.225
    1PA     C13 1649   5.723   3.332   5.383
    1PA     H3R 1650   5.829   3.341   5.358
    1PA     H3S 1651   5.690   3.435   5.398
    1PA     C12 1652   5.690   3.245   5.506
    1PA     H2R 1653   5.588   3.207   5.502
    1PA     H2S 1654   5.754   3.157   5.495
    2PC     C11 1655   5.715   3.322   5.634
    2PC     O12 1656   5.631   3.335   5.721
    2PC     O11 1657   5.840   3.371   5.641
    2PC      C1 1658   5.879   3.433   5.764
    2PC      HR 1659   5.805   3.507   5.796
    2PC      HS 1660   5.880   3.356   5.842
    2PC      C2 1661   6.014   3.503   5.744
    2PC      HX 1662   6.088   3.422   5.743
    2PC      C3 1663   6.049   3.603   5.855
    2PC      HA 1664   6.075   3.547   5.945
    2PC      HB 1665   6.142   3.656   5.831
    2PC     O31 1666   5.938   3.694   5.868
    2PC     P31 1667   5.967   3.801   5.983
    2PC     O32 1668   6.095   3.873   5.918
    2PC     C31 1669   6.166   3.969   5.997
    2PC     H1A 1670   6.093   4.050   6.006
    2PC     H1B 1671   6.187   3.921   6.093
    2PC     C32 1672   6.296   4.015   5.929
    2PC     H2A 1673   6.321   4.117   5.958
    2PC     H2B 1674   6.383   3.951   5.948
    2PC     N31 1675   6.294   4.015   5.779
    2PC     C33 1676   6.176   4.091   5.727
    2PC     H3A 1677   6.080   4.044   5.748
    2PC     H3B 1678   6.179   4.185   5.783
    2PC     H3C 1679   6.199   4.104   5.621
    2PC     C34 1680   6.415   4.091   5.735
    2PC     H4A 1681   6.502   4.026   5.743
    2PC     H4B 1682   6.395   4.120   5.631
    2PC     H4C 1683   6.420   4.178   5.800
    2PC     C35 1684   6.300   3.875   5.725
    2PC     H5A 1685   6.332   3.876   5.621
    2PC     H5B 1686   6.199   3.835   5.726
    2PC     H5C 1687   6.375   3.813   5.776
    2PC     O33 1688   5.860   3.901   6.007
    2PC     O34 1689   6.004   3.747   6.116
    2PC     O21 1690   6.021   3.566   5.615
    2PC     C21 1691   6.150   3.584   5.581
    2PC     O22 1692   6.250   3.556   5.644
    3OL     C12 1693   6.160   3.646   5.444
    3OL     H2R 1694   6.245   3.716   5.441
    3OL     H2S 1695   6.070   3.699   5.412
    3OL     C13 1696   6.177   3.546   5.329
    3OL     H3R 1697   6.082   3.493   5.324
    3OL     H3S 1698   6.261   3.478   5.346
    3OL     C14 1699   6.188   3.608   5.189
    3OL     H4R 1700   6.281   3.666   5.188
    3OL     H4S 1701   6.114   3.687   5.176
    3OL     C15 1702   6.182   3.519   5.063
    3OL     H5R 1703   6.204   3.583   4.978
    3OL     H5S 1704   6.085   3.468   5.060
    3OL     C16 1705   6.302   3.424   5.065
    3OL     H6R 1706   6.291   3.362   5.154
    3OL     H6S 1707   6.391   3.483   5.090
    3OL     C17 1708   6.307   3.345   4.934
    3OL     H7R 1709   6.347   3.403   4.850
    3OL     H7S 1710   6.204   3.333   4.901
    3OL     C18 1711   6.392   3.217   4.943
    3OL     H8R 1712   6.355   3.161   5.030
    3OL     H8S 1713   6.497   3.238   4.962
    3OL     C19 1714   6.358   3.141   4.817
    3OL     H9R 1715   6.252   3.120   4.816
    3OL    C110 1716   6.442   3.112   4.719
    3OL    H10R 1717   6.408   3.050   4.636
    3OL    C111 1718   6.590   3.144   4.716
    3OL    H11R 1719   6.612   3.229   4.780
    3OL    H11S 1720   6.626   3.160   4.614
    3OL    C112 1721   6.673   3.031   4.779
    3OL    H12R 1722   6.672   3.039   4.888
    3OL    H12S 1723   6.778   3.060   4.772
    3OL    C113 1724   6.633   2.886   4.748
    3OL    H13R 1725   6.643   2.866   4.641
    3OL    H13S 1726   6.531   2.864   4.781
    3OL    C114 1727   6.713   2.774   4.817
    3OL    H14R 1728   6.818   2.780   4.790
    3OL    H14S 1729   6.688   2.677   4.773
    3OL    C115 1730   6.698   2.765   4.969
    3OL    H15R 1731   6.596   2.729   4.989
    3OL    H15S 1732   6.699   2.866   5.010
    3OL    C116 1733   6.796   2.665   5.032
    3OL    H16R 1734   6.893   2.700   4.999
    3OL    H16S 1735   6.775   2.564   4.995
    3OL    C117 1736   6.813   2.659   5.185
    3OL    H17R 1737   6.719   2.633   5.235
    3OL    H17S 1738   6.838   2.763   5.205
    3OL    C118 1739   6.919   2.554   5.223
    3OL    H18R 1740   7.015   2.560   5.171
    3OL    H18S 1741   6.883   2.452   5.209
    3OL    H18T 1742   6.944   2.579   5.326
    1PA    C116 1743   5.239   3.237   4.282
    1PA    H16R 1744   5.170   3.203   4.360
    1PA    H16S 1745   5.330   3.272   4.331
    1PA    H16T 1746   5.266   3.153   4.218
    1PA    C115 1747   5.188   3.361   4.205
    1PA    H15R 1748   5.254   3.394   4.125
    1PA    H15S 1749   5.100   3.323   4.153
    1PA    C114 1750   5.165   3.488   4.288
    1PA    H14R 1751   5.095   3.463   4.368
    1PA    H14S 1752   5.255   3.531   4.331
    1PA    C113 1753   5.104   3.594   4.195
    1PA    H13R 1754   5.172   3.625   4.115
    1PA    H13S 1755   5.014   3.560   4.143
    1PA    C112 1756   5.065   3.720   4.274
    1PA    H12R 1757   5.003   3.782   4.208
    1PA    H12S 1758   5.012   3.705   4.367
    1PA    C111 1759   5.189   3.807   4.301
    1PA    H11R 1760   5.252   3.743   4.363
    1PA    H11S 1761   5.236   3.832   4.206
    1PA    C110 1762   5.162   3.933   4.384
    1PA    H10R 1763   5.247   4.000   4.371
    1PA    H10S 1764   5.066   3.976   4.353
    1PA     C19 1765   5.159   3.900   4.534
    1PA     H9R 1766   5.082   3.829   4.564
    1PA     H9S 1767   5.257   3.862   4.564
    1PA     C18 1768   5.116   4.022   4.617
    1PA     H8R 1769   5.178   4.106   4.587
    1PA     H8S 1770   5.014   4.053   4.592
    1PA     C17 1771   5.117   3.990   4.768
    1PA     H7R 1772   5.210   3.939   4.795
    1PA     H7S 1773   5.116   4.092   4.809
    1PA     C16 1774   4.990   3.918   4.812
    1PA     H6R 1775   5.003   3.820   4.766
    1PA     H6S 1776   4.989   3.899   4.919
    1PA     C15 1777   4.856   3.981   4.770
    1PA     H5R 1778   4.828   3.963   4.666
    1PA     H5S 1779   4.779   3.923   4.821
    1PA     C14 1780   4.828   4.127   4.806
    1PA     H4R 1781   4.907   4.187   4.761
    1PA     H4S 1782   4.731   4.157   4.768
    1PA     C13 1783   4.826   4.144   4.959
    1PA     H3R 1784   4.746   4.083   5.001
    1PA     H3S 1785   4.923   4.123   5.003
    1PA     C12 1786   4.783   4.286   5.001
    1PA     H2R 1787   4.862   4.353   4.965
    1PA     H2S 1788   4.691   4.315   4.951
    2PC     C11 1789   4.774   4.312   5.149
    2PC     O12 1790   4.769   4.228   5.236
    2PC     O11 1791   4.768   4.444   5.172
    2PC      C1 1792   4.768   4.507   5.302
    2PC      HR 1793   4.761   4.616   5.303
    2PC      HS 1794   4.680   4.468   5.352
    2PC      C2 1795   4.896   4.466   5.375
    2PC      HX 1796   4.910   4.359   5.360
    2PC      C3 1797   4.884   4.511   5.521
    2PC      HA 1798   4.949   4.591   5.557
    2PC      HB 1799   4.782   4.538   5.549
    2PC     O31 1800   4.910   4.391   5.597
    2PC     P31 1801   5.050   4.322   5.633
    2PC     O32 1802   5.070   4.241   5.496
    2PC     C31 1803   5.201   4.184   5.477
    2PC     H1A 1804   5.277   4.244   5.526
    2PC     H1B 1805   5.200   4.090   5.534
    2PC     C32 1806   5.232   4.163   5.328
    2PC     H2A 1807   5.194   4.254   5.280
    2PC     H2B 1808   5.339   4.152   5.306
    2PC     N31 1809   5.164   4.050   5.257
    2PC     C33 1810   5.229   3.921   5.296
    2PC     H3A 1811   5.234   3.912   5.404
    2PC     H3B 1812   5.159   3.841   5.269
    2PC     H3C 1813   5.328   3.924   5.251
    2PC     C34 1814   5.021   4.045   5.299
    2PC     H4A 1815   5.032   4.015   5.403
    2PC     H4B 1816   4.981   4.142   5.271
    2PC     H4C 1817   4.976   3.966   5.239
    2PC     C35 1818   5.165   4.062   5.107
    2PC     H5A 1819   5.109   4.151   5.078
    2PC     H5B 1820   5.125   3.971   5.061
    2PC     H5C 1821   5.272   4.065   5.087
    2PC     O33 1822   5.157   4.419   5.664
    2PC     O34 1823   5.042   4.232   5.750
    2PC     O21 1824   5.007   4.538   5.318
    2PC     C21 1825   5.079   4.499   5.211
    2PC     O22 1826   5.050   4.398   5.150
    3OL     C12 1827   5.194   4.590   5.179
    3OL     H2R 1828   5.207   4.667   5.256
    3OL     H2S 1829   5.170   4.642   5.086
    3OL     C13 1830   5.331   4.522   5.163
    3OL     H3R 1831   5.343   4.449   5.244
    3OL     H3S 1832   5.407   4.597   5.189
    3OL     C14 1833   5.356   4.465   5.023
    3OL     H4R 1834   5.351   4.538   4.941
    3OL     H4S 1835   5.273   4.396   5.008
    3OL     C15 1836   5.487   4.387   5.005
    3OL     H5R 1837   5.492   4.305   5.076
    3OL     H5S 1838   5.572   4.446   5.039
    3OL     C16 1839   5.494   4.340   4.859
    3OL     H6R 1840   5.495   4.425   4.791
    3OL     H6S 1841   5.406   4.280   4.834
    3OL     C17 1842   5.619   4.254   4.834
    3OL     H7R 1843   5.618   4.172   4.907
    3OL     H7S 1844   5.706   4.315   4.860
    3OL     C18 1845   5.632   4.210   4.688
    3OL     H8R 1846   5.714   4.139   4.680
    3OL     H8S 1847   5.659   4.295   4.624
    3OL     C19 1848   5.505   4.140   4.645
    3OL     H9R 1849   5.408   4.182   4.669
    3OL    C110 1850   5.502   4.038   4.561
    3OL    H10R 1851   5.415   3.986   4.522
    3OL    C111 1852   5.620   3.975   4.491
    3OL    H11R 1853   5.707   4.040   4.498
    3OL    H11S 1854   5.587   3.962   4.388
    3OL    C112 1855   5.645   3.836   4.552
    3OL    H12R 1856   5.544   3.798   4.569
    3OL    H12S 1857   5.689   3.842   4.652
    3OL    C113 1858   5.731   3.745   4.463
    3OL    H13R 1859   5.757   3.655   4.519
    3OL    H13S 1860   5.824   3.796   4.440
    3OL    C114 1861   5.661   3.702   4.334
    3OL    H14R 1862   5.737   3.643   4.283
    3OL    H14S 1863   5.637   3.783   4.264
    3OL    C115 1864   5.528   3.626   4.352
    3OL    H15R 1865   5.487   3.583   4.261
    3OL    H15S 1866   5.457   3.694   4.400
    3OL    C116 1867   5.523   3.503   4.444
    3OL    H16R 1868   5.421   3.468   4.464
    3OL    H16S 1869   5.561   3.541   4.538
    3OL    C117 1870   5.605   3.382   4.395
    3OL    H17R 1871   5.696   3.419   4.347
    3OL    H17S 1872   5.548   3.323   4.324
    3OL    C118 1873   5.641   3.289   4.512
    3OL    H18R 1874   5.660   3.341   4.606
    3OL    H18S 1875   5.725   3.228   4.478
    3OL    H18T 1876   5.555   3.225   4.531
    1PA    C116 1877   2.569   0.264   3.855
    1PA    H16R 1878   2.474   0.310   3.825
    1PA    H16S 1879   2.551   0.182   3.924
    1PA    H16T 1880   2.617   0.236   3.761
    1PA    C115 1881   2.661   0.354   3.938
    1PA    H15R 1882   2.749   0.303   3.978
    1PA    H15S 1883   2.707   0.429   3.874
    1PA    C114 1884   2.587   0.401   4.064
    1PA    H14R 1885   2.514   0.478   4.038
    1PA    H14S 1886   2.536   0.318   4.114
    1PA    C113 1887   2.693   0.461   4.157
    1PA    H13R 1888   2.762   0.379   4.182
    1PA    H13S 1889   2.760   0.534   4.112
    1PA    C112 1890   2.639   0.524   4.286
    1PA    H12R 1891   2.693   0.613   4.319
    1PA    H12S 1892   2.538   0.563   4.269
    1PA    C111 1893   2.625   0.415   4.393
    1PA    H11R 1894   2.572   0.328   4.352
    1PA    H11S 1895   2.719   0.375   4.430
    1PA    C110 1896   2.552   0.471   4.516
    1PA    H10R 1897   2.622   0.540   4.563
    1PA    H10S 1898   2.460   0.526   4.496
    1PA     C19 1899   2.538   0.359   4.620
    1PA     H9R 1900   2.486   0.277   4.569
    1PA     H9S 1901   2.637   0.322   4.648
    1PA     C18 1902   2.455   0.411   4.738
    1PA     H8R 1903   2.391   0.494   4.708
    1PA     H8S 1904   2.390   0.330   4.771
    1PA     C17 1905   2.551   0.455   4.850
    1PA     H7R 1906   2.614   0.370   4.878
    1PA     H7S 1907   2.608   0.538   4.809
    1PA     C16 1908   2.471   0.489   4.976
    1PA     H6R 1909   2.402   0.572   4.962
    1PA     H6S 1910   2.406   0.404   4.997
    1PA     C15 1911   2.554   0.508   5.104
    1PA     H5R 1912   2.622   0.426   5.128
    1PA     H5S 1913   2.621   0.591   5.078
    1PA     C14 1914   2.484   0.545   5.236
    1PA     H4R 1915   2.428   0.637   5.222
    1PA     H4S 1916   2.408   0.470   5.259
    1PA     C13 1917   2.584   0.566   5.351
    1PA     H3R 1918   2.638   0.474   5.373
    1PA     H3S 1919   2.656   0.647   5.336
    1PA     C12 1920   2.506   0.597   5.479
    1PA     H2R 1921   2.445   0.684   5.456
    1PA     H2S 1922   2.423   0.530   5.503
    2PC     C11 1923   2.590   0.620   5.602
    2PC     O12 1924   2.536   0.621   5.711
    2PC     O11 1925   2.720   0.646   5.582
    2PC      C1 1926   2.796   0.680   5.699
    2PC      HR 1927   2.768   0.771   5.753
    2PC      HS 1928   2.790   0.594   5.766
    2PC      C2 1929   2.936   0.701   5.641
    2PC      HX 1930   2.968   0.607   5.596
    2PC      C3 1931   3.053   0.732   5.736
    2PC      HA 1932   3.076   0.642   5.793
    2PC      HB 1933   3.137   0.762   5.673
    2PC     O31 1934   3.024   0.845   5.820
    2PC     P31 1935   3.119   0.870   5.947
    2PC     O32 1936   3.079   1.014   6.004
    2PC     C31 1937   3.130   1.050   6.134
    2PC     H1A 1938   3.079   0.991   6.211
    2PC     H1B 1939   3.239   1.039   6.135
    2PC     C32 1940   3.092   1.196   6.163
    2PC     H2A 1941   2.983   1.201   6.157
    2PC     H2B 1942   3.123   1.211   6.267
    2PC     N31 1943   3.152   1.302   6.075
    2PC     C33 1944   3.101   1.434   6.125
    2PC     H3A 1945   3.017   1.450   6.057
    2PC     H3B 1946   3.065   1.419   6.227
    2PC     H3C 1947   3.174   1.514   6.110
    2PC     C34 1948   3.298   1.306   6.107
    2PC     H4A 1949   3.319   1.321   6.213
    2PC     H4B 1950   3.355   1.227   6.058
    2PC     H4C 1951   3.325   1.401   6.060
    2PC     C35 1952   3.114   1.283   5.931
    2PC     H5A 1953   3.133   1.183   5.892
    2PC     H5B 1954   3.170   1.356   5.872
    2PC     H5C 1955   3.005   1.287   5.936
    2PC     O33 1956   3.110   0.761   6.047
    2PC     O34 1957   3.262   0.858   5.910
    2PC     O21 1958   2.927   0.799   5.535
    2PC     C21 1959   3.000   0.781   5.424
    2PC     O22 1960   3.050   0.674   5.399
    3OL     C12 1961   3.014   0.906   5.341
    3OL     H2R 1962   3.056   0.987   5.402
    3OL     H2S 1963   2.916   0.948   5.317
    3OL     C13 1964   3.106   0.888   5.219
    3OL     H3R 1965   3.194   0.836   5.259
    3OL     H3S 1966   3.137   0.987   5.183
    3OL     C14 1967   3.036   0.823   5.099
    3OL     H4R 1968   2.951   0.888   5.078
    3OL     H4S 1969   2.991   0.730   5.134
    3OL     C15 1970   3.123   0.812   4.974
    3OL     H5R 1971   3.219   0.763   4.992
    3OL     H5S 1972   3.159   0.914   4.953
    3OL     C16 1973   3.049   0.741   4.860
    3OL     H6R 1974   2.987   0.663   4.904
    3OL     H6S 1975   3.127   0.692   4.800
    3OL     C17 1976   2.968   0.837   4.772
    3OL     H7R 1977   3.026   0.921   4.732
    3OL     H7S 1978   2.882   0.880   4.825
    3OL     C18 1979   2.916   0.763   4.648
    3OL     H8R 1980   2.863   0.674   4.682
    3OL     H8S 1981   3.001   0.730   4.587
    3OL     C19 1982   2.831   0.847   4.556
    3OL     H9R 1983   2.727   0.868   4.580
    3OL    C110 1984   2.878   0.905   4.446
    3OL    H10R 1985   2.807   0.966   4.391
    3OL    C111 1986   3.017   0.907   4.389
    3OL    H11R 1987   3.038   0.875   4.286
    3OL    H11S 1988   3.090   0.860   4.455
    3OL    C112 1989   3.082   1.047   4.389
    3OL    H12R 1990   3.012   1.122   4.353
    3OL    H12S 1991   3.169   1.045   4.324
    3OL    C113 1992   3.113   1.100   4.530
    3OL    H13R 1993   3.172   1.026   4.584
    3OL    H13S 1994   3.022   1.118   4.588
    3OL    C114 1995   3.199   1.227   4.534
    3OL    H14R 1996   3.138   1.297   4.478
    3OL    H14S 1997   3.286   1.199   4.475
    3OL    C115 1998   3.236   1.260   4.680
    3OL    H15R 1999   3.285   1.173   4.725
    3OL    H15S 2000   3.153   1.288   4.744
    3OL    C116 2001   3.333   1.379   4.680
    3OL    H16R 2002   3.337   1.437   4.772
    3OL    H16S 2003   3.290   1.438   4.598
    3OL    C117 2004   3.473   1.337   4.634
    3OL    H17R 2005   3.460   1.296   4.534
    3OL    H17S 2006   3.505   1.251   4.694
    3OL    C118 2007   3.579   1.446   4.646
    3OL    H18R 2008   3.671   1.427   4.591
    3OL    H18S 2009   3.609   1.455   4.751
    3OL    H18T 2010   3.548   1.549   4.624
    1PA    C116 2011   1.757   3.930   3.889
    1PA    H16R 2012   1.777   3.936   3.996
    1PA    H16S 2013   1.650   3.913   3.872
    1PA    H16T 2014   1.786   4.022   3.838
    1PA    C115 2015   1.838   3.808   3.844
    1PA    H15R 2016   1.831   3.797   3.736
    1PA    H15S 2017   1.942   3.832   3.868
    1PA    C114 2018   1.788   3.676   3.905
    1PA    H14R 2019   1.783   3.691   4.014
    1PA    H14S 2020   1.688   3.650   3.871
    1PA    C113 2021   1.885   3.560   3.882
    1PA    H13R 2022   1.892   3.545   3.774
    1PA    H13S 2023   1.982   3.590   3.922
    1PA    C112 2024   1.835   3.428   3.945
    1PA    H12R 2025   1.736   3.416   3.902
    1PA    H12S 2026   1.898   3.346   3.911
    1PA    C111 2027   1.834   3.424   4.099
    1PA    H11R 2028   1.936   3.432   4.137
    1PA    H11S 2029   1.774   3.506   4.138
    1PA    C110 2030   1.787   3.283   4.138
    1PA    H10R 2031   1.682   3.273   4.112
    1PA    H10S 2032   1.843   3.208   4.082
    1PA     C19 2033   1.804   3.278   4.291
    1PA     H9R 2034   1.741   3.357   4.333
    1PA     H9S 2035   1.758   3.184   4.320
    1PA     C18 2036   1.945   3.286   4.352
    1PA     H8R 2037   2.013   3.234   4.283
    1PA     H8S 2038   1.972   3.392   4.356
    1PA     C17 2039   1.942   3.238   4.497
    1PA     H7R 2040   1.862   3.296   4.544
    1PA     H7S 2041   1.912   3.133   4.494
    1PA     C16 2042   2.077   3.262   4.567
    1PA     H6R 2043   2.153   3.202   4.517
    1PA     H6S 2044   2.115   3.362   4.548
    1PA     C15 2045   2.062   3.245   4.719
    1PA     H5R 2046   1.980   3.309   4.753
    1PA     H5S 2047   2.042   3.139   4.736
    1PA     C14 2048   2.191   3.280   4.795
    1PA     H4R 2049   2.270   3.213   4.762
    1PA     H4S 2050   2.223   3.383   4.774
    1PA     C13 2051   2.172   3.283   4.947
    1PA     H3R 2052   2.080   3.341   4.960
    1PA     H3S 2053   2.150   3.182   4.983
    1PA     C12 2054   2.284   3.358   5.020
    1PA     H2R 2055   2.366   3.286   5.015
    1PA     H2S 2056   2.305   3.459   4.985
    2PC     C11 2057   2.269   3.369   5.169
    2PC     O12 2058   2.340   3.436   5.241
    2PC     O11 2059   2.153   3.320   5.215
    2PC      C1 2060   2.139   3.295   5.356
    2PC      HR 2061   2.099   3.196   5.381
    2PC      HS 2062   2.238   3.293   5.402
    2PC      C2 2063   2.067   3.414   5.421
    2PC      HX 2064   2.122   3.507   5.410
    2PC      C3 2065   2.039   3.392   5.571
    2PC      HA 2066   1.971   3.307   5.569
    2PC      HB 2067   2.125   3.352   5.625
    2PC     O31 2068   1.981   3.511   5.627
    2PC     P31 2069   1.939   3.509   5.781
    2PC     O32 2070   2.057   3.606   5.830
    2PC     C31 2071   2.153   3.566   5.929
    2PC     H1A 2072   2.213   3.655   5.948
    2PC     H1B 2073   2.104   3.528   6.019
    2PC     C32 2074   2.243   3.459   5.866
    2PC     H2A 2075   2.179   3.374   5.841
    2PC     H2B 2076   2.287   3.503   5.777
    2PC     N31 2077   2.354   3.400   5.947
    2PC     C33 2078   2.415   3.297   5.857
    2PC     H3A 2079   2.340   3.222   5.833
    2PC     H3B 2080   2.457   3.346   5.768
    2PC     H3C 2081   2.493   3.247   5.915
    2PC     C34 2082   2.445   3.516   5.969
    2PC     H4A 2083   2.492   3.537   5.873
    2PC     H4B 2084   2.390   3.606   5.998
    2PC     H4C 2085   2.523   3.495   6.043
    2PC     C35 2086   2.312   3.337   6.076
    2PC     H5A 2087   2.260   3.402   6.146
    2PC     H5B 2088   2.396   3.283   6.119
    2PC     H5C 2089   2.230   3.266   6.061
    2PC     O33 2090   1.797   3.549   5.790
    2PC     O34 2091   1.953   3.375   5.844
    2PC     O21 2092   1.935   3.413   5.364
    2PC     C21 2093   1.881   3.533   5.336
    2PC     O22 2094   1.934   3.639   5.363
    3OL     C12 2095   1.744   3.520   5.273
    3OL     H2R 2096   1.673   3.591   5.315
    3OL     H2S 2097   1.709   3.417   5.287
    3OL     C13 2098   1.775   3.546   5.125
    3OL     H3R 2099   1.869   3.499   5.096
    3OL     H3S 2100   1.787   3.654   5.109
    3OL     C14 2101   1.650   3.498   5.050
    3OL     H4R 2102   1.573   3.568   5.085
    3OL     H4S 2103   1.620   3.395   5.073
    3OL     C15 2104   1.661   3.530   4.901
    3OL     H5R 2105   1.736   3.466   4.855
    3OL     H5S 2106   1.699   3.632   4.901
    3OL     C16 2107   1.526   3.511   4.830
    3OL     H6R 2108   1.456   3.586   4.868
    3OL     H6S 2109   1.490   3.411   4.855
    3OL     C17 2110   1.550   3.534   4.680
    3OL     H7R 2111   1.639   3.479   4.649
    3OL     H7S 2112   1.563   3.641   4.666
    3OL     C18 2113   1.425   3.492   4.601
    3OL     H8R 2114   1.384   3.395   4.633
    3OL     H8S 2115   1.453   3.493   4.496
    3OL     C19 2116   1.309   3.586   4.624
    3OL     H9R 2117   1.250   3.570   4.714
    3OL    C110 2118   1.268   3.686   4.547
    3OL    H10R 2119   1.182   3.742   4.583
    3OL    C111 2120   1.350   3.737   4.431
    3OL    H11R 2121   1.456   3.726   4.454
    3OL    H11S 2122   1.340   3.845   4.424
    3OL    C112 2123   1.313   3.676   4.295
    3OL    H12R 2124   1.227   3.723   4.247
    3OL    H12S 2125   1.289   3.571   4.315
    3OL    C113 2126   1.433   3.679   4.201
    3OL    H13R 2127   1.531   3.656   4.243
    3OL    H13S 2128   1.452   3.779   4.160
    3OL    C114 2129   1.425   3.580   4.084
    3OL    H14R 2130   1.520   3.594   4.032
    3OL    H14S 2131   1.360   3.623   4.007
    3OL    C115 2132   1.384   3.436   4.117
    3OL    H15R 2133   1.285   3.430   4.163
    3OL    H15S 2134   1.460   3.400   4.186
    3OL    C116 2135   1.368   3.342   3.997
    3OL    H16R 2136   1.346   3.246   4.043
    3OL    H16S 2137   1.467   3.338   3.951
    3OL    C117 2138   1.252   3.382   3.904
    3OL    H17R 2139   1.259   3.486   3.870
    3OL    H17S 2140   1.160   3.391   3.962
    3OL    C118 2141   1.241   3.279   3.792
    3OL    H18R 2142   1.221   3.177   3.827
    3OL    H18S 2143   1.323   3.279   3.719
    3OL    H18T 2144   1.155   3.310   3.732
    1PA    C116 2145   1.353   2.462   4.244
    1PA    H16R 2146   1.414   2.517   4.316
    1PA    H16S 2147   1.259   2.444   4.298
    1PA    H16T 2148   1.337   2.517   4.151
    1PA    C115 2149   1.432   2.334   4.216
    1PA    H15R 2150   1.443   2.282   4.312
    1PA    H15S 2151   1.376   2.267   4.152
    1PA    C114 2152   1.564   2.354   4.139
    1PA    H14R 2153   1.601   2.271   4.079
    1PA    H14S 2154   1.546   2.437   4.070
    1PA    C113 2155   1.676   2.380   4.240
    1PA    H13R 2156   1.644   2.464   4.302
    1PA    H13S 2157   1.682   2.293   4.306
    1PA    C112 2158   1.814   2.396   4.174
    1PA    H12R 2159   1.833   2.308   4.114
    1PA    H12S 2160   1.800   2.481   4.107
    1PA    C111 2161   1.930   2.419   4.272
    1PA    H11R 2162   2.016   2.428   4.207
    1PA    H11S 2163   1.918   2.507   4.336
    1PA    C110 2164   1.954   2.307   4.375
    1PA    H10R 2165   1.862   2.285   4.430
    1PA    H10S 2166   1.989   2.216   4.327
    1PA     C19 2167   2.058   2.357   4.476
    1PA     H9R 2168   2.040   2.464   4.489
    1PA     H9S 2169   2.052   2.307   4.573
    1PA     C18 2170   2.194   2.326   4.413
    1PA     H8R 2171   2.205   2.219   4.394
    1PA     H8S 2172   2.213   2.376   4.318
    1PA     C17 2173   2.300   2.368   4.516
    1PA     H7R 2174   2.397   2.374   4.467
    1PA     H7S 2175   2.268   2.460   4.566
    1PA     C16 2176   2.314   2.266   4.630
    1PA     H6R 2177   2.217   2.257   4.679
    1PA     H6S 2178   2.334   2.165   4.593
    1PA     C15 2179   2.419   2.310   4.734
    1PA     H5R 2180   2.513   2.312   4.679
    1PA     H5S 2181   2.395   2.413   4.759
    1PA     C14 2182   2.435   2.202   4.842
    1PA     H4R 2183   2.336   2.179   4.881
    1PA     H4S 2184   2.483   2.111   4.805
    1PA     C13 2185   2.521   2.249   4.960
    1PA     H3R 2186   2.491   2.348   4.996
    1PA     H3S 2187   2.493   2.173   5.034
    1PA     C12 2188   2.672   2.249   4.936
    1PA     H2R 2189   2.706   2.159   4.885
    1PA     H2S 2190   2.686   2.328   4.861
    2PC     C11 2191   2.742   2.280   5.066
    2PC     O12 2192   2.727   2.385   5.125
    2PC     O11 2193   2.818   2.181   5.116
    2PC      C1 2194   2.863   2.204   5.251
    2PC      HR 2195   2.929   2.290   5.260
    2PC      HS 2196   2.773   2.229   5.308
    2PC      C2 2197   2.923   2.076   5.312
    2PC      HX 2198   2.834   2.016   5.332
    2PC      C3 2199   2.992   2.109   5.445
    2PC      HA 2200   2.933   2.176   5.507
    2PC      HB 2201   3.018   2.020   5.504
    2PC     O31 2202   3.109   2.185   5.409
    2PC     P31 2203   3.204   2.251   5.521
    2PC     O32 2204   3.174   2.163   5.651
    2PC     C31 2205   3.270   2.155   5.758
    2PC     H1A 2206   3.366   2.123   5.716
    2PC     H1B 2207   3.272   2.252   5.808
    2PC     C32 2208   3.210   2.048   5.851
    2PC     H2A 2209   3.124   2.094   5.900
    2PC     H2B 2210   3.184   1.960   5.792
    2PC     N31 2211   3.284   2.001   5.973
    2PC     C33 2212   3.406   1.918   5.947
    2PC     H3A 2213   3.431   1.852   6.030
    2PC     H3B 2214   3.379   1.847   5.869
    2PC     H3C 2215   3.487   1.988   5.925
    2PC     C34 2216   3.337   2.121   6.045
    2PC     H4A 2217   3.261   2.199   6.046
    2PC     H4B 2218   3.378   2.083   6.139
    2PC     H4C 2219   3.423   2.162   5.993
    2PC     C35 2220   3.184   1.930   6.059
    2PC     H5A 2221   3.245   1.872   6.129
    2PC     H5B 2222   3.117   1.863   6.004
    2PC     H5C 2223   3.124   2.008   6.107
    2PC     O33 2224   3.344   2.255   5.473
    2PC     O34 2225   3.160   2.391   5.543
    2PC     O21 2226   3.009   2.015   5.213
    2PC     C21 2227   3.054   1.889   5.226
    2PC     O22 2228   3.051   1.822   5.327
    3OL     C12 2229   3.128   1.845   5.102
    3OL     H2R 2230   3.194   1.930   5.084
    3OL     H2S 2231   3.059   1.842   5.018
    3OL     C13 2232   3.210   1.716   5.119
    3OL     H3R 2233   3.240   1.682   5.020
    3OL     H3S 2234   3.148   1.636   5.159
    3OL     C14 2235   3.333   1.722   5.211
    3OL     H4R 2236   3.296   1.755   5.309
    3OL     H4S 2237   3.409   1.794   5.181
    3OL     C15 2238   3.400   1.585   5.233
    3OL     H5R 2239   3.335   1.515   5.285
    3OL     H5S 2240   3.489   1.601   5.294
    3OL     C16 2241   3.442   1.525   5.098
    3OL     H6R 2242   3.500   1.597   5.039
    3OL     H6S 2243   3.347   1.505   5.048
    3OL     C17 2244   3.529   1.401   5.121
    3OL     H7R 2245   3.586   1.416   5.214
    3OL     H7S 2246   3.598   1.384   5.038
    3OL     C18 2247   3.447   1.274   5.148
    3OL     H8R 2248   3.390   1.248   5.059
    3OL     H8S 2249   3.378   1.296   5.229
    3OL     C19 2250   3.534   1.155   5.181
    3OL     H9R 2251   3.561   1.148   5.286
    3OL    C110 2252   3.554   1.046   5.108
    3OL    H10R 2253   3.606   0.957   5.142
    3OL    C111 2254   3.528   1.042   4.959
    3OL    H11R 2255   3.622   1.070   4.912
    3OL    H11S 2256   3.453   1.118   4.934
    3OL    C112 2257   3.481   0.905   4.905
    3OL    H12R 2258   3.382   0.883   4.945
    3OL    H12S 2259   3.551   0.833   4.947
    3OL    C113 2260   3.452   0.915   4.755
    3OL    H13R 2261   3.411   1.012   4.722
    3OL    H13S 2262   3.368   0.847   4.737
    3OL    C114 2263   3.579   0.882   4.676
    3OL    H14R 2264   3.599   0.777   4.698
    3OL    H14S 2265   3.671   0.930   4.712
    3OL    C115 2266   3.566   0.885   4.523
    3OL    H15R 2267   3.470   0.838   4.500
    3OL    H15S 2268   3.641   0.831   4.464
    3OL    C116 2269   3.565   1.033   4.480
    3OL    H16R 2270   3.647   1.096   4.513
    3OL    H16S 2271   3.471   1.084   4.503
    3OL    C117 2272   3.582   1.041   4.328
    3OL    H17R 2273   3.495   0.993   4.282
    3OL    H17S 2274   3.668   0.982   4.294
    3OL    C118 2275   3.588   1.191   4.294
    3OL    H18R 2276   3.487   1.234   4.300
    3OL    H18S 2277   3.622   1.216   4.194
    3OL    H18T 2278   3.656   1.240   4.363
    1PA    C116 2279   4.508   1.950   3.981
    1PA    H16R 2280   4.590   1.883   3.953
    1PA    H16S 2281   4.511   2.039   3.917
    1PA    H16T 2282   4.417   1.897   3.953
    1PA    C115 2283   4.522   1.980   4.131
    1PA    H15R 2284   4.435   2.037   4.163
    1PA    H15S 2285   4.529   1.890   4.193
    1PA    C114 2286   4.644   2.071   4.145
    1PA    H14R 2287   4.730   2.003   4.143
    1PA    H14S 2288   4.656   2.140   4.061
    1PA    C113 2289   4.650   2.154   4.274
    1PA    H13R 2290   4.731   2.226   4.271
    1PA    H13S 2291   4.554   2.206   4.281
    1PA    C112 2292   4.671   2.073   4.403
    1PA    H12R 2293   4.593   1.997   4.401
    1PA    H12S 2294   4.769   2.024   4.402
    1PA    C111 2295   4.679   2.150   4.536
    1PA    H11R 2296   4.719   2.077   4.607
    1PA    H11S 2297   4.740   2.238   4.517
    1PA    C110 2298   4.539   2.187   4.589
    1PA    H10R 2299   4.491   2.247   4.512
    1PA    H10S 2300   4.477   2.097   4.594
    1PA     C19 2301   4.554   2.269   4.718
    1PA     H9R 2302   4.618   2.356   4.700
    1PA     H9S 2303   4.459   2.313   4.747
    1PA     C18 2304   4.600   2.185   4.837
    1PA     H8R 2305   4.518   2.128   4.881
    1PA     H8S 2306   4.673   2.112   4.802
    1PA     C17 2307   4.662   2.271   4.948
    1PA     H7R 2308   4.748   2.328   4.912
    1PA     H7S 2309   4.590   2.345   4.982
    1PA     C16 2310   4.699   2.183   5.068
    1PA     H6R 2311   4.617   2.137   5.123
    1PA     H6S 2312   4.754   2.096   5.032
    1PA     C15 2313   4.794   2.266   5.155
    1PA     H5R 2314   4.857   2.202   5.217
    1PA     H5S 2315   4.864   2.314   5.086
    1PA     C14 2316   4.723   2.369   5.246
    1PA     H4R 2317   4.640   2.409   5.188
    1PA     H4S 2318   4.676   2.308   5.323
    1PA     C13 2319   4.823   2.478   5.287
    1PA     H3R 2320   4.924   2.442   5.304
    1PA     H3S 2321   4.821   2.549   5.204
    1PA     C12 2322   4.763   2.545   5.411
    1PA     H2R 2323   4.814   2.637   5.442
    1PA     H2S 2324   4.663   2.580   5.386
    2PC     C11 2325   4.774   2.454   5.531
    2PC     O12 2326   4.714   2.484   5.633
    2PC     O11 2327   4.851   2.346   5.518
    2PC      C1 2328   4.864   2.254   5.629
    2PC      HR 2329   4.949   2.188   5.607
    2PC      HS 2330   4.886   2.310   5.720
    2PC      C2 2331   4.736   2.170   5.635
    2PC      HX 2332   4.651   2.238   5.626
    2PC      C3 2333   4.743   2.088   5.764
    2PC      HA 2334   4.833   2.026   5.766
    2PC      HB 2335   4.736   2.156   5.850
    2PC     O31 2336   4.623   2.010   5.782
    2PC     P31 2337   4.599   1.924   5.915
    2PC     O32 2338   4.514   1.805   5.850
    2PC     C31 2339   4.585   1.695   5.790
    2PC     H1A 2340   4.525   1.668   5.703
    2PC     H1B 2341   4.685   1.719   5.752
    2PC     C32 2342   4.595   1.569   5.877
    2PC     H2A 2343   4.675   1.593   5.948
    2PC     H2B 2344   4.500   1.541   5.922
    2PC     N31 2345   4.638   1.444   5.808
    2PC     C33 2346   4.772   1.473   5.747
    2PC     H3A 2347   4.854   1.411   5.783
    2PC     H3B 2348   4.764   1.459   5.640
    2PC     H3C 2349   4.798   1.576   5.773
    2PC     C34 2350   4.665   1.335   5.909
    2PC     H4A 2351   4.697   1.242   5.863
    2PC     H4B 2352   4.732   1.371   5.986
    2PC     H4C 2353   4.566   1.306   5.944
    2PC     C35 2354   4.531   1.394   5.716
    2PC     H5A 2355   4.440   1.381   5.775
    2PC     H5B 2356   4.563   1.300   5.671
    2PC     H5C 2357   4.519   1.465   5.634
    2PC     O33 2358   4.718   1.856   5.970
    2PC     O34 2359   4.524   1.983   6.029
    2PC     O21 2360   4.745   2.086   5.518
    2PC     C21 2361   4.632   2.034   5.465
    2PC     O22 2362   4.520   2.067   5.499
    3OL     C12 2363   4.664   1.927   5.364
    3OL     H2R 2364   4.756   1.952   5.311
    3OL     H2S 2365   4.584   1.934   5.291
    3OL     C13 2366   4.680   1.794   5.439
    3OL     H3R 2367   4.596   1.786   5.508
    3OL     H3S 2368   4.759   1.790   5.514
    3OL     C14 2369   4.696   1.670   5.349
    3OL     H4R 2370   4.593   1.648   5.320
    3OL     H4S 2371   4.725   1.585   5.412
    3OL     C15 2372   4.802   1.681   5.238
    3OL     H5R 2373   4.897   1.710   5.283
    3OL     H5S 2374   4.778   1.766   5.174
    3OL     C16 2375   4.805   1.554   5.151
    3OL     H6R 2376   4.706   1.545   5.105
    3OL     H6S 2377   4.806   1.469   5.219
    3OL     C17 2378   4.909   1.559   5.039
    3OL     H7R 2379   5.011   1.576   5.074
    3OL     H7S 2380   4.885   1.640   4.970
    3OL     C18 2381   4.895   1.430   4.957
    3OL     H8R 2382   4.800   1.376   4.962
    3OL     H8S 2383   4.970   1.356   4.986
    3OL     C19 2384   4.913   1.463   4.811
    3OL     H9R 2385   5.018   1.464   4.780
    3OL    C110 2386   4.817   1.468   4.721
    3OL    H10R 2387   4.848   1.483   4.617
    3OL    C111 2388   4.668   1.469   4.744
    3OL    H11R 2389   4.627   1.546   4.679
    3OL    H11S 2390   4.641   1.507   4.843
    3OL    C112 2391   4.614   1.328   4.717
    3OL    H12R 2392   4.642   1.257   4.795
    3OL    H12S 2393   4.643   1.289   4.619
    3OL    C113 2394   4.460   1.330   4.725
    3OL    H13R 2395   4.416   1.400   4.655
    3OL    H13S 2396   4.429   1.372   4.821
    3OL    C114 2397   4.407   1.189   4.694
    3OL    H14R 2398   4.301   1.185   4.719
    3OL    H14S 2399   4.458   1.106   4.744
    3OL    C115 2400   4.409   1.174   4.541
    3OL    H15R 2401   4.508   1.172   4.495
    3OL    H15S 2402   4.345   1.254   4.505
    3OL    C116 2403   4.346   1.037   4.510
    3OL    H16R 2404   4.242   1.030   4.543
    3OL    H16S 2405   4.406   0.957   4.552
    3OL    C117 2406   4.354   1.020   4.357
    3OL    H17R 2407   4.311   1.112   4.316
    3OL    H17S 2408   4.280   0.939   4.347
    3OL    C118 2409   4.490   0.974   4.303
    3OL    H18R 2410   4.562   1.056   4.297
    3OL    H18S 2411   4.466   0.921   4.211
    3OL    H18T 2412   4.523   0.887   4.360
    1PA    C116 2413   3.494   0.409   3.849
    1PA    H16R 2414   3.456   0.314   3.811
    1PA    H16S 2415   3.457   0.488   3.784
    1PA    H16T 2416   3.445   0.417   3.946
    1PA    C115 2417   3.644   0.432   3.876
    1PA    H15R 2418   3.686   0.347   3.929
    1PA    H15S 2419   3.685   0.445   3.776
    1PA    C114 2420   3.650   0.567   3.950
    1PA    H14R 2421   3.610   0.648   3.888
    1PA    H14S 2422   3.583   0.559   4.035
    1PA    C113 2423   3.795   0.611   3.979
    1PA    H13R 2424   3.844   0.518   4.007
    1PA    H13S 2425   3.832   0.641   3.881
    1PA    C112 2426   3.799   0.725   4.082
    1PA    H12R 2427   3.749   0.813   4.041
    1PA    H12S 2428   3.752   0.706   4.179
    1PA    C111 2429   3.944   0.770   4.100
    1PA    H11R 2430   4.006   0.685   4.132
    1PA    H11S 2431   3.986   0.790   4.001
    1PA    C110 2432   3.956   0.895   4.188
    1PA    H10R 2433   4.051   0.947   4.170
    1PA    H10S 2434   3.879   0.964   4.149
    1PA     C19 2435   3.940   0.861   4.336
    1PA     H9R 2436   3.845   0.807   4.342
    1PA     H9S 2437   4.021   0.790   4.359
    1PA     C18 2438   3.949   0.981   4.432
    1PA     H8R 2439   4.035   1.044   4.411
    1PA     H8S 2440   3.857   1.038   4.414
    1PA     C17 2441   3.953   0.935   4.578
    1PA     H7R 2442   3.861   0.879   4.600
    1PA     H7S 2443   4.037   0.867   4.590
    1PA     C16 2444   3.954   1.054   4.676
    1PA     H6R 2445   4.020   1.134   4.642
    1PA     H6S 2446   3.853   1.097   4.669
    1PA     C15 2447   3.980   1.005   4.819
    1PA     H5R 2448   3.915   0.925   4.855
    1PA     H5S 2449   4.079   0.960   4.811
    1PA     C14 2450   3.976   1.117   4.924
    1PA     H4R 2451   4.063   1.182   4.912
    1PA     H4S 2452   3.883   1.175   4.917
    1PA     C13 2453   3.965   1.057   5.065
    1PA     H3R 2454   3.873   0.999   5.078
    1PA     H3S 2455   4.055   1.002   5.092
    1PA     C12 2456   3.963   1.173   5.166
    1PA     H2R 2457   4.043   1.245   5.150
    1PA     H2S 2458   3.874   1.235   5.151
    2PC     C11 2459   3.958   1.115   5.306
    2PC     O12 2460   4.029   1.031   5.357
    2PC     O11 2461   3.872   1.177   5.388
    2PC      C1 2462   3.839   1.118   5.515
    2PC      HR 2463   3.925   1.082   5.571
    2PC      HS 2464   3.799   1.203   5.571
    2PC      C2 2465   3.723   1.017   5.503
    2PC      HX 2466   3.655   1.062   5.430
    2PC      C3 2467   3.657   0.997   5.640
    2PC      HA 2468   3.598   1.085   5.663
    2PC      HB 2469   3.595   0.907   5.625
    2PC     O31 2470   3.768   0.987   5.731
    2PC     P31 2471   3.731   0.933   5.878
    2PC     O32 2472   3.875   0.951   5.946
    2PC     C31 2473   3.912   1.080   5.999
    2PC     H1A 2474   3.939   1.145   5.916
    2PC     H1B 2475   3.836   1.134   6.057
    2PC     C32 2476   4.029   1.059   6.096
    2PC     H2A 2477   4.001   0.963   6.142
    2PC     H2B 2478   4.126   1.046   6.048
    2PC     N31 2479   4.046   1.164   6.202
    2PC     C33 2480   3.936   1.153   6.304
    2PC     H3A 2481   3.841   1.179   6.257
    2PC     H3B 2482   3.939   1.053   6.348
    2PC     H3C 2483   3.968   1.223   6.381
    2PC     C34 2484   4.173   1.126   6.271
    2PC     H4A 2485   4.205   1.209   6.334
    2PC     H4B 2486   4.151   1.029   6.315
    2PC     H4C 2487   4.250   1.118   6.194
    2PC     C35 2488   4.061   1.302   6.146
    2PC     H5A 2489   4.142   1.299   6.073
    2PC     H5B 2490   4.098   1.365   6.228
    2PC     H5C 2491   3.967   1.342   6.107
    2PC     O33 2492   3.629   1.013   5.948
    2PC     O34 2493   3.678   0.795   5.887
    2PC     O21 2494   3.775   0.895   5.446
    2PC     C21 2495   3.680   0.808   5.406
    2PC     O22 2496   3.560   0.829   5.407
    3OL     C12 2497   3.741   0.691   5.333
    3OL     H2R 2498   3.667   0.610   5.334
    3OL     H2S 2499   3.830   0.651   5.382
    3OL     C13 2500   3.780   0.726   5.189
    3OL     H3R 2501   3.851   0.809   5.199
    3OL     H3S 2502   3.692   0.774   5.145
    3OL     C14 2503   3.848   0.620   5.101
    3OL     H4R 2504   3.791   0.528   5.111
    3OL     H4S 2505   3.948   0.592   5.134
    3OL     C15 2506   3.860   0.665   4.954
    3OL     H5R 2507   3.920   0.756   4.956
    3OL     H5S 2508   3.759   0.677   4.916
    3OL     C16 2509   3.921   0.555   4.867
    3OL     H6R 2510   3.845   0.477   4.874
    3OL     H6S 2511   4.023   0.536   4.902
    3OL     C17 2512   3.936   0.590   4.718
    3OL     H7R 2513   4.020   0.657   4.698
    3OL     H7S 2514   3.848   0.642   4.682
    3OL     C18 2515   3.957   0.458   4.642
    3OL     H8R 2516   3.924   0.367   4.692
    3OL     H8S 2517   4.063   0.448   4.622
    3OL     C19 2518   3.890   0.468   4.507
    3OL     H9R 2519   3.831   0.558   4.496
    3OL    C110 2520   3.918   0.403   4.395
    3OL    H10R 2521   3.867   0.435   4.305
    3OL    C111 2522   4.010   0.284   4.381
    3OL    H11R 2523   3.952   0.212   4.323
    3OL    H11S 2524   4.040   0.239   4.476
    3OL    C112 2525   4.133   0.317   4.295
    3OL    H12R 2526   4.195   0.229   4.281
    3OL    H12S 2527   4.196   0.390   4.345
    3OL    C113 2528   4.093   0.365   4.154
    3OL    H13R 2529   4.026   0.451   4.165
    3OL    H13S 2530   4.032   0.282   4.118
    3OL    C114 2531   4.207   0.395   4.056
    3OL    H14R 2532   4.290   0.324   4.061
    3OL    H14S 2533   4.247   0.493   4.085
    3OL    C115 2534   4.152   0.409   3.914
    3OL    H15R 2535   4.077   0.489   3.921
    3OL    H15S 2536   4.097   0.322   3.878
    3OL    C116 2537   4.266   0.449   3.819
    3OL    H16R 2538   4.340   0.368   3.815
    3OL    H16S 2539   4.316   0.533   3.868
    3OL    C117 2540   4.227   0.495   3.678
    3OL    H17R 2541   4.153   0.431   3.628
    3OL    H17S 2542   4.317   0.486   3.617
    3OL    C118 2543   4.186   0.642   3.690
    3OL    H18R 2544   4.265   0.700   3.738
    3OL    H18S 2545   4.101   0.647   3.758
    3OL    H18T 2546   4.157   0.673   3.589
    1PA    C116 2547   4.960   4.045   4.053
    1PA    H16R 2548   5.029   4.085   4.128
    1PA    H16S 2549   4.959   4.119   3.972
    1PA    H16T 2550   5.003   3.964   3.994
    1PA    C115 2551   4.825   3.996   4.106
    1PA    H15R 2552   4.770   3.956   4.021
    1PA    H15S 2553   4.843   3.915   4.178
    1PA    C114 2554   4.760   4.114   4.180
    1PA    H14R 2555   4.771   4.204   4.119
    1PA    H14S 2556   4.653   4.098   4.192
    1PA    C113 2557   4.820   4.151   4.316
    1PA    H13R 2558   4.788   4.074   4.387
    1PA    H13S 2559   4.930   4.155   4.316
    1PA    C112 2560   4.774   4.293   4.350
    1PA    H12R 2561   4.801   4.365   4.272
    1PA    H12S 2562   4.665   4.283   4.344
    1PA    C111 2563   4.822   4.341   4.488
    1PA    H11R 2564   4.743   4.402   4.531
    1PA    H11S 2565   4.838   4.250   4.545
    1PA    C110 2566   4.949   4.426   4.474
    1PA    H10R 2567   5.025   4.366   4.423
    1PA    H10S 2568   4.923   4.512   4.411
    1PA     C19 2569   4.993   4.472   4.614
    1PA     H9R 2570   4.976   4.390   4.685
    1PA     H9S 2571   5.100   4.490   4.610
    1PA     C18 2572   4.924   4.604   4.651
    1PA     H8R 2573   4.958   4.690   4.593
    1PA     H8S 2574   4.818   4.593   4.630
    1PA     C17 2575   4.948   4.615   4.802
    1PA     H7R 2576   4.913   4.525   4.853
    1PA     H7S 2577   5.055   4.620   4.825
    1PA     C16 2578   4.866   4.732   4.856
    1PA     H6R 2579   4.880   4.825   4.799
    1PA     H6S 2580   4.763   4.697   4.852
    1PA     C15 2581   4.905   4.767   5.000
    1PA     H5R 2582   4.880   4.679   5.059
    1PA     H5S 2583   5.012   4.788   5.001
    1PA     C14 2584   4.829   4.891   5.051
    1PA     H4R 2585   4.874   4.987   5.026
    1PA     H4S 2586   4.735   4.891   4.995
    1PA     C13 2587   4.807   4.884   5.202
    1PA     H3R 2588   4.760   4.981   5.219
    1PA     H3S 2589   4.732   4.808   5.225
    1PA     C12 2590   4.931   4.871   5.292
    1PA     H2R 2591   4.971   4.770   5.278
    1PA     H2S 2592   5.006   4.943   5.261
    2PC     C11 2593   4.892   4.890   5.437
    2PC     O12 2594   4.781   4.920   5.477
    2PC     O11 2595   4.998   4.875   5.518
    2PC      C1 2596   4.982   4.910   5.657
    2PC      HR 2597   4.881   4.894   5.697
    2PC      HS 2598   5.061   4.863   5.716
    2PC      C2 2599   5.021   5.057   5.674
    2PC      HX 2600   5.117   5.079   5.626
    2PC      C3 2601   5.028   5.086   5.824
    2PC      HA 2602   5.091   5.014   5.877
    2PC      HB 2603   5.071   5.185   5.844
    2PC     O31 2604   4.893   5.073   5.872
    2PC     P31 2605   4.868   5.099   6.029
    2PC     O32 2606   4.918   4.957   6.086
    2PC     C31 2607   4.861   4.897   6.203
    2PC     H1A 2608   4.912   4.931   6.293
    2PC     H1B 2609   4.754   4.917   6.213
    2PC     C32 2610   4.885   4.745   6.192
    2PC     H2A 2611   4.807   4.694   6.135
    2PC     H2B 2612   4.978   4.722   6.140
    2PC     N31 2613   4.913   4.677   6.322
    2PC     C33 2614   4.807   4.702   6.425
    2PC     H3A 2615   4.836   4.624   6.496
    2PC     H3B 2616   4.809   4.801   6.472
    2PC     H3C 2617   4.710   4.674   6.382
    2PC     C34 2618   4.925   4.528   6.307
    2PC     H4A 2619   4.953   4.473   6.397
    2PC     H4B 2620   4.833   4.490   6.262
    2PC     H4C 2621   5.009   4.510   6.241
    2PC     C35 2622   5.048   4.719   6.373
    2PC     H5A 2623   5.060   4.827   6.382
    2PC     H5B 2624   5.138   4.680   6.325
    2PC     H5C 2625   5.040   4.692   6.478
    2PC     O33 2626   4.948   5.208   6.090
    2PC     O34 2627   4.728   5.138   6.057
    2PC     O21 2628   4.922   5.138   5.607
    2PC     C21 2629   4.948   5.259   5.556
    2PC     O22 2630   5.060   5.305   5.544
    3OL     C12 2631   4.823   5.330   5.512
    3OL     H2R 2632   4.840   5.438   5.505
    3OL     H2S 2633   4.747   5.314   5.589
    3OL     C13 2634   4.778   5.272   5.377
    3OL     H3R 2635   4.776   5.163   5.384
    3OL     H3S 2636   4.843   5.300   5.293
    3OL     C14 2637   4.637   5.320   5.339
    3OL     H4R 2638   4.643   5.425   5.310
    3OL     H4S 2639   4.575   5.315   5.428
    3OL     C15 2640   4.588   5.231   5.224
    3OL     H5R 2641   4.571   5.132   5.267
    3OL     H5S 2642   4.661   5.223   5.143
    3OL     C16 2643   4.453   5.287   5.176
    3OL     H6R 2644   4.462   5.373   5.110
    3OL     H6S 2645   4.392   5.316   5.262
    3OL     C17 2646   4.364   5.195   5.090
    3OL     H7R 2647   4.272   5.246   5.062
    3OL     H7S 2648   4.348   5.109   5.155
    3OL     C18 2649   4.438   5.145   4.965
    3OL     H8R 2650   4.369   5.077   4.914
    3OL     H8S 2651   4.522   5.086   5.002
    3OL     C19 2652   4.473   5.266   4.882
    3OL     H9R 2653   4.413   5.355   4.900
    3OL    C110 2654   4.563   5.271   4.786
    3OL    H10R 2655   4.587   5.365   4.737
    3OL    C111 2656   4.653   5.157   4.743
    3OL    H11R 2657   4.646   5.067   4.804
    3OL    H11S 2658   4.754   5.197   4.743
    3OL    C112 2659   4.623   5.107   4.601
    3OL    H12R 2660   4.518   5.077   4.592
    3OL    H12S 2661   4.667   5.009   4.582
    3OL    C113 2662   4.661   5.205   4.489
    3OL    H13R 2663   4.768   5.223   4.478
    3OL    H13S 2664   4.623   5.300   4.528
    3OL    C114 2665   4.583   5.184   4.359
    3OL    H14R 2666   4.477   5.203   4.374
    3OL    H14S 2667   4.604   5.078   4.347
    3OL    C115 2668   4.627   5.263   4.234
    3OL    H15R 2669   4.725   5.231   4.199
    3OL    H15S 2670   4.629   5.370   4.252
    3OL    C116 2671   4.532   5.231   4.117
    3OL    H16R 2672   4.432   5.252   4.156
    3OL    H16S 2673   4.541   5.128   4.084
    3OL    C117 2674   4.571   5.314   3.993
    3OL    H17R 2675   4.516   5.261   3.915
    3OL    H17S 2676   4.678   5.311   3.977
    3OL    C118 2677   4.527   5.460   3.985
    3OL    H18R 2678   4.418   5.459   3.972
    3OL    H18S 2679   4.563   5.498   3.889
    3OL    H18T 2680   4.548   5.528   4.068
    1PA    C116 2681   1.179   1.402   3.662
    1PA    H16R 2682   1.150   1.499   3.703
    1PA    H16S 2683   1.199   1.417   3.555
    1PA    H16T 2684   1.271   1.358   3.701
    1PA    C115 2685   1.055   1.313   3.680
    1PA    H15R 2686   0.964   1.351   3.635
    1PA    H15S 2687   1.090   1.230   3.618
    1PA    C114 2688   1.030   1.270   3.825
    1PA    H14R 2689   1.114   1.216   3.870
    1PA    H14S 2690   1.020   1.361   3.885
    1PA    C113 2691   0.903   1.183   3.829
    1PA    H13R 2692   0.813   1.226   3.782
    1PA    H13S 2693   0.909   1.088   3.777
    1PA    C112 2694   0.854   1.145   3.969
    1PA    H12R 2695   0.943   1.109   4.023
    1PA    H12S 2696   0.800   1.231   4.010
    1PA    C111 2697   0.743   1.039   3.972
    1PA    H11R 2698   0.685   1.059   3.882
    1PA    H11S 2699   0.788   0.943   3.948
    1PA    C110 2700   0.656   1.031   4.098
    1PA    H10R 2701   0.612   1.130   4.107
    1PA    H10S 2702   0.579   0.956   4.079
    1PA     C19 2703   0.731   0.993   4.227
    1PA     H9R 2704   0.777   0.894   4.215
    1PA     H9S 2705   0.815   1.063   4.226
    1PA     C18 2706   0.641   1.000   4.351
    1PA     H8R 2707   0.587   1.095   4.355
    1PA     H8S 2708   0.565   0.923   4.341
    1PA     C17 2709   0.713   0.971   4.484
    1PA     H7R 2710   0.755   0.870   4.479
    1PA     H7S 2711   0.795   1.038   4.509
    1PA     C16 2712   0.614   0.980   4.600
    1PA     H6R 2713   0.594   1.085   4.622
    1PA     H6S 2714   0.523   0.923   4.584
    1PA     C15 2715   0.684   0.923   4.725
    1PA     H5R 2716   0.614   0.859   4.779
    1PA     H5S 2717   0.765   0.853   4.702
    1PA     C14 2718   0.739   1.039   4.810
    1PA     H4R 2719   0.791   1.107   4.743
    1PA     H4S 2720   0.656   1.091   4.858
    1PA     C13 2721   0.829   0.982   4.920
    1PA     H3R 2722   0.784   0.897   4.973
    1PA     H3S 2723   0.922   0.949   4.871
    1PA     C12 2724   0.859   1.094   5.020
    1PA     H2R 2725   0.918   1.177   4.981
    1PA     H2S 2726   0.767   1.138   5.062
    2PC     C11 2727   0.927   1.046   5.146
    2PC     O12 2728   1.028   0.979   5.150
    2PC     O11 2729   0.868   1.092   5.257
    2PC      C1 2730   0.904   1.039   5.386
    2PC      HR 2731   0.825   1.066   5.459
    2PC      HS 2732   0.909   0.931   5.377
    2PC      C2 2733   1.042   1.083   5.438
    2PC      HX 2734   1.119   1.018   5.395
    2PC      C3 2735   1.061   1.077   5.590
    2PC      HA 2736   1.008   1.151   5.651
    2PC      HB 2737   1.031   0.975   5.617
    2PC     O31 2738   1.203   1.085   5.612
    2PC     P31 2739   1.232   1.091   5.770
    2PC     O32 2740   1.384   1.141   5.760
    2PC     C31 2741   1.441   1.190   5.883
    2PC     H1A 2742   1.426   1.116   5.962
    2PC     H1B 2743   1.550   1.194   5.870
    2PC     C32 2744   1.399   1.332   5.922
    2PC     H2A 2745   1.292   1.334   5.944
    2PC     H2B 2746   1.447   1.366   6.014
    2PC     N31 2747   1.410   1.441   5.820
    2PC     C33 2748   1.304   1.448   5.715
    2PC     H3A 2749   1.285   1.346   5.679
    2PC     H3B 2750   1.209   1.486   5.754
    2PC     H3C 2751   1.327   1.515   5.632
    2PC     C34 2752   1.400   1.567   5.901
    2PC     H4A 2753   1.403   1.661   5.845
    2PC     H4B 2754   1.305   1.567   5.954
    2PC     H4C 2755   1.486   1.564   5.968
    2PC     C35 2756   1.549   1.448   5.764
    2PC     H5A 2757   1.553   1.531   5.693
    2PC     H5B 2758   1.554   1.351   5.714
    2PC     H5C 2759   1.615   1.449   5.850
    2PC     O33 2760   1.154   1.186   5.853
    2PC     O34 2761   1.206   0.962   5.837
    2PC     O21 2762   1.060   1.223   5.409
    2PC     C21 2763   0.971   1.317   5.444
    2PC     O22 2764   0.880   1.310   5.525
    3OL     C12 2765   1.018   1.449   5.388
    3OL     H2R 2766   1.125   1.445   5.369
    3OL     H2S 2767   1.024   1.516   5.473
    3OL     C13 2768   0.924   1.495   5.275
    3OL     H3R 2769   0.924   1.604   5.274
    3OL     H3S 2770   0.827   1.466   5.317
    3OL     C14 2771   0.947   1.433   5.136
    3OL     H4R 2772   0.922   1.327   5.138
    3OL     H4S 2773   1.047   1.449   5.095
    3OL     C15 2774   0.850   1.498   5.036
    3OL     H5R 2775   0.897   1.593   5.011
    3OL     H5S 2776   0.747   1.507   5.073
    3OL     C16 2777   0.852   1.432   4.897
    3OL     H6R 2778   0.788   1.344   4.894
    3OL     H6S 2779   0.955   1.406   4.870
    3OL     C17 2780   0.806   1.527   4.785
    3OL     H7R 2781   0.874   1.613   4.784
    3OL     H7S 2782   0.714   1.572   4.823
    3OL     C18 2783   0.798   1.472   4.642
    3OL     H8R 2784   0.716   1.402   4.627
    3OL     H8S 2785   0.895   1.421   4.630
    3OL     C19 2786   0.805   1.589   4.547
    3OL     H9R 2787   0.754   1.677   4.587
    3OL    C110 2788   0.853   1.599   4.424
    3OL    H10R 2789   0.849   1.701   4.387
    3OL    C111 2790   0.922   1.490   4.347
    3OL    H11R 2791   0.872   1.476   4.251
    3OL    H11S 2792   0.927   1.389   4.390
    3OL    C112 2793   1.066   1.533   4.316
    3OL    H12R 2794   1.134   1.521   4.400
    3OL    H12S 2795   1.068   1.638   4.287
    3OL    C113 2796   1.108   1.457   4.189
    3OL    H13R 2797   1.045   1.490   4.106
    3OL    H13S 2798   1.095   1.349   4.199
    3OL    C114 2799   1.257   1.480   4.160
    3OL    H14R 2800   1.316   1.424   4.233
    3OL    H14S 2801   1.282   1.586   4.163
    3OL    C115 2802   1.304   1.433   4.022
    3OL    H15R 2803   1.256   1.500   3.950
    3OL    H15S 2804   1.269   1.331   4.007
    3OL    C116 2805   1.455   1.454   4.003
    3OL    H16R 2806   1.507   1.386   4.071
    3OL    H16S 2807   1.485   1.556   4.025
    3OL    C117 2808   1.490   1.407   3.861
    3OL    H17R 2809   1.428   1.467   3.794
    3OL    H17S 2810   1.458   1.302   3.859
    3OL    C118 2811   1.639   1.427   3.830
    3OL    H18R 2812   1.662   1.409   3.724
    3OL    H18S 2813   1.698   1.364   3.897
    3OL    H18T 2814   1.674   1.529   3.840
    1PA    C116 2815   0.277   3.053   3.882
    1PA    H16R 2816   0.232   3.066   3.783
    1PA    H16S 2817   0.198   3.079   3.953
    1PA    H16T 2818   0.301   2.946   3.878
    1PA    C115 2819   0.406   3.132   3.909
    1PA    H15R 2820   0.473   3.135   3.823
    1PA    H15S 2821   0.373   3.235   3.924
    1PA    C114 2822   0.489   3.088   4.030
    1PA    H14R 2823   0.425   3.093   4.119
    1PA    H14S 2824   0.520   2.984   4.018
    1PA    C113 2825   0.616   3.172   4.051
    1PA    H13R 2826   0.686   3.151   3.970
    1PA    H13S 2827   0.587   3.277   4.055
    1PA    C112 2828   0.688   3.123   4.178
    1PA    H12R 2829   0.714   3.018   4.163
    1PA    H12S 2830   0.784   3.172   4.193
    1PA    C111 2831   0.610   3.160   4.305
    1PA    H11R 2832   0.611   3.269   4.318
    1PA    H11S 2833   0.505   3.129   4.299
    1PA    C110 2834   0.673   3.110   4.435
    1PA    H10R 2835   0.681   3.001   4.437
    1PA    H10S 2836   0.773   3.153   4.443
    1PA     C19 2837   0.594   3.149   4.561
    1PA     H9R 2838   0.565   3.254   4.568
    1PA     H9S 2839   0.493   3.107   4.567
    1PA     C18 2840   0.663   3.109   4.692
    1PA     H8R 2841   0.767   3.144   4.687
    1PA     H8S 2842   0.615   3.153   4.779
    1PA     C17 2843   0.658   2.960   4.729
    1PA     H7R 2844   0.553   2.938   4.749
    1PA     H7S 2845   0.669   2.898   4.640
    1PA     C16 2846   0.754   2.921   4.842
    1PA     H6R 2847   0.770   2.814   4.849
    1PA     H6S 2848   0.853   2.968   4.833
    1PA     C15 2849   0.687   2.942   4.979
    1PA     H5R 2850   0.682   3.051   4.990
    1PA     H5S 2851   0.586   2.901   4.981
    1PA     C14 2852   0.761   2.878   5.096
    1PA     H4R 2853   0.714   2.899   5.193
    1PA     H4S 2854   0.761   2.769   5.083
    1PA     C13 2855   0.910   2.920   5.100
    1PA     H3R 2856   0.963   2.880   5.013
    1PA     H3S 2857   0.914   3.029   5.108
    1PA     C12 2858   0.977   2.858   5.223
    1PA     H2R 2859   0.960   2.751   5.226
    1PA     H2S 2860   1.085   2.869   5.207
    2PC     C11 2861   0.937   2.920   5.355
    2PC     O12 2862   0.853   3.007   5.365
    2PC     O11 2863   0.990   2.859   5.463
    2PC      C1 2864   0.953   2.899   5.596
    2PC      HR 2865   1.023   2.846   5.661
    2PC      HS 2866   0.978   3.003   5.616
    2PC      C2 2867   0.815   2.845   5.639
    2PC      HX 2868   0.746   2.876   5.560
    2PC      C3 2869   0.788   2.890   5.783
    2PC      HA 2870   0.825   2.820   5.858
    2PC      HB 2871   0.813   2.994   5.805
    2PC     O31 2872   0.644   2.884   5.795
    2PC     P31 2873   0.573   2.853   5.936
    2PC     O32 2874   0.678   2.930   6.030
    2PC     C31 2875   0.629   2.954   6.163
    2PC     H1A 2876   0.543   3.019   6.147
    2PC     H1B 2877   0.594   2.861   6.209
    2PC     C32 2878   0.725   3.038   6.247
    2PC     H2A 2879   0.789   2.971   6.305
    2PC     H2B 2880   0.782   3.096   6.175
    2PC     N31 2881   0.671   3.140   6.342
    2PC     C33 2882   0.545   3.093   6.408
    2PC     H3A 2883   0.464   3.093   6.335
    2PC     H3B 2884   0.557   2.987   6.431
    2PC     H3C 2885   0.515   3.151   6.496
    2PC     C34 2886   0.785   3.152   6.438
    2PC     H4A 2887   0.777   3.223   6.521
    2PC     H4B 2888   0.795   3.055   6.486
    2PC     H4C 2889   0.878   3.170   6.382
    2PC     C35 2890   0.636   3.271   6.278
    2PC     H5A 2891   0.617   3.348   6.353
    2PC     H5B 2892   0.555   3.243   6.209
    2PC     H5C 2893   0.725   3.294   6.219
    2PC     O33 2894   0.440   2.915   5.949
    2PC     O34 2895   0.559   2.709   5.967
    2PC     O21 2896   0.823   2.702   5.642
    2PC     C21 2897   0.788   2.630   5.533
    2PC     O22 2898   0.729   2.676   5.438
    3OL     C12 2899   0.833   2.486   5.534
    3OL     H2R 2900   0.923   2.482   5.597
    3OL     H2S 2901   0.869   2.458   5.435
    3OL     C13 2902   0.727   2.399   5.603
    3OL     H3R 2903   0.629   2.436   5.571
    3OL     H3S 2904   0.741   2.433   5.706
    3OL     C14 2905   0.741   2.247   5.585
    3OL     H4R 2906   0.660   2.198   5.639
    3OL     H4S 2907   0.834   2.219   5.637
    3OL     C15 2908   0.741   2.202   5.439
    3OL     H5R 2909   0.816   2.250   5.375
    3OL     H5S 2910   0.645   2.222   5.392
    3OL     C16 2911   0.765   2.051   5.425
    3OL     H6R 2912   0.696   1.978   5.467
    3OL     H6S 2913   0.853   2.031   5.487
    3OL     C17 2914   0.798   2.002   5.283
    3OL     H7R 2915   0.832   1.899   5.275
    3OL     H7S 2916   0.887   2.057   5.251
    3OL     C18 2917   0.684   2.029   5.183
    3OL     H8R 2918   0.656   2.133   5.166
    3OL     H8S 2919   0.591   1.986   5.220
    3OL     C19 2920   0.723   1.947   5.063
    3OL     H9R 2921   0.727   1.840   5.083
    3OL    C110 2922   0.743   1.998   4.942
    3OL    H10R 2923   0.769   1.930   4.861
    3OL    C111 2924   0.736   2.145   4.909
    3OL    H11R 2925   0.776   2.206   4.990
    3OL    H11S 2926   0.630   2.167   4.896
    3OL    C112 2927   0.806   2.174   4.775
    3OL    H12R 2928   0.768   2.272   4.744
    3OL    H12S 2929   0.776   2.115   4.689
    3OL    C113 2930   0.959   2.182   4.790
    3OL    H13R 2931   0.993   2.079   4.805
    3OL    H13S 2932   0.996   2.244   4.872
    3OL    C114 2933   1.036   2.228   4.666
    3OL    H14R 2934   0.999   2.328   4.643
    3OL    H14S 2935   0.994   2.170   4.583
    3OL    C115 2936   1.189   2.234   4.680
    3OL    H15R 2937   1.223   2.130   4.681
    3OL    H15S 2938   1.206   2.282   4.777
    3OL    C116 2939   1.260   2.316   4.572
    3OL    H16R 2940   1.197   2.403   4.555
    3OL    H16S 2941   1.273   2.260   4.479
    3OL    C117 2942   1.399   2.360   4.622
    3OL    H17R 2943   1.398   2.407   4.721
    3OL    H17S 2944   1.440   2.437   4.557
    3OL    C118 2945   1.496   2.243   4.643
    3OL    H18R 2946   1.587   2.276   4.692
    3OL    H18S 2947   1.525   2.198   4.548
    3OL    H18T 2948   1.454   2.163   4.706
    1PA    C116 2949   3.958   3.301   3.381
    1PA    H16R 2950   3.915   3.373   3.452
    1PA    H16S 2951   3.886   3.226   3.349
    1PA    H16T 2952   4.010   3.357   3.304
    1PA    C115 2953   4.065   3.218   3.454
    1PA    H15R 2954   4.082   3.126   3.398
    1PA    H15S 2955   4.156   3.275   3.431
    1PA    C114 2956   4.036   3.194   3.602
    1PA    H14R 2957   4.014   3.290   3.648
    1PA    H14S 2958   3.943   3.142   3.625
    1PA    C113 2959   4.146   3.117   3.677
    1PA    H13R 2960   4.184   3.024   3.634
    1PA    H13S 2961   4.235   3.181   3.678
    1PA    C112 2962   4.111   3.086   3.823
    1PA    H12R 2963   4.101   3.186   3.865
    1PA    H12S 2964   4.020   3.026   3.836
    1PA    C111 2965   4.217   2.996   3.887
    1PA    H11R 2966   4.205   2.893   3.851
    1PA    H11S 2967   4.315   3.023   3.848
    1PA    C110 2968   4.207   2.999   4.040
    1PA    H10R 2969   4.277   2.926   4.081
    1PA    H10S 2970   4.255   3.094   4.066
    1PA     C19 2971   4.072   2.950   4.094
    1PA     H9R 2972   3.994   3.014   4.051
    1PA     H9S 2973   4.059   2.846   4.066
    1PA     C18 2974   4.080   2.939   4.247
    1PA     H8R 2975   4.135   2.852   4.284
    1PA     H8S 2976   4.132   3.022   4.295
    1PA     C17 2977   3.940   2.936   4.310
    1PA     H7R 2978   3.882   3.026   4.291
    1PA     H7S 2979   3.868   2.866   4.268
    1PA     C16 2980   3.959   2.918   4.462
    1PA     H6R 2981   4.037   2.843   4.472
    1PA     H6S 2982   4.014   3.003   4.504
    1PA     C15 2983   3.833   2.877   4.540
    1PA     H5R 2984   3.749   2.946   4.528
    1PA     H5S 2985   3.792   2.781   4.508
    1PA     C14 2986   3.864   2.853   4.688
    1PA     H4R 2987   3.774   2.833   4.746
    1PA     H4S 2988   3.923   2.761   4.693
    1PA     C13 2989   3.941   2.971   4.748
    1PA     H3R 2990   4.043   2.965   4.710
    1PA     H3S 2991   3.908   3.067   4.709
    1PA     C12 2992   3.931   2.980   4.901
    1PA     H2R 2993   3.990   3.068   4.926
    1PA     H2S 2994   3.829   2.980   4.940
    2PC     C11 2995   3.987   2.861   4.976
    2PC     O12 2996   4.074   2.792   4.926
    2PC     O11 2997   3.947   2.844   5.103
    2PC      C1 2998   3.997   2.737   5.185
    2PC      HR 2999   3.921   2.732   5.263
    2PC      HS 3000   4.000   2.645   5.125
    2PC      C2 3001   4.127   2.772   5.259
    2PC      HX 3002   4.156   2.694   5.329
    2PC      C3 3003   4.129   2.910   5.326
    2PC      HA 3004   4.237   2.925   5.329
    2PC      HB 3005   4.093   2.982   5.253
    2PC     O31 3006   4.049   2.909   5.445
    2PC     P31 3007   4.056   3.037   5.541
    2PC     O32 3008   4.130   2.967   5.664
    2PC     C31 3009   4.266   3.008   5.688
    2PC     H1A 3010   4.327   2.981   5.601
    2PC     H1B 3011   4.272   3.117   5.698
    2PC     C32 3012   4.306   2.947   5.823
    2PC     H2A 3013   4.287   2.840   5.832
    2PC     H2B 3014   4.413   2.961   5.837
    2PC     N31 3015   4.250   2.999   5.952
    2PC     C33 3016   4.101   2.982   5.958
    2PC     H3A 3017   4.071   3.011   6.059
    2PC     H3B 3018   4.056   3.039   5.876
    2PC     H3C 3019   4.090   2.875   5.942
    2PC     C34 3020   4.305   2.920   6.067
    2PC     H4A 3021   4.256   2.957   6.157
    2PC     H4B 3022   4.272   2.817   6.053
    2PC     H4C 3023   4.414   2.924   6.072
    2PC     C35 3024   4.295   3.141   5.969
    2PC     H5A 3025   4.403   3.141   5.958
    2PC     H5B 3026   4.279   3.154   6.076
    2PC     H5C 3027   4.247   3.204   5.894
    2PC     O33 3028   4.131   3.141   5.467
    2PC     O34 3029   3.918   3.082   5.569
    2PC     O21 3030   4.238   2.772   5.167
    2PC     C21 3031   4.288   2.659   5.117
    2PC     O22 3032   4.268   2.545   5.154
    3OL     C12 3033   4.378   2.689   5.000
    3OL     H2R 3034   4.354   2.793   4.978
    3OL     H2S 3035   4.348   2.621   4.920
    3OL     C13 3036   4.522   2.669   5.052
    3OL     H3R 3037   4.529   2.565   5.081
    3OL     H3S 3038   4.543   2.742   5.130
    3OL     C14 3039   4.618   2.684   4.933
    3OL     H4R 3040   4.622   2.791   4.910
    3OL     H4S 3041   4.589   2.631   4.842
    3OL     C15 3042   4.762   2.644   4.967
    3OL     H5R 3043   4.765   2.535   4.982
    3OL     H5S 3044   4.786   2.694   5.061
    3OL     C16 3045   4.856   2.674   4.850
    3OL     H6R 3046   4.829   2.774   4.817
    3OL     H6S 3047   4.832   2.604   4.769
    3OL     C17 3048   5.004   2.660   4.888
    3OL     H7R 3049   5.025   2.560   4.925
    3OL     H7S 3050   5.013   2.732   4.970
    3OL     C18 3051   5.097   2.710   4.776
    3OL     H8R 3052   5.088   2.818   4.764
    3OL     H8S 3053   5.064   2.674   4.678
    3OL     C19 3054   5.238   2.675   4.814
    3OL     H9R 3055   5.268   2.703   4.915
    3OL    C110 3056   5.326   2.617   4.734
    3OL    H10R 3057   5.422   2.598   4.781
    3OL    C111 3058   5.301   2.579   4.590
    3OL    H11R 3059   5.277   2.666   4.529
    3OL    H11S 3060   5.210   2.518   4.582
    3OL    C112 3061   5.418   2.495   4.538
    3OL    H12R 3062   5.421   2.398   4.589
    3OL    H12S 3063   5.514   2.542   4.562
    3OL    C113 3064   5.403   2.471   4.387
    3OL    H13R 3065   5.496   2.426   4.352
    3OL    H13S 3066   5.387   2.559   4.326
    3OL    C114 3067   5.295   2.368   4.350
    3OL    H14R 3068   5.198   2.415   4.363
    3OL    H14S 3069   5.300   2.281   4.417
    3OL    C115 3070   5.312   2.340   4.200
    3OL    H15R 3071   5.416   2.315   4.177
    3OL    H15S 3072   5.307   2.431   4.139
    3OL    C116 3073   5.223   2.228   4.145
    3OL    H16R 3074   5.220   2.146   4.217
    3OL    H16S 3075   5.265   2.183   4.055
    3OL    C117 3076   5.080   2.276   4.120
    3OL    H17R 3077   5.030   2.317   4.207
    3OL    H17S 3078   5.023   2.186   4.097
    3OL    C118 3079   5.068   2.377   4.004
    3OL    H18R 3080   5.117   2.470   4.034
    3OL    H18S 3081   4.967   2.410   3.979
    3OL    H18T 3082   5.112   2.339   3.912
    1PA    C116 3083   4.949   1.335   4.393
    1PA    H16R 3084   4.848   1.321   4.433
    1PA    H16S 3085   4.966   1.264   4.312
    1PA    H16T 3086   4.973   1.436   4.360
    1PA    C115 3087   5.049   1.296   4.503
    1PA    H15R 3088   5.065   1.384   4.566
    1PA    H15S 3089   5.006   1.210   4.555
    1PA    C114 3090   5.181   1.250   4.438
    1PA    H14R 3091   5.154   1.168   4.371
    1PA    H14S 3092   5.225   1.325   4.373
    1PA    C113 3093   5.282   1.201   4.542
    1PA    H13R 3094   5.367   1.150   4.496
    1PA    H13S 3095   5.324   1.291   4.587
    1PA    C112 3096   5.232   1.117   4.661
    1PA    H12R 3097   5.161   1.185   4.708
    1PA    H12S 3098   5.182   1.024   4.634
    1PA    C111 3099   5.351   1.098   4.757
    1PA    H11R 3100   5.424   1.047   4.693
    1PA    H11S 3101   5.393   1.195   4.783
    1PA    C110 3102   5.317   1.014   4.881
    1PA    H10R 3103   5.255   0.930   4.850
    1PA    H10S 3104   5.410   0.972   4.920
    1PA     C19 3105   5.237   1.082   4.993
    1PA     H9R 3106   5.275   1.180   5.023
    1PA     H9S 3107   5.136   1.107   4.960
    1PA     C18 3108   5.217   0.992   5.115
    1PA     H8R 3109   5.134   0.923   5.096
    1PA     H8S 3110   5.305   0.929   5.124
    1PA     C17 3111   5.183   1.067   5.245
    1PA     H7R 3112   5.158   0.992   5.320
    1PA     H7S 3113   5.265   1.128   5.284
    1PA     C16 3114   5.067   1.162   5.215
    1PA     H6R 3115   5.082   1.244   5.145
    1PA     H6S 3116   4.993   1.098   5.165
    1PA     C15 3117   5.009   1.227   5.341
    1PA     H5R 3118   4.906   1.249   5.314
    1PA     H5S 3119   5.007   1.162   5.429
    1PA     C14 3120   5.087   1.356   5.371
    1PA     H4R 3121   5.181   1.320   5.412
    1PA     H4S 3122   5.105   1.414   5.280
    1PA     C13 3123   5.016   1.444   5.474
    1PA     H3R 3124   4.915   1.468   5.440
    1PA     H3S 3125   5.004   1.397   5.572
    1PA     C12 3126   5.103   1.570   5.491
    1PA     H2R 3127   5.201   1.548   5.535
    1PA     H2S 3128   5.120   1.620   5.395
    2PC     C11 3129   5.054   1.680   5.581
    2PC     O12 3130   4.941   1.667   5.624
    2PC     O11 3131   5.146   1.774   5.610
    2PC      C1 3132   5.089   1.891   5.671
    2PC      HR 3133   5.002   1.928   5.616
    2PC      HS 3134   5.058   1.876   5.775
    2PC      C2 3135   5.198   1.999   5.665
    2PC      HX 3136   5.291   1.949   5.639
    2PC      C3 3137   5.206   2.072   5.800
    2PC      HA 3138   5.244   2.005   5.878
    2PC      HB 3139   5.273   2.158   5.792
    2PC     O31 3140   5.076   2.123   5.836
    2PC     P31 3141   5.067   2.186   5.983
    2PC     O32 3142   4.925   2.126   6.026
    2PC     C31 3143   4.911   2.038   6.139
    2PC     H1A 3144   4.804   2.015   6.136
    2PC     H1B 3145   4.977   1.954   6.116
    2PC     C32 3146   4.934   2.107   6.275
    2PC     H2A 3147   5.034   2.151   6.274
    2PC     H2B 3148   4.867   2.192   6.286
    2PC     N31 3149   4.926   2.017   6.394
    2PC     C33 3150   4.913   2.093   6.523
    2PC     H3A 3151   4.806   2.108   6.531
    2PC     H3B 3152   4.945   2.044   6.615
    2PC     H3C 3153   4.971   2.184   6.511
    2PC     C34 3154   4.814   1.917   6.386
    2PC     H4A 3155   4.722   1.975   6.379
    2PC     H4B 3156   4.829   1.856   6.297
    2PC     H4C 3157   4.808   1.872   6.485
    2PC     C35 3158   5.056   1.941   6.401
    2PC     H5A 3159   5.026   1.865   6.474
    2PC     H5B 3160   5.126   2.013   6.445
    2PC     H5C 3161   5.071   1.896   6.303
    2PC     O33 3162   5.170   2.129   6.073
    2PC     O34 3163   5.078   2.333   5.990
    2PC     O21 3164   5.157   2.095   5.566
    2PC     C21 3165   5.240   2.195   5.531
    2PC     O22 3166   5.357   2.194   5.564
    3OL     C12 3167   5.172   2.294   5.441
    3OL     H2R 3168   5.121   2.372   5.498
    3OL     H2S 3169   5.096   2.242   5.381
    3OL     C13 3170   5.275   2.357   5.347
    3OL     H3R 3171   5.323   2.283   5.283
    3OL     H3S 3172   5.355   2.396   5.411
    3OL     C14 3173   5.211   2.470   5.265
    3OL     H4R 3174   5.143   2.534   5.322
    3OL     H4S 3175   5.146   2.431   5.186
    3OL     C15 3176   5.320   2.541   5.183
    3OL     H5R 3177   5.383   2.603   5.247
    3OL     H5S 3178   5.270   2.609   5.114
    3OL     C16 3179   5.407   2.447   5.099
    3OL     H6R 3180   5.460   2.378   5.165
    3OL     H6S 3181   5.484   2.503   5.045
    3OL     C17 3182   5.327   2.364   4.997
    3OL     H7R 3183   5.270   2.437   4.940
    3OL     H7S 3184   5.256   2.297   5.045
    3OL     C18 3185   5.406   2.272   4.902
    3OL     H8R 3186   5.467   2.332   4.834
    3OL     H8S 3187   5.332   2.220   4.841
    3OL     C19 3188   5.481   2.168   4.981
    3OL     H9R 3189   5.448   2.144   5.081
    3OL    C110 3190   5.587   2.106   4.931
    3OL    H10R 3191   5.636   2.036   4.998
    3OL    C111 3192   5.623   2.097   4.785
    3OL    H11R 3193   5.711   2.034   4.773
    3OL    H11S 3194   5.652   2.194   4.743
    3OL    C112 3195   5.504   2.039   4.707
    3OL    H12R 3196   5.407   2.059   4.753
    3OL    H12S 3197   5.519   1.930   4.713
    3OL    C113 3198   5.509   2.069   4.557
    3OL    H13R 3199   5.528   2.176   4.547
    3OL    H13S 3200   5.419   2.035   4.505
    3OL    C114 3201   5.631   1.994   4.500
    3OL    H14R 3202   5.621   1.890   4.532
    3OL    H14S 3203   5.732   2.017   4.535
    3OL    C115 3204   5.624   2.004   4.347
    3OL    H15R 3205   5.525   1.986   4.304
    3OL    H15S 3206   5.704   1.935   4.319
    3OL    C116 3207   5.675   2.135   4.287
    3OL    H16R 3208   5.779   2.160   4.310
    3OL    H16S 3209   5.611   2.219   4.315
    3OL    C117 3210   5.669   2.128   4.134
    3OL    H17R 3211   5.698   2.216   4.077
    3OL    H17S 3212   5.562   2.115   4.116
    3OL    C118 3213   5.755   2.016   4.073
    3OL    H18R 3214   5.738   1.920   4.121
    3OL    H18S 3215   5.857   2.049   4.092
    3OL    H18T 3216   5.728   2.011   3.967
    1PA    C116 3217   1.212   6.648   3.910
    1PA    H16R 3218   1.301   6.587   3.921
    1PA    H16S 3219   1.228   6.739   3.852
    1PA    H16T 3220   1.149   6.589   3.844
    1PA    C115 3221   1.167   6.674   4.055
    1PA    H15R 3222   1.231   6.746   4.105
    1PA    H15S 3223   1.070   6.722   4.046
    1PA    C114 3224   1.155   6.541   4.131
    1PA    H14R 3225   1.073   6.484   4.086
    1PA    H14S 3226   1.241   6.478   4.108
    1PA    C113 3227   1.142   6.560   4.283
    1PA    H13R 3228   1.228   6.614   4.323
    1PA    H13S 3229   1.049   6.616   4.297
    1PA    C112 3230   1.114   6.426   4.352
    1PA    H12R 3231   1.121   6.453   4.457
    1PA    H12S 3232   1.012   6.394   4.326
    1PA    C111 3233   1.214   6.311   4.337
    1PA    H11R 3234   1.216   6.275   4.234
    1PA    H11S 3235   1.313   6.347   4.366
    1PA    C110 3236   1.181   6.200   4.439
    1PA    H10R 3237   1.181   6.242   4.540
    1PA    H10S 3238   1.079   6.165   4.429
    1PA     C19 3239   1.277   6.080   4.436
    1PA     H9R 3240   1.290   6.052   4.331
    1PA     H9S 3241   1.379   6.098   4.472
    1PA     C18 3242   1.212   5.969   4.519
    1PA     H8R 3243   1.193   5.994   4.623
    1PA     H8S 3244   1.108   5.948   4.491
    1PA     C17 3245   1.288   5.836   4.532
    1PA     H7R 3246   1.312   5.811   4.429
    1PA     H7S 3247   1.384   5.848   4.582
    1PA     C16 3248   1.197   5.732   4.599
    1PA     H6R 3249   1.097   5.740   4.556
    1PA     H6S 3250   1.242   5.637   4.570
    1PA     C15 3251   1.192   5.752   4.751
    1PA     H5R 3252   1.295   5.749   4.788
    1PA     H5S 3253   1.150   5.851   4.772
    1PA     C14 3254   1.094   5.646   4.803
    1PA     H4R 3255   0.996   5.663   4.758
    1PA     H4S 3256   1.134   5.553   4.761
    1PA     C13 3257   1.081   5.650   4.956
    1PA     H3R 3258   1.179   5.641   5.001
    1PA     H3S 3259   1.043   5.751   4.975
    1PA     C12 3260   0.974   5.549   4.999
    1PA     H2R 3261   0.876   5.579   4.963
    1PA     H2S 3262   0.991   5.454   4.948
    2PC     C11 3263   0.973   5.532   5.149
    2PC     O12 3264   0.869   5.519   5.211
    2PC     O11 3265   1.094   5.516   5.205
    2PC      C1 3266   1.110   5.490   5.346
    2PC      HR 3267   1.213   5.515   5.374
    2PC      HS 3268   1.039   5.557   5.395
    2PC      C2 3269   1.080   5.342   5.373
    2PC      HX 3270   0.983   5.334   5.324
    2PC      C3 3271   1.055   5.312   5.522
    2PC      HA 3272   1.022   5.402   5.574
    2PC      HB 3273   0.986   5.229   5.541
    2PC     O31 3274   1.184   5.299   5.584
    2PC     P31 3275   1.199   5.282   5.742
    2PC     O32 3276   1.358   5.264   5.759
    2PC     C31 3277   1.415   5.266   5.891
    2PC     H1A 3278   1.344   5.226   5.965
    2PC     H1B 3279   1.505   5.204   5.887
    2PC     C32 3280   1.447   5.414   5.914
    2PC     H2A 3281   1.512   5.454   5.835
    2PC     H2B 3282   1.359   5.478   5.903
    2PC     N31 3283   1.513   5.452   6.043
    2PC     C33 3284   1.653   5.398   6.041
    2PC     H3A 3285   1.677   5.404   5.935
    2PC     H3B 3286   1.708   5.471   6.100
    2PC     H3C 3287   1.645   5.298   6.083
    2PC     C34 3288   1.504   5.601   6.058
    2PC     H4A 3289   1.535   5.635   5.959
    2PC     H4B 3290   1.400   5.630   6.072
    2PC     H4C 3291   1.573   5.641   6.132
    2PC     C35 3292   1.443   5.394   6.163
    2PC     H5A 3293   1.496   5.431   6.251
    2PC     H5B 3294   1.450   5.285   6.168
    2PC     H5C 3295   1.337   5.418   6.160
    2PC     O33 3296   1.158   5.398   5.825
    2PC     O34 3297   1.117   5.166   5.783
    2PC     O21 3298   1.177   5.255   5.313
    2PC     C21 3299   1.166   5.121   5.314
    2PC     O22 3300   1.076   5.057   5.365
    3OL     C12 3301   1.278   5.060   5.233
    3OL     H2R 3302   1.307   4.963   5.275
    3OL     H2S 3303   1.367   5.122   5.238
    3OL     C13 3304   1.226   5.048   5.089
    3OL     H3R 3305   1.127   5.002   5.085
    3OL     H3S 3306   1.300   4.986   5.039
    3OL     C14 3307   1.228   5.179   5.009
    3OL     H4R 3308   1.314   5.243   5.029
    3OL     H4S 3309   1.144   5.240   5.041
    3OL     C15 3310   1.221   5.146   4.859
    3OL     H5R 3311   1.121   5.105   4.846
    3OL     H5S 3312   1.295   5.071   4.828
    3OL     C16 3313   1.232   5.269   4.769
    3OL     H6R 3314   1.286   5.345   4.825
    3OL     H6S 3315   1.134   5.306   4.738
    3OL     C17 3316   1.305   5.233   4.638
    3OL     H7R 3317   1.404   5.189   4.649
    3OL     H7S 3318   1.327   5.325   4.582
    3OL     C18 3319   1.220   5.137   4.553
    3OL     H8R 3320   1.121   5.181   4.549
    3OL     H8S 3321   1.219   5.044   4.611
    3OL     C19 3322   1.267   5.123   4.410
    3OL     H9R 3323   1.371   5.091   4.404
    3OL    C110 3324   1.191   5.135   4.303
    3OL    H10R 3325   1.232   5.118   4.203
    3OL    C111 3326   1.045   5.171   4.294
    3OL    H11R 3327   1.030   5.253   4.224
    3OL    H11S 3328   1.007   5.213   4.387
    3OL    C112 3329   0.963   5.049   4.247
    3OL    H12R 3330   1.022   5.014   4.163
    3OL    H12S 3331   0.868   5.088   4.209
    3OL    C113 3332   0.952   4.940   4.354
    3OL    H13R 3333   1.048   4.919   4.403
    3OL    H13S 3334   0.913   4.846   4.315
    3OL    C114 3335   0.860   4.985   4.469
    3OL    H14R 3336   0.770   5.030   4.425
    3OL    H14S 3337   0.906   5.067   4.525
    3OL    C115 3338   0.824   4.879   4.574
    3OL    H15R 3339   0.776   4.941   4.651
    3OL    H15S 3340   0.917   4.841   4.619
    3OL    C116 3341   0.727   4.777   4.514
    3OL    H16R 3342   0.789   4.717   4.448
    3OL    H16S 3343   0.648   4.822   4.454
    3OL    C117 3344   0.656   4.694   4.621
    3OL    H17R 3345   0.729   4.679   4.701
    3OL    H17S 3346   0.619   4.592   4.603
    3OL    C118 3347   0.542   4.770   4.690
    3OL    H18R 3348   0.502   4.706   4.769
    3OL    H18S 3349   0.463   4.793   4.618
    3OL    H18T 3350   0.585   4.857   4.740
    1PA    C116 3351   1.794   6.116   3.995
    1PA    H16R 3352   1.799   6.209   4.052
    1PA    H16S 3353   1.754   6.157   3.902
    1PA    H16T 3354   1.893   6.071   3.987
    1PA    C115 3355   1.693   6.017   4.055
    1PA    H15R 3356   1.597   6.067   4.046
    1PA    H15S 3357   1.687   5.923   3.999
    1PA    C114 3358   1.713   5.988   4.205
    1PA    H14R 3359   1.817   5.979   4.237
    1PA    H14S 3360   1.681   6.080   4.254
    1PA    C113 3361   1.627   5.871   4.253
    1PA    H13R 3362   1.523   5.907   4.255
    1PA    H13S 3363   1.620   5.789   4.181
    1PA    C112 3364   1.675   5.818   4.389
    1PA    H12R 3365   1.784   5.806   4.385
    1PA    H12S 3366   1.649   5.885   4.470
    1PA    C111 3367   1.605   5.686   4.427
    1PA    H11R 3368   1.497   5.700   4.432
    1PA    H11S 3369   1.642   5.629   4.342
    1PA    C110 3370   1.660   5.636   4.561
    1PA    H10R 3371   1.768   5.634   4.551
    1PA    H10S 3372   1.627   5.700   4.643
    1PA     C19 3373   1.623   5.488   4.583
    1PA     H9R 3374   1.514   5.474   4.577
    1PA     H9S 3375   1.671   5.434   4.502
    1PA     C18 3376   1.679   5.428   4.712
    1PA     H8R 3377   1.660   5.320   4.707
    1PA     H8S 3378   1.787   5.434   4.720
    1PA     C17 3379   1.617   5.489   4.839
    1PA     H7R 3380   1.654   5.587   4.867
    1PA     H7S 3381   1.510   5.495   4.816
    1PA     C16 3382   1.628   5.393   4.958
    1PA     H6R 3383   1.587   5.294   4.934
    1PA     H6S 3384   1.735   5.373   4.961
    1PA     C15 3385   1.562   5.449   5.085
    1PA     H5R 3386   1.590   5.555   5.092
    1PA     H5S 3387   1.453   5.448   5.070
    1PA     C14 3388   1.594   5.368   5.211
    1PA     H4R 3389   1.569   5.263   5.200
    1PA     H4S 3390   1.701   5.380   5.230
    1PA     C13 3391   1.506   5.415   5.328
    1PA     H3R 3392   1.538   5.517   5.354
    1PA     H3S 3393   1.401   5.409   5.300
    1PA     C12 3394   1.505   5.324   5.451
    1PA     H2R 3395   1.419   5.349   5.513
    1PA     H2S 3396   1.504   5.221   5.415
    2PC     C11 3397   1.635   5.333   5.527
    2PC     O12 3398   1.716   5.422   5.508
    2PC     O11 3399   1.645   5.242   5.625
    2PC      C1 3400   1.763   5.238   5.707
    2PC      HR 3401   1.829   5.324   5.695
    2PC      HS 3402   1.723   5.226   5.808
    2PC      C2 3403   1.842   5.111   5.670
    2PC      HX 3404   1.775   5.028   5.644
    2PC      C3 3405   1.948   5.083   5.777
    2PC      HA 3406   1.905   5.063   5.875
    2PC      HB 3407   2.017   5.001   5.755
    2PC     O31 3408   2.017   5.206   5.808
    2PC     P31 3409   2.141   5.206   5.908
    2PC     O32 3410   2.077   5.197   6.055
    2PC     C31 3411   2.162   5.150   6.160
    2PC     H1A 3412   2.211   5.055   6.135
    2PC     H1B 3413   2.242   5.223   6.178
    2PC     C32 3414   2.081   5.133   6.289
    2PC     H2A 3415   2.005   5.056   6.279
    2PC     H2B 3416   2.150   5.108   6.371
    2PC     N31 3417   2.000   5.248   6.339
    2PC     C33 3418   1.884   5.268   6.247
    2PC     H3A 3419   1.925   5.290   6.149
    2PC     H3B 3420   1.828   5.174   6.241
    2PC     H3C 3421   1.827   5.355   6.282
    2PC     C34 3422   1.935   5.204   6.467
    2PC     H4A 3423   1.885   5.292   6.509
    2PC     H4B 3424   1.870   5.119   6.449
    2PC     H4C 3425   2.021   5.176   6.529
    2PC     C35 3426   2.088   5.369   6.351
    2PC     H5A 3427   2.137   5.395   6.257
    2PC     H5B 3428   2.160   5.355   6.433
    2PC     H5C 3429   2.025   5.450   6.389
    2PC     O33 3430   2.219   5.085   5.873
    2PC     O34 3431   2.234   5.321   5.899
    2PC     O21 3432   1.904   5.134   5.543
    2PC     C21 3433   1.970   5.036   5.479
    2PC     O22 3434   1.965   4.917   5.500
    3OL     C12 3435   2.064   5.094   5.375
    3OL     H2R 3436   2.145   5.022   5.370
    3OL     H2S 3437   2.107   5.191   5.401
    3OL     C13 3438   1.994   5.112   5.240
    3OL     H3R 3439   1.896   5.159   5.253
    3OL     H3S 3440   1.971   5.016   5.192
    3OL     C14 3441   2.071   5.181   5.127
    3OL     H4R 3442   2.016   5.160   5.035
    3OL     H4S 3443   2.170   5.134   5.118
    3OL     C15 3444   2.083   5.330   5.160
    3OL     H5R 3445   2.149   5.336   5.247
    3OL     H5S 3446   1.983   5.369   5.183
    3OL     C16 3447   2.144   5.416   5.049
    3OL     H6R 3448   2.231   5.362   5.010
    3OL     H6S 3449   2.188   5.507   5.090
    3OL     C17 3450   2.045   5.450   4.937
    3OL     H7R 3451   1.965   5.517   4.968
    3OL     H7S 3452   2.005   5.355   4.900
    3OL     C18 3453   2.111   5.512   4.812
    3OL     H8R 3454   2.159   5.604   4.844
    3OL     H8S 3455   2.031   5.539   4.743
    3OL     C19 3456   2.209   5.422   4.742
    3OL     H9R 3457   2.292   5.384   4.802
    3OL    C110 3458   2.213   5.404   4.611
    3OL    H10R 3459   2.294   5.340   4.578
    3OL    C111 3460   2.116   5.448   4.504
    3OL    H11R 3461   2.031   5.505   4.543
    3OL    H11S 3462   2.067   5.362   4.459
    3OL    C112 3463   2.188   5.520   4.389
    3OL    H12R 3464   2.284   5.471   4.371
    3OL    H12S 3465   2.203   5.621   4.426
    3OL    C113 3466   2.112   5.534   4.257
    3OL    H13R 3467   2.019   5.586   4.280
    3OL    H13S 3468   2.095   5.434   4.216
    3OL    C114 3469   2.188   5.630   4.164
    3OL    H14R 3470   2.292   5.608   4.186
    3OL    H14S 3471   2.171   5.729   4.208
    3OL    C115 3472   2.144   5.632   4.017
    3OL    H15R 3473   2.037   5.625   3.995
    3OL    H15S 3474   2.190   5.541   3.978
    3OL    C116 3475   2.219   5.735   3.932
    3OL    H16R 3476   2.237   5.684   3.837
    3OL    H16S 3477   2.317   5.740   3.981
    3OL    C117 3478   2.146   5.868   3.911
    3OL    H17R 3479   2.215   5.943   3.873
    3OL    H17S 3480   2.119   5.906   4.010
    3OL    C118 3481   2.026   5.852   3.817
    3OL    H18R 3482   1.987   5.952   3.799
    3OL    H18S 3483   1.943   5.795   3.861
    3OL    H18T 3484   2.048   5.805   3.721
    1PA    C116 3485   6.439   2.223   4.283
    1PA    H16R 3486   6.516   2.267   4.347
    1PA    H16S 3487   6.498   2.176   4.204
    1PA    H16T 3488   6.377   2.299   4.235
    1PA    C115 3489   6.360   2.119   4.363
    1PA    H15R 3490   6.324   2.042   4.294
    1PA    H15S 3491   6.418   2.063   4.436
    1PA    C114 3492   6.241   2.193   4.426
    1PA    H14R 3493   6.284   2.264   4.499
    1PA    H14S 3494   6.180   2.252   4.358
    1PA    C113 3495   6.149   2.096   4.502
    1PA    H13R 3496   6.101   2.024   4.436
    1PA    H13S 3497   6.199   2.051   4.587
    1PA    C112 3498   6.028   2.172   4.559
    1PA    H12R 3499   5.960   2.228   4.494
    1PA    H12S 3500   5.966   2.089   4.593
    1PA    C111 3501   6.056   2.256   4.684
    1PA    H11R 3502   6.106   2.191   4.756
    1PA    H11S 3503   6.124   2.338   4.658
    1PA    C110 3504   5.924   2.302   4.748
    1PA    H10R 3505   5.857   2.336   4.669
    1PA    H10S 3506   5.872   2.214   4.786
    1PA     C19 3507   5.941   2.401   4.864
    1PA     H9R 3508   5.981   2.351   4.953
    1PA     H9S 3509   5.998   2.491   4.839
    1PA     C18 3510   5.804   2.445   4.917
    1PA     H8R 3511   5.747   2.490   4.834
    1PA     H8S 3512   5.741   2.365   4.956
    1PA     C17 3513   5.818   2.549   5.030
    1PA     H7R 3514   5.907   2.606   5.005
    1PA     H7S 3515   5.738   2.623   5.038
    1PA     C16 3516   5.830   2.481   5.167
    1PA     H6R 3517   5.738   2.423   5.180
    1PA     H6S 3518   5.916   2.414   5.160
    1PA     C15 3519   5.849   2.578   5.284
    1PA     H5R 3520   5.896   2.529   5.369
    1PA     H5S 3521   5.920   2.659   5.264
    1PA     C14 3522   5.713   2.620   5.341
    1PA     H4R 3523   5.652   2.668   5.264
    1PA     H4S 3524   5.662   2.527   5.367
    1PA     C13 3525   5.730   2.704   5.468
    1PA     H3R 3526   5.630   2.734   5.502
    1PA     H3S 3527   5.772   2.644   5.549
    1PA     C12 3528   5.817   2.830   5.463
    1PA     H2R 3529   5.919   2.791   5.467
    1PA     H2S 3530   5.806   2.894   5.376
    2PC     C11 3531   5.804   2.907   5.592
    2PC     O12 3532   5.702   2.957   5.635
    2PC     O11 3533   5.918   2.918   5.661
    2PC      C1 3534   5.919   3.018   5.765
    2PC      HR 3535   5.867   3.107   5.727
    2PC      HS 3536   5.862   2.989   5.854
    2PC      C2 3537   6.064   3.042   5.809
    2PC      HX 3538   6.111   2.943   5.809
    2PC      C3 3539   6.090   3.105   5.947
    2PC      HA 3540   6.055   3.038   6.025
    2PC      HB 3541   6.194   3.119   5.975
    2PC     O31 3542   6.015   3.228   5.959
    2PC     P31 3543   6.027   3.303   6.101
    2PC     O32 3544   5.895   3.393   6.097
    2PC     C31 3545   5.855   3.473   6.209
    2PC     H1A 3546   5.835   3.397   6.286
    2PC     H1B 3547   5.943   3.531   6.237
    2PC     C32 3548   5.731   3.557   6.173
    2PC     H2A 3549   5.698   3.610   6.262
    2PC     H2B 3550   5.743   3.618   6.084
    2PC     N31 3551   5.607   3.480   6.139
    2PC     C33 3552   5.488   3.571   6.130
    2PC     H3A 3553   5.401   3.511   6.103
    2PC     H3B 3554   5.455   3.611   6.226
    2PC     H3C 3555   5.512   3.645   6.054
    2PC     C34 3556   5.623   3.412   6.006
    2PC     H4A 3557   5.631   3.492   5.933
    2PC     H4B 3558   5.710   3.346   6.004
    2PC     H4C 3559   5.538   3.348   5.982
    2PC     C35 3560   5.567   3.380   6.244
    2PC     H5A 3561   5.472   3.347   6.202
    2PC     H5B 3562   5.551   3.429   6.340
    2PC     H5C 3563   5.643   3.302   6.251
    2PC     O33 3564   6.033   3.198   6.205
    2PC     O34 3565   6.152   3.383   6.097
    2PC     O21 3566   6.118   3.125   5.705
    2PC     C21 3567   6.252   3.122   5.690
    2PC     O22 3568   6.331   3.065   5.762
    3OL     C12 3569   6.296   3.183   5.559
    3OL     H2R 3570   6.401   3.165   5.533
    3OL     H2S 3571   6.268   3.288   5.548
    3OL     C13 3572   6.224   3.114   5.443
    3OL     H3R 3573   6.213   3.006   5.460
    3OL     H3S 3574   6.282   3.130   5.352
    3OL     C14 3575   6.087   3.168   5.401
    3OL     H4R 3576   6.095   3.269   5.359
    3OL     H4S 3577   6.018   3.179   5.485
    3OL     C15 3578   6.022   3.073   5.299
    3OL     H5R 3579   5.930   3.122   5.263
    3OL     H5S 3580   5.995   2.975   5.338
    3OL     C16 3581   6.101   3.040   5.172
    3OL     H6R 3582   6.206   3.017   5.188
    3OL     H6S 3583   6.099   3.126   5.104
    3OL     C17 3584   6.027   2.927   5.098
    3OL     H7R 3585   5.930   2.970   5.071
    3OL     H7S 3586   6.013   2.837   5.158
    3OL     C18 3587   6.099   2.891   4.967
    3OL     H8R 3588   6.079   2.970   4.895
    3OL     H8S 3589   6.054   2.799   4.932
    3OL     C19 3590   6.249   2.875   4.979
    3OL     H9R 3591   6.306   2.968   4.977
    3OL    C110 3592   6.311   2.758   4.984
    3OL    H10R 3593   6.419   2.766   5.000
    3OL    C111 3594   6.250   2.621   4.977
    3OL    H11R 3595   6.145   2.616   4.947
    3OL    H11S 3596   6.262   2.587   5.080
    3OL    C112 3597   6.328   2.533   4.878
    3OL    H12R 3598   6.302   2.430   4.901
    3OL    H12S 3599   6.431   2.539   4.914
    3OL    C113 3600   6.316   2.584   4.734
    3OL    H13R 3601   6.355   2.686   4.731
    3OL    H13S 3602   6.213   2.590   4.698
    3OL    C114 3603   6.402   2.492   4.645
    3OL    H14R 3604   6.367   2.389   4.651
    3OL    H14S 3605   6.505   2.499   4.682
    3OL    C115 3606   6.407   2.548   4.502
    3OL    H15R 3607   6.306   2.579   4.474
    3OL    H15S 3608   6.426   2.457   4.446
    3OL    C116 3609   6.514   2.658   4.490
    3OL    H16R 3610   6.612   2.616   4.511
    3OL    H16S 3611   6.497   2.737   4.564
    3OL    C117 3612   6.503   2.704   4.344
    3OL    H17R 3613   6.401   2.739   4.334
    3OL    H17S 3614   6.513   2.620   4.276
    3OL    C118 3615   6.606   2.816   4.319
    3OL    H18R 3616   6.622   2.833   4.212
    3OL    H18S 3617   6.698   2.796   4.374
    3OL    H18T 3618   6.578   2.909   4.369
    1PA    C116 3619   0.458   0.656   4.156
    1PA    H16R 3620   0.483   0.566   4.100
    1PA    H16S 3621   0.544   0.720   4.179
    1PA    H16T 3622   0.400   0.713   4.083
    1PA    C115 3623   0.367   0.639   4.279
    1PA    H15R 3624   0.301   0.722   4.305
    1PA    H15S 3625   0.299   0.554   4.269
    1PA    C114 3626   0.455   0.612   4.402
    1PA    H14R 3627   0.530   0.690   4.417
    1PA    H14S 3628   0.392   0.611   4.492
    1PA    C113 3629   0.519   0.473   4.407
    1PA    H13R 3630   0.432   0.410   4.391
    1PA    H13S 3631   0.597   0.452   4.333
    1PA    C112 3632   0.579   0.452   4.547
    1PA    H12R 3633   0.663   0.516   4.574
    1PA    H12S 3634   0.504   0.466   4.624
    1PA    C111 3635   0.632   0.309   4.570
    1PA    H11R 3636   0.634   0.292   4.678
    1PA    H11S 3637   0.558   0.239   4.532
    1PA    C110 3638   0.770   0.269   4.515
    1PA    H10R 3639   0.769   0.275   4.406
    1PA    H10S 3640   0.843   0.341   4.552
    1PA     C19 3641   0.808   0.123   4.544
    1PA     H9R 3642   0.725   0.060   4.512
    1PA     H9S 3643   0.898   0.095   4.487
    1PA     C18 3644   0.836   0.085   4.690
    1PA     H8R 3645   0.922   0.146   4.721
    1PA     H8S 3646   0.749   0.117   4.747
    1PA     C17 3647   0.867  -0.066   4.689
    1PA     H7R 3648   0.777  -0.129   4.683
    1PA     H7S 3649   0.942  -0.088   4.613
    1PA     C16 3650   0.926  -0.106   4.825
    1PA     H6R 3651   1.019  -0.054   4.846
    1PA     H6S 3652   0.867  -0.072   4.911
    1PA     C15 3653   0.952  -0.257   4.835
    1PA     H5R 3654   0.851  -0.299   4.830
    1PA     H5S 3655   0.998  -0.294   4.743
    1PA     C14 3656   1.026  -0.312   4.957
    1PA     H4R 3657   1.053  -0.417   4.945
    1PA     H4S 3658   1.116  -0.251   4.971
    1PA     C13 3659   0.944  -0.287   5.085
    1PA     H3R 3660   0.927  -0.182   5.111
    1PA     H3S 3661   0.844  -0.329   5.073
    1PA     C12 3662   1.017  -0.352   5.204
    1PA     H2R 3663   1.036  -0.458   5.192
    1PA     H2S 3664   1.107  -0.294   5.225
    2PC     C11 3665   0.932  -0.335   5.327
    2PC     O12 3666   0.858  -0.421   5.370
    2PC     O11 3667   0.919  -0.212   5.378
    2PC      C1 3668   0.835  -0.176   5.490
    2PC      HR 3669   0.729  -0.204   5.482
    2PC      HS 3670   0.891  -0.215   5.576
    2PC      C2 3671   0.829  -0.023   5.488
    2PC      HX 3672   0.934   0.012   5.483
    2PC      C3 3673   0.752   0.041   5.604
    2PC      HA 3674   0.808   0.011   5.693
    2PC      HB 3675   0.751   0.150   5.597
    2PC     O31 3676   0.619  -0.013   5.615
    2PC     P31 3677   0.538   0.014   5.750
    2PC     O32 3678   0.389   0.000   5.693
    2PC     C31 3679   0.295   0.107   5.712
    2PC     H1A 3680   0.290   0.112   5.821
    2PC     H1B 3681   0.339   0.198   5.671
    2PC     C32 3682   0.151   0.088   5.661
    2PC     H2A 3683   0.084   0.171   5.682
    2PC     H2B 3684   0.156   0.074   5.553
    2PC     N31 3685   0.070  -0.032   5.700
    2PC     C33 3686  -0.065  -0.002   5.642
    2PC     H3A 3687  -0.128  -0.090   5.643
    2PC     H3B 3688  -0.103   0.076   5.709
    2PC     H3C 3689  -0.046   0.034   5.541
    2PC     C34 3690   0.134  -0.148   5.630
    2PC     H4A 3691   0.232  -0.175   5.668
    2PC     H4B 3692   0.061  -0.227   5.649
    2PC     H4C 3693   0.144  -0.123   5.524
    2PC     C35 3694   0.059  -0.035   5.849
    2PC     H5A 3695   0.004  -0.129   5.858
    2PC     H5B 3696   0.003   0.053   5.879
    2PC     H5C 3697   0.161  -0.042   5.888
    2PC     O33 3698   0.566  -0.058   5.876
    2PC     O34 3699   0.557   0.153   5.800
    2PC     O21 3700   0.767   0.025   5.367
    2PC     C21 3701   0.779   0.150   5.321
    2PC     O22 3702   0.843   0.240   5.370
    3OL     C12 3703   0.711   0.170   5.188
    3OL     H2R 3704   0.784   0.223   5.127
    3OL     H2S 3705   0.626   0.236   5.211
    3OL     C13 3706   0.664   0.039   5.124
    3OL     H3R 3707   0.630  -0.024   5.207
    3OL     H3S 3708   0.744  -0.019   5.078
    3OL     C14 3709   0.562   0.076   5.015
    3OL     H4R 3710   0.615   0.137   4.942
    3OL     H4S 3711   0.476   0.126   5.061
    3OL     C15 3712   0.509  -0.046   4.938
    3OL     H5R 3713   0.451  -0.100   5.013
    3OL     H5S 3714   0.588  -0.112   4.901
    3OL     C16 3715   0.403  -0.005   4.834
    3OL     H6R 3716   0.456   0.066   4.770
    3OL     H6S 3717   0.326   0.051   4.887
    3OL     C17 3718   0.348  -0.123   4.754
    3OL     H7R 3719   0.255  -0.087   4.708
    3OL     H7S 3720   0.333  -0.213   4.814
    3OL     C18 3721   0.454  -0.154   4.647
    3OL     H8R 3722   0.551  -0.157   4.696
    3OL     H8S 3723   0.461  -0.071   4.577
    3OL     C19 3724   0.442  -0.288   4.580
    3OL     H9R 3725   0.429  -0.371   4.649
    3OL    C110 3726   0.437  -0.297   4.448
    3OL    H10R 3727   0.438  -0.402   4.420
    3OL    C111 3728   0.468  -0.186   4.351
    3OL    H11R 3729   0.418  -0.092   4.374
    3OL    H11S 3730   0.416  -0.215   4.259
    3OL    C112 3731   0.618  -0.184   4.318
    3OL    H12R 3732   0.650  -0.286   4.294
    3OL    H12S 3733   0.678  -0.158   4.406
    3OL    C113 3734   0.656  -0.083   4.208
    3OL    H13R 3735   0.756  -0.090   4.165
    3OL    H13S 3736   0.642   0.019   4.244
    3OL    C114 3737   0.561  -0.104   4.089
    3OL    H14R 3738   0.465  -0.056   4.110
    3OL    H14S 3739   0.537  -0.208   4.065
    3OL    C115 3740   0.620  -0.026   3.971
    3OL    H15R 3741   0.675   0.059   4.011
    3OL    H15S 3742   0.547   0.020   3.902
    3OL    C116 3743   0.714  -0.101   3.875
    3OL    H16R 3744   0.666  -0.178   3.815
    3OL    H16S 3745   0.797  -0.146   3.929
    3OL    C117 3746   0.774  -0.012   3.766
    3OL    H17R 3747   0.686   0.019   3.709
    3OL    H17S 3748   0.835  -0.066   3.694
    3OL    C118 3749   0.852   0.114   3.807
    3OL    H18R 3750   0.931   0.087   3.877
    3OL    H18S 3751   0.786   0.192   3.848
    3OL    H18T 3752   0.898   0.160   3.718
    1PA    C116 3753   1.918   1.605   4.135
    1PA    H16R 3754   1.948   1.643   4.037
    1PA    H16S 3755   1.879   1.688   4.195
    1PA    H16T 3756   1.839   1.531   4.118
    1PA    C115 3757   2.042   1.541   4.198
    1PA    H15R 3758   2.046   1.433   4.182
    1PA    H15S 3759   2.133   1.584   4.156
    1PA    C114 3760   2.046   1.551   4.351
    1PA    H14R 3761   2.053   1.660   4.362
    1PA    H14S 3762   1.951   1.514   4.389
    1PA    C113 3763   2.166   1.486   4.421
    1PA    H13R 3764   2.249   1.550   4.392
    1PA    H13S 3765   2.147   1.495   4.529
    1PA    C112 3766   2.187   1.340   4.377
    1PA    H12R 3767   2.091   1.289   4.368
    1PA    H12S 3768   2.225   1.346   4.275
    1PA    C111 3769   2.280   1.252   4.461
    1PA    H11R 3770   2.382   1.284   4.441
    1PA    H11S 3771   2.260   1.265   4.568
    1PA    C110 3772   2.273   1.105   4.420
    1PA    H10R 3773   2.167   1.081   4.437
    1PA    H10S 3774   2.300   1.108   4.314
    1PA     C19 3775   2.360   1.004   4.495
    1PA     H9R 3776   2.321   0.904   4.474
    1PA     H9S 3777   2.463   1.005   4.457
    1PA     C18 3778   2.357   1.031   4.646
    1PA     H8R 3779   2.402   1.126   4.676
    1PA     H8S 3780   2.256   1.044   4.685
    1PA     C17 3781   2.434   0.924   4.725
    1PA     H7R 3782   2.410   0.826   4.681
    1PA     H7S 3783   2.539   0.935   4.697
    1PA     C16 3784   2.415   0.927   4.877
    1PA     H6R 3785   2.428   1.027   4.917
    1PA     H6S 3786   2.315   0.897   4.910
    1PA     C15 3787   2.511   0.836   4.956
    1PA     H5R 3788   2.464   0.801   5.048
    1PA     H5S 3789   2.529   0.745   4.897
    1PA     C14 3790   2.651   0.892   4.986
    1PA     H4R 3791   2.722   0.816   5.019
    1PA     H4S 3792   2.688   0.945   4.897
    1PA     C13 3793   2.643   0.998   5.097
    1PA     H3R 3794   2.743   1.042   5.092
    1PA     H3S 3795   2.571   1.072   5.064
    1PA     C12 3796   2.623   0.934   5.235
    1PA     H2R 3797   2.524   0.887   5.240
    1PA     H2S 3798   2.693   0.851   5.255
    2PC     C11 3799   2.639   1.020   5.358
    2PC     O12 3800   2.631   1.141   5.351
    2PC     O11 3801   2.642   0.961   5.478
    2PC      C1 3802   2.653   1.032   5.603
    2PC      HR 3803   2.583   1.116   5.609
    2PC      HS 3804   2.615   0.956   5.672
    2PC      C2 3805   2.794   1.088   5.629
    2PC      HX 3806   2.869   1.017   5.595
    2PC      C3 3807   2.822   1.112   5.778
    2PC      HA 3808   2.859   1.026   5.833
    2PC      HB 3809   2.894   1.192   5.794
    2PC     O31 3810   2.699   1.155   5.840
    2PC     P31 3811   2.714   1.204   5.992
    2PC     O32 3812   2.737   1.061   6.060
    2PC     C31 3813   2.625   0.972   6.078
    2PC     H1A 3814   2.597   0.996   6.181
    2PC     H1B 3815   2.545   0.997   6.008
    2PC     C32 3816   2.674   0.829   6.050
    2PC     H2A 3817   2.596   0.754   6.039
    2PC     H2B 3818   2.737   0.834   5.961
    2PC     N31 3819   2.748   0.766   6.164
    2PC     C33 3820   2.803   0.633   6.123
    2PC     H3A 3821   2.877   0.652   6.045
    2PC     H3B 3822   2.854   0.591   6.209
    2PC     H3C 3823   2.727   0.573   6.072
    2PC     C34 3824   2.864   0.847   6.213
    2PC     H4A 3825   2.822   0.939   6.255
    2PC     H4B 3826   2.918   0.791   6.289
    2PC     H4C 3827   2.924   0.861   6.122
    2PC     C35 3828   2.655   0.741   6.278
    2PC     H5A 3829   2.724   0.721   6.360
    2PC     H5B 3830   2.586   0.658   6.261
    2PC     H5C 3831   2.584   0.818   6.310
    2PC     O33 3832   2.813   1.312   6.010
    2PC     O34 3833   2.586   1.264   6.036
    2PC     O21 3834   2.805   1.215   5.562
    2PC     C21 3835   2.926   1.253   5.518
    2PC     O22 3836   3.024   1.181   5.519
    3OL     C12 3837   2.917   1.378   5.434
    3OL     H2R 3838   2.891   1.460   5.501
    3OL     H2S 3839   2.832   1.369   5.365
    3OL     C13 3840   3.039   1.419   5.351
    3OL     H3R 3841   3.122   1.423   5.422
    3OL     H3S 3842   3.022   1.522   5.318
    3OL     C14 3843   3.083   1.345   5.224
    3OL     H4R 3844   3.137   1.254   5.250
    3OL     H4S 3845   3.159   1.400   5.169
    3OL     C15 3846   2.967   1.310   5.129
    3OL     H5R 3847   2.903   1.397   5.110
    3OL     H5S 3848   2.907   1.232   5.177
    3OL     C16 3849   3.020   1.259   4.995
    3OL     H6R 3850   3.076   1.167   5.013
    3OL     H6S 3851   3.087   1.335   4.953
    3OL     C17 3852   2.906   1.232   4.896
    3OL     H7R 3853   2.841   1.162   4.950
    3OL     H7S 3854   2.931   1.171   4.809
    3OL     C18 3855   2.830   1.355   4.846
    3OL     H8R 3856   2.784   1.403   4.932
    3OL     H8S 3857   2.752   1.308   4.785
    3OL     C19 3858   2.927   1.451   4.781
    3OL     H9R 3859   2.977   1.517   4.852
    3OL    C110 3860   2.935   1.480   4.652
    3OL    H10R 3861   3.001   1.561   4.624
    3OL    C111 3862   2.866   1.405   4.541
    3OL    H11R 3863   2.841   1.302   4.567
    3OL    H11S 3864   2.933   1.388   4.457
    3OL    C112 3865   2.745   1.488   4.493
    3OL    H12R 3866   2.703   1.439   4.405
    3OL    H12S 3867   2.771   1.589   4.462
    3OL    C113 3868   2.632   1.506   4.595
    3OL    H13R 3869   2.670   1.549   4.688
    3OL    H13S 3870   2.592   1.409   4.625
    3OL    C114 3871   2.507   1.582   4.549
    3OL    H14R 3872   2.421   1.561   4.613
    3OL    H14S 3873   2.481   1.548   4.448
    3OL    C115 3874   2.526   1.734   4.546
    3OL    H15R 3875   2.595   1.778   4.473
    3OL    H15S 3876   2.558   1.765   4.646
    3OL    C116 3877   2.393   1.806   4.521
    3OL    H16R 3878   2.397   1.907   4.563
    3OL    H16S 3879   2.311   1.755   4.571
    3OL    C117 3880   2.363   1.828   4.372
    3OL    H17R 3881   2.346   1.735   4.316
    3OL    H17S 3882   2.449   1.878   4.327
    3OL    C118 3883   2.231   1.905   4.360
    3OL    H18R 3884   2.203   1.936   4.259
    3OL    H18S 3885   2.243   1.994   4.421
    3OL    H18T 3886   2.155   1.840   4.405
    1PA    C116 3887   0.383   3.474   3.763
    1PA    H16R 3888   0.320   3.526   3.691
    1PA    H16S 3889   0.322   3.411   3.828
    1PA    H16T 3890   0.446   3.411   3.700
    1PA    C115 3891   0.471   3.573   3.841
    1PA    H15R 3892   0.543   3.519   3.902
    1PA    H15S 3893   0.534   3.621   3.765
    1PA    C114 3894   0.390   3.669   3.930
    1PA    H14R 3895   0.316   3.720   3.867
    1PA    H14S 3896   0.334   3.621   4.011
    1PA    C113 3897   0.481   3.773   3.995
    1PA    H13R 3898   0.555   3.727   4.061
    1PA    H13S 3899   0.547   3.809   3.916
    1PA    C112 3900   0.403   3.887   4.061
    1PA    H12R 3901   0.329   3.924   3.990
    1PA    H12S 3902   0.354   3.842   4.148
    1PA    C111 3903   0.490   4.002   4.117
    1PA    H11R 3904   0.572   4.035   4.053
    1PA    H11S 3905   0.432   4.093   4.134
    1PA    C110 3906   0.550   3.973   4.255
    1PA    H10R 3907   0.471   3.947   4.326
    1PA    H10S 3908   0.618   3.887   4.247
    1PA     C19 3909   0.625   4.096   4.306
    1PA     H9R 3910   0.687   4.137   4.225
    1PA     H9S 3911   0.554   4.174   4.335
    1PA     C18 3912   0.700   4.053   4.433
    1PA     H8R 3913   0.629   4.008   4.502
    1PA     H8S 3914   0.786   3.993   4.402
    1PA     C17 3915   0.762   4.178   4.497
    1PA     H7R 3916   0.811   4.237   4.420
    1PA     H7S 3917   0.687   4.245   4.538
    1PA     C16 3918   0.875   4.129   4.589
    1PA     H6R 3919   0.846   4.055   4.664
    1PA     H6S 3920   0.956   4.086   4.530
    1PA     C15 3921   0.932   4.255   4.656
    1PA     H5R 3922   0.979   4.310   4.574
    1PA     H5S 3923   0.855   4.317   4.705
    1PA     C14 3924   1.035   4.220   4.764
    1PA     H4R 3925   1.091   4.131   4.732
    1PA     H4S 3926   1.097   4.307   4.783
    1PA     C13 3927   0.961   4.192   4.896
    1PA     H3R 3928   0.903   4.277   4.932
    1PA     H3S 3929   0.896   4.106   4.880
    1PA     C12 3930   1.058   4.148   5.006
    1PA     H2R 3931   1.113   4.058   4.977
    1PA     H2S 3932   1.126   4.234   5.015
    2PC     C11 3933   0.986   4.140   5.138
    2PC     O12 3934   1.036   4.185   5.239
    2PC     O11 3935   0.867   4.078   5.131
    2PC      C1 3936   0.802   4.041   5.255
    2PC      HR 3937   0.742   3.952   5.239
    2PC      HS 3938   0.880   4.026   5.331
    2PC      C2 3939   0.714   4.158   5.301
    2PC      HX 3940   0.772   4.250   5.296
    2PC      C3 3941   0.652   4.130   5.439
    2PC      HA 3942   0.713   4.161   5.524
    2PC      HB 3943   0.565   4.192   5.464
    2PC     O31 3944   0.617   3.991   5.450
    2PC     P31 3945   0.538   3.934   5.577
    2PC     O32 3946   0.654   3.934   5.687
    2PC     C31 3947   0.728   3.811   5.702
    2PC     H1A 3948   0.765   3.789   5.602
    2PC     H1B 3949   0.813   3.845   5.762
    2PC     C32 3950   0.655   3.709   5.790
    2PC     H2A 3951   0.624   3.772   5.873
    2PC     H2B 3952   0.570   3.672   5.732
    2PC     N31 3953   0.732   3.585   5.828
    2PC     C33 3954   0.656   3.499   5.924
    2PC     H3A 3955   0.704   3.401   5.935
    2PC     H3B 3956   0.639   3.553   6.017
    2PC     H3C 3957   0.562   3.485   5.869
    2PC     C34 3958   0.766   3.499   5.710
    2PC     H4A 3959   0.672   3.483   5.659
    2PC     H4B 3960   0.822   3.573   5.652
    2PC     H4C 3961   0.817   3.415   5.757
    2PC     C35 3962   0.860   3.626   5.895
    2PC     H5A 3963   0.912   3.548   5.951
    2PC     H5B 3964   0.821   3.708   5.955
    2PC     H5C 3965   0.927   3.666   5.818
    2PC     O33 3966   0.426   4.025   5.610
    2PC     O34 3967   0.492   3.793   5.567
    2PC     O21 3968   0.610   4.187   5.206
    2PC     C21 3969   0.507   4.108   5.174
    2PC     O22 3970   0.491   3.994   5.215
    3OL     C12 3971   0.415   4.172   5.073
    3OL     H2R 3972   0.430   4.279   5.085
    3OL     H2S 3973   0.312   4.155   5.105
    3OL     C13 3974   0.436   4.126   4.928
    3OL     H3R 3975   0.418   4.019   4.933
    3OL     H3S 3976   0.542   4.139   4.907
    3OL     C14 3977   0.344   4.192   4.824
    3OL     H4R 3978   0.388   4.289   4.799
    3OL     H4S 3979   0.242   4.201   4.862
    3OL     C15 3980   0.339   4.112   4.693
    3OL     H5R 3981   0.294   4.016   4.722
    3OL     H5S 3982   0.440   4.085   4.663
    3OL     C16 3983   0.251   4.180   4.588
    3OL     H6R 3984   0.311   4.256   4.536
    3OL     H6S 3985   0.162   4.234   4.621
    3OL     C17 3986   0.204   4.067   4.496
    3OL     H7R 3987   0.286   3.994   4.498
    3OL     H7S 3988   0.204   4.107   4.394
    3OL     C18 3989   0.074   4.001   4.543
    3OL     H8R 3990   0.003   4.084   4.551
    3OL     H8S 3991   0.078   3.962   4.645
    3OL     C19 3992   0.030   3.894   4.447
    3OL     H9R 3993   0.046   3.793   4.484
    3OL    C110 3994  -0.026   3.908   4.328
    3OL    H10R 3995  -0.058   3.823   4.269
    3OL    C111 3996  -0.027   4.040   4.254
    3OL    H11R 3997  -0.021   4.120   4.328
    3OL    H11S 3998  -0.123   4.057   4.205
    3OL    C112 3999   0.072   4.064   4.139
    3OL    H12R 4000   0.043   4.005   4.053
    3OL    H12S 4001   0.170   4.029   4.171
    3OL    C113 4002   0.077   4.211   4.093
    3OL    H13R 4003   0.159   4.228   4.024
    3OL    H13S 4004   0.088   4.280   4.177
    3OL    C114 4005  -0.053   4.260   4.028
    3OL    H14R 4006  -0.134   4.276   4.099
    3OL    H14S 4007  -0.102   4.183   3.966
    3OL    C115 4008  -0.022   4.392   3.956
    3OL    H15R 4009   0.048   4.384   3.872
    3OL    H15S 4010   0.022   4.461   4.028
    3OL    C116 4011  -0.143   4.472   3.908
    3OL    H16R 4012  -0.215   4.479   3.990
    3OL    H16S 4013  -0.194   4.420   3.826
    3OL    C117 4014  -0.101   4.607   3.847
    3OL    H17R 4015  -0.032   4.597   3.763
    3OL    H17S 4016  -0.045   4.658   3.926
    3OL    C118 4017  -0.229   4.681   3.807
    3OL    H18R 4018  -0.277   4.710   3.901
    3OL    H18S 4019  -0.295   4.613   3.753
    3OL    H18T 4020  -0.209   4.769   3.746
    1PA    C116 4021   2.497   1.136   3.598
    1PA    H16R 4022   2.415   1.200   3.631
    1PA    H16S 4023   2.507   1.123   3.490
    1PA    H16T 4024   2.584   1.191   3.636
    1PA    C115 4025   2.468   0.999   3.661
    1PA    H15R 4026   2.370   0.961   3.632
    1PA    H15S 4027   2.548   0.928   3.638
    1PA    C114 4028   2.464   1.014   3.814
    1PA    H14R 4029   2.561   1.050   3.846
    1PA    H14S 4030   2.395   1.093   3.845
    1PA    C113 4031   2.439   0.876   3.878
    1PA    H13R 4032   2.347   0.828   3.844
    1PA    H13S 4033   2.516   0.802   3.858
    1PA    C112 4034   2.419   0.896   4.029
    1PA    H12R 4035   2.521   0.910   4.065
    1PA    H12S 4036   2.349   0.978   4.051
    1PA    C111 4037   2.350   0.769   4.081
    1PA    H11R 4038   2.251   0.766   4.034
    1PA    H11S 4039   2.406   0.682   4.046
    1PA    C110 4040   2.329   0.764   4.233
    1PA    H10R 4041   2.421   0.749   4.289
    1PA    H10S 4042   2.288   0.861   4.263
    1PA     C19 4043   2.233   0.649   4.263
    1PA     H9R 4044   2.142   0.657   4.203
    1PA     H9S 4045   2.285   0.554   4.248
    1PA     C18 4046   2.178   0.643   4.406
    1PA     H8R 4047   2.155   0.538   4.421
    1PA     H8S 4048   2.260   0.666   4.475
    1PA     C17 4049   2.051   0.728   4.419
    1PA     H7R 4050   2.079   0.834   4.417
    1PA     H7S 4051   1.980   0.712   4.338
    1PA     C16 4052   1.973   0.701   4.549
    1PA     H6R 4053   1.882   0.763   4.546
    1PA     H6S 4054   1.943   0.597   4.558
    1PA     C15 4055   2.053   0.729   4.676
    1PA     H5R 4056   2.131   0.653   4.685
    1PA     H5S 4057   2.103   0.826   4.671
    1PA     C14 4058   1.964   0.731   4.801
    1PA     H4R 4059   1.900   0.820   4.803
    1PA     H4S 4060   1.902   0.642   4.804
    1PA     C13 4061   2.054   0.753   4.924
    1PA     H3R 4062   2.132   0.677   4.927
    1PA     H3S 4063   2.101   0.851   4.923
    1PA     C12 4064   1.969   0.743   5.052
    1PA     H2R 4065   1.896   0.825   5.054
    1PA     H2S 4066   1.921   0.645   5.046
    2PC     C11 4067   2.046   0.754   5.181
    2PC     O12 4068   2.155   0.704   5.203
    2PC     O11 4069   1.986   0.835   5.269
    2PC      C1 4070   2.047   0.857   5.397
    2PC      HR 4071   1.986   0.914   5.468
    2PC      HS 4072   2.061   0.760   5.446
    2PC      C2 4073   2.169   0.946   5.371
    2PC      HX 4074   2.252   0.898   5.317
    2PC      C3 4075   2.220   1.007   5.503
    2PC      HA 4076   2.250   0.932   5.577
    2PC      HB 4077   2.312   1.063   5.485
    2PC     O31 4078   2.119   1.082   5.572
    2PC     P31 4079   2.156   1.165   5.704
    2PC     O32 4080   2.270   1.260   5.642
    2PC     C31 4081   2.224   1.363   5.553
    2PC     H1A 4082   2.165   1.317   5.473
    2PC     H1B 4083   2.172   1.443   5.605
    2PC     C32 4084   2.351   1.428   5.494
    2PC     H2A 4085   2.408   1.353   5.439
    2PC     H2B 4086   2.325   1.499   5.415
    2PC     N31 4087   2.442   1.503   5.586
    2PC     C33 4088   2.522   1.416   5.679
    2PC     H3A 4089   2.583   1.337   5.635
    2PC     H3B 4090   2.581   1.481   5.743
    2PC     H3C 4091   2.457   1.371   5.753
    2PC     C34 4092   2.547   1.568   5.501
    2PC     H4A 4093   2.617   1.623   5.565
    2PC     H4B 4094   2.597   1.493   5.441
    2PC     H4C 4095   2.500   1.646   5.440
    2PC     C35 4096   2.372   1.605   5.671
    2PC     H5A 4097   2.440   1.660   5.735
    2PC     H5B 4098   2.307   1.549   5.739
    2PC     H5C 4099   2.324   1.672   5.599
    2PC     O33 4100   2.053   1.250   5.769
    2PC     O34 4101   2.197   1.088   5.823
    2PC     O21 4102   2.120   1.056   5.292
    2PC     C21 4103   2.210   1.140   5.237
    2PC     O22 4104   2.328   1.148   5.261
    3OL     C12 4105   2.141   1.243   5.151
    3OL     H2R 4106   2.174   1.346   5.164
    3OL     H2S 4107   2.034   1.239   5.172
    3OL     C13 4108   2.193   1.215   5.009
    3OL     H3R 4109   2.179   1.108   4.991
    3OL     H3S 4110   2.297   1.247   5.008
    3OL     C14 4111   2.111   1.289   4.904
    3OL     H4R 4112   2.003   1.272   4.910
    3OL     H4S 4113   2.142   1.268   4.801
    3OL     C15 4114   2.131   1.441   4.918
    3OL     H5R 4115   2.238   1.461   4.907
    3OL     H5S 4116   2.096   1.476   5.016
    3OL     C16 4117   2.060   1.515   4.804
    3OL     H6R 4118   1.951   1.507   4.806
    3OL     H6S 4119   2.092   1.468   4.711
    3OL     C17 4120   2.103   1.663   4.802
    3OL     H7R 4121   2.211   1.662   4.790
    3OL     H7S 4122   2.085   1.700   4.903
    3OL     C18 4123   2.020   1.732   4.693
    3OL     H8R 4124   1.918   1.693   4.691
    3OL     H8S 4125   2.061   1.706   4.595
    3OL     C19 4126   2.032   1.880   4.715
    3OL     H9R 4127   2.134   1.916   4.727
    3OL    C110 4128   1.932   1.964   4.691
    3OL    H10R 4129   1.958   2.070   4.683
    3OL    C111 4130   1.790   1.928   4.659
    3OL    H11R 4131   1.716   1.977   4.723
    3OL    H11S 4132   1.776   1.821   4.675
    3OL    C112 4133   1.753   1.972   4.517
    3OL    H12R 4134   1.758   2.081   4.513
    3OL    H12S 4135   1.650   1.937   4.509
    3OL    C113 4136   1.846   1.900   4.418
    3OL    H13R 4137   1.824   1.794   4.408
    3OL    H13S 4138   1.951   1.912   4.447
    3OL    C114 4139   1.817   1.962   4.280
    3OL    H14R 4140   1.890   1.930   4.204
    3OL    H14S 4141   1.837   2.069   4.287
    3OL    C115 4142   1.678   1.933   4.222
    3OL    H15R 4143   1.592   1.975   4.276
    3OL    H15S 4144   1.675   1.824   4.222
    3OL    C116 4145   1.679   1.982   4.077
    3OL    H16R 4146   1.721   2.083   4.069
    3OL    H16S 4147   1.578   1.990   4.035
    3OL    C117 4148   1.760   1.892   3.983
    3OL    H17R 4149   1.719   1.790   3.983
    3OL    H17S 4150   1.865   1.879   4.009
    3OL    C118 4151   1.759   1.953   3.843
    3OL    H18R 4152   1.820   1.897   3.771
    3OL    H18S 4153   1.799   2.053   3.862
    3OL    H18T 4154   1.667   1.979   3.790
    1PA    C116 4155   4.397   4.054   3.163
    1PA    H16R 4156   4.372   3.974   3.093
    1PA    H16S 4157   4.363   4.146   3.117
    1PA    H16T 4158   4.338   4.026   3.251
    1PA    C115 4159   4.548   4.047   3.188
    1PA    H15R 4160   4.599   4.038   3.091
    1PA    H15S 4161   4.560   4.138   3.247
    1PA    C114 4162   4.592   3.933   3.280
    1PA    H14R 4163   4.585   3.836   3.231
    1PA    H14S 4164   4.700   3.946   3.293
    1PA    C113 4165   4.526   3.930   3.419
    1PA    H13R 4166   4.547   4.019   3.477
    1PA    H13S 4167   4.419   3.911   3.421
    1PA    C112 4168   4.582   3.814   3.503
    1PA    H12R 4169   4.566   3.716   3.458
    1PA    H12S 4170   4.691   3.810   3.507
    1PA    C111 4171   4.544   3.830   3.651
    1PA    H11R 4172   4.588   3.922   3.689
    1PA    H11S 4173   4.435   3.837   3.654
    1PA    C110 4174   4.595   3.714   3.738
    1PA    H10R 4175   4.547   3.622   3.706
    1PA    H10S 4176   4.703   3.706   3.727
    1PA     C19 4177   4.558   3.740   3.885
    1PA     H9R 4178   4.607   3.828   3.926
    1PA     H9S 4179   4.452   3.760   3.898
    1PA     C18 4180   4.605   3.612   3.956
    1PA     H8R 4181   4.521   3.557   4.000
    1PA     H8S 4182   4.649   3.535   3.892
    1PA     C17 4183   4.700   3.623   4.076
    1PA     H7R 4184   4.726   3.526   4.118
    1PA     H7S 4185   4.787   3.686   4.057
    1PA     C16 4186   4.620   3.701   4.181
    1PA     H6R 4187   4.586   3.793   4.133
    1PA     H6S 4188   4.527   3.650   4.208
    1PA     C15 4189   4.677   3.724   4.322
    1PA     H5R 4190   4.767   3.785   4.322
    1PA     H5S 4191   4.607   3.787   4.377
    1PA     C14 4192   4.707   3.604   4.413
    1PA     H4R 4193   4.614   3.547   4.413
    1PA     H4S 4194   4.784   3.541   4.367
    1PA     C13 4195   4.746   3.638   4.558
    1PA     H3R 4196   4.854   3.655   4.568
    1PA     H3S 4197   4.696   3.729   4.593
    1PA     C12 4198   4.699   3.520   4.644
    1PA     H2R 4199   4.592   3.514   4.622
    1PA     H2S 4200   4.753   3.431   4.612
    2PC     C11 4201   4.725   3.539   4.791
    2PC     O12 4202   4.754   3.644   4.845
    2PC     O11 4203   4.719   3.420   4.853
    2PC      C1 4204   4.725   3.403   4.996
    2PC      HR 4205   4.795   3.324   5.024
    2PC      HS 4206   4.764   3.495   5.040
    2PC      C2 4207   4.587   3.389   5.062
    2PC      HX 4208   4.520   3.466   5.026
    2PC      C3 4209   4.602   3.385   5.215
    2PC      HA 4210   4.678   3.457   5.246
    2PC      HB 4211   4.507   3.403   5.265
    2PC     O31 4212   4.645   3.252   5.251
    2PC     P31 4213   4.636   3.201   5.402
    2PC     O32 4214   4.791   3.212   5.440
    2PC     C31 4215   4.848   3.342   5.468
    2PC     H1A 4216   4.881   3.384   5.372
    2PC     H1B 4217   4.773   3.404   5.517
    2PC     C32 4218   4.968   3.326   5.561
    2PC     H2A 4219   5.051   3.277   5.509
    2PC     H2B 4220   4.997   3.424   5.600
    2PC     N31 4221   4.965   3.230   5.677
    2PC     C33 4222   4.949   3.086   5.640
    2PC     H3A 4223   5.013   3.051   5.559
    2PC     H3B 4224   4.963   3.025   5.730
    2PC     H3C 4225   4.847   3.058   5.614
    2PC     C34 4226   5.088   3.229   5.762
    2PC     H4A 4227   5.079   3.320   5.822
    2PC     H4B 4228   5.082   3.138   5.821
    2PC     H4C 4229   5.181   3.232   5.704
    2PC     C35 4230   4.853   3.262   5.772
    2PC     H5A 4231   4.867   3.370   5.781
    2PC     H5B 4232   4.862   3.202   5.862
    2PC     H5C 4233   4.762   3.230   5.722
    2PC     O33 4234   4.553   3.298   5.478
    2PC     O34 4235   4.559   3.075   5.415
    2PC     O21 4236   4.528   3.264   5.023
    2PC     C21 4237   4.395   3.246   5.035
    2PC     O22 4238   4.317   3.327   5.081
    3OL     C12 4239   4.344   3.113   4.987
    3OL     H2R 4240   4.282   3.063   5.062
    3OL     H2S 4241   4.427   3.044   4.969
    3OL     C13 4242   4.266   3.145   4.859
    3OL     H3R 4243   4.195   3.226   4.880
    3OL     H3S 4244   4.202   3.063   4.825
    3OL     C14 4245   4.357   3.189   4.744
    3OL     H4R 4246   4.410   3.281   4.770
    3OL     H4S 4247   4.293   3.235   4.668
    3OL     C15 4248   4.434   3.082   4.665
    3OL     H5R 4249   4.501   3.031   4.735
    3OL     H5S 4250   4.506   3.132   4.600
    3OL     C16 4251   4.347   2.983   4.588
    3OL     H6R 4252   4.284   3.043   4.522
    3OL     H6S 4253   4.270   2.937   4.651
    3OL     C17 4254   4.423   2.884   4.498
    3OL     H7R 4255   4.494   2.944   4.440
    3OL     H7S 4256   4.362   2.834   4.422
    3OL     C18 4257   4.491   2.776   4.583
    3OL     H8R 4258   4.419   2.720   4.644
    3OL     H8S 4259   4.567   2.821   4.647
    3OL     C19 4260   4.547   2.674   4.488
    3OL     H9R 4261   4.495   2.580   4.471
    3OL    C110 4262   4.658   2.687   4.417
    3OL    H10R 4263   4.678   2.601   4.353
    3OL    C111 4264   4.759   2.798   4.407
    3OL    H11R 4265   4.728   2.871   4.482
    3OL    H11S 4266   4.766   2.838   4.305
    3OL    C112 4267   4.895   2.740   4.447
    3OL    H12R 4268   4.870   2.668   4.526
    3OL    H12S 4269   4.944   2.819   4.504
    3OL    C113 4270   4.976   2.674   4.335
    3OL    H13R 4271   4.913   2.626   4.260
    3OL    H13S 4272   5.046   2.604   4.382
    3OL    C114 4273   5.046   2.788   4.260
    3OL    H14R 4274   5.126   2.835   4.318
    3OL    H14S 4275   4.970   2.864   4.244
    3OL    C115 4276   5.111   2.747   4.126
    3OL    H15R 4277   5.033   2.715   4.057
    3OL    H15S 4278   5.179   2.664   4.144
    3OL    C116 4279   5.183   2.863   4.056
    3OL    H16R 4280   5.250   2.811   3.987
    3OL    H16S 4281   5.239   2.931   4.120
    3OL    C117 4282   5.088   2.939   3.962
    3OL    H17R 4283   5.005   2.871   3.944
    3OL    H17S 4284   5.131   2.971   3.867
    3OL    C118 4285   5.028   3.063   4.032
    3OL    H18R 4286   4.932   3.093   3.989
    3OL    H18S 4287   5.097   3.146   4.015
    3OL    H18T 4288   5.008   3.049   4.138
    1PA    C116 4289   0.797   4.549   4.178
    1PA    H16R 4290   0.725   4.480   4.134
    1PA    H16S 4291   0.832   4.617   4.100
    1PA    H16T 4292   0.745   4.601   4.259
    1PA    C115 4293   0.920   4.480   4.240
    1PA    H15R 4294   0.988   4.560   4.273
    1PA    H15S 4295   0.883   4.422   4.325
    1PA    C114 4296   0.991   4.390   4.138
    1PA    H14R 4297   0.950   4.289   4.125
    1PA    H14S 4298   1.002   4.438   4.041
    1PA    C113 4299   1.130   4.367   4.198
    1PA    H13R 4300   1.181   4.296   4.132
    1PA    H13S 4301   1.192   4.457   4.195
    1PA    C112 4302   1.134   4.301   4.336
    1PA    H12R 4303   1.101   4.371   4.414
    1PA    H12S 4304   1.070   4.213   4.340
    1PA    C111 4305   1.274   4.243   4.355
    1PA    H11R 4306   1.298   4.162   4.285
    1PA    H11S 4307   1.349   4.322   4.337
    1PA    C110 4308   1.296   4.187   4.496
    1PA    H10R 4309   1.260   4.259   4.569
    1PA    H10S 4310   1.226   4.103   4.504
    1PA     C19 4311   1.437   4.135   4.529
    1PA     H9R 4312   1.465   4.049   4.468
    1PA     H9S 4313   1.514   4.207   4.501
    1PA     C18 4314   1.443   4.093   4.677
    1PA     H8R 4315   1.400   4.167   4.745
    1PA     H8S 4316   1.381   4.004   4.684
    1PA     C17 4317   1.581   4.045   4.726
    1PA     H7R 4318   1.604   3.956   4.669
    1PA     H7S 4319   1.651   4.126   4.705
    1PA     C16 4320   1.576   4.018   4.877
    1PA     H6R 4321   1.558   4.115   4.925
    1PA     H6S 4322   1.493   3.954   4.906
    1PA     C15 4323   1.703   3.957   4.937
    1PA     H5R 4324   1.717   3.850   4.919
    1PA     H5S 4325   1.789   4.015   4.901
    1PA     C14 4326   1.704   3.979   5.089
    1PA     H4R 4327   1.685   4.083   5.115
    1PA     H4S 4328   1.627   3.925   5.143
    1PA     C13 4329   1.842   3.947   5.149
    1PA     H3R 4330   1.881   3.851   5.115
    1PA     H3S 4331   1.915   4.021   5.117
    1PA     C12 4332   1.841   3.930   5.302
    1PA     H2R 4333   1.784   3.838   5.317
    1PA     H2S 4334   1.942   3.906   5.335
    2PC     C11 4335   1.785   4.047   5.379
    2PC     O12 4336   1.857   4.137   5.418
    2PC     O11 4337   1.654   4.040   5.405
    2PC      C1 4338   1.587   4.162   5.440
    2PC      HR 4339   1.636   4.214   5.523
    2PC      HS 4340   1.606   4.232   5.358
    2PC      C2 4341   1.438   4.141   5.468
    2PC      HX 4342   1.379   4.233   5.477
    2PC      C3 4343   1.411   4.080   5.606
    2PC      HA 4344   1.449   3.978   5.606
    2PC      HB 4345   1.462   4.140   5.681
    2PC     O31 4346   1.268   4.072   5.623
    2PC     P31 4347   1.209   4.057   5.772
    2PC     O32 4348   1.111   4.183   5.785
    2PC     C31 4349   1.182   4.308   5.789
    2PC     H1A 4350   1.267   4.293   5.856
    2PC     H1B 4351   1.200   4.335   5.684
    2PC     C32 4352   1.085   4.409   5.852
    2PC     H2A 4353   1.132   4.507   5.845
    2PC     H2B 4354   0.986   4.398   5.808
    2PC     N31 4355   1.051   4.382   5.996
    2PC     C33 4356   0.953   4.488   6.036
    2PC     H3A 4357   0.873   4.475   5.962
    2PC     H3B 4358   0.907   4.463   6.131
    2PC     H3C 4359   1.000   4.586   6.032
    2PC     C34 4360   0.982   4.250   6.015
    2PC     H4A 4361   0.889   4.251   5.959
    2PC     H4B 4362   1.047   4.167   5.989
    2PC     H4C 4363   0.967   4.255   6.123
    2PC     C35 4364   1.167   4.392   6.090
    2PC     H5A 4365   1.130   4.392   6.193
    2PC     H5B 4366   1.204   4.494   6.080
    2PC     H5C 4367   1.245   4.320   6.066
    2PC     O33 4368   1.133   3.930   5.771
    2PC     O34 4369   1.311   4.046   5.879
    2PC     O21 4370   1.389   4.048   5.370
    2PC     C21 4371   1.391   4.085   5.241
    2PC     O22 4372   1.443   4.188   5.203
    3OL     C12 4373   1.312   3.988   5.156
    3OL     H2R 4374   1.343   4.009   5.054
    3OL     H2S 4375   1.209   4.023   5.165
    3OL     C13 4376   1.320   3.840   5.195
    3OL     H3R 4377   1.295   3.825   5.301
    3OL     H3S 4378   1.424   3.812   5.180
    3OL     C14 4379   1.241   3.741   5.108
    3OL     H4R 4380   1.252   3.640   5.148
    3OL     H4S 4381   1.284   3.752   5.009
    3OL     C15 4382   1.094   3.785   5.096
    3OL     H5R 4383   1.097   3.883   5.048
    3OL     H5S 4384   1.059   3.808   5.197
    3OL     C16 4385   1.010   3.678   5.026
    3OL     H6R 4386   1.001   3.591   5.092
    3OL     H6S 4387   1.060   3.649   4.934
    3OL     C17 4388   0.871   3.730   4.985
    3OL     H7R 4389   0.839   3.797   5.065
    3OL     H7S 4390   0.805   3.643   4.991
    3OL     C18 4391   0.867   3.811   4.855
    3OL     H8R 4392   0.882   3.731   4.782
    3OL     H8S 4393   0.956   3.874   4.848
    3OL     C19 4394   0.725   3.864   4.856
    3OL     H9R 4395   0.706   3.940   4.932
    3OL    C110 4396   0.626   3.821   4.780
    3OL    H10R 4397   0.522   3.853   4.786
    3OL    C111 4398   0.636   3.706   4.683
    3OL    H11R 4399   0.617   3.612   4.736
    3OL    H11S 4400   0.731   3.701   4.629
    3OL    C112 4401   0.520   3.699   4.583
    3OL    H12R 4402   0.505   3.792   4.528
    3OL    H12S 4403   0.426   3.683   4.635
    3OL    C113 4404   0.551   3.589   4.481
    3OL    H13R 4405   0.584   3.491   4.518
    3OL    H13S 4406   0.631   3.630   4.419
    3OL    C114 4407   0.425   3.561   4.398
    3OL    H14R 4408   0.448   3.516   4.300
    3OL    H14S 4409   0.384   3.657   4.367
    3OL    C115 4410   0.321   3.474   4.470
    3OL    H15R 4411   0.306   3.520   4.568
    3OL    H15S 4412   0.354   3.374   4.499
    3OL    C116 4413   0.192   3.453   4.389
    3OL    H16R 4414   0.149   3.546   4.350
    3OL    H16S 4415   0.119   3.404   4.453
    3OL    C117 4416   0.224   3.359   4.272
    3OL    H17R 4417   0.330   3.362   4.246
    3OL    H17S 4418   0.173   3.401   4.185
    3OL    C118 4419   0.190   3.213   4.301
    3OL    H18R 4420   0.184   3.164   4.203
    3OL    H18S 4421   0.098   3.211   4.360
    3OL    H18T 4422   0.270   3.157   4.348
    1PA    C116 4423   3.616   3.697   4.194
    1PA    H16R 4424   3.600   3.797   4.236
    1PA    H16S 4425   3.682   3.722   4.110
    1PA    H16T 4426   3.686   3.651   4.265
    1PA    C115 4427   3.500   3.604   4.158
    1PA    H15R 4428   3.441   3.636   4.072
    1PA    H15S 4429   3.542   3.507   4.131
    1PA    C114 4430   3.425   3.586   4.291
    1PA    H14R 4431   3.493   3.556   4.370
    1PA    H14S 4432   3.377   3.681   4.316
    1PA    C113 4433   3.310   3.485   4.276
    1PA    H13R 4434   3.242   3.506   4.193
    1PA    H13S 4435   3.344   3.383   4.258
    1PA    C112 4436   3.215   3.497   4.396
    1PA    H12R 4437   3.274   3.499   4.487
    1PA    H12S 4438   3.168   3.594   4.378
    1PA    C111 4439   3.095   3.400   4.402
    1PA    H11R 4440   3.032   3.432   4.319
    1PA    H11S 4441   3.128   3.296   4.394
    1PA    C110 4442   3.012   3.416   4.530
    1PA    H10R 4443   3.067   3.378   4.616
    1PA    H10S 4444   2.989   3.521   4.552
    1PA     C19 4445   2.878   3.345   4.504
    1PA     H9R 4446   2.831   3.403   4.424
    1PA     H9S 4447   2.896   3.245   4.466
    1PA     C18 4448   2.793   3.335   4.631
    1PA     H8R 4449   2.713   3.262   4.620
    1PA     H8S 4450   2.864   3.311   4.710
    1PA     C17 4451   2.719   3.464   4.669
    1PA     H7R 4452   2.787   3.549   4.670
    1PA     H7S 4453   2.641   3.487   4.595
    1PA     C16 4454   2.641   3.444   4.799
    1PA     H6R 4455   2.586   3.536   4.822
    1PA     H6S 4456   2.572   3.360   4.791
    1PA     C15 4457   2.735   3.428   4.919
    1PA     H5R 4458   2.770   3.325   4.922
    1PA     H5S 4459   2.821   3.495   4.912
    1PA     C14 4460   2.666   3.454   5.054
    1PA     H4R 4461   2.615   3.549   5.037
    1PA     H4S 4462   2.593   3.373   5.064
    1PA     C13 4463   2.762   3.473   5.173
    1PA     H3R 4464   2.833   3.390   5.168
    1PA     H3S 4465   2.812   3.569   5.158
    1PA     C12 4466   2.683   3.474   5.304
    1PA     H2R 4467   2.619   3.563   5.296
    1PA     H2S 4468   2.626   3.381   5.309
    2PC     C11 4469   2.783   3.479   5.417
    2PC     O12 4470   2.752   3.523   5.526
    2PC     O11 4471   2.903   3.427   5.389
    2PC      C1 4472   3.010   3.425   5.485
    2PC      HR 4473   3.007   3.516   5.545
    2PC      HS 4474   3.006   3.342   5.556
    2PC      C2 4475   3.140   3.432   5.403
    2PC      HX 4476   3.124   3.359   5.323
    2PC      C3 4477   3.252   3.412   5.505
    2PC      HA 4478   3.237   3.333   5.579
    2PC      HB 4479   3.340   3.383   5.448
    2PC     O31 4480   3.273   3.538   5.573
    2PC     P31 4481   3.400   3.567   5.665
    2PC     O32 4482   3.498   3.610   5.546
    2PC     C31 4483   3.637   3.621   5.582
    2PC     H1A 4484   3.658   3.713   5.637
    2PC     H1B 4485   3.661   3.540   5.651
    2PC     C32 4486   3.718   3.629   5.451
    2PC     H2A 4487   3.657   3.695   5.388
    2PC     H2B 4488   3.820   3.661   5.470
    2PC     N31 4489   3.744   3.504   5.373
    2PC     C33 4490   3.832   3.541   5.257
    2PC     H3A 4491   3.783   3.616   5.195
    2PC     H3B 4492   3.921   3.586   5.299
    2PC     H3C 4493   3.865   3.452   5.203
    2PC     C34 4494   3.809   3.404   5.464
    2PC     H4A 4495   3.750   3.380   5.552
    2PC     H4B 4496   3.830   3.317   5.401
    2PC     H4C 4497   3.908   3.436   5.496
    2PC     C35 4498   3.617   3.448   5.317
    2PC     H5A 4499   3.571   3.521   5.251
    2PC     H5B 4500   3.546   3.424   5.397
    2PC     H5C 4501   3.648   3.352   5.275
    2PC     O33 4502   3.379   3.676   5.763
    2PC     O34 4503   3.445   3.441   5.729
    2PC     O21 4504   3.158   3.561   5.343
    2PC     C21 4505   3.260   3.573   5.257
    2PC     O22 4506   3.331   3.480   5.224
    3OL     C12 4507   3.291   3.715   5.214
    3OL     H2R 4508   3.398   3.731   5.221
    3OL     H2S 4509   3.243   3.788   5.279
    3OL     C13 4510   3.247   3.727   5.067
    3OL     H3R 4511   3.271   3.638   5.007
    3OL     H3S 4512   3.302   3.814   5.032
    3OL     C14 4513   3.094   3.743   5.062
    3OL     H4R 4514   3.072   3.827   5.129
    3OL     H4S 4515   3.042   3.653   5.095
    3OL     C15 4516   3.059   3.775   4.916
    3OL     H5R 4517   3.094   3.702   4.842
    3OL     H5S 4518   3.088   3.874   4.882
    3OL     C16 4519   2.907   3.792   4.914
    3OL     H6R 4520   2.871   3.868   4.984
    3OL     H6S 4521   2.862   3.696   4.939
    3OL     C17 4522   2.854   3.850   4.782
    3OL     H7R 4523   2.885   3.790   4.697
    3OL     H7S 4524   2.891   3.950   4.758
    3OL     C18 4525   2.700   3.849   4.778
    3OL     H8R 4526   2.654   3.879   4.873
    3OL     H8S 4527   2.676   3.745   4.754
    3OL     C19 4528   2.649   3.928   4.661
    3OL     H9R 4529   2.717   4.008   4.633
    3OL    C110 4530   2.537   3.910   4.592
    3OL    H10R 4531   2.506   3.982   4.517
    3OL    C111 4532   2.442   3.796   4.623
    3OL    H11R 4533   2.338   3.824   4.638
    3OL    H11S 4534   2.477   3.749   4.715
    3OL    C112 4535   2.436   3.703   4.501
    3OL    H12R 4536   2.541   3.682   4.478
    3OL    H12S 4537   2.386   3.734   4.409
    3OL    C113 4538   2.370   3.571   4.540
    3OL    H13R 4539   2.264   3.594   4.554
    3OL    H13S 4540   2.397   3.540   4.642
    3OL    C114 4541   2.394   3.457   4.440
    3OL    H14R 4542   2.380   3.361   4.492
    3OL    H14S 4543   2.499   3.455   4.410
    3OL    C115 4544   2.312   3.454   4.311
    3OL    H15R 4545   2.337   3.540   4.249
    3OL    H15S 4546   2.204   3.461   4.330
    3OL    C116 4547   2.348   3.329   4.230
    3OL    H16R 4548   2.324   3.246   4.297
    3OL    H16S 4549   2.455   3.333   4.207
    3OL    C117 4550   2.286   3.322   4.090
    3OL    H17R 4551   2.344   3.393   4.030
    3OL    H17S 4552   2.182   3.354   4.088
    3OL    C118 4553   2.308   3.180   4.036
    3OL    H18R 4554   2.282   3.101   4.106
    3OL    H18S 4555   2.412   3.158   4.009
    3OL    H18T 4556   2.247   3.171   3.946
    1PA    C116 4557   3.669   2.406   3.359
    1PA    H16R 4558   3.674   2.475   3.443
    1PA    H16S 4559   3.697   2.459   3.268
    1PA    H16T 4560   3.749   2.333   3.376
    1PA    C115 4561   3.525   2.352   3.348
    1PA    H15R 4562   3.464   2.442   3.354
    1PA    H15S 4563   3.518   2.299   3.252
    1PA    C114 4564   3.492   2.254   3.461
    1PA    H14R 4565   3.396   2.212   3.428
    1PA    H14S 4566   3.561   2.170   3.471
    1PA    C113 4567   3.485   2.331   3.593
    1PA    H13R 4568   3.580   2.376   3.623
    1PA    H13S 4569   3.407   2.406   3.582
    1PA    C112 4570   3.445   2.227   3.698
    1PA    H12R 4571   3.351   2.180   3.667
    1PA    H12S 4572   3.518   2.146   3.711
    1PA    C111 4573   3.419   2.295   3.833
    1PA    H11R 4574   3.507   2.354   3.862
    1PA    H11S 4575   3.334   2.363   3.825
    1PA    C110 4576   3.403   2.194   3.947
    1PA    H10R 4577   3.328   2.118   3.922
    1PA    H10S 4578   3.500   2.144   3.950
    1PA     C19 4579   3.380   2.276   4.074
    1PA     H9R 4580   3.443   2.365   4.064
    1PA     H9S 4581   3.281   2.322   4.063
    1PA     C18 4582   3.402   2.196   4.203
    1PA     H8R 4583   3.328   2.116   4.216
    1PA     H8S 4584   3.495   2.138   4.205
    1PA     C17 4585   3.398   2.294   4.321
    1PA     H7R 4586   3.483   2.361   4.306
    1PA     H7S 4587   3.304   2.350   4.330
    1PA     C16 4588   3.413   2.203   4.444
    1PA     H6R 4589   3.330   2.133   4.457
    1PA     H6S 4590   3.512   2.159   4.440
    1PA     C15 4591   3.415   2.297   4.566
    1PA     H5R 4592   3.334   2.370   4.559
    1PA     H5S 4593   3.397   2.243   4.659
    1PA     C14 4594   3.546   2.373   4.589
    1PA     H4R 4595   3.626   2.301   4.571
    1PA     H4S 4596   3.570   2.449   4.515
    1PA     C13 4597   3.563   2.431   4.730
    1PA     H3R 4598   3.495   2.514   4.750
    1PA     H3S 4599   3.555   2.352   4.805
    1PA     C12 4600   3.695   2.503   4.760
    1PA     H2R 4601   3.778   2.436   4.736
    1PA     H2S 4602   3.700   2.595   4.701
    2PC     C11 4603   3.717   2.536   4.906
    2PC     O12 4604   3.691   2.648   4.944
    2PC     O11 4605   3.759   2.432   4.980
    2PC      C1 4606   3.756   2.450   5.123
    2PC      HR 4607   3.805   2.363   5.167
    2PC      HS 4608   3.809   2.541   5.152
    2PC      C2 4609   3.613   2.450   5.177
    2PC      HX 4610   3.572   2.550   5.158
    2PC      C3 4611   3.621   2.430   5.329
    2PC      HA 4612   3.523   2.407   5.373
    2PC      HB 4613   3.681   2.341   5.350
    2PC     O31 4614   3.675   2.546   5.394
    2PC     P31 4615   3.690   2.548   5.553
    2PC     O32 4616   3.710   2.707   5.567
    2PC     C31 4617   3.600   2.794   5.536
    2PC     H1A 4618   3.533   2.742   5.467
    2PC     H1B 4619   3.544   2.822   5.626
    2PC     C32 4620   3.663   2.926   5.487
    2PC     H2A 4621   3.619   3.005   5.548
    2PC     H2B 4622   3.768   2.935   5.516
    2PC     N31 4623   3.655   2.956   5.340
    2PC     C33 4624   3.753   3.066   5.312
    2PC     H3A 4625   3.847   3.045   5.364
    2PC     H3B 4626   3.773   3.069   5.205
    2PC     H3C 4627   3.698   3.157   5.338
    2PC     C34 4628   3.675   2.833   5.257
    2PC     H4A 4629   3.583   2.774   5.259
    2PC     H4B 4630   3.697   2.868   5.156
    2PC     H4C 4631   3.762   2.777   5.291
    2PC     C35 4632   3.516   3.012   5.330
    2PC     H5A 4633   3.449   2.947   5.386
    2PC     H5B 4634   3.489   3.015   5.225
    2PC     H5C 4635   3.510   3.109   5.381
    2PC     O33 4636   3.572   2.501   5.630
    2PC     O34 4637   3.810   2.476   5.603
    2PC     O21 4638   3.534   2.346   5.115
    2PC     C21 4639   3.401   2.345   5.125
    2PC     O22 4640   3.339   2.437   5.175
    3OL     C12 4641   3.339   2.229   5.051
    3OL     H2R 4642   3.345   2.148   5.124
    3OL     H2S 4643   3.405   2.190   4.974
    3OL     C13 4644   3.196   2.248   4.999
    3OL     H3R 4645   3.135   2.295   5.077
    3OL     H3S 4646   3.154   2.147   4.995
    3OL     C14 4647   3.191   2.324   4.866
    3OL     H4R 4648   3.240   2.266   4.788
    3OL     H4S 4649   3.230   2.424   4.884
    3OL     C15 4650   3.044   2.333   4.821
    3OL     H5R 4651   2.989   2.394   4.894
    3OL     H5S 4652   2.988   2.241   4.833
    3OL     C16 4653   3.023   2.395   4.682
    3OL     H6R 4654   3.072   2.321   4.619
    3OL     H6S 4655   3.068   2.495   4.680
    3OL     C17 4656   2.875   2.404   4.643
    3OL     H7R 4657   2.811   2.454   4.717
    3OL     H7S 4658   2.842   2.300   4.635
    3OL     C18 4659   2.865   2.478   4.509
    3OL     H8R 4660   2.934   2.438   4.435
    3OL     H8S 4661   2.897   2.581   4.528
    3OL     C19 4662   2.723   2.480   4.458
    3OL     H9R 4663   2.649   2.521   4.526
    3OL    C110 4664   2.686   2.414   4.349
    3OL    H10R 4665   2.582   2.394   4.324
    3OL    C111 4666   2.766   2.347   4.241
    3OL    H11R 4667   2.872   2.373   4.241
    3OL    H11S 4668   2.725   2.380   4.145
    3OL    C112 4669   2.754   2.194   4.248
    3OL    H12R 4670   2.805   2.160   4.339
    3OL    H12S 4671   2.792   2.168   4.149
    3OL    C113 4672   2.611   2.139   4.241
    3OL    H13R 4673   2.559   2.159   4.335
    3OL    H13S 4674   2.622   2.031   4.242
    3OL    C114 4675   2.530   2.185   4.119
    3OL    H14R 4676   2.575   2.156   4.024
    3OL    H14S 4677   2.529   2.294   4.117
    3OL    C115 4678   2.383   2.140   4.110
    3OL    H15R 4679   2.328   2.176   4.197
    3OL    H15S 4680   2.384   2.033   4.132
    3OL    C116 4681   2.310   2.179   3.981
    3OL    H16R 4682   2.371   2.157   3.894
    3OL    H16S 4683   2.303   2.288   3.988
    3OL    C117 4684   2.171   2.115   3.974
    3OL    H17R 4685   2.098   2.196   3.988
    3OL    H17S 4686   2.164   2.044   4.056
    3OL    C118 4687   2.142   2.038   3.844
    3OL    H18R 4688   2.036   2.013   3.842
    3OL    H18S 4689   2.197   1.944   3.842
    3OL    H18T 4690   2.172   2.090   3.753
    1PA    C116 4691   1.420   4.702   4.269
    1PA    H16R 4692   1.513   4.693   4.326
    1PA    H16S 4693   1.425   4.771   4.185
    1PA    H16T 4694   1.403   4.608   4.216
    1PA    C115 4695   1.303   4.738   4.362
    1PA    H15R 4696   1.312   4.833   4.413
    1PA    H15S 4697   1.212   4.742   4.301
    1PA    C114 4698   1.306   4.624   4.465
    1PA    H14R 4699   1.305   4.532   4.405
    1PA    H14S 4700   1.399   4.621   4.522
    1PA    C113 4701   1.178   4.618   4.549
    1PA    H13R 4702   1.090   4.638   4.486
    1PA    H13S 4703   1.171   4.514   4.582
    1PA    C112 4704   1.174   4.711   4.671
    1PA    H12R 4705   1.268   4.693   4.723
    1PA    H12S 4706   1.162   4.814   4.636
    1PA    C111 4707   1.063   4.668   4.767
    1PA    H11R 4708   0.976   4.656   4.702
    1PA    H11S 4709   1.099   4.574   4.809
    1PA    C110 4710   1.039   4.769   4.880
    1PA    H10R 4711   1.120   4.776   4.953
    1PA    H10S 4712   1.021   4.868   4.837
    1PA     C19 4713   0.911   4.732   4.956
    1PA     H9R 4714   0.896   4.814   5.027
    1PA     H9S 4715   0.827   4.735   4.885
    1PA     C18 4716   0.902   4.595   5.024
    1PA     H8R 4717   0.882   4.511   4.957
    1PA     H8S 4718   1.000   4.570   5.064
    1PA     C17 4719   0.798   4.592   5.137
    1PA     H7R 4720   0.813   4.499   5.193
    1PA     H7S 4721   0.806   4.682   5.198
    1PA     C16 4722   0.656   4.577   5.079
    1PA     H6R 4723   0.629   4.657   5.010
    1PA     H6S 4724   0.647   4.485   5.022
    1PA     C15 4725   0.559   4.569   5.198
    1PA     H5R 4726   0.580   4.478   5.255
    1PA     H5S 4727   0.577   4.650   5.268
    1PA     C14 4728   0.410   4.577   5.159
    1PA     H4R 4729   0.397   4.663   5.094
    1PA     H4S 4730   0.390   4.492   5.094
    1PA     C13 4731   0.316   4.591   5.279
    1PA     H3R 4732   0.325   4.690   5.324
    1PA     H3S 4733   0.219   4.571   5.233
    1PA     C12 4734   0.340   4.484   5.387
    1PA     H2R 4735   0.251   4.470   5.449
    1PA     H2S 4736   0.368   4.391   5.337
    2PC     C11 4737   0.451   4.523   5.481
    2PC     O12 4738   0.528   4.440   5.524
    2PC     O11 4739   0.446   4.651   5.523
    2PC      C1 4740   0.534   4.718   5.615
    2PC      HR 4741   0.545   4.673   5.714
    2PC      HS 4742   0.636   4.710   5.576
    2PC      C2 4743   0.496   4.866   5.630
    2PC      HX 4744   0.570   4.933   5.674
    2PC      C3 4745   0.369   4.862   5.716
    2PC      HA 4746   0.290   4.796   5.677
    2PC      HB 4747   0.391   4.810   5.810
    2PC     O31 4748   0.325   4.994   5.752
    2PC     P31 4749   0.227   5.021   5.876
    2PC     O32 4750   0.155   5.161   5.846
    2PC     C31 4751   0.032   5.156   5.772
    2PC     H1A 4752   0.055   5.106   5.678
    2PC     H1B 4753  -0.039   5.096   5.829
    2PC     C32 4754  -0.027   5.297   5.760
    2PC     H2A 4755  -0.105   5.316   5.834
    2PC     H2B 4756   0.053   5.371   5.763
    2PC     N31 4757  -0.087   5.322   5.625
    2PC     C33 4758  -0.193   5.222   5.593
    2PC     H3A 4759  -0.275   5.234   5.664
    2PC     H3B 4760  -0.235   5.237   5.494
    2PC     H3C 4761  -0.151   5.121   5.599
    2PC     C34 4762  -0.148   5.459   5.627
    2PC     H4A 4763  -0.231   5.462   5.697
    2PC     H4B 4764  -0.073   5.536   5.647
    2PC     H4C 4765  -0.190   5.472   5.528
    2PC     C35 4766   0.013   5.340   5.515
    2PC     H5A 4767  -0.046   5.389   5.438
    2PC     H5B 4768   0.053   5.243   5.481
    2PC     H5C 4769   0.099   5.404   5.536
    2PC     O33 4770   0.130   4.912   5.900
    2PC     O34 4771   0.303   5.031   6.003
    2PC     O21 4772   0.459   4.928   5.506
    2PC     C21 4773   0.552   4.940   5.409
    2PC     O22 4774   0.668   4.909   5.423
    3OL     C12 4775   0.498   5.011   5.288
    3OL     H2R 4776   0.465   5.110   5.320
    3OL     H2S 4777   0.416   4.955   5.242
    3OL     C13 4778   0.592   5.013   5.166
    3OL     H3R 4779   0.525   5.035   5.082
    3OL     H3S 4780   0.635   4.914   5.150
    3OL     C14 4781   0.695   5.125   5.180
    3OL     H4R 4782   0.744   5.114   5.277
    3OL     H4S 4783   0.649   5.224   5.182
    3OL     C15 4784   0.799   5.121   5.066
    3OL     H5R 4785   0.860   5.031   5.076
    3OL     H5S 4786   0.856   5.212   5.087
    3OL     C16 4787   0.742   5.151   4.927
    3OL     H6R 4788   0.674   5.237   4.924
    3OL     H6S 4789   0.696   5.058   4.893
    3OL     C17 4790   0.843   5.193   4.820
    3OL     H7R 4791   0.911   5.107   4.811
    3OL     H7S 4792   0.897   5.280   4.858
    3OL     C18 4793   0.775   5.233   4.688
    3OL     H8R 4794   0.710   5.152   4.655
    3OL     H8S 4795   0.855   5.247   4.614
    3OL     C19 4796   0.700   5.364   4.699
    3OL     H9R 4797   0.628   5.364   4.780
    3OL    C110 4798   0.720   5.464   4.614
    3OL    H10R 4799   0.670   5.558   4.634
    3OL    C111 4800   0.815   5.471   4.498
    3OL    H11R 4801   0.801   5.385   4.433
    3OL    H11S 4802   0.922   5.472   4.521
    3OL    C112 4803   0.786   5.603   4.425
    3OL    H12R 4804   0.691   5.609   4.371
    3OL    H12S 4805   0.856   5.598   4.341
    3OL    C113 4806   0.802   5.732   4.508
    3OL    H13R 4807   0.892   5.725   4.570
    3OL    H13S 4808   0.724   5.722   4.584
    3OL    C114 4809   0.804   5.867   4.435
    3OL    H14R 4810   0.844   5.947   4.497
    3OL    H14S 4811   0.702   5.900   4.414
    3OL    C115 4812   0.895   5.859   4.311
    3OL    H15R 4813   0.857   5.783   4.243
    3OL    H15S 4814   0.999   5.852   4.342
    3OL    C116 4815   0.876   5.986   4.227
    3OL    H16R 4816   0.897   6.075   4.287
    3OL    H16S 4817   0.775   6.008   4.191
    3OL    C117 4818   0.977   5.974   4.112
    3OL    H17R 4819   0.935   5.888   4.060
    3OL    H17S 4820   1.076   5.954   4.155
    3OL    C118 4821   0.973   6.083   4.004
    3OL    H18R 4822   1.044   6.070   3.923
    3OL    H18S 4823   0.973   6.179   4.055
    3OL    H18T 4824   0.872   6.089   3.962
    1PA    C116 4825   1.951   2.973   3.696
    1PA    H16R 4826   1.930   2.871   3.728
    1PA    H16S 4827   1.859   3.030   3.694
    1PA    H16T 4828   2.023   3.018   3.765
    1PA    C115 4829   2.012   2.968   3.555
    1PA    H15R 4830   1.932   2.949   3.483
    1PA    H15S 4831   2.045   3.068   3.526
    1PA    C114 4832   2.126   2.868   3.533
    1PA    H14R 4833   2.084   2.766   3.535
    1PA    H14S 4834   2.182   2.891   3.443
    1PA    C113 4835   2.231   2.874   3.645
    1PA    H13R 4836   2.273   2.975   3.651
    1PA    H13S 4837   2.195   2.846   3.744
    1PA    C112 4838   2.347   2.778   3.614
    1PA    H12R 4839   2.319   2.673   3.623
    1PA    H12S 4840   2.377   2.798   3.510
    1PA    C111 4841   2.478   2.796   3.692
    1PA    H11R 4842   2.543   2.710   3.674
    1PA    H11S 4843   2.530   2.883   3.653
    1PA    C110 4844   2.462   2.814   3.844
    1PA    H10R 4845   2.423   2.915   3.859
    1PA    H10S 4846   2.389   2.740   3.877
    1PA     C19 4847   2.595   2.805   3.919
    1PA     H9R 4848   2.648   2.721   3.874
    1PA     H9S 4849   2.648   2.900   3.927
    1PA     C18 4850   2.577   2.767   4.066
    1PA     H8R 4851   2.479   2.719   4.075
    1PA     H8S 4852   2.657   2.696   4.089
    1PA     C17 4853   2.593   2.890   4.157
    1PA     H7R 4854   2.695   2.927   4.149
    1PA     H7S 4855   2.533   2.974   4.122
    1PA     C16 4856   2.567   2.849   4.303
    1PA     H6R 4857   2.460   2.832   4.315
    1PA     H6S 4858   2.628   2.765   4.336
    1PA     C15 4859   2.589   2.965   4.402
    1PA     H5R 4860   2.696   2.987   4.397
    1PA     H5S 4861   2.523   3.050   4.384
    1PA     C14 4862   2.563   2.910   4.543
    1PA     H4R 4863   2.459   2.877   4.545
    1PA     H4S 4864   2.620   2.818   4.560
    1PA     C13 4865   2.576   3.006   4.662
    1PA     H3R 4866   2.667   3.064   4.655
    1PA     H3S 4867   2.500   3.085   4.660
    1PA     C12 4868   2.573   2.915   4.786
    1PA     H2R 4869   2.475   2.867   4.791
    1PA     H2S 4870   2.656   2.845   4.775
    2PC     C11 4871   2.594   2.992   4.914
    2PC     O12 4872   2.500   3.026   4.982
    2PC     O11 4873   2.723   3.015   4.947
    2PC      C1 4874   2.748   3.050   5.084
    2PC      HR 4875   2.856   3.067   5.088
    2PC      HS 4876   2.692   3.142   5.103
    2PC      C2 4877   2.715   2.935   5.181
    2PC      HX 4878   2.612   2.898   5.181
    2PC      C3 4879   2.738   2.982   5.326
    2PC      HA 4880   2.672   3.066   5.349
    2PC      HB 4881   2.720   2.894   5.389
    2PC     O31 4882   2.872   3.035   5.336
    2PC     P31 4883   2.928   3.064   5.483
    2PC     O32 4884   2.943   2.920   5.552
    2PC     C31 4885   3.020   2.826   5.475
    2PC     H1A 4886   2.997   2.836   5.369
    2PC     H1B 4887   3.127   2.850   5.473
    2PC     C32 4888   3.003   2.684   5.530
    2PC     H2A 4889   3.067   2.613   5.479
    2PC     H2B 4890   3.032   2.689   5.635
    2PC     N31 4891   2.867   2.622   5.520
    2PC     C33 4892   2.758   2.686   5.602
    2PC     H3A 4893   2.792   2.703   5.705
    2PC     H3B 4894   2.718   2.776   5.557
    2PC     H3C 4895   2.671   2.623   5.620
    2PC     C34 4896   2.809   2.619   5.382
    2PC     H4A 4897   2.824   2.716   5.335
    2PC     H4B 4898   2.862   2.543   5.324
    2PC     H4C 4899   2.704   2.590   5.378
    2PC     C35 4900   2.876   2.479   5.564
    2PC     H5A 4901   2.922   2.474   5.663
    2PC     H5B 4902   2.948   2.429   5.500
    2PC     H5C 4903   2.772   2.444   5.564
    2PC     O33 4904   3.064   3.123   5.482
    2PC     O34 4905   2.830   3.125   5.577
    2PC     O21 4906   2.811   2.831   5.154
    2PC     C21 4907   2.787   2.737   5.062
    2PC     O22 4908   2.679   2.718   5.011
    3OL     C12 4909   2.908   2.651   5.034
    3OL     H2R 4910   2.893   2.613   4.933
    3OL     H2S 4911   2.915   2.575   5.112
    3OL     C13 4912   3.044   2.722   5.032
    3OL     H3R 4913   3.115   2.640   5.021
    3OL     H3S 4914   3.065   2.768   5.129
    3OL     C14 4915   3.051   2.825   4.919
    3OL     H4R 4916   3.110   2.911   4.952
    3OL     H4S 4917   2.958   2.876   4.892
    3OL     C15 4918   3.119   2.768   4.794
    3OL     H5R 4919   3.053   2.775   4.708
    3OL     H5S 4920   3.137   2.661   4.809
    3OL     C16 4921   3.250   2.838   4.757
    3OL     H6R 4922   3.319   2.856   4.840
    3OL     H6S 4923   3.221   2.933   4.712
    3OL     C17 4924   3.316   2.752   4.649
    3OL     H7R 4925   3.234   2.728   4.581
    3OL     H7S 4926   3.347   2.657   4.694
    3OL     C18 4927   3.428   2.832   4.582
    3OL     H8R 4928   3.487   2.759   4.527
    3OL     H8S 4929   3.489   2.888   4.654
    3OL     C19 4930   3.374   2.937   4.488
    3OL     H9R 4931   3.303   3.005   4.533
    3OL    C110 4932   3.395   2.921   4.358
    3OL    H10R 4933   3.347   2.993   4.292
    3OL    C111 4934   3.487   2.814   4.303
    3OL    H11R 4935   3.452   2.711   4.314
    3OL    H11S 4936   3.587   2.822   4.345
    3OL    C112 4937   3.516   2.849   4.157
    3OL    H12R 4938   3.418   2.851   4.108
    3OL    H12S 4939   3.570   2.767   4.109
    3OL    C113 4940   3.581   2.987   4.144
    3OL    H13R 4941   3.664   2.993   4.215
    3OL    H13S 4942   3.511   3.066   4.170
    3OL    C114 4943   3.624   3.012   3.999
    3OL    H14R 4944   3.538   3.006   3.931
    3OL    H14S 4945   3.699   2.938   3.972
    3OL    C115 4946   3.682   3.154   3.999
    3OL    H15R 4947   3.756   3.167   4.078
    3OL    H15S 4948   3.602   3.228   4.005
    3OL    C116 4949   3.751   3.183   3.865
    3OL    H16R 4950   3.681   3.185   3.782
    3OL    H16S 4951   3.824   3.103   3.855
    3OL    C117 4952   3.824   3.318   3.868
    3OL    H17R 4953   3.848   3.351   3.767
    3OL    H17S 4954   3.919   3.294   3.915
    3OL    C118 4955   3.765   3.437   3.945
    3OL    H18R 4956   3.839   3.515   3.961
    3OL    H18S 4957   3.739   3.406   4.047
    3OL    H18T 4958   3.667   3.468   3.909
    1PA    C116 4959   6.349   5.623   4.267
    1PA    H16R 4960   6.434   5.614   4.199
    1PA    H16S 4961   6.378   5.697   4.341
    1PA    H16T 4962   6.268   5.657   4.202
    1PA    C115 4963   6.308   5.487   4.326
    1PA    H15R 4964   6.222   5.519   4.384
    1PA    H15S 4965   6.255   5.431   4.248
    1PA    C114 4966   6.418   5.410   4.401
    1PA    H14R 4967   6.507   5.415   4.339
    1PA    H14S 4968   6.436   5.460   4.497
    1PA    C113 4969   6.380   5.265   4.435
    1PA    H13R 4970   6.319   5.219   4.357
    1PA    H13S 4971   6.477   5.218   4.449
    1PA    C112 4972   6.298   5.262   4.565
    1PA    H12R 4973   6.361   5.307   4.642
    1PA    H12S 4974   6.205   5.314   4.541
    1PA    C111 4975   6.248   5.122   4.602
    1PA    H11R 4976   6.181   5.097   4.520
    1PA    H11S 4977   6.317   5.039   4.587
    1PA    C110 4978   6.173   5.120   4.736
    1PA    H10R 4979   6.094   5.195   4.727
    1PA    H10S 4980   6.125   5.022   4.743
    1PA     C19 4981   6.267   5.143   4.856
    1PA     H9R 4982   6.321   5.235   4.836
    1PA     H9S 4983   6.198   5.138   4.941
    1PA     C18 4984   6.360   5.023   4.874
    1PA     H8R 4985   6.388   4.973   4.781
    1PA     H8S 4986   6.452   5.054   4.925
    1PA     C17 4987   6.293   4.909   4.953
    1PA     H7R 4988   6.273   4.942   5.055
    1PA     H7S 4989   6.195   4.901   4.906
    1PA     C16 4990   6.375   4.779   4.957
    1PA     H6R 4991   6.321   4.703   5.014
    1PA     H6S 4992   6.369   4.738   4.856
    1PA     C15 4993   6.524   4.793   4.994
    1PA     H5R 4994   6.563   4.695   5.023
    1PA     H5S 4995   6.582   4.829   4.908
    1PA     C14 4996   6.542   4.876   5.121
    1PA     H4R 4997   6.648   4.896   5.138
    1PA     H4S 4998   6.495   4.975   5.118
    1PA     C13 4999   6.492   4.811   5.250
    1PA     H3R 5000   6.385   4.794   5.250
    1PA     H3S 5001   6.529   4.708   5.248
    1PA     C12 5002   6.538   4.886   5.377
    1PA     H2R 5003   6.646   4.885   5.393
    1PA     H2S 5004   6.500   4.988   5.370
    2PC     C11 5005   6.462   4.820   5.489
    2PC     O12 5006   6.363   4.861   5.545
    2PC     O11 5007   6.524   4.707   5.530
    2PC      C1 5008   6.489   4.637   5.651
    2PC      HR 5009   6.579   4.579   5.670
    2PC      HS 5010   6.467   4.701   5.737
    2PC      C2 5011   6.366   4.546   5.632
    2PC      HX 5012   6.279   4.601   5.595
    2PC      C3 5013   6.312   4.494   5.765
    2PC      HA 5014   6.263   4.579   5.814
    2PC      HB 5015   6.228   4.426   5.753
    2PC     O31 5016   6.413   4.443   5.854
    2PC     P31 5017   6.379   4.430   6.010
    2PC     O32 5018   6.475   4.307   6.046
    2PC     C31 5019   6.546   4.311   6.172
    2PC     H1A 5020   6.606   4.402   6.173
    2PC     H1B 5021   6.471   4.317   6.252
    2PC     C32 5022   6.630   4.186   6.200
    2PC     H2A 5023   6.686   4.212   6.290
    2PC     H2B 5024   6.571   4.095   6.214
    2PC     N31 5025   6.744   4.146   6.110
    2PC     C33 5026   6.809   4.016   6.145
    2PC     H3A 5027   6.884   4.027   6.224
    2PC     H3B 5028   6.738   3.941   6.179
    2PC     H3C 5029   6.864   3.985   6.056
    2PC     C34 5030   6.682   4.119   5.976
    2PC     H4A 5031   6.637   4.213   5.946
    2PC     H4B 5032   6.760   4.090   5.905
    2PC     H4C 5033   6.606   4.042   5.993
    2PC     C35 5034   6.837   4.264   6.100
    2PC     H5A 5035   6.777   4.349   6.069
    2PC     H5B 5036   6.905   4.250   6.016
    2PC     H5C 5037   6.891   4.282   6.192
    2PC     O33 5038   6.402   4.556   6.083
    2PC     O34 5039   6.238   4.398   6.041
    2PC     O21 5040   6.398   4.432   5.550
    2PC     C21 5041   6.393   4.439   5.416
    2PC     O22 5042   6.372   4.543   5.358
    3OL     C12 5043   6.420   4.306   5.350
    3OL     H2R 5044   6.359   4.225   5.393
    3OL     H2S 5045   6.526   4.284   5.361
    3OL     C13 5046   6.372   4.303   5.204
    3OL     H3R 5047   6.281   4.363   5.195
    3OL     H3S 5048   6.337   4.203   5.178
    3OL     C14 5049   6.475   4.358   5.105
    3OL     H4R 5050   6.560   4.293   5.086
    3OL     H4S 5051   6.515   4.450   5.149
    3OL     C15 5052   6.409   4.377   4.968
    3OL     H5R 5053   6.327   4.446   4.987
    3OL     H5S 5054   6.378   4.277   4.937
    3OL     C16 5055   6.513   4.446   4.878
    3OL     H6R 5056   6.602   4.383   4.875
    3OL     H6S 5057   6.547   4.537   4.928
    3OL     C17 5058   6.458   4.463   4.735
    3OL     H7R 5059   6.360   4.511   4.731
    3OL     H7S 5060   6.457   4.367   4.684
    3OL     C18 5061   6.551   4.550   4.650
    3OL     H8R 5062   6.653   4.513   4.663
    3OL     H8S 5063   6.555   4.652   4.690
    3OL     C19 5064   6.508   4.539   4.506
    3OL     H9R 5065   6.497   4.437   4.470
    3OL    C110 5066   6.468   4.636   4.425
    3OL    H10R 5067   6.436   4.605   4.325
    3OL    C111 5068   6.463   4.784   4.453
    3OL    H11R 5069   6.539   4.815   4.525
    3OL    H11S 5070   6.368   4.803   4.503
    3OL    C112 5071   6.486   4.862   4.322
    3OL    H12R 5072   6.581   4.826   4.281
    3OL    H12S 5073   6.492   4.970   4.339
    3OL    C113 5074   6.374   4.847   4.219
    3OL    H13R 5075   6.331   4.747   4.225
    3OL    H13S 5076   6.410   4.865   4.117
    3OL    C114 5077   6.271   4.961   4.231
    3OL    H14R 5078   6.327   5.048   4.196
    3OL    H14S 5079   6.243   4.988   4.333
    3OL    C115 5080   6.139   4.937   4.157
    3OL    H15R 5081   6.097   4.838   4.171
    3OL    H15S 5082   6.161   4.946   4.050
    3OL    C116 5083   6.034   5.046   4.183
    3OL    H16R 5084   6.061   5.148   4.154
    3OL    H16S 5085   6.009   5.053   4.289
    3OL    C117 5086   5.899   5.003   4.123
    3OL    H17R 5087   5.855   4.914   4.167
    3OL    H17S 5088   5.917   4.987   4.017
    3OL    C118 5089   5.799   5.119   4.126
    3OL    H18R 5090   5.696   5.083   4.115
    3OL    H18S 5091   5.831   5.187   4.046
    3OL    H18T 5092   5.801   5.174   4.220
    1PA    C116 5093   5.444  -0.315   4.187
    1PA    H16R 5094   5.447  -0.411   4.239
    1PA    H16S 5095   5.543  -0.275   4.208
    1PA    H16T 5096   5.447  -0.323   4.078
    1PA    C115 5097   5.329  -0.224   4.233
    1PA    H15R 5098   5.355  -0.121   4.206
    1PA    H15S 5099   5.238  -0.249   4.179
    1PA    C114 5100   5.294  -0.238   4.382
    1PA    H14R 5101   5.197  -0.192   4.401
    1PA    H14S 5102   5.291  -0.343   4.410
    1PA    C113 5103   5.388  -0.154   4.470
    1PA    H13R 5104   5.491  -0.181   4.449
    1PA    H13S 5105   5.374  -0.054   4.431
    1PA    C112 5106   5.357  -0.163   4.621
    1PA    H12R 5107   5.377  -0.068   4.671
    1PA    H12S 5108   5.249  -0.175   4.629
    1PA    C111 5109   5.425  -0.278   4.696
    1PA    H11R 5110   5.379  -0.287   4.794
    1PA    H11S 5111   5.405  -0.371   4.642
    1PA    C110 5112   5.573  -0.244   4.719
    1PA    H10R 5113   5.618  -0.211   4.625
    1PA    H10S 5114   5.581  -0.159   4.787
    1PA     C19 5115   5.654  -0.361   4.775
    1PA     H9R 5116   5.606  -0.392   4.869
    1PA     H9S 5117   5.650  -0.451   4.714
    1PA     C18 5118   5.803  -0.342   4.806
    1PA     H8R 5119   5.852  -0.437   4.828
    1PA     H8S 5120   5.842  -0.296   4.715
    1PA     C17 5121   5.826  -0.270   4.941
    1PA     H7R 5122   5.752  -0.191   4.958
    1PA     H7S 5123   5.818  -0.347   5.018
    1PA     C16 5124   5.970  -0.222   4.959
    1PA     H6R 5125   6.041  -0.301   4.933
    1PA     H6S 5126   5.988  -0.144   4.884
    1PA     C15 5127   6.005  -0.184   5.103
    1PA     H5R 5128   5.965  -0.257   5.174
    1PA     H5S 5129   6.112  -0.203   5.106
    1PA     C14 5130   5.963  -0.040   5.136
    1PA     H4R 5131   6.014   0.036   5.076
    1PA     H4S 5132   5.855  -0.037   5.122
    1PA     C13 5133   5.985  -0.004   5.284
    1PA     H3R 5134   5.937  -0.085   5.340
    1PA     H3S 5135   6.091   0.002   5.308
    1PA     C12 5136   5.922   0.131   5.319
    1PA     H2R 5137   5.966   0.205   5.252
    1PA     H2S 5138   5.813   0.130   5.306
    2PC     C11 5139   5.954   0.163   5.462
    2PC     O12 5140   5.971   0.080   5.550
    2PC     O11 5141   5.978   0.293   5.484
    2PC      C1 5142   6.035   0.343   5.607
    2PC      HR 5143   6.043   0.451   5.595
    2PC      HS 5144   5.956   0.321   5.679
    2PC      C2 5145   6.162   0.274   5.660
    2PC      HX 5146   6.143   0.171   5.692
    2PC      C3 5147   6.224   0.351   5.777
    2PC      HA 5148   6.273   0.441   5.739
    2PC      HB 5149   6.143   0.387   5.842
    2PC     O31 5150   6.308   0.264   5.855
    2PC     P31 5151   6.355   0.309   6.002
    2PC     O32 5152   6.223   0.280   6.088
    2PC     C31 5153   6.132   0.388   6.120
    2PC     H1A 5154   6.171   0.489   6.130
    2PC     H1B 5155   6.048   0.387   6.050
    2PC     C32 5156   6.066   0.343   6.251
    2PC     H2A 5157   5.993   0.263   6.240
    2PC     H2B 5158   6.145   0.309   6.317
    2PC     N31 5159   5.982   0.440   6.330
    2PC     C33 5160   6.076   0.545   6.383
    2PC     H3A 5161   6.015   0.620   6.433
    2PC     H3B 5162   6.148   0.493   6.446
    2PC     H3C 5163   6.136   0.583   6.300
    2PC     C34 5164   5.888   0.511   6.237
    2PC     H4A 5165   5.938   0.537   6.144
    2PC     H4B 5166   5.799   0.449   6.232
    2PC     H4C 5167   5.865   0.607   6.284
    2PC     C35 5168   5.918   0.366   6.443
    2PC     H5A 5169   5.846   0.431   6.494
    2PC     H5B 5170   5.997   0.325   6.505
    2PC     H5C 5171   5.852   0.289   6.404
    2PC     O33 5172   6.477   0.240   6.050
    2PC     O34 5173   6.386   0.453   6.014
    2PC     O21 5174   6.263   0.262   5.559
    2PC     C21 5175   6.296   0.366   5.481
    2PC     O22 5176   6.274   0.483   5.503
    3OL     C12 5177   6.355   0.326   5.348
    3OL     H2R 5178   6.428   0.402   5.319
    3OL     H2S 5179   6.275   0.344   5.275
    3OL     C13 5180   6.405   0.182   5.333
    3OL     H3R 5181   6.321   0.120   5.366
    3OL     H3S 5182   6.492   0.169   5.397
    3OL     C14 5183   6.438   0.151   5.186
    3OL     H4R 5184   6.520   0.079   5.185
    3OL     H4S 5185   6.478   0.243   5.143
    3OL     C15 5186   6.326   0.094   5.099
    3OL     H5R 5187   6.258   0.179   5.088
    3OL     H5S 5188   6.288  -0.001   5.138
    3OL     C16 5189   6.387   0.053   4.964
    3OL     H6R 5190   6.471  -0.016   4.974
    3OL     H6S 5191   6.432   0.129   4.900
    3OL     C17 5192   6.279  -0.023   4.885
    3OL     H7R 5193   6.182   0.027   4.897
    3OL     H7S 5194   6.257  -0.118   4.935
    3OL     C18 5195   6.311  -0.042   4.737
    3OL     H8R 5196   6.322   0.057   4.691
    3OL     H8S 5197   6.227  -0.094   4.691
    3OL     C19 5198   6.427  -0.137   4.721
    3OL     H9R 5199   6.465  -0.187   4.810
    3OL    C110 5200   6.478  -0.176   4.605
    3OL    H10R 5201   6.566  -0.237   4.589
    3OL    C111 5202   6.440  -0.120   4.470
    3OL    H11R 5203   6.352  -0.057   4.482
    3OL    H11S 5204   6.412  -0.202   4.403
    3OL    C112 5205   6.546  -0.025   4.414
    3OL    H12R 5206   6.634  -0.086   4.389
    3OL    H12S 5207   6.586   0.028   4.501
    3OL    C113 5208   6.506   0.066   4.297
    3OL    H13R 5209   6.485  -0.004   4.217
    3OL    H13S 5210   6.593   0.126   4.268
    3OL    C114 5211   6.388   0.159   4.328
    3OL    H14R 5212   6.411   0.214   4.420
    3OL    H14S 5213   6.306   0.090   4.347
    3OL    C115 5214   6.354   0.261   4.218
    3OL    H15R 5215   6.442   0.325   4.214
    3OL    H15S 5216   6.269   0.324   4.245
    3OL    C116 5217   6.341   0.200   4.077
    3OL    H16R 5218   6.263   0.124   4.070
    3OL    H16S 5219   6.426   0.140   4.047
    3OL    C117 5220   6.300   0.306   3.974
    3OL    H17R 5221   6.355   0.395   4.001
    3OL    H17S 5222   6.193   0.323   3.991
    3OL    C118 5223   6.328   0.267   3.828
    3OL    H18R 5224   6.305   0.360   3.776
    3OL    H18S 5225   6.270   0.181   3.795
    3OL    H18T 5226   6.432   0.243   3.804
    1PA    C116 5227   1.755   3.804   4.394
    1PA    H16R 5228   1.748   3.845   4.293
    1PA    H16S 5229   1.771   3.880   4.471
    1PA    H16T 5230   1.661   3.752   4.414
    1PA    C115 5231   1.875   3.711   4.414
    1PA    H15R 5232   1.856   3.630   4.343
    1PA    H15S 5233   1.969   3.763   4.393
    1PA    C114 5234   1.883   3.650   4.554
    1PA    H14R 5235   1.799   3.683   4.615
    1PA    H14S 5236   1.880   3.541   4.545
    1PA    C113 5237   2.005   3.705   4.630
    1PA    H13R 5238   2.102   3.689   4.583
    1PA    H13S 5239   1.997   3.814   4.637
    1PA    C112 5240   2.003   3.665   4.778
    1PA    H12R 5241   1.908   3.704   4.817
    1PA    H12S 5242   2.017   3.557   4.785
    1PA    C111 5243   2.105   3.746   4.859
    1PA    H11R 5244   2.207   3.743   4.820
    1PA    H11S 5245   2.069   3.848   4.850
    1PA    C110 5246   2.096   3.703   5.007
    1PA    H10R 5247   1.993   3.702   5.041
    1PA    H10S 5248   2.137   3.603   5.023
    1PA     C19 5249   2.165   3.805   5.098
    1PA     H9R 5250   2.146   3.910   5.073
    1PA     H9S 5251   2.122   3.800   5.198
    1PA     C18 5252   2.316   3.782   5.116
    1PA     H8R 5253   2.336   3.682   5.152
    1PA     H8S 5254   2.365   3.788   5.018
    1PA     C17 5255   2.389   3.881   5.208
    1PA     H7R 5256   2.371   3.983   5.173
    1PA     H7S 5257   2.364   3.874   5.314
    1PA     C16 5258   2.538   3.844   5.199
    1PA     H6R 5259   2.545   3.739   5.226
    1PA     H6S 5260   2.586   3.852   5.101
    1PA     C15 5261   2.626   3.926   5.294
    1PA     H5R 5262   2.625   4.032   5.266
    1PA     H5S 5263   2.589   3.931   5.396
    1PA     C14 5264   2.772   3.880   5.309
    1PA     H4R 5265   2.773   3.772   5.328
    1PA     H4S 5266   2.831   3.900   5.219
    1PA     C13 5267   2.829   3.954   5.430
    1PA     H3R 5268   2.845   4.059   5.408
    1PA     H3S 5269   2.763   3.956   5.518
    1PA     C12 5270   2.960   3.881   5.464
    1PA     H2R 5271   2.928   3.781   5.497
    1PA     H2S 5272   3.021   3.883   5.373
    2PC     C11 5273   3.031   3.947   5.579
    2PC     O12 5274   2.978   4.025   5.655
    2PC     O11 5275   3.162   3.919   5.571
    2PC      C1 5276   3.252   3.977   5.667
    2PC      HR 5277   3.230   4.083   5.675
    2PC      HS 5278   3.251   3.920   5.760
    2PC      C2 5279   3.394   3.960   5.610
    2PC      HX 5280   3.399   3.853   5.589
    2PC      C3 5281   3.499   4.011   5.709
    2PC      HA 5282   3.504   4.119   5.691
    2PC      HB 5283   3.460   3.990   5.809
    2PC     O31 5284   3.632   3.956   5.699
    2PC     P31 5285   3.734   3.992   5.817
    2PC     O32 5286   3.807   3.852   5.844
    2PC     C31 5287   3.729   3.759   5.922
    2PC     H1A 5288   3.706   3.792   6.023
    2PC     H1B 5289   3.635   3.739   5.871
    2PC     C32 5290   3.812   3.629   5.921
    2PC     H2A 5291   3.805   3.586   5.821
    2PC     H2B 5292   3.916   3.657   5.941
    2PC     N31 5293   3.774   3.521   6.016
    2PC     C33 5294   3.867   3.404   6.008
    2PC     H3A 5295   3.850   3.351   5.915
    2PC     H3B 5296   3.974   3.424   6.020
    2PC     H3C 5297   3.835   3.325   6.076
    2PC     C34 5298   3.781   3.566   6.159
    2PC     H4A 5299   3.869   3.629   6.172
    2PC     H4B 5300   3.693   3.625   6.186
    2PC     H4C 5301   3.790   3.475   6.219
    2PC     C35 5302   3.631   3.482   5.989
    2PC     H5A 5303   3.574   3.573   6.006
    2PC     H5B 5304   3.594   3.398   6.048
    2PC     H5C 5305   3.619   3.460   5.883
    2PC     O33 5306   3.831   4.089   5.763
    2PC     O34 5307   3.674   4.055   5.937
    2PC     O21 5308   3.408   4.040   5.491
    2PC     C21 5309   3.486   3.988   5.395
    2PC     O22 5310   3.567   3.899   5.406
    3OL     C12 5311   3.455   4.057   5.265
    3OL     H2R 5312   3.376   4.132   5.280
    3OL     H2S 5313   3.410   3.983   5.198
    3OL     C13 5314   3.576   4.116   5.192
    3OL     H3R 5315   3.645   4.160   5.265
    3OL     H3S 5316   3.538   4.191   5.122
    3OL     C14 5317   3.651   4.014   5.105
    3OL     H4R 5318   3.580   3.987   5.026
    3OL     H4S 5319   3.678   3.923   5.159
    3OL     C15 5320   3.770   4.085   5.039
    3OL     H5R 5321   3.827   4.139   5.115
    3OL     H5S 5322   3.736   4.168   4.976
    3OL     C16 5323   3.845   3.984   4.952
    3OL     H6R 5324   3.762   3.933   4.902
    3OL     H6S 5325   3.901   3.910   5.010
    3OL     C17 5326   3.936   4.049   4.846
    3OL     H7R 5327   4.012   3.976   4.815
    3OL     H7S 5328   3.993   4.130   4.890
    3OL     C18 5329   3.852   4.101   4.728
    3OL     H8R 5330   3.767   4.162   4.758
    3OL     H8S 5331   3.799   4.014   4.690
    3OL     C19 5332   3.953   4.162   4.633
    3OL     H9R 5333   4.022   4.089   4.592
    3OL    C110 5334   3.965   4.290   4.604
    3OL    H10R 5335   4.047   4.323   4.540
    3OL    C111 5336   3.870   4.401   4.644
    3OL    H11R 5337   3.778   4.364   4.689
    3OL    H11S 5338   3.855   4.462   4.555
    3OL    C112 5339   3.929   4.504   4.741
    3OL    H12R 5340   3.959   4.460   4.836
    3OL    H12S 5341   3.844   4.568   4.761
    3OL    C113 5342   4.049   4.586   4.690
    3OL    H13R 5343   4.120   4.519   4.641
    3OL    H13S 5344   4.102   4.635   4.772
    3OL    C114 5345   4.011   4.694   4.588
    3OL    H14R 5346   3.932   4.740   4.648
    3OL    H14S 5347   3.968   4.658   4.494
    3OL    C115 5348   4.139   4.777   4.569
    3OL    H15R 5349   4.218   4.714   4.527
    3OL    H15S 5350   4.181   4.817   4.661
    3OL    C116 5351   4.100   4.891   4.474
    3OL    H16R 5352   4.011   4.941   4.511
    3OL    H16S 5353   4.072   4.852   4.376
    3OL    C117 5354   4.215   4.991   4.459
    3OL    H17R 5355   4.303   4.941   4.418
    3OL    H17S 5356   4.229   5.040   4.555
    3OL    C118 5357   4.172   5.092   4.351
    3OL    H18R 5358   4.082   5.148   4.378
    3OL    H18S 5359   4.139   5.046   4.257
    3OL    H18T 5360   4.249   5.166   4.332
    1PA    C116 5361   2.817   0.918   3.888
    1PA    H16R 5362   2.847   0.848   3.809
    1PA    H16S 5363   2.779   1.007   3.838
    1PA    H16T 5364   2.733   0.872   3.939
    1PA    C115 5365   2.941   0.960   3.969
    1PA    H15R 5366   2.992   1.034   3.908
    1PA    H15S 5367   2.922   1.016   4.060
    1PA    C114 5368   3.044   0.849   3.993
    1PA    H14R 5369   3.083   0.814   3.897
    1PA    H14S 5370   3.132   0.888   4.045
    1PA    C113 5371   2.977   0.733   4.067
    1PA    H13R 5372   2.922   0.782   4.147
    1PA    H13S 5373   2.902   0.680   4.007
    1PA    C112 5374   3.088   0.646   4.127
    1PA    H12R 5375   3.132   0.584   4.048
    1PA    H12S 5376   3.168   0.713   4.160
    1PA    C111 5377   3.042   0.547   4.235
    1PA    H11R 5378   3.019   0.605   4.325
    1PA    H11S 5379   2.961   0.484   4.196
    1PA    C110 5380   3.151   0.448   4.278
    1PA    H10R 5381   3.204   0.411   4.190
    1PA    H10S 5382   3.223   0.503   4.340
    1PA     C19 5383   3.099   0.333   4.365
    1PA     H9R 5384   3.010   0.291   4.318
    1PA     H9S 5385   3.175   0.257   4.386
    1PA     C18 5386   3.050   0.387   4.501
    1PA     H8R 5387   3.131   0.433   4.558
    1PA     H8S 5388   2.973   0.463   4.487
    1PA     C17 5389   2.994   0.283   4.599
    1PA     H7R 5390   2.909   0.229   4.556
    1PA     H7S 5391   3.066   0.206   4.626
    1PA     C16 5392   2.965   0.358   4.730
    1PA     H6R 5393   3.050   0.422   4.754
    1PA     H6S 5394   2.878   0.424   4.720
    1PA     C15 5395   2.935   0.268   4.850
    1PA     H5R 5396   2.844   0.210   4.834
    1PA     H5S 5397   3.019   0.200   4.867
    1PA     C14 5398   2.910   0.350   4.978
    1PA     H4R 5399   2.987   0.423   5.001
    1PA     H4S 5400   2.823   0.406   4.943
    1PA     C13 5401   2.903   0.264   5.104
    1PA     H3R 5402   2.855   0.326   5.181
    1PA     H3S 5403   2.836   0.177   5.102
    1PA     C12 5404   3.041   0.215   5.151
    1PA     H2R 5405   3.072   0.131   5.088
    1PA     H2S 5406   3.114   0.293   5.126
    2PC     C11 5407   3.055   0.196   5.299
    2PC     O12 5408   3.165   0.167   5.343
    2PC     O11 5409   2.942   0.210   5.371
    2PC      C1 5410   2.953   0.185   5.512
    2PC      HR 5411   2.964   0.079   5.533
    2PC      HS 5412   3.035   0.248   5.547
    2PC      C2 5413   2.828   0.246   5.578
    2PC      HX 5414   2.839   0.354   5.593
    2PC      C3 5415   2.806   0.196   5.721
    2PC      HA 5416   2.778   0.091   5.725
    2PC      HB 5417   2.896   0.209   5.782
    2PC     O31 5418   2.713   0.288   5.781
    2PC     P31 5419   2.659   0.262   5.929
    2PC     O32 5420   2.620   0.107   5.915
    2PC     C31 5421   2.553   0.049   6.027
    2PC     H1A 5422   2.571   0.103   6.120
    2PC     H1B 5423   2.447   0.040   6.002
    2PC     C32 5424   2.603  -0.095   6.043
    2PC     H2A 5425   2.562  -0.124   6.140
    2PC     H2B 5426   2.559  -0.167   5.973
    2PC     N31 5427   2.749  -0.131   6.054
    2PC     C33 5428   2.749  -0.263   6.124
    2PC     H3A 5429   2.844  -0.299   6.164
    2PC     H3B 5430   2.684  -0.243   6.209
    2PC     H3C 5431   2.714  -0.347   6.063
    2PC     C34 5432   2.803  -0.134   5.915
    2PC     H4A 5433   2.776  -0.040   5.867
    2PC     H4B 5434   2.911  -0.146   5.927
    2PC     H4C 5435   2.756  -0.215   5.859
    2PC     C35 5436   2.811  -0.026   6.141
    2PC     H5A 5437   2.916  -0.049   6.161
    2PC     H5B 5438   2.758  -0.022   6.236
    2PC     H5C 5439   2.816   0.075   6.100
    2PC     O33 5440   2.769   0.293   6.023
    2PC     O34 5441   2.545   0.350   5.964
    2PC     O21 5442   2.708   0.223   5.502
    2PC     C21 5443   2.670   0.098   5.469
    2PC     O22 5444   2.725  -0.004   5.503
    3OL     C12 5445   2.547   0.098   5.381
    3OL     H2R 5446   2.492   0.191   5.398
    3OL     H2S 5447   2.491   0.009   5.411
    3OL     C13 5448   2.581   0.102   5.231
    3OL     H3R 5449   2.621   0.002   5.212
    3OL     H3S 5450   2.651   0.184   5.217
    3OL     C14 5451   2.452   0.120   5.150
    3OL     H4R 5452   2.415   0.220   5.173
    3OL     H4S 5453   2.377   0.051   5.190
    3OL     C15 5454   2.475   0.105   4.999
    3OL     H5R 5455   2.574   0.138   4.966
    3OL     H5S 5456   2.398   0.155   4.939
    3OL     C16 5457   2.477  -0.044   4.961
    3OL     H6R 5458   2.399  -0.099   5.014
    3OL     H6S 5459   2.575  -0.077   4.996
    3OL     C17 5460   2.453  -0.065   4.811
    3OL     H7R 5461   2.359  -0.014   4.791
    3OL     H7S 5462   2.414  -0.166   4.799
    3OL     C18 5463   2.575  -0.028   4.726
    3OL     H8R 5464   2.664  -0.017   4.788
    3OL     H8S 5465   2.550   0.073   4.692
    3OL     C19 5466   2.586  -0.138   4.623
    3OL     H9R 5467   2.607  -0.234   4.669
    3OL    C110 5468   2.550  -0.127   4.496
    3OL    H10R 5469   2.565  -0.213   4.432
    3OL    C111 5470   2.530  -0.002   4.415
    3OL    H11R 5471   2.543   0.088   4.476
    3OL    H11S 5472   2.430   0.015   4.375
    3OL    C112 5473   2.632   0.010   4.300
    3OL    H12R 5474   2.605   0.101   4.247
    3OL    H12S 5475   2.632  -0.078   4.235
    3OL    C113 5476   2.775   0.030   4.351
    3OL    H13R 5477   2.794  -0.034   4.437
    3OL    H13S 5478   2.785   0.136   4.375
    3OL    C114 5479   2.879   0.004   4.241
    3OL    H14R 5480   2.880   0.086   4.169
    3OL    H14S 5481   2.851  -0.090   4.193
    3OL    C115 5482   3.021  -0.007   4.299
    3OL    H15R 5483   3.033  -0.102   4.351
    3OL    H15S 5484   3.042   0.070   4.374
    3OL    C116 5485   3.123   0.005   4.185
    3OL    H16R 5486   3.144   0.110   4.163
    3OL    H16S 5487   3.085  -0.033   4.090
    3OL    C117 5488   3.265  -0.047   4.213
    3OL    H17R 5489   3.319  -0.060   4.119
    3OL    H17S 5490   3.253  -0.144   4.261
    3OL    C118 5491   3.344   0.048   4.304
    3OL    H18R 5492   3.310   0.048   4.408
    3OL    H18S 5493   3.357   0.147   4.261
    3OL    H18T 5494   3.444   0.003   4.301
    1PA    C116 5495   1.849   0.732   3.810
    1PA    H16R 5496   1.865   0.783   3.715
    1PA    H16S 5497   1.949   0.725   3.854
    1PA    H16T 5498   1.779   0.799   3.859
    1PA    C115 5499   1.805   0.585   3.801
    1PA    H15R 5500   1.710   0.576   3.747
    1PA    H15S 5501   1.879   0.535   3.737
    1PA    C114 5502   1.787   0.519   3.938
    1PA    H14R 5503   1.800   0.410   3.935
    1PA    H14S 5504   1.860   0.554   4.011
    1PA    C113 5505   1.646   0.540   3.995
    1PA    H13R 5506   1.624   0.647   3.993
    1PA    H13S 5507   1.576   0.491   3.928
    1PA    C112 5508   1.636   0.490   4.140
    1PA    H12R 5509   1.609   0.385   4.147
    1PA    H12S 5510   1.731   0.514   4.189
    1PA    C111 5511   1.540   0.572   4.228
    1PA    H11R 5512   1.580   0.673   4.237
    1PA    H11S 5513   1.450   0.578   4.168
    1PA    C110 5514   1.521   0.505   4.365
    1PA    H10R 5515   1.620   0.474   4.396
    1PA    H10S 5516   1.493   0.585   4.433
    1PA     C19 5517   1.424   0.386   4.363
    1PA     H9R 5518   1.324   0.405   4.405
    1PA     H9S 5519   1.405   0.357   4.260
    1PA     C18 5520   1.488   0.265   4.432
    1PA     H8R 5521   1.439   0.172   4.402
    1PA     H8S 5522   1.588   0.259   4.387
    1PA     C17 5523   1.494   0.272   4.585
    1PA     H7R 5524   1.577   0.212   4.622
    1PA     H7S 5525   1.521   0.373   4.615
    1PA     C16 5526   1.367   0.220   4.654
    1PA     H6R 5527   1.289   0.287   4.619
    1PA     H6S 5528   1.358   0.119   4.613
    1PA     C15 5529   1.377   0.225   4.807
    1PA     H5R 5530   1.467   0.172   4.840
    1PA     H5S 5531   1.397   0.326   4.844
    1PA     C14 5532   1.248   0.178   4.877
    1PA     H4R 5533   1.164   0.244   4.852
    1PA     H4S 5534   1.225   0.077   4.844
    1PA     C13 5535   1.266   0.163   5.028
    1PA     H3R 5536   1.180   0.110   5.069
    1PA     H3S 5537   1.347   0.090   5.034
    1PA     C12 5538   1.295   0.295   5.100
    1PA     H2R 5539   1.382   0.351   5.064
    1PA     H2S 5540   1.211   0.364   5.087
    2PC     C11 5541   1.308   0.262   5.247
    2PC     O12 5542   1.214   0.219   5.311
    2PC     O11 5543   1.424   0.302   5.302
    2PC      C1 5544   1.454   0.274   5.440
    2PC      HR 5545   1.544   0.334   5.459
    2PC      HS 5546   1.374   0.315   5.501
    2PC      C2 5547   1.480   0.123   5.446
    2PC      HX 5548   1.408   0.075   5.380
    2PC      C3 5549   1.474   0.065   5.588
    2PC      HA 5550   1.378   0.102   5.625
    2PC      HB 5551   1.483  -0.044   5.591
    2PC     O31 5552   1.567   0.126   5.679
    2PC     P31 5553   1.684   0.036   5.742
    2PC     O32 5554   1.635   0.031   5.894
    2PC     C31 5555   1.514  -0.041   5.922
    2PC     H1A 5556   1.442  -0.009   5.847
    2PC     H1B 5557   1.536  -0.147   5.906
    2PC     C32 5558   1.471  -0.011   6.066
    2PC     H2A 5559   1.391  -0.082   6.088
    2PC     H2B 5560   1.556  -0.020   6.134
    2PC     N31 5561   1.429   0.130   6.093
    2PC     C33 5562   1.537   0.232   6.116
    2PC     H3A 5563   1.596   0.199   6.202
    2PC     H3B 5564   1.597   0.229   6.025
    2PC     H3C 5565   1.486   0.326   6.138
    2PC     C34 5566   1.351   0.182   5.976
    2PC     H4A 5567   1.413   0.187   5.887
    2PC     H4B 5568   1.266   0.116   5.959
    2PC     H4C 5569   1.321   0.283   6.005
    2PC     C35 5570   1.342   0.118   6.215
    2PC     H5A 5571   1.293   0.209   6.248
    2PC     H5B 5572   1.401   0.070   6.293
    2PC     H5C 5573   1.262   0.050   6.184
    2PC     O33 5574   1.688  -0.104   5.695
    2PC     O34 5575   1.820   0.097   5.740
    2PC     O21 5576   1.610   0.089   5.395
    2PC     C21 5577   1.619   0.054   5.265
    2PC     O22 5578   1.529   0.025   5.189
    3OL     C12 5579   1.763   0.062   5.220
    3OL     H2R 5580   1.786  -0.021   5.154
    3OL     H2S 5581   1.825   0.047   5.309
    3OL     C13 5582   1.809   0.183   5.137
    3OL     H3R 5583   1.917   0.176   5.130
    3OL     H3S 5584   1.791   0.278   5.189
    3OL     C14 5585   1.745   0.205   4.999
    3OL     H4R 5586   1.653   0.260   5.019
    3OL     H4S 5587   1.739   0.116   4.936
    3OL     C15 5588   1.843   0.301   4.931
    3OL     H5R 5589   1.895   0.366   5.002
    3OL     H5S 5590   1.776   0.352   4.861
    3OL     C16 5591   1.947   0.228   4.845
    3OL     H6R 5592   1.913   0.150   4.776
    3OL     H6S 5593   2.015   0.174   4.911
    3OL     C17 5594   2.047   0.310   4.763
    3OL     H7R 5595   2.094   0.382   4.830
    3OL     H7S 5596   1.998   0.354   4.676
    3OL     C18 5597   2.153   0.215   4.705
    3OL     H8R 5598   2.214   0.172   4.784
    3OL     H8S 5599   2.223   0.271   4.642
    3OL     C19 5600   2.094   0.106   4.618
    3OL     H9R 5601   2.038   0.021   4.654
    3OL    C110 5602   2.111   0.101   4.487
    3OL    H10R 5603   2.073   0.009   4.441
    3OL    C111 5604   2.173   0.203   4.396
    3OL    H11R 5605   2.277   0.226   4.423
    3OL    H11S 5606   2.114   0.295   4.395
    3OL    C112 5607   2.169   0.151   4.251
    3OL    H12R 5608   2.064   0.134   4.225
    3OL    H12S 5609   2.218   0.053   4.246
    3OL    C113 5610   2.244   0.237   4.148
    3OL    H13R 5611   2.306   0.165   4.094
    3OL    H13S 5612   2.313   0.305   4.198
    3OL    C114 5613   2.143   0.318   4.066
    3OL    H14R 5614   2.097   0.391   4.134
    3OL    H14S 5615   2.065   0.248   4.037
    3OL    C115 5616   2.229   0.370   3.950
    3OL    H15R 5617   2.292   0.292   3.907
    3OL    H15S 5618   2.296   0.442   3.999
    3OL    C116 5619   2.152   0.443   3.840
    3OL    H16R 5620   2.097   0.526   3.885
    3OL    H16S 5621   2.081   0.387   3.778
    3OL    C117 5622   2.260   0.517   3.760
    3OL    H17R 5623   2.341   0.447   3.737
    3OL    H17S 5624   2.298   0.590   3.831
    3OL    C118 5625   2.204   0.594   3.640
    3OL    H18R 5626   2.285   0.631   3.577
    3OL    H18S 5627   2.146   0.680   3.674
    3OL    H18T 5628   2.145   0.530   3.575
    1PA    C116 5629   2.355   4.880   5.290
    1PA    H16R 5630   2.384   4.984   5.309
    1PA    H16S 5631   2.443   4.818   5.303
    1PA    H16T 5632   2.275   4.863   5.363
    1PA    C115 5633   2.306   4.852   5.147
    1PA    H15R 5634   2.225   4.923   5.130
    1PA    H15S 5635   2.382   4.862   5.069
    1PA    C114 5636   2.251   4.709   5.142
    1PA    H14R 5637   2.321   4.647   5.085
    1PA    H14S 5638   2.232   4.659   5.237
    1PA    C113 5639   2.117   4.705   5.068
    1PA    H13R 5640   2.043   4.744   5.138
    1PA    H13S 5641   2.129   4.775   4.984
    1PA    C112 5642   2.089   4.562   5.021
    1PA    H12R 5643   2.165   4.518   4.956
    1PA    H12S 5644   2.093   4.493   5.106
    1PA    C111 5645   1.946   4.552   4.966
    1PA    H11R 5646   1.879   4.559   5.052
    1PA    H11S 5647   1.926   4.637   4.901
    1PA    C110 5648   1.911   4.423   4.890
    1PA    H10R 5649   1.984   4.389   4.816
    1PA    H10S 5650   1.908   4.341   4.962
    1PA     C19 5651   1.776   4.442   4.819
    1PA     H9R 5652   1.773   4.534   4.760
    1PA     H9S 5653   1.760   4.365   4.744
    1PA     C18 5654   1.652   4.440   4.910
    1PA     H8R 5655   1.637   4.338   4.944
    1PA     H8S 5656   1.684   4.494   4.999
    1PA     C17 5657   1.521   4.492   4.848
    1PA     H7R 5658   1.520   4.599   4.824
    1PA     H7S 5659   1.514   4.443   4.751
    1PA     C16 5660   1.401   4.459   4.938
    1PA     H6R 5661   1.311   4.487   4.883
    1PA     H6S 5662   1.401   4.351   4.954
    1PA     C15 5663   1.406   4.510   5.083
    1PA     H5R 5664   1.499   4.465   5.120
    1PA     H5S 5665   1.402   4.619   5.093
    1PA     C14 5666   1.282   4.467   5.162
    1PA     H4R 5667   1.187   4.507   5.126
    1PA     H4S 5668   1.265   4.359   5.154
    1PA     C13 5669   1.300   4.515   5.307
    1PA     H3R 5670   1.270   4.434   5.374
    1PA     H3S 5671   1.405   4.532   5.332
    1PA     C12 5672   1.215   4.639   5.336
    1PA     H2R 5673   1.237   4.717   5.263
    1PA     H2S 5674   1.110   4.610   5.338
    2PC     C11 5675   1.243   4.686   5.476
    2PC     O12 5676   1.252   4.613   5.573
    2PC     O11 5677   1.259   4.819   5.469
    2PC      C1 5678   1.282   4.898   5.587
    2PC      HR 5679   1.258   5.002   5.567
    2PC      HS 5680   1.215   4.864   5.667
    2PC      C2 5681   1.431   4.886   5.626
    2PC      HX 5682   1.456   4.781   5.639
    2PC      C3 5683   1.464   4.963   5.754
    2PC      HA 5684   1.472   5.069   5.731
    2PC      HB 5685   1.377   4.962   5.821
    2PC     O31 5686   1.593   4.918   5.799
    2PC     P31 5687   1.620   4.783   5.880
    2PC     O32 5688   1.779   4.779   5.864
    2PC     C31 5689   1.840   4.750   5.737
    2PC     H1A 5690   1.768   4.781   5.661
    2PC     H1B 5691   1.938   4.799   5.734
    2PC     C32 5692   1.852   4.598   5.718
    2PC     H2A 5693   1.753   4.553   5.711
    2PC     H2B 5694   1.911   4.588   5.627
    2PC     N31 5695   1.925   4.514   5.818
    2PC     C33 5696   2.045   4.587   5.870
    2PC     H3A 5697   2.089   4.628   5.779
    2PC     H3B 5698   2.005   4.648   5.951
    2PC     H3C 5699   2.120   4.514   5.901
    2PC     C34 5700   1.834   4.476   5.931
    2PC     H4A 5701   1.749   4.414   5.901
    2PC     H4B 5702   1.903   4.428   6.001
    2PC     H4C 5703   1.796   4.560   5.988
    2PC     C35 5704   1.966   4.387   5.749
    2PC     H5A 5705   1.870   4.335   5.753
    2PC     H5B 5706   2.031   4.323   5.808
    2PC     H5C 5707   2.011   4.404   5.651
    2PC     O33 5708   1.565   4.782   6.018
    2PC     O34 5709   1.565   4.663   5.813
    2PC     O21 5710   1.501   4.946   5.515
    2PC     C21 5711   1.544   4.870   5.413
    2PC     O22 5712   1.537   4.750   5.399
    3OL     C12 5713   1.609   4.956   5.307
    3OL     H2R 5714   1.712   4.962   5.342
    3OL     H2S 5715   1.571   5.057   5.320
    3OL     C13 5716   1.586   4.908   5.163
    3OL     H3R 5717   1.481   4.886   5.142
    3OL     H3S 5718   1.639   4.813   5.150
    3OL     C14 5719   1.621   5.009   5.054
    3OL     H4R 5720   1.723   5.048   5.065
    3OL     H4S 5721   1.548   5.089   5.070
    3OL     C15 5722   1.592   4.937   4.922
    3OL     H5R 5723   1.488   4.903   4.923
    3OL     H5S 5724   1.660   4.853   4.913
    3OL     C16 5725   1.624   5.027   4.801
    3OL     H6R 5726   1.727   5.059   4.809
    3OL     H6S 5727   1.559   5.114   4.812
    3OL     C17 5728   1.609   4.965   4.661
    3OL     H7R 5729   1.506   4.943   4.634
    3OL     H7S 5730   1.655   4.868   4.679
    3OL     C18 5731   1.685   5.042   4.552
    3OL     H8R 5732   1.791   5.039   4.577
    3OL     H8S 5733   1.646   5.144   4.544
    3OL     C19 5734   1.657   4.982   4.416
    3OL     H9R 5735   1.567   4.925   4.398
    3OL    C110 5736   1.736   4.976   4.310
    3OL    H10R 5737   1.715   4.922   4.218
    3OL    C111 5738   1.860   5.060   4.294
    3OL    H11R 5739   1.937   4.988   4.262
    3OL    H11S 5740   1.886   5.110   4.387
    3OL    C112 5741   1.862   5.167   4.184
    3OL    H12R 5742   1.870   5.114   4.089
    3OL    H12S 5743   1.949   5.232   4.192
    3OL    C113 5744   1.731   5.248   4.190
    3OL    H13R 5745   1.708   5.281   4.291
    3OL    H13S 5746   1.645   5.192   4.152
    3OL    C114 5747   1.757   5.364   4.093
    3OL    H14R 5748   1.798   5.318   4.002
    3OL    H14S 5749   1.838   5.418   4.141
    3OL    C115 5750   1.629   5.442   4.062
    3OL    H15R 5751   1.571   5.463   4.152
    3OL    H15S 5752   1.570   5.382   3.993
    3OL    C116 5753   1.666   5.578   4.002
    3OL    H16R 5754   1.744   5.625   4.062
    3OL    H16S 5755   1.576   5.640   4.008
    3OL    C117 5756   1.706   5.571   3.854
    3OL    H17R 5757   1.765   5.480   3.836
    3OL    H17S 5758   1.765   5.662   3.839
    3OL    C118 5759   1.582   5.560   3.764
    3OL    H18R 5760   1.626   5.562   3.664
    3OL    H18S 5761   1.516   5.644   3.781
    3OL    H18T 5762   1.523   5.471   3.789
    1PA    C116 5763   5.413   2.537   3.709
    1PA    H16R 5764   5.371   2.606   3.635
    1PA    H16S 5765   5.339   2.464   3.741
    1PA    H16T 5766   5.474   2.475   3.643
    1PA    C115 5767   5.493   2.611   3.818
    1PA    H15R 5768   5.558   2.678   3.762
    1PA    H15S 5769   5.428   2.686   3.864
    1PA    C114 5770   5.564   2.519   3.917
    1PA    H14R 5771   5.497   2.437   3.945
    1PA    H14S 5772   5.654   2.473   3.875
    1PA    C113 5773   5.582   2.614   4.037
    1PA    H13R 5774   5.627   2.705   3.998
    1PA    H13S 5775   5.480   2.637   4.070
    1PA    C112 5776   5.663   2.549   4.150
    1PA    H12R 5777   5.622   2.582   4.245
    1PA    H12S 5778   5.641   2.442   4.148
    1PA    C111 5779   5.816   2.545   4.134
    1PA    H11R 5780   5.853   2.468   4.065
    1PA    H11S 5781   5.855   2.639   4.095
    1PA    C110 5782   5.888   2.516   4.266
    1PA    H10R 5783   5.857   2.421   4.312
    1PA    H10S 5784   5.992   2.500   4.237
    1PA     C19 5785   5.882   2.641   4.356
    1PA     H9R 5786   5.927   2.720   4.296
    1PA     H9S 5787   5.777   2.655   4.384
    1PA     C18 5788   5.966   2.619   4.483
    1PA     H8R 5789   5.943   2.528   4.537
    1PA     H8S 5790   6.072   2.617   4.456
    1PA     C17 5791   5.932   2.724   4.590
    1PA     H7R 5792   6.012   2.711   4.663
    1PA     H7S 5793   5.933   2.819   4.536
    1PA     C16 5794   5.801   2.707   4.667
    1PA     H6R 5795   5.714   2.705   4.601
    1PA     H6S 5796   5.817   2.608   4.709
    1PA     C15 5797   5.784   2.808   4.781
    1PA     H5R 5798   5.860   2.803   4.859
    1PA     H5S 5799   5.796   2.908   4.738
    1PA     C14 5800   5.639   2.801   4.833
    1PA     H4R 5801   5.576   2.842   4.754
    1PA     H4S 5802   5.619   2.695   4.851
    1PA     C13 5803   5.618   2.886   4.960
    1PA     H3R 5804   5.686   2.850   5.037
    1PA     H3S 5805   5.641   2.989   4.933
    1PA     C12 5806   5.473   2.879   5.011
    1PA     H2R 5807   5.412   2.952   4.958
    1PA     H2S 5808   5.438   2.777   4.995
    2PC     C11 5809   5.470   2.906   5.160
    2PC     O12 5810   5.563   2.946   5.225
    2PC     O11 5811   5.357   2.865   5.220
    2PC      C1 5812   5.350   2.863   5.364
    2PC      HR 5813   5.253   2.817   5.383
    2PC      HS 5814   5.435   2.806   5.403
    2PC      C2 5815   5.356   3.001   5.432
    2PC      HX 5816   5.444   3.055   5.394
    2PC      C3 5817   5.373   2.995   5.584
    2PC      HA 5818   5.468   2.946   5.601
    2PC      HB 5819   5.387   3.098   5.619
    2PC     O31 5820   5.263   2.928   5.647
    2PC     P31 5821   5.271   2.905   5.806
    2PC     O32 5822   5.360   2.772   5.810
    2PC     C31 5823   5.420   2.751   5.939
    2PC     H1A 5824   5.476   2.839   5.972
    2PC     H1B 5825   5.345   2.727   6.015
    2PC     C32 5826   5.508   2.625   5.931
    2PC     H2A 5827   5.440   2.539   5.929
    2PC     H2B 5828   5.560   2.626   5.835
    2PC     N31 5829   5.611   2.602   6.037
    2PC     C33 5830   5.707   2.717   6.047
    2PC     H3A 5831   5.654   2.809   6.070
    2PC     H3B 5832   5.785   2.700   6.122
    2PC     H3C 5833   5.767   2.725   5.956
    2PC     C34 5834   5.544   2.580   6.169
    2PC     H4A 5835   5.467   2.503   6.156
    2PC     H4B 5836   5.629   2.548   6.229
    2PC     H4C 5837   5.497   2.672   6.204
    2PC     C35 5838   5.691   2.480   6.004
    2PC     H5A 5839   5.720   2.484   5.899
    2PC     H5B 5840   5.633   2.389   6.021
    2PC     H5C 5841   5.782   2.476   6.065
    2PC     O33 5842   5.315   3.021   5.887
    2PC     O34 5843   5.135   2.878   5.858
    2PC     O21 5844   5.241   3.082   5.401
    2PC     C21 5845   5.229   3.156   5.290
    2PC     O22 5846   5.317   3.187   5.213
    3OL     C12 5847   5.085   3.187   5.255
    3OL     H2R 5848   5.081   3.234   5.156
    3OL     H2S 5849   5.038   3.248   5.332
    3OL     C13 5850   5.000   3.060   5.241
    3OL     H3R 5851   4.892   3.068   5.228
    3OL     H3S 5852   5.003   3.001   5.333
    3OL     C14 5853   5.037   2.979   5.116
    3OL     H4R 5854   4.985   2.884   5.132
    3OL     H4S 5855   5.139   2.944   5.129
    3OL     C15 5856   5.010   3.041   4.978
    3OL     H5R 5857   5.066   2.975   4.911
    3OL     H5S 5858   5.058   3.139   4.982
    3OL     C16 5859   4.861   3.055   4.945
    3OL     H6R 5860   4.816   3.120   5.021
    3OL     H6S 5861   4.809   2.959   4.952
    3OL     C17 5862   4.828   3.125   4.813
    3OL     H7R 5863   4.851   3.231   4.823
    3OL     H7S 5864   4.724   3.104   4.788
    3OL     C18 5865   4.902   3.075   4.687
    3OL     H8R 5866   4.858   2.981   4.653
    3OL     H8S 5867   5.005   3.056   4.720
    3OL     C19 5868   4.921   3.174   4.576
    3OL     H9R 5869   4.849   3.173   4.495
    3OL    C110 5870   5.011   3.272   4.569
    3OL    H10R 5871   5.023   3.324   4.475
    3OL    C111 5872   5.100   3.311   4.685
    3OL    H11R 5873   5.055   3.261   4.771
    3OL    H11S 5874   5.080   3.417   4.703
    3OL    C112 5875   5.248   3.284   4.657
    3OL    H12R 5876   5.299   3.359   4.596
    3OL    H12S 5877   5.248   3.193   4.596
    3OL    C113 5878   5.319   3.274   4.793
    3OL    H13R 5879   5.426   3.270   4.768
    3OL    H13S 5880   5.302   3.185   4.853
    3OL    C114 5881   5.313   3.400   4.880
    3OL    H14R 5882   5.362   3.382   4.976
    3OL    H14S 5883   5.207   3.420   4.895
    3OL    C115 5884   5.377   3.526   4.820
    3OL    H15R 5885   5.317   3.579   4.746
    3OL    H15S 5886   5.470   3.491   4.775
    3OL    C116 5887   5.394   3.633   4.930
    3OL    H16R 5888   5.458   3.589   5.007
    3OL    H16S 5889   5.299   3.664   4.974
    3OL    C117 5890   5.469   3.752   4.867
    3OL    H17R 5891   5.432   3.779   4.768
    3OL    H17S 5892   5.575   3.727   4.860
    3OL    C118 5893   5.451   3.868   4.966
    3OL    H18R 5894   5.445   3.965   4.915
    3OL    H18S 5895   5.536   3.854   5.034
    3OL    H18T 5896   5.358   3.858   5.022
    1PA    C116 5897   2.070   6.397   3.858
    1PA    H16R 5898   2.049   6.487   3.800
    1PA    H16S 5899   2.059   6.423   3.963
    1PA    H16T 5900   2.009   6.314   3.821
    1PA    C115 5901   2.219   6.367   3.845
    1PA    H15R 5902   2.251   6.351   3.741
    1PA    H15S 5903   2.274   6.449   3.890
    1PA    C114 5904   2.258   6.235   3.913
    1PA    H14R 5905   2.181   6.163   3.885
    1PA    H14S 5906   2.350   6.196   3.867
    1PA    C113 5907   2.265   6.253   4.065
    1PA    H13R 5908   2.358   6.297   4.103
    1PA    H13S 5909   2.183   6.321   4.088
    1PA    C112 5910   2.242   6.117   4.131
    1PA    H12R 5911   2.136   6.096   4.115
    1PA    H12S 5912   2.292   6.042   4.069
    1PA    C111 5913   2.272   6.130   4.281
    1PA    H11R 5914   2.376   6.164   4.285
    1PA    H11S 5915   2.218   6.214   4.325
    1PA    C110 5916   2.247   6.004   4.365
    1PA    H10R 5917   2.144   5.976   4.342
    1PA    H10S 5918   2.304   5.918   4.331
    1PA     C19 5919   2.267   6.036   4.514
    1PA     H9R 5920   2.375   6.048   4.526
    1PA     H9S 5921   2.211   6.126   4.538
    1PA     C18 5922   2.228   5.916   4.601
    1PA     H8R 5923   2.279   5.828   4.562
    1PA     H8S 5924   2.278   5.931   4.697
    1PA     C17 5925   2.075   5.901   4.606
    1PA     H7R 5926   2.045   5.856   4.511
    1PA     H7S 5927   2.054   5.837   4.691
    1PA     C16 5928   1.989   6.025   4.634
    1PA     H6R 5929   2.000   6.089   4.546
    1PA     H6S 5930   1.884   6.000   4.648
    1PA     C15 5931   2.033   6.094   4.764
    1PA     H5R 5932   2.004   6.026   4.844
    1PA     H5S 5933   2.139   6.116   4.753
    1PA     C14 5934   1.951   6.220   4.794
    1PA     H4R 5935   1.974   6.293   4.716
    1PA     H4S 5936   1.844   6.197   4.785
    1PA     C13 5937   1.967   6.279   4.935
    1PA     H3R 5938   1.907   6.369   4.950
    1PA     H3S 5939   1.924   6.210   5.008
    1PA     C12 5940   2.116   6.301   4.965
    1PA     H2R 5941   2.169   6.210   4.933
    1PA     H2S 5942   2.153   6.383   4.903
    2PC     C11 5943   2.142   6.323   5.112
    2PC     O12 5944   2.097   6.412   5.179
    2PC     O11 5945   2.213   6.223   5.167
    2PC      C1 5946   2.235   6.232   5.309
    2PC      HR 5947   2.278   6.332   5.327
    2PC      HS 5948   2.142   6.228   5.366
    2PC      C2 5949   2.345   6.132   5.348
    2PC      HX 5950   2.315   6.038   5.301
    2PC      C3 5951   2.350   6.120   5.501
    2PC      HA 5952   2.252   6.084   5.536
    2PC      HB 5953   2.431   6.051   5.525
    2PC     O31 5954   2.376   6.247   5.562
    2PC     P31 5955   2.399   6.243   5.721
    2PC     O32 5956   2.426   6.398   5.745
    2PC     C31 5957   2.322   6.483   5.693
    2PC     H1A 5958   2.320   6.471   5.584
    2PC     H1B 5959   2.225   6.456   5.735
    2PC     C32 5960   2.350   6.629   5.730
    2PC     H2A 5961   2.442   6.632   5.787
    2PC     H2B 5962   2.377   6.688   5.642
    2PC     N31 5963   2.242   6.713   5.794
    2PC     C33 5964   2.286   6.856   5.805
    2PC     H3A 5965   2.271   6.909   5.710
    2PC     H3B 5966   2.245   6.899   5.896
    2PC     H3C 5967   2.392   6.839   5.821
    2PC     C34 5968   2.117   6.698   5.712
    2PC     H4A 5969   2.135   6.721   5.607
    2PC     H4B 5970   2.089   6.594   5.726
    2PC     H4C 5971   2.036   6.767   5.736
    2PC     C35 5972   2.224   6.668   5.936
    2PC     H5A 5973   2.202   6.562   5.934
    2PC     H5B 5974   2.145   6.731   5.977
    2PC     H5C 5975   2.312   6.684   5.999
    2PC     O33 5976   2.286   6.180   5.793
    2PC     O34 5977   2.523   6.172   5.759
    2PC     O21 5978   2.471   6.174   5.295
    2PC     C21 5979   2.575   6.089   5.295
    2PC     O22 5980   2.563   5.973   5.331
    3OL     C12 5981   2.702   6.148   5.240
    3OL     H2R 5982   2.716   6.247   5.282
    3OL     H2S 5983   2.698   6.172   5.133
    3OL     C13 5984   2.825   6.061   5.272
    3OL     H3R 5985   2.807   5.958   5.242
    3OL     H3S 5986   2.844   6.055   5.380
    3OL     C14 5987   2.956   6.103   5.204
    3OL     H4R 5988   2.931   6.115   5.098
    3OL     H4S 5989   3.028   6.026   5.233
    3OL     C15 5990   3.001   6.238   5.261
    3OL     H5R 5991   3.025   6.227   5.367
    3OL     H5S 5992   2.926   6.316   5.246
    3OL     C16 5993   3.126   6.288   5.188
    3OL     H6R 5994   3.148   6.388   5.225
    3OL     H6S 5995   3.112   6.298   5.080
    3OL     C17 5996   3.251   6.204   5.214
    3OL     H7R 5997   3.229   6.098   5.198
    3OL     H7S 5998   3.281   6.207   5.319
    3OL     C18 5999   3.364   6.236   5.115
    3OL     H8R 6000   3.415   6.326   5.149
    3OL     H8S 6001   3.317   6.251   5.018
    3OL     C19 6002   3.480   6.140   5.122
    3OL     H9R 6003   3.528   6.137   5.219
    3OL    C110 6004   3.522   6.063   5.023
    3OL    H10R 6005   3.606   5.995   5.024
    3OL    C111 6006   3.441   6.043   4.897
    3OL    H11R 6007   3.418   6.143   4.859
    3OL    H11S 6008   3.345   6.000   4.928
    3OL    C112 6009   3.502   5.949   4.793
    3OL    H12R 6010   3.511   5.850   4.838
    3OL    H12S 6011   3.604   5.978   4.766
    3OL    C113 6012   3.410   5.941   4.671
    3OL    H13R 6013   3.391   6.043   4.639
    3OL    H13S 6014   3.312   5.903   4.700
    3OL    C114 6015   3.461   5.844   4.563
    3OL    H14R 6016   3.377   5.810   4.502
    3OL    H14S 6017   3.501   5.755   4.612
    3OL    C115 6018   3.570   5.910   4.476
    3OL    H15R 6019   3.654   5.932   4.543
    3OL    H15S 6020   3.533   6.000   4.428
    3OL    C116 6021   3.614   5.816   4.363
    3OL    H16R 6022   3.542   5.820   4.282
    3OL    H16S 6023   3.631   5.715   4.402
    3OL    C117 6024   3.743   5.870   4.301
    3OL    H17R 6025   3.739   5.979   4.298
    3OL    H17S 6026   3.746   5.839   4.196
    3OL    C118 6027   3.870   5.810   4.363
    3OL    H18R 6028   3.954   5.832   4.296
    3OL    H18S 6029   3.854   5.704   4.381
    3OL    H18T 6030   3.891   5.849   4.463
    1PA    C116 6031   0.710   0.667   3.361
    1PA    H16R 6032   0.709   0.622   3.262
    1PA    H16S 6033   0.723   0.776   3.358
    1PA    H16T 6034   0.610   0.643   3.398
    1PA    C115 6035   0.824   0.605   3.442
    1PA    H15R 6036   0.833   0.499   3.417
    1PA    H15S 6037   0.913   0.657   3.405
    1PA    C114 6038   0.815   0.628   3.593
    1PA    H14R 6039   0.920   0.647   3.619
    1PA    H14S 6040   0.768   0.724   3.618
    1PA    C113 6041   0.751   0.516   3.677
    1PA    H13R 6042   0.661   0.484   3.624
    1PA    H13S 6043   0.814   0.427   3.677
    1PA    C112 6044   0.716   0.571   3.816
    1PA    H12R 6045   0.687   0.675   3.803
    1PA    H12S 6046   0.624   0.525   3.854
    1PA    C111 6047   0.828   0.550   3.918
    1PA    H11R 6048   0.848   0.442   3.923
    1PA    H11S 6049   0.915   0.606   3.881
    1PA    C110 6050   0.798   0.600   4.060
    1PA    H10R 6051   0.753   0.699   4.057
    1PA    H10S 6052   0.729   0.530   4.108
    1PA     C19 6053   0.924   0.617   4.147
    1PA     H9R 6054   0.971   0.519   4.131
    1PA     H9S 6055   0.997   0.688   4.107
    1PA     C18 6056   0.894   0.643   4.295
    1PA     H8R 6057   0.910   0.747   4.323
    1PA     H8S 6058   0.790   0.625   4.326
    1PA     C17 6059   0.996   0.563   4.377
    1PA     H7R 6060   0.978   0.455   4.370
    1PA     H7S 6061   1.094   0.585   4.335
    1PA     C16 6062   0.983   0.601   4.526
    1PA     H6R 6063   0.992   0.706   4.554
    1PA     H6S 6064   0.890   0.569   4.573
    1PA     C15 6065   1.103   0.546   4.604
    1PA     H5R 6066   1.103   0.437   4.611
    1PA     H5S 6067   1.188   0.576   4.542
    1PA     C14 6068   1.149   0.621   4.730
    1PA     H4R 6069   1.251   0.599   4.761
    1PA     H4S 6070   1.146   0.729   4.712
    1PA     C13 6071   1.065   0.595   4.856
    1PA     H3R 6072   0.958   0.612   4.837
    1PA     H3S 6073   1.068   0.492   4.893
    1PA     C12 6074   1.103   0.667   4.986
    1PA     H2R 6075   1.198   0.624   5.019
    1PA     H2S 6076   1.123   0.774   4.970
    2PC     C11 6077   1.017   0.647   5.108
    2PC     O12 6078   0.904   0.689   5.120
    2PC     O11 6079   1.081   0.590   5.211
    2PC      C1 6080   1.017   0.571   5.338
    2PC      HR 6081   0.947   0.650   5.364
    2PC      HS 6082   0.959   0.479   5.347
    2PC      C2 6083   1.126   0.568   5.446
    2PC      HX 6084   1.203   0.498   5.412
    2PC      C3 6085   1.086   0.544   5.593
    2PC      HA 6086   1.048   0.444   5.615
    2PC      HB 6087   1.179   0.558   5.649
    2PC     O31 6088   0.980   0.634   5.628
    2PC     P31 6089   0.892   0.617   5.760
    2PC     O32 6090   0.759   0.703   5.729
    2PC     C31 6091   0.662   0.695   5.834
    2PC     H1A 6092   0.623   0.593   5.844
    2PC     H1B 6093   0.718   0.726   5.923
    2PC     C32 6094   0.548   0.795   5.810
    2PC     H2A 6095   0.478   0.784   5.893
    2PC     H2B 6096   0.580   0.899   5.805
    2PC     N31 6097   0.467   0.772   5.685
    2PC     C33 6098   0.343   0.856   5.697
    2PC     H3A 6099   0.274   0.848   5.613
    2PC     H3B 6100   0.278   0.818   5.776
    2PC     H3C 6101   0.378   0.956   5.723
    2PC     C34 6102   0.540   0.822   5.564
    2PC     H4A 6103   0.644   0.789   5.556
    2PC     H4B 6104   0.483   0.780   5.481
    2PC     H4C 6105   0.532   0.932   5.566
    2PC     C35 6106   0.418   0.632   5.669
    2PC     H5A 6107   0.373   0.620   5.570
    2PC     H5B 6108   0.340   0.607   5.742
    2PC     H5C 6109   0.496   0.556   5.671
    2PC     O33 6110   0.866   0.475   5.795
    2PC     O34 6111   0.963   0.686   5.870
    2PC     O21 6112   1.189   0.697   5.439
    2PC     C21 6113   1.319   0.709   5.474
    2PC     O22 6114   1.389   0.611   5.493
    3OL     C12 6115   1.378   0.847   5.470
    3OL     H2R 6116   1.432   0.861   5.564
    3OL     H2S 6117   1.287   0.907   5.470
    3OL     C13 6118   1.460   0.869   5.342
    3OL     H3R 6119   1.541   0.797   5.355
    3OL     H3S 6120   1.511   0.966   5.339
    3OL     C14 6121   1.381   0.845   5.212
    3OL     H4R 6122   1.304   0.920   5.195
    3OL     H4S 6123   1.322   0.754   5.208
    3OL     C15 6124   1.474   0.853   5.090
    3OL     H5R 6125   1.516   0.954   5.089
    3OL     H5S 6126   1.415   0.837   4.999
    3OL     C16 6127   1.585   0.747   5.094
    3OL     H6R 6128   1.633   0.731   5.191
    3OL     H6S 6129   1.669   0.780   5.033
    3OL     C17 6130   1.556   0.609   5.033
    3OL     H7R 6131   1.486   0.558   5.098
    3OL     H7S 6132   1.651   0.555   5.027
    3OL     C18 6133   1.486   0.615   4.896
    3OL     H8R 6134   1.402   0.685   4.897
    3OL     H8S 6135   1.449   0.513   4.889
    3OL     C19 6136   1.584   0.649   4.786
    3OL     H9R 6137   1.673   0.588   4.780
    3OL    C110 6138   1.571   0.745   4.695
    3OL    H10R 6139   1.651   0.756   4.623
    3OL    C111 6140   1.473   0.859   4.691
    3OL    H11R 6141   1.436   0.889   4.789
    3OL    H11S 6142   1.385   0.832   4.632
    3OL    C112 6143   1.540   0.982   4.627
    3OL    H12R 6144   1.460   1.052   4.602
    3OL    H12S 6145   1.585   0.948   4.533
    3OL    C113 6146   1.642   1.047   4.722
    3OL    H13R 6147   1.706   0.973   4.770
    3OL    H13S 6148   1.584   1.083   4.807
    3OL    C114 6149   1.714   1.161   4.649
    3OL    H14R 6150   1.758   1.123   4.556
    3OL    H14S 6151   1.793   1.201   4.713
    3OL    C115 6152   1.631   1.284   4.612
    3OL    H15R 6153   1.613   1.345   4.701
    3OL    H15S 6154   1.531   1.260   4.574
    3OL    C116 6155   1.703   1.370   4.508
    3OL    H16R 6156   1.724   1.328   4.410
    3OL    H16S 6157   1.805   1.385   4.543
    3OL    C117 6158   1.633   1.506   4.489
    3OL    H17R 6159   1.710   1.576   4.457
    3OL    H17S 6160   1.608   1.547   4.587
    3OL    C118 6161   1.506   1.499   4.405
    3OL    H18R 6162   1.533   1.483   4.300
    3OL    H18S 6163   1.458   1.596   4.417
    3OL    H18T 6164   1.432   1.425   4.437
    1PA    C116 6165   3.899   4.832   3.437
    1PA    H16R 6166   3.831   4.912   3.467
    1PA    H16S 6167   3.868   4.788   3.342
    1PA    H16T 6168   3.998   4.874   3.418
    1PA    C115 6169   3.909   4.736   3.556
    1PA    H15R 6170   3.814   4.732   3.609
    1PA    H15S 6171   3.941   4.638   3.521
    1PA    C114 6172   4.017   4.770   3.660
    1PA    H14R 6173   4.117   4.756   3.618
    1PA    H14S 6174   4.002   4.874   3.689
    1PA    C113 6175   4.004   4.678   3.782
    1PA    H13R 6176   4.073   4.720   3.855
    1PA    H13S 6177   3.905   4.689   3.828
    1PA    C112 6178   4.040   4.530   3.765
    1PA    H12R 6179   3.973   4.461   3.713
    1PA    H12S 6180   4.141   4.533   3.723
    1PA    C111 6181   4.050   4.454   3.898
    1PA    H11R 6182   3.961   4.476   3.958
    1PA    H11S 6183   4.058   4.346   3.885
    1PA    C110 6184   4.167   4.504   3.983
    1PA    H10R 6185   4.255   4.469   3.929
    1PA    H10S 6186   4.172   4.611   4.004
    1PA     C19 6187   4.168   4.435   4.121
    1PA     H9R 6188   4.068   4.431   4.164
    1PA     H9S 6189   4.198   4.330   4.116
    1PA     C18 6190   4.264   4.499   4.223
    1PA     H8R 6191   4.365   4.511   4.182
    1PA     H8S 6192   4.231   4.602   4.240
    1PA     C17 6193   4.257   4.435   4.362
    1PA     H7R 6194   4.295   4.515   4.425
    1PA     H7S 6195   4.161   4.402   4.402
    1PA     C16 6196   4.365   4.328   4.383
    1PA     H6R 6197   4.353   4.252   4.305
    1PA     H6S 6198   4.460   4.377   4.365
    1PA     C15 6199   4.360   4.275   4.528
    1PA     H5R 6200   4.256   4.266   4.559
    1PA     H5S 6201   4.406   4.177   4.541
    1PA     C14 6202   4.417   4.383   4.621
    1PA     H4R 6203   4.515   4.414   4.583
    1PA     H4S 6204   4.364   4.479   4.617
    1PA     C13 6205   4.434   4.324   4.761
    1PA     H3R 6206   4.449   4.217   4.746
    1PA     H3S 6207   4.528   4.361   4.804
    1PA     C12 6208   4.310   4.347   4.848
    1PA     H2R 6209   4.286   4.453   4.861
    1PA     H2S 6210   4.229   4.304   4.789
    2PC     C11 6211   4.315   4.281   4.983
    2PC     O12 6212   4.371   4.177   5.011
    2PC     O11 6213   4.246   4.352   5.073
    2PC      C1 6214   4.243   4.312   5.211
    2PC      HR 6215   4.166   4.372   5.262
    2PC      HS 6216   4.220   4.206   5.223
    2PC      C2 6217   4.382   4.341   5.270
    2PC      HX 6218   4.448   4.256   5.256
    2PC      C3 6219   4.379   4.364   5.422
    2PC      HA 6220   4.325   4.453   5.454
    2PC      HB 6221   4.337   4.273   5.467
    2PC     O31 6222   4.508   4.387   5.482
    2PC     P31 6223   4.505   4.418   5.639
    2PC     O32 6224   4.566   4.566   5.647
    2PC     C31 6225   4.479   4.681   5.646
    2PC     H1A 6226   4.436   4.686   5.546
    2PC     H1B 6227   4.399   4.674   5.720
    2PC     C32 6228   4.570   4.802   5.672
    2PC     H2A 6229   4.617   4.790   5.770
    2PC     H2B 6230   4.641   4.805   5.590
    2PC     N31 6231   4.518   4.943   5.671
    2PC     C33 6232   4.476   4.970   5.530
    2PC     H3A 6233   4.420   5.064   5.521
    2PC     H3B 6234   4.571   4.975   5.478
    2PC     H3C 6235   4.403   4.895   5.499
    2PC     C34 6236   4.402   4.947   5.766
    2PC     H4A 6237   4.315   4.885   5.743
    2PC     H4B 6238   4.447   4.919   5.861
    2PC     H4C 6239   4.358   5.045   5.782
    2PC     C35 6240   4.618   5.042   5.723
    2PC     H5A 6241   4.565   5.136   5.744
    2PC     H5B 6242   4.687   5.060   5.640
    2PC     H5C 6243   4.660   5.008   5.818
    2PC     O33 6244   4.367   4.407   5.691
    2PC     O34 6245   4.588   4.315   5.706
    2PC     O21 6246   4.446   4.451   5.203
    2PC     C21 6247   4.396   4.576   5.205
    2PC     O22 6248   4.297   4.617   5.262
    3OL     C12 6249   4.469   4.650   5.096
    3OL     H2R 6250   4.522   4.575   5.037
    3OL     H2S 6251   4.534   4.723   5.144
    3OL     C13 6252   4.373   4.734   5.011
    3OL     H3R 6253   4.314   4.810   5.063
    3OL     H3S 6254   4.305   4.663   4.963
    3OL     C14 6255   4.448   4.807   4.899
    3OL     H4R 6256   4.532   4.862   4.941
    3OL     H4S 6257   4.375   4.875   4.855
    3OL     C15 6258   4.484   4.711   4.785
    3OL     H5R 6259   4.401   4.652   4.746
    3OL     H5S 6260   4.555   4.640   4.829
    3OL     C16 6261   4.551   4.786   4.669
    3OL     H6R 6262   4.648   4.822   4.705
    3OL     H6S 6263   4.483   4.863   4.632
    3OL     C17 6264   4.566   4.692   4.549
    3OL     H7R 6265   4.473   4.648   4.513
    3OL     H7S 6266   4.638   4.611   4.567
    3OL     C18 6267   4.619   4.762   4.423
    3OL     H8R 6268   4.702   4.827   4.450
    3OL     H8S 6269   4.545   4.826   4.375
    3OL     C19 6270   4.664   4.669   4.313
    3OL     H9R 6271   4.607   4.577   4.301
    3OL    C110 6272   4.765   4.698   4.232
    3OL    H10R 6273   4.787   4.634   4.147
    3OL    C111 6274   4.854   4.820   4.237
    3OL    H11R 6275   4.959   4.792   4.233
    3OL    H11S 6276   4.843   4.867   4.335
    3OL    C112 6277   4.832   4.916   4.120
    3OL    H12R 6278   4.884   5.010   4.142
    3OL    H12S 6279   4.727   4.940   4.105
    3OL    C113 6280   4.882   4.862   3.985
    3OL    H13R 6281   4.832   4.768   3.960
    3OL    H13S 6282   4.985   4.826   3.988
    3OL    C114 6283   4.858   4.957   3.867
    3OL    H14R 6284   4.901   5.057   3.873
    3OL    H14S 6285   4.754   4.977   3.839
    3OL    C115 6286   4.915   4.885   3.745
    3OL    H15R 6287   4.882   4.783   3.727
    3OL    H15S 6288   5.024   4.878   3.748
    3OL    C116 6289   4.871   4.957   3.616
    3OL    H16R 6290   4.870   5.066   3.620
    3OL    H16S 6291   4.764   4.939   3.618
    3OL    C117 6292   4.940   4.903   3.490
    3OL    H17R 6293   4.867   4.928   3.412
    3OL    H17S 6294   4.950   4.794   3.490
    3OL    C118 6295   5.072   4.978   3.467
    3OL    H18R 6296   5.071   5.085   3.488
    3OL    H18S 6297   5.087   4.975   3.359
    3OL    H18T 6298   5.153   4.927   3.520
    1PA    C116 6299   5.293   4.576   3.740
    1PA    H16R 6300   5.249   4.501   3.674
    1PA    H16S 6301   5.314   4.657   3.670
    1PA    H16T 6302   5.219   4.599   3.817
    1PA    C115 6303   5.426   4.521   3.793
    1PA    H15R 6304   5.401   4.423   3.834
    1PA    H15S 6305   5.494   4.492   3.712
    1PA    C114 6306   5.490   4.620   3.891
    1PA    H14R 6307   5.507   4.721   3.852
    1PA    H14S 6308   5.426   4.621   3.979
    1PA    C113 6309   5.624   4.566   3.942
    1PA    H13R 6310   5.610   4.480   4.008
    1PA    H13S 6311   5.687   4.532   3.859
    1PA    C112 6312   5.713   4.672   4.008
    1PA    H12R 6313   5.740   4.746   3.932
    1PA    H12S 6314   5.656   4.719   4.088
    1PA    C111 6315   5.845   4.615   4.061
    1PA    H11R 6316   5.915   4.585   3.983
    1PA    H11S 6317   5.899   4.697   4.108
    1PA    C110 6318   5.838   4.502   4.166
    1PA    H10R 6319   5.779   4.530   4.253
    1PA    H10S 6320   5.775   4.427   4.118
    1PA     C19 6321   5.979   4.456   4.206
    1PA     H9R 6322   6.026   4.416   4.116
    1PA     H9S 6323   6.040   4.538   4.244
    1PA     C18 6324   5.974   4.337   4.302
    1PA     H8R 6325   5.928   4.375   4.393
    1PA     H8S 6326   5.904   4.262   4.263
    1PA     C17 6327   6.117   4.290   4.333
    1PA     H7R 6328   6.171   4.254   4.244
    1PA     H7S 6329   6.182   4.368   4.372
    1PA     C16 6330   6.104   4.168   4.425
    1PA     H6R 6331   6.030   4.092   4.400
    1PA     H6S 6332   6.193   4.105   4.420
    1PA     C15 6333   6.091   4.203   4.574
    1PA     H5R 6334   6.179   4.261   4.604
    1PA     H5S 6335   6.007   4.272   4.584
    1PA     C14 6336   6.067   4.079   4.661
    1PA     H4R 6337   5.973   4.025   4.653
    1PA     H4S 6338   6.149   4.010   4.641
    1PA     C13 6339   6.089   4.118   4.808
    1PA     H3R 6340   6.117   4.028   4.864
    1PA     H3S 6341   6.180   4.176   4.825
    1PA     C12 6342   5.966   4.182   4.873
    1PA     H2R 6343   5.941   4.281   4.833
    1PA     H2S 6344   5.883   4.115   4.852
    2PC     C11 6345   5.975   4.201   5.022
    2PC     O12 6346   6.070   4.241   5.087
    2PC     O11 6347   5.862   4.159   5.080
    2PC      C1 6348   5.832   4.155   5.221
    2PC      HR 6349   5.912   4.104   5.276
    2PC      HS 6350   5.813   4.248   5.276
    2PC      C2 6351   5.706   4.068   5.230
    2PC      HX 6352   5.637   4.134   5.176
    2PC      C3 6353   5.672   4.045   5.378
    2PC      HA 6354   5.748   3.982   5.425
    2PC      HB 6355   5.679   4.134   5.441
    2PC     O31 6356   5.556   3.962   5.400
    2PC     P31 6357   5.513   3.925   5.550
    2PC     O32 6358   5.444   4.054   5.616
    2PC     C31 6359   5.429   4.057   5.759
    2PC     H1A 6360   5.352   3.986   5.788
    2PC     H1B 6361   5.524   4.017   5.797
    2PC     C32 6362   5.398   4.195   5.820
    2PC     H2A 6363   5.316   4.246   5.769
    2PC     H2B 6364   5.350   4.172   5.915
    2PC     N31 6365   5.507   4.294   5.847
    2PC     C33 6366   5.618   4.310   5.747
    2PC     H3A 6367   5.671   4.398   5.781
    2PC     H3B 6368   5.682   4.221   5.748
    2PC     H3C 6369   5.570   4.311   5.649
    2PC     C34 6370   5.444   4.425   5.884
    2PC     H4A 6371   5.524   4.483   5.931
    2PC     H4B 6372   5.400   4.481   5.801
    2PC     H4C 6373   5.372   4.410   5.965
    2PC     C35 6374   5.584   4.253   5.968
    2PC     H5A 6375   5.622   4.152   5.949
    2PC     H5B 6376   5.507   4.253   6.046
    2PC     H5C 6377   5.664   4.318   6.003
    2PC     O33 6378   5.416   3.814   5.543
    2PC     O34 6379   5.626   3.882   5.634
    2PC     O21 6380   5.728   3.948   5.155
    2PC     C21 6381   5.812   3.851   5.197
    2PC     O22 6382   5.893   3.850   5.287
    3OL     C12 6383   5.810   3.735   5.101
    3OL     H2R 6384   5.707   3.701   5.091
    3OL     H2S 6385   5.873   3.660   5.149
    3OL     C13 6386   5.876   3.792   4.974
    3OL     H3R 6387   5.975   3.829   4.999
    3OL     H3S 6388   5.810   3.866   4.928
    3OL     C14 6389   5.916   3.680   4.877
    3OL     H4R 6390   5.827   3.626   4.842
    3OL     H4S 6391   5.974   3.606   4.931
    3OL     C15 6392   5.996   3.733   4.757
    3OL     H5R 6393   6.091   3.776   4.789
    3OL     H5S 6394   5.949   3.808   4.693
    3OL     C16 6395   6.041   3.627   4.655
    3OL     H6R 6396   5.953   3.585   4.606
    3OL     H6S 6397   6.097   3.553   4.713
    3OL     C17 6398   6.141   3.677   4.550
    3OL     H7R 6399   6.229   3.714   4.603
    3OL     H7S 6400   6.094   3.758   4.493
    3OL     C18 6401   6.185   3.571   4.448
    3OL     H8R 6402   6.215   3.477   4.495
    3OL     H8S 6403   6.264   3.606   4.382
    3OL     C19 6404   6.063   3.532   4.368
    3OL     H9R 6405   6.001   3.457   4.417
    3OL    C110 6406   6.035   3.566   4.243
    3OL    H10R 6407   5.946   3.536   4.189
    3OL    C111 6408   6.102   3.680   4.171
    3OL    H11R 6409   6.116   3.644   4.068
    3OL    H11S 6410   6.192   3.717   4.221
    3OL    C112 6411   6.011   3.803   4.180
    3OL    H12R 6412   6.025   3.856   4.274
    3OL    H12S 6413   5.904   3.787   4.171
    3OL    C113 6414   6.047   3.906   4.072
    3OL    H13R 6415   6.062   3.849   3.980
    3OL    H13S 6416   6.141   3.953   4.099
    3OL    C114 6417   5.943   4.017   4.049
    3OL    H14R 6418   5.926   4.062   4.147
    3OL    H14S 6419   5.849   3.972   4.017
    3OL    C115 6420   5.978   4.119   3.940
    3OL    H15R 6421   6.007   4.064   3.850
    3OL    H15S 6422   6.059   4.183   3.975
    3OL    C116 6423   5.850   4.201   3.916
    3OL    H16R 6424   5.842   4.284   3.986
    3OL    H16S 6425   5.757   4.145   3.929
    3OL    C117 6426   5.853   4.263   3.776
    3OL    H17R 6427   5.766   4.329   3.773
    3OL    H17S 6428   5.849   4.188   3.696
    3OL    C118 6429   5.974   4.356   3.756
    3OL    H18R 6430   5.972   4.406   3.659
    3OL    H18S 6431   6.061   4.290   3.760
    3OL    H18T 6432   5.991   4.427   3.837
    1PA    C116 6433   3.459   4.717   3.943
    1PA    H16R 6434   3.412   4.815   3.934
    1PA    H16S 6435   3.409   4.662   3.862
    1PA    H16T 6436   3.566   4.727   3.928
    1PA    C115 6437   3.430   4.660   4.082
    1PA    H15R 6438   3.450   4.552   4.079
    1PA    H15S 6439   3.492   4.705   4.160
    1PA    C114 6440   3.283   4.680   4.123
    1PA    H14R 6441   3.258   4.785   4.105
    1PA    H14S 6442   3.233   4.613   4.053
    1PA    C113 6443   3.246   4.627   4.262
    1PA    H13R 6444   3.273   4.522   4.270
    1PA    H13S 6445   3.295   4.685   4.341
    1PA    C112 6446   3.094   4.644   4.281
    1PA    H12R 6447   3.050   4.737   4.245
    1PA    H12S 6448   3.044   4.559   4.234
    1PA    C111 6449   3.051   4.624   4.427
    1PA    H11R 6450   2.947   4.593   4.434
    1PA    H11S 6451   3.097   4.532   4.464
    1PA    C110 6452   3.075   4.750   4.512
    1PA    H10R 6453   3.179   4.782   4.512
    1PA    H10S 6454   3.008   4.825   4.470
    1PA     C19 6455   3.026   4.739   4.657
    1PA     H9R 6456   3.007   4.837   4.702
    1PA     H9S 6457   2.933   4.683   4.662
    1PA     C18 6458   3.130   4.664   4.741
    1PA     H8R 6459   3.148   4.568   4.693
    1PA     H8S 6460   3.225   4.718   4.749
    1PA     C17 6461   3.099   4.655   4.891
    1PA     H7R 6462   3.088   4.758   4.928
    1PA     H7S 6463   2.996   4.620   4.899
    1PA     C16 6464   3.194   4.556   4.960
    1PA     H6R 6465   3.133   4.520   5.043
    1PA     H6S 6466   3.210   4.473   4.891
    1PA     C15 6467   3.333   4.610   4.997
    1PA     H5R 6468   3.381   4.650   4.908
    1PA     H5S 6469   3.321   4.700   5.058
    1PA     C14 6470   3.420   4.502   5.062
    1PA     H4R 6471   3.348   4.449   5.125
    1PA     H4S 6472   3.448   4.438   4.978
    1PA     C13 6473   3.545   4.552   5.137
    1PA     H3R 6474   3.519   4.645   5.187
    1PA     H3S 6475   3.571   4.472   5.207
    1PA     C12 6476   3.662   4.581   5.042
    1PA     H2R 6477   3.678   4.490   4.985
    1PA     H2S 6478   3.633   4.660   4.972
    2PC     C11 6479   3.789   4.603   5.119
    2PC     O12 6480   3.813   4.574   5.235
    2PC     O11 6481   3.874   4.670   5.040
    2PC      C1 6482   4.006   4.702   5.089
    2PC      HR 6483   4.054   4.633   5.158
    2PC      HS 6484   4.080   4.688   5.010
    2PC      C2 6485   4.011   4.840   5.155
    2PC      HX 6486   4.116   4.865   5.173
    2PC      C3 6487   3.940   4.854   5.291
    2PC      HA 6488   3.839   4.813   5.282
    2PC      HB 6489   3.988   4.784   5.359
    2PC     O31 6490   3.933   4.987   5.345
    2PC     P31 6491   3.853   5.006   5.482
    2PC     O32 6492   3.773   5.139   5.442
    2PC     C31 6493   3.835   5.266   5.419
    2PC     H1A 6494   3.894   5.259   5.327
    2PC     H1B 6495   3.761   5.345   5.408
    2PC     C32 6496   3.937   5.309   5.526
    2PC     H2A 6497   4.008   5.229   5.549
    2PC     H2B 6498   3.995   5.397   5.501
    2PC     N31 6499   3.888   5.336   5.665
    2PC     C33 6500   3.828   5.473   5.659
    2PC     H3A 6501   3.735   5.470   5.602
    2PC     H3B 6502   3.820   5.500   5.765
    2PC     H3C 6503   3.902   5.540   5.615
    2PC     C34 6504   3.781   5.248   5.722
    2PC     H4A 6505   3.702   5.235   5.647
    2PC     H4B 6506   3.832   5.152   5.730
    2PC     H4C 6507   3.749   5.290   5.818
    2PC     C35 6508   3.998   5.350   5.766
    2PC     H5A 6509   4.084   5.391   5.712
    2PC     H5B 6510   4.023   5.256   5.816
    2PC     H5C 6511   3.978   5.428   5.839
    2PC     O33 6512   3.764   4.891   5.511
    2PC     O34 6513   3.954   5.019   5.590
    2PC     O21 6514   3.959   4.933   5.059
    2PC     C21 6515   4.050   4.991   4.979
    2PC     O22 6516   4.159   4.950   4.945
    3OL     C12 6517   3.987   5.115   4.920
    3OL     H2R 6518   3.996   5.195   4.993
    3OL     H2S 6519   3.881   5.108   4.895
    3OL     C13 6520   4.060   5.148   4.789
    3OL     H3R 6521   4.055   5.064   4.720
    3OL     H3S 6522   4.167   5.161   4.807
    3OL     C14 6523   3.992   5.271   4.726
    3OL     H4R 6524   3.890   5.271   4.763
    3OL     H4S 6525   3.991   5.278   4.617
    3OL     C15 6526   4.055   5.403   4.772
    3OL     H5R 6527   4.141   5.418   4.706
    3OL     H5S 6528   4.094   5.391   4.873
    3OL     C16 6529   3.963   5.526   4.770
    3OL     H6R 6530   3.890   5.523   4.851
    3OL     H6S 6531   3.909   5.550   4.679
    3OL     C17 6532   4.055   5.643   4.811
    3OL     H7R 6533   4.138   5.651   4.740
    3OL     H7S 6534   4.088   5.616   4.911
    3OL     C18 6535   3.971   5.771   4.809
    3OL     H8R 6536   3.880   5.755   4.867
    3OL     H8S 6537   3.941   5.789   4.705
    3OL     C19 6538   4.042   5.886   4.877
    3OL     H9R 6539   4.113   5.850   4.951
    3OL    C110 6540   4.017   6.014   4.859
    3OL    H10R 6541   4.079   6.083   4.916
    3OL    C111 6542   3.922   6.079   4.761
    3OL    H11R 6543   3.844   6.137   4.811
    3OL    H11S 6544   3.865   6.002   4.709
    3OL    C112 6545   4.010   6.156   4.662
    3OL    H12R 6546   4.088   6.089   4.626
    3OL    H12S 6547   4.060   6.243   4.705
    3OL    C113 6548   3.931   6.189   4.535
    3OL    H13R 6549   3.834   6.239   4.548
    3OL    H13S 6550   3.898   6.103   4.476
    3OL    C114 6551   4.004   6.291   4.446
    3OL    H14R 6552   4.099   6.307   4.496
    3OL    H14S 6553   3.956   6.388   4.435
    3OL    C115 6554   4.041   6.218   4.315
    3OL    H15R 6555   3.951   6.182   4.266
    3OL    H15S 6556   4.095   6.126   4.337
    3OL    C116 6557   4.118   6.305   4.215
    3OL    H16R 6558   4.080   6.406   4.233
    3OL    H16S 6559   4.091   6.265   4.118
    3OL    C117 6560   4.269   6.286   4.235
    3OL    H17R 6561   4.304   6.183   4.239
    3OL    H17S 6562   4.302   6.323   4.332
    3OL    C118 6563   4.360   6.341   4.124
    3OL    H18R 6564   4.334   6.302   4.025
    3OL    H18S 6565   4.462   6.308   4.147
    3OL    H18T 6566   4.363   6.450   4.133
    1PA    C116 6567   4.480   2.378   3.767
    1PA    H16R 6568   4.391   2.418   3.717
    1PA    H16S 6569   4.539   2.305   3.712
    1PA    H16T 6570   4.538   2.468   3.791
    1PA    C115 6571   4.421   2.321   3.897
    1PA    H15R 6572   4.349   2.243   3.871
    1PA    H15S 6573   4.496   2.271   3.959
    1PA    C114 6574   4.358   2.428   3.987
    1PA    H14R 6575   4.425   2.513   4.005
    1PA    H14S 6576   4.271   2.470   3.937
    1PA    C113 6577   4.306   2.376   4.122
    1PA    H13R 6578   4.219   2.311   4.109
    1PA    H13S 6579   4.388   2.322   4.170
    1PA    C112 6580   4.263   2.490   4.215
    1PA    H12R 6581   4.349   2.556   4.232
    1PA    H12S 6582   4.175   2.534   4.167
    1PA    C111 6583   4.221   2.440   4.354
    1PA    H11R 6584   4.135   2.374   4.349
    1PA    H11S 6585   4.302   2.379   4.396
    1PA    C110 6586   4.191   2.559   4.445
    1PA    H10R 6587   4.277   2.623   4.467
    1PA    H10S 6588   4.125   2.623   4.387
    1PA     C19 6589   4.123   2.526   4.579
    1PA     H9R 6590   4.114   2.622   4.631
    1PA     H9S 6591   4.023   2.484   4.564
    1PA     C18 6592   4.195   2.420   4.664
    1PA     H8R 6593   4.203   2.331   4.603
    1PA     H8S 6594   4.298   2.451   4.680
    1PA     C17 6595   4.126   2.378   4.795
    1PA     H7R 6596   4.100   2.469   4.850
    1PA     H7S 6597   4.034   2.324   4.773
    1PA     C16 6598   4.212   2.275   4.869
    1PA     H6R 6599   4.227   2.190   4.802
    1PA     H6S 6600   4.306   2.320   4.901
    1PA     C15 6601   4.146   2.229   5.000
    1PA     H5R 6602   4.214   2.157   5.048
    1PA     H5S 6603   4.135   2.313   5.069
    1PA     C14 6604   4.015   2.155   4.972
    1PA     H4R 6605   3.949   2.216   4.910
    1PA     H4S 6606   4.047   2.064   4.922
    1PA     C13 6607   3.938   2.116   5.099
    1PA     H3R 6608   3.989   2.044   5.163
    1PA     H3S 6609   3.934   2.209   5.157
    1PA     C12 6610   3.790   2.080   5.083
    1PA     H2R 6611   3.735   2.164   5.039
    1PA     H2S 6612   3.778   1.988   5.026
    2PC     C11 6613   3.722   2.042   5.212
    2PC     O12 6614   3.603   2.057   5.231
    2PC     O11 6615   3.796   1.970   5.298
    2PC      C1 6616   3.731   1.910   5.411
    2PC      HR 6617   3.703   1.989   5.481
    2PC      HS 6618   3.644   1.855   5.373
    2PC      C2 6619   3.836   1.823   5.481
    2PC      HX 6620   3.777   1.779   5.561
    2PC      C3 6621   3.948   1.909   5.543
    2PC      HA 6622   4.003   1.959   5.463
    2PC      HB 6623   3.908   1.991   5.602
    2PC     O31 6624   4.036   1.836   5.629
    2PC     P31 6625   3.978   1.800   5.774
    2PC     O32 6626   4.049   1.921   5.853
    2PC     C31 6627   4.193   1.922   5.846
    2PC     H1A 6628   4.243   1.837   5.894
    2PC     H1B 6629   4.225   1.936   5.743
    2PC     C32 6630   4.236   2.039   5.936
    2PC     H2A 6631   4.154   2.048   6.008
    2PC     H2B 6632   4.324   2.014   5.995
    2PC     N31 6633   4.253   2.175   5.874
    2PC     C33 6634   4.352   2.179   5.762
    2PC     H3A 6635   4.312   2.234   5.677
    2PC     H3B 6636   4.436   2.241   5.792
    2PC     H3C 6637   4.387   2.078   5.736
    2PC     C34 6638   4.121   2.230   5.827
    2PC     H4A 6639   4.076   2.152   5.767
    2PC     H4B 6640   4.060   2.243   5.917
    2PC     H4C 6641   4.135   2.325   5.775
    2PC     C35 6642   4.309   2.269   5.976
    2PC     H5A 6643   4.411   2.239   6.001
    2PC     H5B 6644   4.252   2.259   6.069
    2PC     H5C 6645   4.321   2.372   5.943
    2PC     O33 6646   3.832   1.820   5.779
    2PC     O34 6647   4.012   1.671   5.839
    2PC     O21 6648   3.900   1.726   5.396
    2PC     C21 6649   3.850   1.601   5.387
    2PC     O22 6650   3.755   1.559   5.449
    3OL     C12 6651   3.912   1.528   5.271
    3OL     H2R 6652   3.860   1.432   5.266
    3OL     H2S 6653   4.018   1.502   5.275
    3OL     C13 6654   3.884   1.603   5.140
    3OL     H3R 6655   3.954   1.686   5.138
    3OL     H3S 6656   3.782   1.641   5.138
    3OL     C14 6657   3.908   1.510   5.019
    3OL     H4R 6658   3.826   1.439   5.008
    3OL     H4S 6659   3.998   1.454   5.042
    3OL     C15 6660   3.921   1.589   4.888
    3OL     H5R 6661   3.990   1.673   4.891
    3OL     H5S 6662   3.820   1.622   4.860
    3OL     C16 6663   3.960   1.488   4.780
    3OL     H6R 6664   3.884   1.410   4.777
    3OL     H6S 6665   4.049   1.429   4.804
    3OL     C17 6666   3.994   1.546   4.642
    3OL     H7R 6667   4.059   1.631   4.663
    3OL     H7S 6668   3.899   1.574   4.595
    3OL     C18 6669   4.059   1.437   4.555
    3OL     H8R 6670   4.088   1.352   4.617
    3OL     H8S 6671   4.153   1.472   4.512
    3OL     C19 6672   3.959   1.386   4.454
    3OL     H9R 6673   3.886   1.325   4.507
    3OL    C110 6674   3.954   1.393   4.322
    3OL    H10R 6675   3.875   1.336   4.273
    3OL    C111 6676   4.053   1.471   4.241
    3OL    H11R 6677   4.120   1.523   4.309
    3OL    H11S 6678   4.000   1.549   4.185
    3OL    C112 6679   4.140   1.385   4.149
    3OL    H12R 6680   4.072   1.344   4.074
    3OL    H12S 6681   4.178   1.299   4.206
    3OL    C113 6682   4.265   1.464   4.106
    3OL    H13R 6683   4.295   1.531   4.187
    3OL    H13S 6684   4.240   1.531   4.023
    3OL    C114 6685   4.388   1.390   4.052
    3OL    H14R 6686   4.446   1.469   4.004
    3OL    H14S 6687   4.349   1.329   3.970
    3OL    C115 6688   4.469   1.324   4.164
    3OL    H15R 6689   4.509   1.230   4.126
    3OL    H15S 6690   4.404   1.310   4.251
    3OL    C116 6691   4.586   1.404   4.223
    3OL    H16R 6692   4.658   1.421   4.142
    3OL    H16S 6693   4.636   1.341   4.297
    3OL    C117 6694   4.551   1.540   4.285
    3OL    H17R 6695   4.461   1.529   4.347
    3OL    H17S 6696   4.521   1.612   4.208
    3OL    C118 6697   4.666   1.598   4.368
    3OL    H18R 6698   4.693   1.533   4.451
    3OL    H18S 6699   4.653   1.702   4.398
    3OL    H18T 6700   4.750   1.611   4.299
    1PA    C116 6701   1.853   2.347   3.664
    1PA    H16R 6702   1.800   2.314   3.574
    1PA    H16S 6703   1.799   2.435   3.701
    1PA    H16T 6704   1.848   2.268   3.738
    1PA    C115 6705   1.992   2.404   3.632
    1PA    H15R 6706   2.053   2.326   3.588
    1PA    H15S 6707   1.985   2.486   3.560
    1PA    C114 6708   2.071   2.448   3.756
    1PA    H14R 6709   2.095   2.366   3.824
    1PA    H14S 6710   2.174   2.466   3.726
    1PA    C113 6711   2.002   2.566   3.825
    1PA    H13R 6712   1.963   2.646   3.760
    1PA    H13S 6713   1.909   2.528   3.868
    1PA    C112 6714   2.095   2.616   3.936
    1PA    H12R 6715   2.116   2.526   3.994
    1PA    H12S 6716   2.189   2.652   3.894
    1PA    C111 6717   2.020   2.724   4.017
    1PA    H11R 6718   1.984   2.798   3.945
    1PA    H11S 6719   1.929   2.686   4.064
    1PA    C110 6720   2.116   2.791   4.115
    1PA    H10R 6721   2.218   2.784   4.077
    1PA    H10S 6722   2.087   2.896   4.128
    1PA     C19 6723   2.111   2.726   4.254
    1PA     H9R 6724   2.006   2.708   4.279
    1PA     H9S 6725   2.172   2.635   4.249
    1PA     C18 6726   2.166   2.814   4.367
    1PA     H8R 6727   2.258   2.865   4.338
    1PA     H8S 6728   2.093   2.894   4.379
    1PA     C17 6729   2.174   2.742   4.503
    1PA     H7R 6730   2.091   2.671   4.505
    1PA     H7S 6731   2.271   2.692   4.504
    1PA     C16 6732   2.164   2.840   4.621
    1PA     H6R 6733   2.247   2.912   4.611
    1PA     H6S 6734   2.077   2.906   4.624
    1PA     C15 6735   2.168   2.767   4.755
    1PA     H5R 6736   2.078   2.705   4.753
    1PA     H5S 6737   2.256   2.702   4.758
    1PA     C14 6738   2.177   2.871   4.868
    1PA     H4R 6739   2.251   2.949   4.847
    1PA     H4S 6740   2.084   2.926   4.881
    1PA     C13 6741   2.202   2.804   5.004
    1PA     H3R 6742   2.299   2.756   5.008
    1PA     H3S 6743   2.210   2.893   5.066
    1PA     C12 6744   2.089   2.714   5.056
    1PA     H2R 6745   1.991   2.760   5.044
    1PA     H2S 6746   2.092   2.615   5.009
    2PC     C11 6747   2.093   2.692   5.205
    2PC     O12 6748   2.184   2.730   5.276
    2PC     O11 6749   1.986   2.629   5.254
    2PC      C1 6750   1.949   2.617   5.393
    2PC      HR 6751   1.849   2.573   5.401
    2PC      HS 6752   2.014   2.542   5.439
    2PC      C2 6753   1.943   2.751   5.467
    2PC      HX 6754   2.040   2.800   5.457
    2PC      C3 6755   1.913   2.742   5.617
    2PC      HA 6756   2.002   2.717   5.675
    2PC      HB 6757   1.885   2.844   5.645
    2PC     O31 6758   1.807   2.648   5.640
    2PC     P31 6759   1.764   2.611   5.790
    2PC     O32 6760   1.702   2.750   5.840
    2PC     C31 6761   1.575   2.752   5.909
    2PC     H1A 6762   1.511   2.686   5.850
    2PC     H1B 6763   1.586   2.710   6.009
    2PC     C32 6764   1.528   2.898   5.916
    2PC     H2A 6765   1.582   2.941   5.832
    2PC     H2B 6766   1.424   2.910   5.888
    2PC     N31 6767   1.542   2.977   6.043
    2PC     C33 6768   1.515   3.118   6.001
    2PC     H3A 6769   1.608   3.164   5.967
    2PC     H3B 6770   1.452   3.119   5.912
    2PC     H3C 6771   1.475   3.181   6.080
    2PC     C34 6772   1.446   2.932   6.150
    2PC     H4A 6773   1.347   2.905   6.113
    2PC     H4B 6774   1.495   2.847   6.196
    2PC     H4C 6775   1.438   3.016   6.220
    2PC     C35 6776   1.683   2.965   6.093
    2PC     H5A 6777   1.754   2.942   6.013
    2PC     H5B 6778   1.700   2.877   6.155
    2PC     H5C 6779   1.708   3.060   6.141
    2PC     O33 6780   1.661   2.505   5.799
    2PC     O34 6781   1.883   2.568   5.868
    2PC     O21 6782   1.845   2.836   5.403
    2PC     C21 6783   1.851   2.970   5.399
    2PC     O22 6784   1.951   3.031   5.429
    3OL     C12 6785   1.725   3.040   5.353
    3OL     H2R 6786   1.677   3.096   5.433
    3OL     H2S 6787   1.652   2.970   5.314
    3OL     C13 6788   1.756   3.120   5.226
    3OL     H3R 6789   1.820   3.203   5.257
    3OL     H3S 6790   1.660   3.163   5.195
    3OL     C14 6791   1.821   3.032   5.119
    3OL     H4R 6792   1.763   2.940   5.110
    3OL     H4S 6793   1.920   2.998   5.151
    3OL     C15 6794   1.847   3.102   4.985
    3OL     H5R 6795   1.932   3.060   4.931
    3OL     H5S 6796   1.874   3.206   5.006
    3OL     C16 6797   1.718   3.096   4.902
    3OL     H6R 6798   1.637   3.153   4.947
    3OL     H6S 6799   1.692   2.990   4.890
    3OL     C17 6800   1.730   3.153   4.760
    3OL     H7R 6801   1.794   3.086   4.703
    3OL     H7S 6802   1.765   3.257   4.759
    3OL     C18 6803   1.587   3.158   4.702
    3OL     H8R 6804   1.532   3.236   4.756
    3OL     H8S 6805   1.542   3.060   4.716
    3OL     C19 6806   1.587   3.194   4.556
    3OL     H9R 6807   1.667   3.258   4.518
    3OL    C110 6808   1.499   3.148   4.468
    3OL    H10R 6809   1.502   3.182   4.365
    3OL    C111 6810   1.369   3.078   4.502
    3OL    H11R 6811   1.326   3.095   4.601
    3OL    H11S 6812   1.378   2.971   4.484
    3OL    C112 6813   1.254   3.132   4.417
    3OL    H12R 6814   1.258   3.241   4.430
    3OL    H12S 6815   1.161   3.094   4.460
    3OL    C113 6816   1.257   3.098   4.267
    3OL    H13R 6817   1.356   3.123   4.227
    3OL    H13S 6818   1.186   3.164   4.217
    3OL    C114 6819   1.205   2.959   4.229
    3OL    H14R 6820   1.105   2.943   4.269
    3OL    H14S 6821   1.269   2.885   4.276
    3OL    C115 6822   1.206   2.933   4.077
    3OL    H15R 6823   1.197   2.826   4.063
    3OL    H15S 6824   1.300   2.972   4.037
    3OL    C116 6825   1.089   3.005   4.008
    3OL    H16R 6826   1.113   3.108   3.980
    3OL    H16S 6827   0.999   2.994   4.069
    3OL    C117 6828   1.055   2.933   3.877
    3OL    H17R 6829   1.044   2.826   3.897
    3OL    H17S 6830   1.134   2.941   3.802
    3OL    C118 6831   0.930   2.997   3.815
    3OL    H18R 6832   0.834   2.980   3.867
    3OL    H18S 6833   0.927   2.958   3.713
    3OL    H18T 6834   0.941   3.106   3.813
    1PA    C116 6835   1.844   4.646   4.370
    1PA    H16R 6836   1.912   4.677   4.290
    1PA    H16S 6837   1.854   4.701   4.464
    1PA    H16T 6838   1.740   4.656   4.338
    1PA    C115 6839   1.870   4.499   4.403
    1PA    H15R 6840   1.967   4.492   4.454
    1PA    H15S 6841   1.801   4.456   4.476
    1PA    C114 6842   1.870   4.399   4.286
    1PA    H14R 6843   1.777   4.404   4.230
    1PA    H14S 6844   1.951   4.434   4.221
    1PA    C113 6845   1.877   4.255   4.339
    1PA    H13R 6846   1.798   4.247   4.415
    1PA    H13S 6847   1.848   4.190   4.257
    1PA    C112 6848   2.013   4.218   4.399
    1PA    H12R 6849   2.086   4.241   4.321
    1PA    H12S 6850   2.025   4.287   4.483
    1PA    C111 6851   2.021   4.074   4.454
    1PA    H11R 6852   1.942   4.055   4.527
    1PA    H11S 6853   2.013   4.001   4.374
    1PA    C110 6854   2.152   4.060   4.533
    1PA    H10R 6855   2.183   3.957   4.550
    1PA    H10S 6856   2.234   4.110   4.481
    1PA     C19 6857   2.151   4.129   4.670
    1PA     H9R 6858   2.125   4.232   4.645
    1PA     H9S 6859   2.076   4.088   4.738
    1PA     C18 6860   2.283   4.126   4.748
    1PA     H8R 6861   2.316   4.025   4.774
    1PA     H8S 6862   2.362   4.165   4.684
    1PA     C17 6863   2.263   4.205   4.878
    1PA     H7R 6864   2.218   4.301   4.854
    1PA     H7S 6865   2.200   4.155   4.952
    1PA     C16 6866   2.401   4.228   4.942
    1PA     H6R 6867   2.425   4.123   4.960
    1PA     H6S 6868   2.466   4.262   4.861
    1PA     C15 6869   2.390   4.324   5.061
    1PA     H5R 6870   2.366   4.419   5.013
    1PA     H5S 6871   2.301   4.300   5.120
    1PA     C14 6872   2.524   4.326   5.136
    1PA     H4R 6873   2.558   4.224   5.152
    1PA     H4S 6874   2.595   4.390   5.083
    1PA     C13 6875   2.502   4.384   5.276
    1PA     H3R 6876   2.462   4.485   5.268
    1PA     H3S 6877   2.431   4.328   5.337
    1PA     C12 6878   2.628   4.371   5.363
    1PA     H2R 6879   2.656   4.268   5.382
    1PA     H2S 6880   2.719   4.424   5.333
    2PC     C11 6881   2.599   4.441   5.494
    2PC     O12 6882   2.578   4.374   5.593
    2PC     O11 6883   2.579   4.573   5.482
    2PC      C1 6884   2.532   4.660   5.587
    2PC      HR 6885   2.460   4.728   5.540
    2PC      HS 6886   2.479   4.602   5.663
    2PC      C2 6887   2.645   4.732   5.661
    2PC      HX 6888   2.728   4.662   5.674
    2PC      C3 6889   2.608   4.776   5.803
    2PC      HA 6890   2.514   4.832   5.811
    2PC      HB 6891   2.595   4.688   5.866
    2PC     O31 6892   2.720   4.846   5.859
    2PC     P31 6893   2.691   4.924   5.996
    2PC     O32 6894   2.673   5.073   5.939
    2PC     C31 6895   2.546   5.123   5.894
    2PC     H1A 6896   2.491   5.046   5.839
    2PC     H1B 6897   2.485   5.158   5.978
    2PC     C32 6898   2.584   5.235   5.796
    2PC     H2A 6899   2.673   5.203   5.741
    2PC     H2B 6900   2.507   5.235   5.719
    2PC     N31 6901   2.608   5.370   5.857
    2PC     C33 6902   2.637   5.461   5.742
    2PC     H3A 6903   2.696   5.411   5.664
    2PC     H3B 6904   2.547   5.500   5.695
    2PC     H3C 6905   2.697   5.546   5.775
    2PC     C34 6906   2.486   5.418   5.929
    2PC     H4A 6907   2.403   5.429   5.859
    2PC     H4B 6908   2.454   5.356   6.013
    2PC     H4C 6909   2.505   5.519   5.966
    2PC     C35 6910   2.732   5.360   5.940
    2PC     H5A 6911   2.809   5.311   5.880
    2PC     H5B 6912   2.716   5.308   6.035
    2PC     H5C 6913   2.760   5.461   5.972
    2PC     O33 6914   2.570   4.869   6.061
    2PC     O34 6915   2.800   4.924   6.096
    2PC     O21 6916   2.697   4.842   5.583
    2PC     C21 6917   2.626   4.948   5.542
    2PC     O22 6918   2.518   4.978   5.590
    3OL     C12 6919   2.689   5.038   5.439
    3OL     H2R 6920   2.687   4.979   5.347
    3OL     H2S 6921   2.795   5.054   5.458
    3OL     C13 6922   2.627   5.176   5.414
    3OL     H3R 6923   2.673   5.249   5.482
    3OL     H3S 6924   2.519   5.173   5.424
    3OL     C14 6925   2.646   5.232   5.272
    3OL     H4R 6926   2.635   5.154   5.196
    3OL     H4S 6927   2.742   5.283   5.259
    3OL     C15 6928   2.535   5.335   5.249
    3OL     H5R 6929   2.530   5.408   5.331
    3OL     H5S 6930   2.441   5.279   5.249
    3OL     C16 6931   2.551   5.399   5.110
    3OL     H6R 6932   2.455   5.411   5.060
    3OL     H6S 6933   2.611   5.330   5.050
    3OL     C17 6934   2.620   5.536   5.120
    3OL     H7R 6935   2.713   5.539   5.177
    3OL     H7S 6936   2.558   5.612   5.168
    3OL     C18 6937   2.651   5.597   4.983
    3OL     H8R 6938   2.702   5.691   5.007
    3OL     H8S 6939   2.555   5.624   4.940
    3OL     C19 6940   2.734   5.502   4.900
    3OL     H9R 6941   2.822   5.456   4.945
    3OL    C110 6942   2.698   5.466   4.778
    3OL    H10R 6943   2.751   5.382   4.733
    3OL    C111 6944   2.597   5.525   4.683
    3OL    H11R 6945   2.538   5.592   4.746
    3OL    H11S 6946   2.536   5.452   4.631
    3OL    C112 6947   2.668   5.606   4.574
    3OL    H12R 6948   2.751   5.550   4.530
    3OL    H12S 6949   2.712   5.686   4.635
    3OL    C113 6950   2.576   5.642   4.457
    3OL    H13R 6951   2.481   5.686   4.487
    3OL    H13S 6952   2.549   5.550   4.404
    3OL    C114 6953   2.655   5.727   4.356
    3OL    H14R 6954   2.603   5.748   4.262
    3OL    H14S 6955   2.751   5.684   4.327
    3OL    C115 6956   2.668   5.873   4.400
    3OL    H15R 6957   2.736   5.867   4.485
    3OL    H15S 6958   2.573   5.915   4.432
    3OL    C116 6959   2.732   5.968   4.298
    3OL    H16R 6960   2.731   6.073   4.331
    3OL    H16S 6961   2.679   5.974   4.203
    3OL    C117 6962   2.883   5.948   4.286
    3OL    H17R 6963   2.917   5.854   4.244
    3OL    H17S 6964   2.919   5.943   4.389
    3OL    C118 6965   2.950   6.060   4.204
    3OL    H18R 6966   2.911   6.158   4.232
    3OL    H18S 6967   2.922   6.045   4.099
    3OL    H18T 6968   3.059   6.059   4.210
    1PA    C116 6969   4.883   0.101   4.343
    1PA    H16R 6970   4.899  -0.007   4.342
    1PA    H16S 6971   4.972   0.148   4.383
    1PA    H16T 6972   4.867   0.136   4.241
    1PA    C115 6973   4.760   0.146   4.424
    1PA    H15R 6974   4.777   0.125   4.530
    1PA    H15S 6975   4.745   0.253   4.413
    1PA    C114 6976   4.632   0.072   4.382
    1PA    H14R 6977   4.625   0.089   4.274
    1PA    H14S 6978   4.638  -0.035   4.399
    1PA    C113 6979   4.512   0.134   4.454
    1PA    H13R 6980   4.521   0.243   4.447
    1PA    H13S 6981   4.422   0.106   4.399
    1PA    C112 6982   4.491   0.087   4.599
    1PA    H12R 6983   4.437  -0.007   4.599
    1PA    H12S 6984   4.587   0.071   4.650
    1PA    C111 6985   4.425   0.188   4.694
    1PA    H11R 6986   4.465   0.155   4.790
    1PA    H11S 6987   4.480   0.282   4.684
    1PA    C110 6988   4.274   0.209   4.679
    1PA    H10R 6989   4.244   0.285   4.751
    1PA    H10S 6990   4.244   0.250   4.582
    1PA     C19 6991   4.191   0.082   4.702
    1PA     H9R 6992   4.086   0.113   4.691
    1PA     H9S 6993   4.209   0.018   4.616
    1PA     C18 6994   4.214   0.008   4.835
    1PA     H8R 6995   4.156  -0.084   4.834
    1PA     H8S 6996   4.320  -0.020   4.838
    1PA     C17 6997   4.184   0.106   4.949
    1PA     H7R 6998   4.259   0.184   4.960
    1PA     H7S 6999   4.086   0.150   4.930
    1PA     C16 7000   4.183   0.019   5.076
    1PA     H6R 7001   4.115   0.070   5.144
    1PA     H6S 7002   4.138  -0.079   5.060
    1PA     C15 7003   4.321   0.001   5.143
    1PA     H5R 7004   4.383  -0.039   5.062
    1PA     H5S 7005   4.378   0.087   5.178
    1PA     C14 7006   4.308  -0.104   5.254
    1PA     H4R 7007   4.259  -0.049   5.334
    1PA     H4S 7008   4.245  -0.190   5.228
    1PA     C13 7009   4.438  -0.170   5.303
    1PA     H3R 7010   4.484  -0.211   5.212
    1PA     H3S 7011   4.508  -0.096   5.342
    1PA     C12 7012   4.413  -0.272   5.415
    1PA     H2R 7013   4.330  -0.334   5.381
    1PA     H2S 7014   4.502  -0.328   5.445
    2PC     C11 7015   4.375  -0.215   5.549
    2PC     O12 7016   4.368  -0.096   5.574
    2PC     O11 7017   4.336  -0.314   5.632
    2PC      C1 7018   4.260  -0.302   5.753
    2PC      HR 7019   4.249  -0.400   5.799
    2PC      HS 7020   4.312  -0.239   5.826
    2PC      C2 7021   4.117  -0.251   5.725
    2PC      HX 7022   4.109  -0.146   5.697
    2PC      C3 7023   4.035  -0.279   5.852
    2PC      HA 7024   3.968  -0.366   5.851
    2PC      HB 7025   4.099  -0.307   5.936
    2PC     O31 7026   3.958  -0.161   5.879
    2PC     P31 7027   3.886  -0.152   6.022
    2PC     O32 7028   3.762  -0.056   5.991
    2PC     C31 7029   3.772   0.087   5.977
    2PC     H1A 7030   3.821   0.121   6.069
    2PC     H1B 7031   3.822   0.113   5.883
    2PC     C32 7032   3.624   0.126   5.982
    2PC     H2A 7033   3.577   0.079   5.895
    2PC     H2B 7034   3.581   0.075   6.069
    2PC     N31 7035   3.584   0.270   5.986
    2PC     C33 7036   3.601   0.343   5.856
    2PC     H3A 7037   3.707   0.350   5.833
    2PC     H3B 7038   3.549   0.283   5.781
    2PC     H3C 7039   3.571   0.448   5.852
    2PC     C34 7040   3.437   0.284   6.010
    2PC     H4A 7041   3.426   0.238   6.109
    2PC     H4B 7042   3.397   0.384   6.028
    2PC     H4C 7043   3.391   0.227   5.929
    2PC     C35 7044   3.659   0.338   6.097
    2PC     H5A 7045   3.763   0.308   6.106
    2PC     H5B 7046   3.612   0.304   6.190
    2PC     H5C 7047   3.654   0.444   6.073
    2PC     O33 7048   3.850  -0.279   6.088
    2PC     O34 7049   3.976  -0.080   6.116
    2PC     O21 7050   4.069  -0.339   5.621
    2PC     C21 7051   3.953  -0.309   5.561
    2PC     O22 7052   3.902  -0.201   5.587
    3OL     C12 7053   3.893  -0.411   5.468
    3OL     H2R 7054   3.784  -0.411   5.459
    3OL     H2S 7055   3.921  -0.509   5.506
    3OL     C13 7056   3.939  -0.404   5.322
    3OL     H3R 7057   3.895  -0.487   5.266
    3OL     H3S 7058   4.048  -0.410   5.320
    3OL     C14 7059   3.918  -0.264   5.261
    3OL     H4R 7060   3.989  -0.254   5.178
    3OL     H4S 7061   3.936  -0.182   5.331
    3OL     C15 7062   3.781  -0.246   5.194
    3OL     H5R 7063   3.699  -0.265   5.264
    3OL     H5S 7064   3.770  -0.330   5.125
    3OL     C16 7065   3.771  -0.119   5.110
    3OL     H6R 7066   3.685  -0.124   5.042
    3OL     H6S 7067   3.859  -0.120   5.045
    3OL     C17 7068   3.757   0.003   5.202
    3OL     H7R 7069   3.814  -0.017   5.293
    3OL     H7S 7070   3.654   0.011   5.239
    3OL     C18 7071   3.787   0.137   5.133
    3OL     H8R 7072   3.746   0.139   5.032
    3OL     H8S 7073   3.895   0.147   5.120
    3OL     C19 7074   3.734   0.254   5.213
    3OL     H9R 7075   3.799   0.282   5.296
    3OL    C110 7076   3.637   0.337   5.177
    3OL    H10R 7077   3.627   0.422   5.244
    3OL    C111 7078   3.528   0.322   5.074
    3OL    H11R 7079   3.431   0.310   5.121
    3OL    H11S 7080   3.554   0.236   5.011
    3OL    C112 7081   3.525   0.456   5.000
    3OL    H12R 7082   3.614   0.480   4.940
    3OL    H12S 7083   3.522   0.541   5.068
    3OL    C113 7084   3.400   0.467   4.912
    3OL    H13R 7085   3.382   0.572   4.888
    3OL    H13S 7086   3.316   0.416   4.960
    3OL    C114 7087   3.420   0.383   4.785
    3OL    H14R 7088   3.317   0.364   4.754
    3OL    H14S 7089   3.458   0.283   4.807
    3OL    C115 7090   3.497   0.456   4.675
    3OL    H15R 7091   3.600   0.450   4.711
    3OL    H15S 7092   3.469   0.561   4.662
    3OL    C116 7093   3.487   0.374   4.546
    3OL    H16R 7094   3.382   0.352   4.525
    3OL    H16S 7095   3.531   0.274   4.555
    3OL    C117 7096   3.551   0.457   4.434
    3OL    H17R 7097   3.653   0.481   4.465
    3OL    H17S 7098   3.496   0.551   4.424
    3OL    C118 7099   3.557   0.381   4.301
    3OL    H18R 7100   3.457   0.347   4.275
    3OL    H18S 7101   3.628   0.299   4.310
    3OL    H18T 7102   3.602   0.452   4.231
    1PA    C116 7103   2.101   3.767   4.164
    1PA    H16R 7104   2.064   3.685   4.102
    1PA    H16S 7105   2.030   3.849   4.149
    1PA    H16T 7106   2.101   3.731   4.267
    1PA    C115 7107   2.233   3.829   4.117
    1PA    H15R 7108   2.315   3.757   4.108
    1PA    H15S 7109   2.234   3.859   4.012
    1PA    C114 7110   2.266   3.951   4.203
    1PA    H14R 7111   2.177   4.015   4.202
    1PA    H14S 7112   2.281   3.927   4.309
    1PA    C113 7113   2.390   4.028   4.154
    1PA    H13R 7114   2.470   3.954   4.147
    1PA    H13S 7115   2.381   4.070   4.054
    1PA    C112 7116   2.410   4.147   4.248
    1PA    H12R 7117   2.329   4.220   4.254
    1PA    H12S 7118   2.408   4.106   4.350
    1PA    C111 7119   2.554   4.197   4.231
    1PA    H11R 7120   2.624   4.126   4.276
    1PA    H11S 7121   2.581   4.184   4.125
    1PA    C110 7122   2.586   4.338   4.282
    1PA    H10R 7123   2.673   4.379   4.230
    1PA    H10S 7124   2.503   4.399   4.245
    1PA     C19 7125   2.610   4.349   4.433
    1PA     H9R 7126   2.601   4.455   4.457
    1PA     H9S 7127   2.530   4.296   4.485
    1PA     C18 7128   2.748   4.297   4.475
    1PA     H8R 7129   2.747   4.188   4.483
    1PA     H8S 7130   2.829   4.321   4.405
    1PA     C17 7131   2.780   4.333   4.621
    1PA     H7R 7132   2.790   4.441   4.630
    1PA     H7S 7133   2.694   4.303   4.681
    1PA     C16 7134   2.915   4.281   4.672
    1PA     H6R 7135   2.911   4.172   4.661
    1PA     H6S 7136   3.000   4.316   4.613
    1PA     C15 7137   2.928   4.309   4.822
    1PA     H5R 7138   3.034   4.309   4.848
    1PA     H5S 7139   2.881   4.404   4.850
    1PA     C14 7140   2.863   4.204   4.912
    1PA     H4R 7141   2.756   4.211   4.891
    1PA     H4S 7142   2.910   4.111   4.880
    1PA     C13 7143   2.889   4.235   5.060
    1PA     H3R 7144   2.900   4.342   5.078
    1PA     H3S 7145   2.795   4.220   5.113
    1PA     C12 7146   3.005   4.160   5.127
    1PA     H2R 7147   2.972   4.057   5.141
    1PA     H2S 7148   3.081   4.147   5.050
    2PC     C11 7149   3.057   4.225   5.252
    2PC     O12 7150   3.171   4.216   5.292
    2PC     O11 7151   2.956   4.280   5.322
    2PC      C1 7152   2.984   4.335   5.451
    2PC      HR 7153   2.895   4.331   5.515
    2PC      HS 7154   3.059   4.283   5.512
    2PC      C2 7155   3.015   4.485   5.436
    2PC      HX 7156   3.104   4.505   5.376
    2PC      C3 7157   3.035   4.546   5.576
    2PC      HA 7158   3.129   4.498   5.605
    2PC      HB 7159   3.050   4.654   5.575
    2PC     O31 7160   2.930   4.508   5.666
    2PC     P31 7161   2.954   4.542   5.821
    2PC     O32 7162   2.806   4.514   5.875
    2PC     C31 7163   2.769   4.381   5.916
    2PC     H1A 7164   2.744   4.326   5.825
    2PC     H1B 7165   2.855   4.332   5.962
    2PC     C32 7166   2.654   4.385   6.017
    2PC     H2A 7167   2.575   4.444   5.969
    2PC     H2B 7168   2.620   4.283   6.034
    2PC     N31 7169   2.679   4.456   6.147
    2PC     C33 7170   2.571   4.427   6.247
    2PC     H3A 7171   2.556   4.320   6.261
    2PC     H3B 7172   2.585   4.481   6.341
    2PC     H3C 7173   2.485   4.480   6.207
    2PC     C34 7174   2.807   4.419   6.215
    2PC     H4A 7175   2.798   4.456   6.317
    2PC     H4B 7176   2.822   4.311   6.218
    2PC     H4C 7177   2.888   4.461   6.156
    2PC     C35 7178   2.674   4.605   6.128
    2PC     H5A 7179   2.754   4.630   6.059
    2PC     H5B 7180   2.696   4.661   6.219
    2PC     H5C 7181   2.577   4.622   6.080
    2PC     O33 7182   3.060   4.472   5.897
    2PC     O34 7183   2.987   4.683   5.848
    2PC     O21 7184   2.909   4.551   5.365
    2PC     C21 7185   2.926   4.676   5.318
    2PC     O22 7186   3.019   4.751   5.339
    3OL     C12 7187   2.804   4.725   5.244
    3OL     H2R 7188   2.813   4.832   5.225
    3OL     H2S 7189   2.710   4.711   5.297
    3OL     C13 7190   2.791   4.661   5.105
    3OL     H3R 7191   2.800   4.552   5.112
    3OL     H3S 7192   2.876   4.702   5.050
    3OL     C14 7193   2.655   4.700   5.047
    3OL     H4R 7194   2.647   4.809   5.053
    3OL     H4S 7195   2.568   4.665   5.104
    3OL     C15 7196   2.644   4.648   4.903
    3OL     H5R 7197   2.664   4.541   4.906
    3OL     H5S 7198   2.719   4.693   4.837
    3OL     C16 7199   2.501   4.664   4.849
    3OL     H6R 7200   2.476   4.769   4.837
    3OL     H6S 7201   2.438   4.619   4.926
    3OL     C17 7202   2.469   4.591   4.718
    3OL     H7R 7203   2.519   4.494   4.723
    3OL     H7S 7204   2.524   4.640   4.638
    3OL     C18 7205   2.319   4.573   4.689
    3OL     H8R 7206   2.267   4.669   4.692
    3OL     H8S 7207   2.270   4.521   4.771
    3OL     C19 7208   2.291   4.493   4.565
    3OL     H9R 7209   2.284   4.386   4.582
    3OL    C110 7210   2.274   4.537   4.441
    3OL    H10R 7211   2.253   4.459   4.368
    3OL    C111 7212   2.284   4.677   4.387
    3OL    H11R 7213   2.331   4.748   4.455
    3OL    H11S 7214   2.185   4.709   4.355
    3OL    C112 7215   2.374   4.678   4.262
    3OL    H12R 7216   2.330   4.609   4.190
    3OL    H12S 7217   2.474   4.637   4.276
    3OL    C113 7218   2.396   4.823   4.217
    3OL    H13R 7219   2.497   4.826   4.176
    3OL    H13S 7220   2.386   4.882   4.308
    3OL    C114 7221   2.295   4.876   4.114
    3OL    H14R 7222   2.198   4.864   4.164
    3OL    H14S 7223   2.291   4.806   4.031
    3OL    C115 7224   2.316   5.025   4.082
    3OL    H15R 7225   2.250   5.064   4.004
    3OL    H15S 7226   2.419   5.056   4.066
    3OL    C116 7227   2.267   5.110   4.200
    3OL    H16R 7228   2.246   5.051   4.290
    3OL    H16S 7229   2.181   5.174   4.177
    3OL    C117 7230   2.369   5.210   4.256
    3OL    H17R 7231   2.462   5.155   4.273
    3OL    H17S 7232   2.342   5.246   4.355
    3OL    C118 7233   2.385   5.331   4.162
    3OL    H18R 7234   2.455   5.401   4.207
    3OL    H18S 7235   2.288   5.377   4.142
    3OL    H18T 7236   2.421   5.295   4.065
    1PA    C116 7237   1.561   6.769   3.655
    1PA    H16R 7238   1.670   6.776   3.644
    1PA    H16S 7239   1.536   6.852   3.722
    1PA    H16T 7240   1.518   6.769   3.555
    1PA    C115 7241   1.532   6.640   3.733
    1PA    H15R 7242   1.426   6.627   3.710
    1PA    H15S 7243   1.588   6.559   3.686
    1PA    C114 7244   1.560   6.663   3.882
    1PA    H14R 7245   1.656   6.713   3.896
    1PA    H14S 7246   1.486   6.737   3.914
    1PA    C113 7247   1.551   6.541   3.975
    1PA    H13R 7248   1.519   6.590   4.067
    1PA    H13S 7249   1.470   6.472   3.948
    1PA    C112 7250   1.678   6.459   4.002
    1PA    H12R 7251   1.647   6.369   4.056
    1PA    H12S 7252   1.717   6.427   3.905
    1PA    C111 7253   1.785   6.531   4.084
    1PA    H11R 7254   1.883   6.484   4.074
    1PA    H11S 7255   1.795   6.630   4.039
    1PA    C110 7256   1.752   6.547   4.233
    1PA    H10R 7257   1.808   6.630   4.276
    1PA    H10S 7258   1.646   6.560   4.256
    1PA     C19 7259   1.786   6.421   4.315
    1PA     H9R 7260   1.737   6.330   4.282
    1PA     H9S 7261   1.894   6.409   4.302
    1PA     C18 7262   1.758   6.431   4.466
    1PA     H8R 7263   1.840   6.371   4.504
    1PA     H8S 7264   1.769   6.536   4.492
    1PA     C17 7265   1.629   6.359   4.509
    1PA     H7R 7266   1.539   6.407   4.471
    1PA     H7S 7267   1.629   6.260   4.463
    1PA     C16 7268   1.622   6.356   4.662
    1PA     H6R 7269   1.718   6.319   4.700
    1PA     H6S 7270   1.610   6.458   4.698
    1PA     C15 7271   1.505   6.272   4.714
    1PA     H5R 7272   1.410   6.315   4.681
    1PA     H5S 7273   1.515   6.173   4.670
    1PA     C14 7274   1.512   6.260   4.867
    1PA     H4R 7275   1.565   6.345   4.910
    1PA     H4S 7276   1.414   6.261   4.914
    1PA     C13 7277   1.595   6.139   4.912
    1PA     H3R 7278   1.674   6.125   4.839
    1PA     H3S 7279   1.636   6.170   5.008
    1PA     C12 7280   1.517   6.008   4.927
    1PA     H2R 7281   1.436   6.030   4.997
    1PA     H2S 7282   1.471   5.977   4.832
    2PC     C11 7283   1.598   5.889   4.971
    2PC     O12 7284   1.543   5.782   4.984
    2PC     O11 7285   1.726   5.918   4.999
    2PC      C1 7286   1.785   5.819   5.085
    2PC      HR 7287   1.715   5.808   5.169
    2PC      HS 7288   1.807   5.722   5.039
    2PC      C2 7289   1.917   5.862   5.150
    2PC      HX 7290   1.931   5.794   5.234
    2PC      C3 7291   1.912   6.004   5.210
    2PC      HA 7292   1.955   6.059   5.126
    2PC      HB 7293   1.808   6.032   5.229
    2PC     O31 7294   1.996   6.020   5.326
    2PC     P31 7295   1.934   6.009   5.474
    2PC     O32 7296   2.044   5.907   5.532
    2PC     C31 7297   2.001   5.774   5.565
    2PC     H1A 7298   1.935   5.772   5.652
    2PC     H1B 7299   1.943   5.736   5.481
    2PC     C32 7300   2.124   5.683   5.580
    2PC     H2A 7301   2.179   5.685   5.486
    2PC     H2B 7302   2.191   5.717   5.659
    2PC     N31 7303   2.102   5.539   5.617
    2PC     C33 7304   2.236   5.475   5.637
    2PC     H3A 7305   2.232   5.367   5.650
    2PC     H3B 7306   2.302   5.497   5.554
    2PC     H3C 7307   2.289   5.510   5.727
    2PC     C34 7308   2.011   5.526   5.735
    2PC     H4A 7309   1.971   5.426   5.723
    2PC     H4B 7310   2.067   5.520   5.829
    2PC     H4C 7311   1.936   5.606   5.740
    2PC     C35 7312   2.049   5.476   5.492
    2PC     H5A 7313   1.948   5.518   5.485
    2PC     H5B 7314   2.053   5.368   5.504
    2PC     H5C 7315   2.114   5.513   5.413
    2PC     O33 7316   1.952   6.137   5.545
    2PC     O34 7317   1.796   5.956   5.478
    2PC     O21 7318   2.023   5.855   5.054
    2PC     C21 7319   2.148   5.834   5.100
    2PC     O22 7320   2.182   5.817   5.215
    3OL     C12 7321   2.243   5.854   4.985
    3OL     H2R 7322   2.191   5.909   4.907
    3OL     H2S 7323   2.256   5.749   4.956
    3OL     C13 7324   2.374   5.920   5.029
    3OL     H3R 7325   2.432   5.857   5.097
    3OL     H3S 7326   2.353   6.018   5.073
    3OL     C14 7327   2.468   5.930   4.908
    3OL     H4R 7328   2.416   6.008   4.851
    3OL     H4S 7329   2.458   5.842   4.845
    3OL     C15 7330   2.614   5.961   4.942
    3OL     H5R 7331   2.658   5.891   5.014
    3OL     H5S 7332   2.626   6.064   4.978
    3OL     C16 7333   2.692   5.955   4.810
    3OL     H6R 7334   2.652   6.029   4.741
    3OL     H6S 7335   2.683   5.852   4.773
    3OL     C17 7336   2.839   5.977   4.847
    3OL     H7R 7337   2.865   5.910   4.929
    3OL     H7S 7338   2.838   6.074   4.897
    3OL     C18 7339   2.935   5.979   4.727
    3OL     H8R 7340   2.936   5.879   4.682
    3OL     H8S 7341   3.037   5.998   4.760
    3OL     C19 7342   2.882   6.072   4.620
    3OL     H9R 7343   2.807   6.036   4.551
    3OL    C110 7344   2.928   6.192   4.589
    3OL    H10R 7345   2.880   6.250   4.512
    3OL    C111 7346   3.023   6.270   4.676
    3OL    H11R 7347   3.028   6.224   4.775
    3OL    H11S 7348   2.973   6.364   4.703
    3OL    C112 7349   3.157   6.324   4.621
    3OL    H12R 7350   3.134   6.391   4.538
    3OL    H12S 7351   3.221   6.247   4.578
    3OL    C113 7352   3.233   6.389   4.738
    3OL    H13R 7353   3.261   6.307   4.804
    3OL    H13S 7354   3.165   6.457   4.789
    3OL    C114 7355   3.360   6.463   4.695
    3OL    H14R 7356   3.389   6.525   4.781
    3OL    H14S 7357   3.330   6.536   4.619
    3OL    C115 7358   3.475   6.376   4.644
    3OL    H15R 7359   3.448   6.325   4.552
    3OL    H15S 7360   3.502   6.298   4.716
    3OL    C116 7361   3.608   6.445   4.611
    3OL    H16R 7362   3.598   6.514   4.528
    3OL    H16S 7363   3.686   6.376   4.578
    3OL    C117 7364   3.665   6.518   4.734
    3OL    H17R 7365   3.658   6.460   4.826
    3OL    H17S 7366   3.607   6.610   4.747
    3OL    C118 7367   3.810   6.560   4.707
    3OL    H18R 7368   3.811   6.630   4.623
    3OL    H18S 7369   3.865   6.469   4.681
    3OL    H18T 7370   3.855   6.608   4.794
    1PA    C116 7371   3.596   4.792   4.519
    1PA    H16R 7372   3.599   4.900   4.530
    1PA    H16S 7373   3.541   4.768   4.427
    1PA    H16T 7374   3.698   4.756   4.502
    1PA    C115 7375   3.535   4.733   4.647
    1PA    H15R 7376   3.595   4.765   4.733
    1PA    H15S 7377   3.435   4.775   4.653
    1PA    C114 7378   3.524   4.580   4.639
    1PA    H14R 7379   3.618   4.527   4.654
    1PA    H14S 7380   3.469   4.572   4.733
    1PA    C113 7381   3.437   4.521   4.526
    1PA    H13R 7382   3.339   4.567   4.537
    1PA    H13S 7383   3.479   4.555   4.431
    1PA    C112 7384   3.441   4.369   4.551
    1PA    H12R 7385   3.547   4.346   4.537
    1PA    H12S 7386   3.399   4.345   4.649
    1PA    C111 7387   3.366   4.292   4.442
    1PA    H11R 7388   3.258   4.311   4.445
    1PA    H11S 7389   3.411   4.320   4.346
    1PA    C110 7390   3.380   4.140   4.458
    1PA    H10R 7391   3.348   4.095   4.363
    1PA    H10S 7392   3.487   4.120   4.469
    1PA     C19 7393   3.287   4.098   4.572
    1PA     H9R 7394   3.336   4.117   4.667
    1PA     H9S 7395   3.199   4.163   4.566
    1PA     C18 7396   3.245   3.950   4.569
    1PA     H8R 7397   3.182   3.931   4.656
    1PA     H8S 7398   3.178   3.939   4.483
    1PA     C17 7399   3.362   3.850   4.576
    1PA     H7R 7400   3.322   3.753   4.607
    1PA     H7S 7401   3.395   3.837   4.473
    1PA     C16 7402   3.469   3.878   4.681
    1PA     H6R 7403   3.516   3.975   4.666
    1PA     H6S 7404   3.415   3.893   4.774
    1PA     C15 7405   3.578   3.770   4.686
    1PA     H5R 7406   3.575   3.695   4.606
    1PA     H5S 7407   3.676   3.819   4.683
    1PA     C14 7408   3.574   3.682   4.812
    1PA     H4R 7409   3.579   3.748   4.898
    1PA     H4S 7410   3.480   3.627   4.803
    1PA     C13 7411   3.686   3.579   4.835
    1PA     H3R 7412   3.665   3.525   4.928
    1PA     H3S 7413   3.705   3.524   4.742
    1PA     C12 7414   3.809   3.661   4.877
    1PA     H2R 7415   3.832   3.733   4.798
    1PA     H2S 7416   3.786   3.713   4.969
    2PC     C11 7417   3.926   3.570   4.904
    2PC     O12 7418   3.931   3.450   4.884
    2PC     O11 7419   4.035   3.631   4.954
    2PC      C1 7420   4.155   3.565   4.999
    2PC      HR 7421   4.134   3.485   5.070
    2PC      HS 7422   4.192   3.519   4.907
    2PC      C2 7423   4.260   3.658   5.061
    2PC      HX 7424   4.348   3.596   5.084
    2PC      C3 7425   4.196   3.732   5.179
    2PC      HA 7426   4.110   3.786   5.140
    2PC      HB 7427   4.150   3.661   5.248
    2PC     O31 7428   4.291   3.813   5.251
    2PC     P31 7429   4.247   3.870   5.394
    2PC     O32 7430   4.379   3.952   5.431
    2PC     C31 7431   4.430   3.935   5.565
    2PC     H1A 7432   4.349   3.954   5.636
    2PC     H1B 7433   4.453   3.829   5.577
    2PC     C32 7434   4.542   4.035   5.597
    2PC     H2A 7435   4.506   4.133   5.566
    2PC     H2B 7436   4.563   4.042   5.704
    2PC     N31 7437   4.675   4.005   5.534
    2PC     C33 7438   4.663   3.936   5.401
    2PC     H3A 7439   4.758   3.905   5.358
    2PC     H3B 7440   4.605   3.845   5.421
    2PC     H3C 7441   4.608   4.008   5.341
    2PC     C34 7442   4.752   4.132   5.522
    2PC     H4A 7443   4.849   4.124   5.472
    2PC     H4B 7444   4.688   4.196   5.460
    2PC     H4C 7445   4.764   4.190   5.614
    2PC     C35 7446   4.749   3.917   5.630
    2PC     H5A 7447   4.674   3.847   5.666
    2PC     H5B 7448   4.780   3.974   5.717
    2PC     H5C 7449   4.835   3.869   5.583
    2PC     O33 7450   4.125   3.952   5.408
    2PC     O34 7451   4.236   3.756   5.488
    2PC     O21 7452   4.305   3.763   4.974
    2PC     C21 7453   4.390   3.739   4.873
    2PC     O22 7454   4.425   3.626   4.847
    3OL     C12 7455   4.417   3.858   4.784
    3OL     H2R 7456   4.524   3.872   4.772
    3OL     H2S 7457   4.376   3.951   4.824
    3OL     C13 7458   4.351   3.830   4.649
    3OL     H3R 7459   4.370   3.727   4.616
    3OL     H3S 7460   4.387   3.893   4.567
    3OL     C14 7461   4.198   3.837   4.663
    3OL     H4R 7462   4.175   3.938   4.698
    3OL     H4S 7463   4.168   3.763   4.738
    3OL     C15 7464   4.132   3.795   4.531
    3OL     H5R 7465   4.182   3.716   4.475
    3OL     H5S 7466   4.116   3.882   4.468
    3OL     C16 7467   3.989   3.750   4.566
    3OL     H6R 7468   3.937   3.845   4.581
    3OL     H6S 7469   3.982   3.682   4.650
    3OL     C17 7470   3.917   3.685   4.447
    3OL     H7R 7471   3.949   3.736   4.355
    3OL     H7S 7472   3.809   3.699   4.447
    3OL     C18 7473   3.944   3.533   4.443
    3OL     H8R 7474   3.894   3.495   4.532
    3OL     H8S 7475   4.050   3.510   4.437
    3OL     C19 7476   3.873   3.483   4.319
    3OL     H9R 7477   3.903   3.536   4.229
    3OL    C110 7478   3.783   3.386   4.322
    3OL    H10R 7479   3.722   3.358   4.237
    3OL    C111 7480   3.759   3.299   4.443
    3OL    H11R 7481   3.833   3.306   4.524
    3OL    H11S 7482   3.765   3.194   4.414
    3OL    C112 7483   3.619   3.330   4.497
    3OL    H12R 7484   3.547   3.333   4.415
    3OL    H12S 7485   3.620   3.427   4.547
    3OL    C113 7486   3.576   3.231   4.607
    3OL    H13R 7487   3.646   3.217   4.689
    3OL    H13S 7488   3.566   3.134   4.558
    3OL    C114 7489   3.438   3.272   4.659
    3OL    H14R 7490   3.365   3.250   4.581
    3OL    H14S 7491   3.427   3.380   4.671
    3OL    C115 7492   3.398   3.187   4.781
    3OL    H15R 7493   3.469   3.198   4.863
    3OL    H15S 7494   3.404   3.082   4.750
    3OL    C116 7495   3.250   3.218   4.810
    3OL    H16R 7496   3.214   3.138   4.875
    3OL    H16S 7497   3.204   3.211   4.712
    3OL    C117 7498   3.237   3.348   4.890
    3OL    H17R 7499   3.271   3.437   4.837
    3OL    H17S 7500   3.301   3.349   4.978
    3OL    C118 7501   3.095   3.360   4.946
    3OL    H18R 7502   3.086   3.457   4.996
    3OL    H18S 7503   3.068   3.279   5.014
    3OL    H18T 7504   3.028   3.360   4.860
    1PA    C116 7505   5.506   1.030   3.861
    1PA    H16R 7506   5.578   1.091   3.806
    1PA    H16S 7507   5.452   1.099   3.925
    1PA    H16T 7508   5.431   0.988   3.793
    1PA    C115 7509   5.565   0.912   3.940
    1PA    H15R 7510   5.614   0.840   3.874
    1PA    H15S 7511   5.649   0.950   3.999
    1PA    C114 7512   5.454   0.846   4.023
    1PA    H14R 7513   5.367   0.911   4.036
    1PA    H14S 7514   5.413   0.761   3.968
    1PA    C113 7515   5.500   0.797   4.161
    1PA    H13R 7516   5.425   0.725   4.195
    1PA    H13S 7517   5.602   0.760   4.156
    1PA    C112 7518   5.496   0.915   4.260
    1PA    H12R 7519   5.576   0.985   4.234
    1PA    H12S 7520   5.402   0.971   4.254
    1PA    C111 7521   5.517   0.863   4.403
    1PA    H11R 7522   5.598   0.791   4.419
    1PA    H11S 7523   5.551   0.949   4.463
    1PA    C110 7524   5.384   0.804   4.450
    1PA    H10R 7525   5.306   0.880   4.452
    1PA    H10S 7526   5.347   0.725   4.384
    1PA     C19 7527   5.401   0.744   4.590
    1PA     H9R 7528   5.470   0.660   4.591
    1PA     H9S 7529   5.438   0.818   4.662
    1PA     C18 7530   5.266   0.694   4.645
    1PA     H8R 7531   5.195   0.776   4.628
    1PA     H8S 7532   5.240   0.611   4.578
    1PA     C17 7533   5.281   0.654   4.792
    1PA     H7R 7534   5.340   0.562   4.783
    1PA     H7S 7535   5.335   0.732   4.846
    1PA     C16 7536   5.146   0.630   4.860
    1PA     H6R 7537   5.079   0.715   4.849
    1PA     H6S 7538   5.099   0.542   4.815
    1PA     C15 7539   5.157   0.614   5.013
    1PA     H5R 7540   5.198   0.516   5.038
    1PA     H5S 7541   5.210   0.699   5.057
    1PA     C14 7542   5.020   0.594   5.079
    1PA     H4R 7543   4.959   0.684   5.065
    1PA     H4S 7544   4.982   0.505   5.029
    1PA     C13 7545   5.037   0.584   5.231
    1PA     H3R 7546   5.054   0.478   5.255
    1PA     H3S 7547   5.129   0.631   5.266
    1PA     C12 7548   4.922   0.636   5.318
    1PA     H2R 7549   4.922   0.745   5.312
    1PA     H2S 7550   4.831   0.577   5.303
    2PC     C11 7551   4.955   0.617   5.464
    2PC     O12 7552   5.063   0.648   5.510
    2PC     O11 7553   4.861   0.551   5.534
    2PC      C1 7554   4.908   0.487   5.653
    2PC      HR 7555   4.999   0.436   5.619
    2PC      HS 7556   4.937   0.561   5.728
    2PC      C2 7557   4.799   0.384   5.690
    2PC      HX 7558   4.701   0.430   5.682
    2PC      C3 7559   4.813   0.330   5.833
    2PC      HA 7560   4.901   0.265   5.839
    2PC      HB 7561   4.830   0.413   5.902
    2PC     O31 7562   4.695   0.260   5.876
    2PC     P31 7563   4.703   0.202   6.026
    2PC     O32 7564   4.548   0.172   6.050
    2PC     C31 7565   4.452   0.279   6.051
    2PC     H1A 7566   4.451   0.310   6.156
    2PC     H1B 7567   4.480   0.356   5.978
    2PC     C32 7568   4.313   0.231   6.010
    2PC     H2A 7569   4.286   0.144   6.071
    2PC     H2B 7570   4.242   0.311   6.031
    2PC     N31 7571   4.299   0.188   5.867
    2PC     C33 7572   4.158   0.145   5.839
    2PC     H3A 7573   4.130   0.051   5.887
    2PC     H3B 7574   4.084   0.219   5.871
    2PC     H3C 7575   4.147   0.134   5.731
    2PC     C34 7576   4.334   0.303   5.778
    2PC     H4A 7577   4.443   0.312   5.767
    2PC     H4B 7578   4.295   0.274   5.680
    2PC     H4C 7579   4.292   0.392   5.823
    2PC     C35 7580   4.385   0.073   5.825
    2PC     H5A 7581   4.486   0.096   5.858
    2PC     H5B 7582   4.372   0.058   5.718
    2PC     H5C 7583   4.346  -0.013   5.879
    2PC     O33 7584   4.760   0.066   6.018
    2PC     O34 7585   4.776   0.291   6.118
    2PC     O21 7586   4.806   0.267   5.607
    2PC     C21 7587   4.694   0.196   5.585
    2PC     O22 7588   4.581   0.223   5.622
    3OL     C12 7589   4.722   0.073   5.502
    3OL     H2R 7590   4.638   0.008   5.528
    3OL     H2S 7591   4.818   0.033   5.536
    3OL     C13 7592   4.712   0.093   5.350
    3OL     H3R 7593   4.610   0.117   5.317
    3OL     H3S 7594   4.730   0.000   5.295
    3OL     C14 7595   4.814   0.192   5.292
    3OL     H4R 7596   4.902   0.193   5.355
    3OL     H4S 7597   4.760   0.286   5.302
    3OL     C15 7598   4.841   0.153   5.146
    3OL     H5R 7599   4.868   0.247   5.096
    3OL     H5S 7600   4.755   0.107   5.097
    3OL     C16 7601   4.966   0.064   5.141
    3OL     H6R 7602   4.955  -0.025   5.203
    3OL     H6S 7603   5.053   0.118   5.177
    3OL     C17 7604   4.977   0.011   4.997
    3OL     H7R 7605   4.879  -0.005   4.950
    3OL     H7S 7606   5.034  -0.080   4.983
    3OL     C18 7607   5.052   0.120   4.919
    3OL     H8R 7608   5.155   0.121   4.955
    3OL     H8S 7609   4.997   0.214   4.925
    3OL     C19 7610   5.056   0.092   4.771
    3OL     H9R 7611   5.006   0.001   4.739
    3OL    C110 7612   5.129   0.158   4.683
    3OL    H10R 7613   5.138   0.115   4.584
    3OL    C111 7614   5.212   0.282   4.706
    3OL    H11R 7615   5.203   0.323   4.807
    3OL    H11S 7616   5.154   0.352   4.645
    3OL    C112 7617   5.360   0.285   4.664
    3OL    H12R 7618   5.414   0.212   4.723
    3OL    H12S 7619   5.414   0.379   4.673
    3OL    C113 7620   5.372   0.250   4.515
    3OL    H13R 7621   5.331   0.333   4.456
    3OL    H13S 7622   5.323   0.156   4.489
    3OL    C114 7623   5.521   0.234   4.482
    3OL    H14R 7624   5.566   0.144   4.526
    3OL    H14S 7625   5.584   0.312   4.526
    3OL    C115 7626   5.553   0.234   4.332
    3OL    H15R 7627   5.660   0.249   4.317
    3OL    H15S 7628   5.504   0.316   4.280
    3OL    C116 7629   5.523   0.102   4.259
    3OL    H16R 7630   5.417   0.085   4.279
    3OL    H16S 7631   5.580   0.020   4.301
    3OL    C117 7632   5.566   0.110   4.112
    3OL    H17R 7633   5.674   0.129   4.112
    3OL    H17S 7634   5.532   0.206   4.072
    3OL    C118 7635   5.534  -0.016   4.030
    3OL    H18R 7636   5.588  -0.100   4.074
    3OL    H18S 7637   5.576  -0.015   3.929
    3OL    H18T 7638   5.426  -0.028   4.026
    1PA    C116 7639   4.916   4.377   3.885
    1PA    H16R 7640   4.838   4.327   3.944
    1PA    H16S 7641   4.989   4.309   3.842
    1PA    H16T 7642   4.869   4.430   3.802
    1PA    C115 7643   4.984   4.488   3.966
    1PA    H15R 7644   5.029   4.568   3.907
    1PA    H15S 7645   4.902   4.530   4.025
    1PA    C114 7646   5.088   4.422   4.058
    1PA    H14R 7647   5.020   4.371   4.127
    1PA    H14S 7648   5.142   4.344   4.005
    1PA    C113 7649   5.177   4.527   4.125
    1PA    H13R 7650   5.221   4.584   4.043
    1PA    H13S 7651   5.108   4.592   4.181
    1PA    C112 7652   5.280   4.454   4.212
    1PA    H12R 7653   5.229   4.371   4.262
    1PA    H12S 7654   5.359   4.421   4.144
    1PA    C111 7655   5.337   4.551   4.316
    1PA    H11R 7656   5.386   4.636   4.269
    1PA    H11S 7657   5.259   4.596   4.377
    1PA    C110 7658   5.443   4.484   4.406
    1PA    H10R 7659   5.388   4.401   4.451
    1PA    H10S 7660   5.520   4.442   4.341
    1PA     C19 7661   5.510   4.582   4.503
    1PA     H9R 7662   5.582   4.532   4.568
    1PA     H9S 7663   5.561   4.657   4.443
    1PA     C18 7664   5.411   4.656   4.594
    1PA     H8R 7665   5.326   4.713   4.556
    1PA     H8S 7666   5.367   4.580   4.660
    1PA     C17 7667   5.487   4.759   4.678
    1PA     H7R 7668   5.574   4.711   4.724
    1PA     H7S 7669   5.533   4.833   4.612
    1PA     C16 7670   5.383   4.820   4.773
    1PA     H6R 7671   5.290   4.843   4.719
    1PA     H6S 7672   5.356   4.736   4.837
    1PA     C15 7673   5.440   4.936   4.855
    1PA     H5R 7674   5.535   4.905   4.897
    1PA     H5S 7675   5.459   5.015   4.782
    1PA     C14 7676   5.343   4.995   4.959
    1PA     H4R 7677   5.248   5.010   4.907
    1PA     H4S 7678   5.327   4.920   5.037
    1PA     C13 7679   5.386   5.127   5.024
    1PA     H3R 7680   5.486   5.115   5.068
    1PA     H3S 7681   5.402   5.198   4.943
    1PA     C12 7682   5.297   5.188   5.133
    1PA     H2R 7683   5.315   5.295   5.144
    1PA     H2S 7684   5.195   5.175   5.097
    2PC     C11 7685   5.310   5.134   5.273
    2PC     O12 7686   5.277   5.022   5.303
    2PC     O11 7687   5.358   5.228   5.356
    2PC      C1 7688   5.381   5.195   5.494
    2PC      HR 7689   5.409   5.280   5.558
    2PC      HS 7690   5.293   5.150   5.541
    2PC      C2 7691   5.499   5.097   5.489
    2PC      HX 7692   5.468   5.004   5.442
    2PC      C3 7693   5.536   5.062   5.634
    2PC      HA 7694   5.452   5.008   5.680
    2PC      HB 7695   5.615   4.986   5.632
    2PC     O31 7696   5.562   5.179   5.712
    2PC     P31 7697   5.631   5.151   5.854
    2PC     O32 7698   5.615   5.292   5.927
    2PC     C31 7699   5.519   5.388   5.879
    2PC     H1A 7700   5.560   5.449   5.798
    2PC     H1B 7701   5.430   5.338   5.840
    2PC     C32 7702   5.481   5.478   5.997
    2PC     H2A 7703   5.572   5.508   6.049
    2PC     H2B 7704   5.425   5.562   5.957
    2PC     N31 7705   5.393   5.406   6.095
    2PC     C33 7706   5.338   5.503   6.194
    2PC     H3A 7707   5.303   5.587   6.133
    2PC     H3B 7708   5.255   5.454   6.245
    2PC     H3C 7709   5.416   5.542   6.260
    2PC     C34 7710   5.274   5.356   6.018
    2PC     H4A 7711   5.245   5.428   5.941
    2PC     H4B 7712   5.289   5.260   5.969
    2PC     H4C 7713   5.203   5.336   6.098
    2PC     C35 7714   5.462   5.297   6.171
    2PC     H5A 7715   5.395   5.254   6.246
    2PC     H5B 7716   5.544   5.342   6.227
    2PC     H5C 7717   5.492   5.219   6.101
    2PC     O33 7718   5.569   5.042   5.934
    2PC     O34 7719   5.768   5.097   5.833
    2PC     O21 7720   5.614   5.157   5.426
    2PC     C21 7721   5.697   5.079   5.356
    2PC     O22 7722   5.698   4.957   5.348
    3OL     C12 7723   5.813   5.156   5.299
    3OL     H2R 7724   5.900   5.093   5.319
    3OL     H2S 7725   5.819   5.255   5.345
    3OL     C13 7726   5.802   5.183   5.148
    3OL     H3R 7727   5.891   5.237   5.116
    3OL     H3S 7728   5.700   5.218   5.134
    3OL     C14 7729   5.815   5.061   5.056
    3OL     H4R 7730   5.791   5.081   4.951
    3OL     H4S 7731   5.739   4.990   5.087
    3OL     C15 7732   5.941   4.977   5.080
    3OL     H5R 7733   5.935   4.934   5.180
    3OL     H5S 7734   6.031   5.036   5.063
    3OL     C16 7735   5.936   4.861   4.979
    3OL     H6R 7736   6.022   4.796   4.999
    3OL     H6S 7737   5.940   4.900   4.878
    3OL     C17 7738   5.809   4.776   4.992
    3OL     H7R 7739   5.723   4.828   4.950
    3OL     H7S 7740   5.802   4.761   5.100
    3OL     C18 7741   5.810   4.650   4.905
    3OL     H8R 7742   5.783   4.662   4.800
    3OL     H8S 7743   5.742   4.574   4.942
    3OL     C19 7744   5.936   4.567   4.912
    3OL     H9R 7745   5.966   4.535   5.012
    3OL    C110 7746   6.012   4.531   4.810
    3OL    H10R 7747   6.101   4.474   4.838
    3OL    C111 7748   5.995   4.576   4.667
    3OL    H11R 7749   5.889   4.596   4.648
    3OL    H11S 7750   6.019   4.490   4.605
    3OL    C112 7751   6.084   4.694   4.628
    3OL    H12R 7752   6.189   4.666   4.641
    3OL    H12S 7753   6.059   4.779   4.693
    3OL    C113 7754   6.058   4.743   4.485
    3OL    H13R 7755   6.100   4.670   4.416
    3OL    H13S 7756   6.112   4.837   4.473
    3OL    C114 7757   5.914   4.772   4.441
    3OL    H14R 7758   5.844   4.696   4.477
    3OL    H14S 7759   5.900   4.786   4.334
    3OL    C115 7760   5.864   4.904   4.502
    3OL    H15R 7761   5.944   4.978   4.495
    3OL    H15S 7762   5.852   4.883   4.608
    3OL    C116 7763   5.732   4.945   4.436
    3OL    H16R 7764   5.651   4.875   4.459
    3OL    H16S 7765   5.738   4.945   4.327
    3OL    C117 7766   5.693   5.086   4.484
    3OL    H17R 7767   5.766   5.159   4.448
    3OL    H17S 7768   5.689   5.100   4.592
    3OL    C118 7769   5.549   5.112   4.438
    3OL    H18R 7770   5.480   5.076   4.515
    3OL    H18S 7771   5.529   5.055   4.347
    3OL    H18T 7772   5.531   5.219   4.425
    1PA    C116 7773   5.061   0.775   3.540
    1PA    H16R 7774   5.026   0.678   3.506
    1PA    H16S 7775   5.139   0.805   3.469
    1PA    H16T 7776   4.975   0.840   3.525
    1PA    C115 7777   5.119   0.792   3.681
    1PA    H15R 7778   5.186   0.714   3.717
    1PA    H15S 7779   5.176   0.885   3.688
    1PA    C114 7780   5.002   0.803   3.781
    1PA    H14R 7781   4.940   0.887   3.748
    1PA    H14S 7782   4.936   0.717   3.775
    1PA    C113 7783   5.061   0.825   3.921
    1PA    H13R 7784   5.103   0.728   3.949
    1PA    H13S 7785   5.139   0.901   3.930
    1PA    C112 7786   4.948   0.849   4.022
    1PA    H12R 7787   4.896   0.941   3.992
    1PA    H12S 7788   4.877   0.766   4.018
    1PA    C111 7789   4.997   0.875   4.165
    1PA    H11R 7790   5.044   0.786   4.208
    1PA    H11S 7791   5.064   0.961   4.177
    1PA    C110 7792   4.876   0.917   4.249
    1PA    H10R 7793   4.834   1.010   4.209
    1PA    H10S 7794   4.800   0.841   4.227
    1PA     C19 7795   4.912   0.927   4.398
    1PA     H9R 7796   4.960   0.829   4.411
    1PA     H9S 7797   4.988   1.003   4.420
    1PA     C18 7798   4.788   0.937   4.487
    1PA     H8R 7799   4.729   1.025   4.459
    1PA     H8S 7800   4.732   0.843   4.477
    1PA     C17 7801   4.841   0.957   4.629
    1PA     H7R 7802   4.935   0.905   4.652
    1PA     H7S 7803   4.851   1.066   4.639
    1PA     C16 7804   4.736   0.892   4.721
    1PA     H6R 7805   4.635   0.931   4.704
    1PA     H6S 7806   4.721   0.786   4.699
    1PA     C15 7807   4.783   0.894   4.867
    1PA     H5R 7808   4.728   0.820   4.926
    1PA     H5S 7809   4.890   0.876   4.867
    1PA     C14 7810   4.763   1.025   4.944
    1PA     H4R 7811   4.832   1.021   5.029
    1PA     H4S 7812   4.781   1.114   4.884
    1PA     C13 7813   4.622   1.036   5.004
    1PA     H3R 7814   4.550   1.029   4.922
    1PA     H3S 7815   4.609   0.955   5.076
    1PA     C12 7816   4.601   1.169   5.077
    1PA     H2R 7817   4.678   1.174   5.155
    1PA     H2S 7818   4.610   1.254   5.010
    2PC     C11 7819   4.463   1.166   5.138
    2PC     O12 7820   4.357   1.174   5.079
    2PC     O11 7821   4.469   1.144   5.270
    2PC      C1 7822   4.354   1.158   5.355
    2PC      HR 7823   4.264   1.131   5.299
    2PC      HS 7824   4.385   1.096   5.440
    2PC      C2 7825   4.334   1.302   5.406
    2PC      HX 7826   4.419   1.349   5.456
    2PC      C3 7827   4.226   1.298   5.515
    2PC      HA 7828   4.203   1.402   5.538
    2PC      HB 7829   4.136   1.239   5.496
    2PC     O31 7830   4.290   1.225   5.622
    2PC     P31 7831   4.217   1.211   5.764
    2PC     O32 7832   4.111   1.096   5.729
    2PC     C31 7833   4.159   0.964   5.695
    2PC     H1A 7834   4.223   0.956   5.607
    2PC     H1B 7835   4.216   0.926   5.780
    2PC     C32 7836   4.043   0.865   5.678
    2PC     H2A 7837   3.959   0.875   5.748
    2PC     H2B 7838   4.012   0.877   5.574
    2PC     N31 7839   4.074   0.720   5.699
    2PC     C33 7840   4.191   0.679   5.615
    2PC     H3A 7841   4.285   0.728   5.643
    2PC     H3B 7842   4.193   0.571   5.633
    2PC     H3C 7843   4.186   0.713   5.512
    2PC     C34 7844   4.123   0.704   5.839
    2PC     H4A 7845   4.129   0.597   5.858
    2PC     H4B 7846   4.228   0.735   5.843
    2PC     H4C 7847   4.055   0.752   5.909
    2PC     C35 7848   3.955   0.632   5.670
    2PC     H5A 7849   3.868   0.661   5.730
    2PC     H5B 7850   3.985   0.532   5.701
    2PC     H5C 7851   3.935   0.621   5.563
    2PC     O33 7852   4.305   1.163   5.872
    2PC     O34 7853   4.147   1.333   5.809
    2PC     O21 7854   4.285   1.393   5.306
    2PC     C21 7855   4.373   1.448   5.221
    2PC     O22 7856   4.493   1.440   5.236
    3OL     C12 7857   4.311   1.511   5.098
    3OL     H2R 7858   4.217   1.558   5.126
    3OL     H2S 7859   4.277   1.433   5.030
    3OL     C13 7860   4.386   1.623   5.024
    3OL     H3R 7861   4.481   1.582   4.988
    3OL     H3S 7862   4.417   1.706   5.088
    3OL     C14 7863   4.300   1.674   4.908
    3OL     H4R 7864   4.207   1.717   4.948
    3OL     H4S 7865   4.286   1.586   4.846
    3OL     C15 7866   4.366   1.793   4.837
    3OL     H5R 7867   4.473   1.776   4.829
    3OL     H5S 7868   4.346   1.876   4.906
    3OL     C16 7869   4.294   1.828   4.706
    3OL     H6R 7870   4.292   1.934   4.684
    3OL     H6S 7871   4.189   1.797   4.700
    3OL     C17 7872   4.363   1.752   4.592
    3OL     H7R 7873   4.348   1.645   4.605
    3OL     H7S 7874   4.470   1.771   4.587
    3OL     C18 7875   4.296   1.775   4.456
    3OL     H8R 7876   4.194   1.736   4.459
    3OL     H8S 7877   4.346   1.715   4.379
    3OL     C19 7878   4.315   1.917   4.407
    3OL     H9R 7879   4.418   1.949   4.411
    3OL    C110 7880   4.228   1.989   4.338
    3OL    H10R 7881   4.259   2.086   4.300
    3OL    C111 7882   4.085   1.945   4.319
    3OL    H11R 7883   4.080   1.836   4.312
    3OL    H11S 7884   4.046   1.990   4.228
    3OL    C112 7885   4.002   1.988   4.441
    3OL    H12R 7886   3.996   2.096   4.456
    3OL    H12S 7887   4.036   1.944   4.536
    3OL    C113 7888   3.858   1.944   4.412
    3OL    H13R 7889   3.858   1.835   4.399
    3OL    H13S 7890   3.833   1.996   4.320
    3OL    C114 7891   3.749   1.984   4.512
    3OL    H14R 7892   3.651   1.960   4.468
    3OL    H14S 7893   3.748   2.093   4.523
    3OL    C115 7894   3.765   1.911   4.646
    3OL    H15R 7895   3.850   1.946   4.706
    3OL    H15S 7896   3.778   1.803   4.633
    3OL    C116 7897   3.644   1.950   4.731
    3OL    H16R 7898   3.601   2.042   4.692
    3OL    H16S 7899   3.679   1.974   4.832
    3OL    C117 7900   3.543   1.835   4.738
    3OL    H17R 7901   3.579   1.760   4.809
    3OL    H17S 7902   3.520   1.790   4.641
    3OL    C118 7903   3.418   1.894   4.804
    3OL    H18R 7904   3.388   1.974   4.736
    3OL    H18S 7905   3.436   1.930   4.905
    3OL    H18T 7906   3.333   1.826   4.805
    1PA    C116 7907   4.187   5.253   3.931
    1PA    H16R 7908   4.215   5.305   4.023
    1PA    H16S 7909   4.222   5.327   3.859
    1PA    H16T 7910   4.248   5.162   3.942
    1PA    C115 7911   4.038   5.217   3.922
    1PA    H15R 7912   4.025   5.185   3.818
    1PA    H15S 7913   4.024   5.132   3.989
    1PA    C114 7914   3.943   5.330   3.964
    1PA    H14R 7915   3.972   5.420   3.910
    1PA    H14S 7916   3.845   5.301   3.927
    1PA    C113 7917   3.935   5.368   4.112
    1PA    H13R 7918   4.039   5.387   4.136
    1PA    H13S 7919   3.878   5.457   4.138
    1PA    C112 7920   3.877   5.255   4.199
    1PA    H12R 7921   3.780   5.217   4.167
    1PA    H12S 7922   3.940   5.167   4.184
    1PA    C111 7923   3.863   5.304   4.344
    1PA    H11R 7924   3.858   5.211   4.402
    1PA    H11S 7925   3.955   5.348   4.382
    1PA    C110 7926   3.732   5.382   4.365
    1PA    H10R 7927   3.740   5.486   4.333
    1PA    H10S 7928   3.652   5.327   4.313
    1PA     C19 7929   3.693   5.389   4.513
    1PA     H9R 7930   3.714   5.290   4.554
    1PA     H9S 7931   3.763   5.457   4.562
    1PA     C18 7932   3.547   5.426   4.544
    1PA     H8R 7933   3.525   5.525   4.503
    1PA     H8S 7934   3.488   5.356   4.485
    1PA     C17 7935   3.515   5.412   4.693
    1PA     H7R 7936   3.415   5.375   4.714
    1PA     H7S 7937   3.584   5.336   4.730
    1PA     C16 7938   3.545   5.542   4.770
    1PA     H6R 7939   3.632   5.595   4.731
    1PA     H6S 7940   3.455   5.604   4.763
    1PA     C15 7941   3.570   5.519   4.919
    1PA     H5R 7942   3.483   5.481   4.973
    1PA     H5S 7943   3.649   5.443   4.930
    1PA     C14 7944   3.618   5.642   4.998
    1PA     H4R 7945   3.699   5.700   4.954
    1PA     H4S 7946   3.535   5.712   5.009
    1PA     C13 7947   3.653   5.604   5.143
    1PA     H3R 7948   3.564   5.587   5.204
    1PA     H3S 7949   3.729   5.527   5.152
    1PA     C12 7950   3.706   5.732   5.209
    1PA     H2R 7951   3.803   5.758   5.165
    1PA     H2S 7952   3.637   5.814   5.192
    2PC     C11 7953   3.727   5.721   5.358
    2PC     O12 7954   3.812   5.654   5.415
    2PC     O11 7955   3.628   5.788   5.419
    2PC      C1 7956   3.625   5.773   5.562
    2PC      HR 7957   3.701   5.708   5.608
    2PC      HS 7958   3.619   5.869   5.614
    2PC      C2 7959   3.496   5.694   5.588
    2PC      HX 7960   3.417   5.741   5.528
    2PC      C3 7961   3.468   5.672   5.737
    2PC      HA 7962   3.497   5.757   5.799
    2PC      HB 7963   3.361   5.653   5.746
    2PC     O31 7964   3.538   5.552   5.777
    2PC     P31 7965   3.544   5.513   5.932
    2PC     O32 7966   3.411   5.430   5.963
    2PC     C31 7967   3.397   5.311   5.882
    2PC     H1A 7968   3.380   5.334   5.777
    2PC     H1B 7969   3.486   5.250   5.899
    2PC     C32 7970   3.275   5.232   5.932
    2PC     H2A 7971   3.291   5.221   6.040
    2PC     H2B 7972   3.185   5.291   5.916
    2PC     N31 7973   3.259   5.091   5.885
    2PC     C33 7974   3.231   5.100   5.738
    2PC     H3A 7975   3.323   5.135   5.691
    2PC     H3B 7976   3.210   4.999   5.700
    2PC     H3C 7977   3.147   5.164   5.709
    2PC     C34 7978   3.380   5.005   5.903
    2PC     H4A 7979   3.433   4.992   5.808
    2PC     H4B 7980   3.448   5.060   5.968
    2PC     H4C 7981   3.359   4.907   5.946
    2PC     C35 7982   3.145   5.032   5.962
    2PC     H5A 7983   3.121   4.934   5.921
    2PC     H5B 7984   3.060   5.100   5.956
    2PC     H5C 7985   3.173   5.022   6.067
    2PC     O33 7986   3.662   5.430   5.964
    2PC     O34 7987   3.567   5.633   6.017
    2PC     O21 7988   3.520   5.567   5.525
    2PC     C21 7989   3.428   5.470   5.534
    2PC     O22 7990   3.317   5.478   5.582
    3OL     C12 7991   3.481   5.351   5.458
    3OL     H2R 7992   3.531   5.283   5.528
    3OL     H2S 7993   3.554   5.394   5.388
    3OL     C13 7994   3.372   5.277   5.380
    3OL     H3R 7995   3.305   5.342   5.324
    3OL     H3S 7996   3.312   5.233   5.461
    3OL     C14 7997   3.429   5.166   5.291
    3OL     H4R 7998   3.352   5.098   5.253
    3OL     H4S 7999   3.489   5.097   5.351
    3OL     C15 8000   3.518   5.214   5.175
    3OL     H5R 8001   3.600   5.275   5.214
    3OL     H5S 8002   3.463   5.284   5.112
    3OL     C16 8003   3.572   5.096   5.094
    3OL     H6R 8004   3.618   5.025   5.162
    3OL     H6S 8005   3.649   5.130   5.024
    3OL     C17 8006   3.465   5.022   5.012
    3OL     H7R 8007   3.381   5.002   5.080
    3OL     H7S 8008   3.494   4.925   4.970
    3OL     C18 8009   3.411   5.103   4.893
    3OL     H8R 8010   3.489   5.135   4.823
    3OL     H8S 8011   3.380   5.194   4.945
    3OL     C19 8012   3.289   5.042   4.827
    3OL     H9R 8013   3.232   4.986   4.901
    3OL    C110 8014   3.258   5.043   4.699
    3OL    H10R 8015   3.163   5.005   4.663
    3OL    C111 8016   3.324   5.128   4.592
    3OL    H11R 8017   3.429   5.142   4.616
    3OL    H11S 8018   3.283   5.229   4.586
    3OL    C112 8019   3.303   5.065   4.454
    3OL    H12R 8020   3.327   4.959   4.467
    3OL    H12S 8021   3.371   5.113   4.384
    3OL    C113 8022   3.163   5.086   4.396
    3OL    H13R 8023   3.127   5.189   4.388
    3OL    H13S 8024   3.089   5.049   4.467
    3OL    C114 8025   3.161   5.025   4.255
    3OL    H14R 8026   3.189   4.919   4.255
    3OL    H14S 8027   3.251   5.062   4.206
    3OL    C115 8028   3.038   5.070   4.175
    3OL    H15R 8029   3.023   5.177   4.185
    3OL    H15S 8030   2.951   5.025   4.224
    3OL    C116 8031   3.040   5.024   4.029
    3OL    H16R 8032   3.040   4.915   4.028
    3OL    H16S 8033   3.138   5.050   3.988
    3OL    C117 8034   2.921   5.085   3.953
    3OL    H17R 8035   2.957   5.113   3.854
    3OL    H17S 8036   2.895   5.179   4.004
    3OL    C118 8037   2.797   4.995   3.942
    3OL    H18R 8038   2.808   4.937   3.850
    3OL    H18S 8039   2.707   5.051   3.916
    3OL    H18T 8040   2.787   4.928   4.027
    1PA    C116 8041   3.286   6.121   3.847
    1PA    H16R 8042   3.331   6.155   3.754
    1PA    H16S 8043   3.328   6.169   3.936
    1PA    H16T 8044   3.178   6.138   3.853
    1PA    C115 8045   3.311   5.971   3.869
    1PA    H15R 8046   3.272   5.911   3.787
    1PA    H15S 8047   3.418   5.950   3.872
    1PA    C114 8048   3.238   5.928   3.997
    1PA    H14R 8049   3.249   6.004   4.074
    1PA    H14S 8050   3.133   5.911   3.976
    1PA    C113 8051   3.281   5.790   4.052
    1PA    H13R 8052   3.242   5.714   3.984
    1PA    H13S 8053   3.387   5.777   4.071
    1PA    C112 8054   3.214   5.782   4.190
    1PA    H12R 8055   3.250   5.865   4.251
    1PA    H12S 8056   3.106   5.784   4.176
    1PA    C111 8057   3.256   5.655   4.264
    1PA    H11R 8058   3.261   5.569   4.197
    1PA    H11S 8059   3.353   5.676   4.310
    1PA    C110 8060   3.151   5.628   4.373
    1PA    H10R 8061   3.133   5.720   4.429
    1PA    H10S 8062   3.052   5.600   4.339
    1PA     C19 8063   3.193   5.513   4.467
    1PA     H9R 8064   3.226   5.428   4.408
    1PA     H9S 8065   3.280   5.533   4.530
    1PA     C18 8066   3.082   5.479   4.567
    1PA     H8R 8067   2.987   5.467   4.513
    1PA     H8S 8068   3.104   5.382   4.609
    1PA     C17 8069   3.054   5.582   4.677
    1PA     H7R 8070   3.018   5.680   4.646
    1PA     H7S 8071   2.975   5.539   4.739
    1PA     C16 8072   3.176   5.602   4.768
    1PA     H6R 8073   3.236   5.513   4.787
    1PA     H6S 8074   3.236   5.684   4.727
    1PA     C15 8075   3.124   5.670   4.896
    1PA     H5R 8076   3.074   5.762   4.864
    1PA     H5S 8077   3.060   5.601   4.951
    1PA     C14 8078   3.245   5.712   4.980
    1PA     H4R 8079   3.301   5.624   5.012
    1PA     H4S 8080   3.305   5.790   4.934
    1PA     C13 8081   3.194   5.780   5.108
    1PA     H3R 8082   3.148   5.877   5.087
    1PA     H3S 8083   3.128   5.714   5.165
    1PA     C12 8084   3.317   5.809   5.194
    1PA     H2R 8085   3.381   5.721   5.211
    1PA     H2S 8086   3.387   5.881   5.150
    2PC     C11 8087   3.274   5.863   5.328
    2PC     O12 8088   3.341   5.945   5.387
    2PC     O11 8089   3.161   5.807   5.375
    2PC      C1 8090   3.104   5.836   5.504
    2PC      HR 8091   3.176   5.805   5.579
    2PC      HS 8092   3.089   5.944   5.517
    2PC      C2 8093   2.975   5.755   5.523
    2PC      HX 8094   2.895   5.792   5.459
    2PC      C3 8095   2.931   5.742   5.670
    2PC      HA 8096   2.879   5.832   5.702
    2PC      HB 8097   2.865   5.654   5.673
    2PC     O31 8098   3.042   5.716   5.758
    2PC     P31 8099   3.005   5.664   5.905
    2PC     O32 8100   3.086   5.777   5.985
    2PC     C31 8101   3.213   5.738   6.041
    2PC     H1A 8102   3.265   5.685   5.961
    2PC     H1B 8103   3.262   5.835   6.052
    2PC     C32 8104   3.196   5.659   6.171
    2PC     H2A 8105   3.119   5.582   6.173
    2PC     H2B 8106   3.289   5.602   6.180
    2PC     N31 8107   3.185   5.739   6.297
    2PC     C33 8108   3.074   5.839   6.289
    2PC     H3A 8109   3.105   5.925   6.229
    2PC     H3B 8110   2.996   5.781   6.240
    2PC     H3C 8111   3.029   5.875   6.382
    2PC     C34 8112   3.162   5.645   6.411
    2PC     H4A 8113   3.070   5.593   6.387
    2PC     H4B 8114   3.241   5.569   6.406
    2PC     H4C 8115   3.146   5.697   6.506
    2PC     C35 8116   3.307   5.821   6.324
    2PC     H5A 8117   3.397   5.760   6.315
    2PC     H5B 8118   3.306   5.855   6.428
    2PC     H5C 8119   3.305   5.914   6.266
    2PC     O33 8120   2.866   5.685   5.949
    2PC     O34 8121   3.044   5.525   5.937
    2PC     O21 8122   3.010   5.622   5.483
    2PC     C21 8123   2.921   5.534   5.433
    2PC     O22 8124   2.802   5.553   5.422
    3OL     C12 8125   2.975   5.395   5.410
    3OL     H2R 8126   2.898   5.320   5.432
    3OL     H2S 8127   3.055   5.378   5.483
    3OL     C13 8128   3.034   5.378   5.269
    3OL     H3R 8129   3.131   5.427   5.264
    3OL     H3S 8130   2.965   5.429   5.201
    3OL     C14 8131   3.043   5.227   5.246
    3OL     H4R 8132   2.945   5.181   5.261
    3OL     H4S 8133   3.099   5.181   5.327
    3OL     C15 8134   3.096   5.186   5.108
    3OL     H5R 8135   3.138   5.085   5.104
    3OL     H5S 8136   3.182   5.244   5.075
    3OL     C16 8137   2.988   5.199   4.999
    3OL     H6R 8138   3.047   5.189   4.908
    3OL     H6S 8139   2.940   5.297   4.987
    3OL     C17 8140   2.888   5.083   5.008
    3OL     H7R 8141   2.853   5.072   5.111
    3OL     H7S 8142   2.941   4.992   4.980
    3OL     C18 8143   2.776   5.097   4.904
    3OL     H8R 8144   2.702   5.172   4.930
    3OL     H8S 8145   2.720   5.004   4.914
    3OL     C19 8146   2.823   5.122   4.762
    3OL     H9R 8147   2.899   5.199   4.755
    3OL    C110 8148   2.778   5.055   4.658
    3OL    H10R 8149   2.816   5.086   4.561
    3OL    C111 8150   2.672   4.947   4.650
    3OL    H11R 8151   2.635   4.926   4.751
    3OL    H11S 8152   2.721   4.855   4.618
    3OL    C112 8153   2.555   4.991   4.561
    3OL    H12R 8154   2.488   4.909   4.538
    3OL    H12S 8155   2.598   5.025   4.467
    3OL    C113 8156   2.482   5.114   4.615
    3OL    H13R 8157   2.426   5.161   4.534
    3OL    H13S 8158   2.552   5.191   4.649
    3OL    C114 8159   2.400   5.085   4.742
    3OL    H14R 8160   2.351   5.178   4.770
    3OL    H14S 8161   2.465   5.051   4.823
    3OL    C115 8162   2.285   4.985   4.728
    3OL    H15R 8163   2.242   4.972   4.828
    3OL    H15S 8164   2.321   4.888   4.692
    3OL    C116 8165   2.178   5.024   4.625
    3OL    H16R 8166   2.233   5.045   4.533
    3OL    H16S 8167   2.134   5.118   4.658
    3OL    C117 8168   2.079   4.909   4.605
    3OL    H17R 8169   2.142   4.821   4.592
    3OL    H17S 8170   2.014   4.934   4.521
    3OL    C118 8171   2.000   4.887   4.735
    3OL    H18R 8172   2.067   4.883   4.820
    3OL    H18S 8173   1.944   4.793   4.735
    3OL    H18T 8174   1.920   4.962   4.741
    1PA    C116 8175   5.286   4.922   3.968
    1PA    H16R 8176   5.307   4.833   3.909
    1PA    H16S 8177   5.372   4.988   3.957
    1PA    H16T 8178   5.187   4.952   3.932
    1PA    C115 8179   5.271   4.880   4.116
    1PA    H15R 8180   5.180   4.822   4.123
    1PA    H15S 8181   5.367   4.832   4.137
    1PA    C114 8182   5.258   5.001   4.210
    1PA    H14R 8183   5.348   5.062   4.200
    1PA    H14S 8184   5.174   5.057   4.169
    1PA    C113 8185   5.223   4.968   4.356
    1PA    H13R 8186   5.149   4.888   4.353
    1PA    H13S 8187   5.309   4.937   4.416
    1PA    C112 8188   5.169   5.095   4.421
    1PA    H12R 8189   5.227   5.185   4.401
    1PA    H12S 8190   5.067   5.116   4.388
    1PA    C111 8191   5.162   5.082   4.574
    1PA    H11R 8192   5.123   4.987   4.611
    1PA    H11S 8193   5.263   5.084   4.616
    1PA    C110 8194   5.084   5.205   4.622
    1PA    H10R 8195   5.139   5.293   4.588
    1PA    H10S 8196   4.984   5.206   4.578
    1PA     C19 8197   5.084   5.219   4.775
    1PA     H9R 8198   5.033   5.142   4.833
    1PA     H9S 8199   5.184   5.234   4.818
    1PA     C18 8200   5.026   5.357   4.811
    1PA     H8R 8201   5.062   5.438   4.747
    1PA     H8S 8202   4.918   5.355   4.800
    1PA     C17 8203   5.060   5.397   4.955
    1PA     H7R 8204   5.005   5.327   5.018
    1PA     H7S 8205   5.167   5.404   4.976
    1PA     C16 8206   5.000   5.533   4.994
    1PA     H6R 8207   5.034   5.604   4.919
    1PA     H6S 8208   4.892   5.525   4.999
    1PA     C15 8209   5.054   5.569   5.134
    1PA     H5R 8210   5.047   5.472   5.185
    1PA     H5S 8211   5.161   5.589   5.123
    1PA     C14 8212   4.976   5.688   5.190
    1PA     H4R 8213   4.979   5.781   5.132
    1PA     H4S 8214   4.871   5.661   5.189
    1PA     C13 8215   5.008   5.715   5.338
    1PA     H3R 8216   4.948   5.805   5.352
    1PA     H3S 8217   4.969   5.636   5.403
    1PA     C12 8218   5.159   5.729   5.358
    1PA     H2R 8219   5.200   5.629   5.339
    1PA     H2S 8220   5.203   5.795   5.283
    2PC     C11 8221   5.201   5.778   5.495
    2PC     O12 8222   5.134   5.760   5.595
    2PC     O11 8223   5.318   5.843   5.501
    2PC      C1 8224   5.358   5.901   5.626
    2PC      HR 8225   5.434   5.976   5.607
    2PC      HS 8226   5.267   5.938   5.675
    2PC      C2 8227   5.434   5.795   5.707
    2PC      HX 8228   5.356   5.725   5.740
    2PC      C3 8229   5.485   5.871   5.830
    2PC      HA 8230   5.567   5.934   5.795
    2PC      HB 8231   5.414   5.940   5.876
    2PC     O31 8232   5.535   5.779   5.929
    2PC     P31 8233   5.588   5.827   6.073
    2PC     O32 8234   5.671   5.958   6.032
    2PC     C31 8235   5.800   5.944   5.970
    2PC     H1A 8236   5.802   5.842   5.932
    2PC     H1B 8237   5.804   6.009   5.882
    2PC     C32 8238   5.912   5.958   6.074
    2PC     H2A 8239   5.870   5.904   6.159
    2PC     H2B 8240   6.007   5.919   6.039
    2PC     N31 8241   5.939   6.097   6.124
    2PC     C33 8242   5.997   6.170   6.007
    2PC     H3A 8243   5.920   6.178   5.930
    2PC     H3B 8244   6.017   6.272   6.040
    2PC     H3C 8245   6.079   6.108   5.968
    2PC     C34 8246   5.815   6.168   6.169
    2PC     H4A 8247   5.782   6.111   6.256
    2PC     H4B 8248   5.848   6.266   6.203
    2PC     H4C 8249   5.743   6.173   6.087
    2PC     C35 8250   6.048   6.108   6.225
    2PC     H5A 8251   6.050   6.213   6.257
    2PC     H5B 8252   6.139   6.081   6.171
    2PC     H5C 8253   6.020   6.043   6.307
    2PC     O33 8254   5.466   5.855   6.152
    2PC     O34 8255   5.663   5.723   6.148
    2PC     O21 8256   5.545   5.743   5.632
    2PC     C21 8257   5.527   5.624   5.572
    2PC     O22 8258   5.428   5.556   5.591
    3OL     C12 8259   5.645   5.581   5.489
    3OL     H2R 8260   5.706   5.519   5.555
    3OL     H2S 8261   5.699   5.672   5.459
    3OL     C13 8262   5.603   5.501   5.365
    3OL     H3R 8263   5.542   5.421   5.408
    3OL     H3S 8264   5.686   5.447   5.319
    3OL     C14 8265   5.539   5.594   5.261
    3OL     H4R 8266   5.593   5.688   5.249
    3OL     H4S 8267   5.443   5.631   5.297
    3OL     C15 8268   5.520   5.516   5.130
    3OL     H5R 8269   5.478   5.417   5.153
    3OL     H5S 8270   5.623   5.492   5.102
    3OL     C16 8271   5.463   5.599   5.015
    3OL     H6R 8272   5.521   5.691   5.002
    3OL     H6S 8273   5.366   5.630   5.054
    3OL     C17 8274   5.449   5.513   4.889
    3OL     H7R 8275   5.410   5.414   4.914
    3OL     H7S 8276   5.550   5.498   4.852
    3OL     C18 8277   5.362   5.578   4.780
    3OL     H8R 8278   5.391   5.683   4.772
    3OL     H8S 8279   5.255   5.577   4.801
    3OL     C19 8280   5.381   5.503   4.650
    3OL     H9R 8281   5.442   5.414   4.658
    3OL    C110 8282   5.332   5.526   4.529
    3OL    H10R 8283   5.357   5.456   4.450
    3OL    C111 8284   5.240   5.643   4.504
    3OL    H11R 8285   5.189   5.674   4.595
    3OL    H11S 8286   5.156   5.612   4.441
    3OL    C112 8287   5.316   5.760   4.439
    3OL    H12R 8288   5.387   5.797   4.513
    3OL    H12S 8289   5.242   5.837   4.415
    3OL    C113 8290   5.384   5.725   4.306
    3OL    H13R 8291   5.443   5.635   4.328
    3OL    H13S 8292   5.451   5.806   4.277
    3OL    C114 8293   5.289   5.695   4.190
    3OL    H14R 8294   5.216   5.776   4.189
    3OL    H14S 8295   5.233   5.602   4.202
    3OL    C115 8296   5.355   5.682   4.052
    3OL    H15R 8297   5.400   5.779   4.029
    3OL    H15S 8298   5.275   5.662   3.979
    3OL    C116 8299   5.464   5.575   4.050
    3OL    H16R 8300   5.420   5.477   4.068
    3OL    H16S 8301   5.545   5.588   4.122
    3OL    C117 8302   5.517   5.570   3.906
    3OL    H17R 8303   5.589   5.649   3.884
    3OL    H17S 8304   5.433   5.579   3.837
    3OL    C118 8305   5.578   5.430   3.885
    3OL    H18R 8306   5.649   5.427   3.802
    3OL    H18S 8307   5.502   5.353   3.872
    3OL    H18T 8308   5.635   5.409   3.976
    1PA    C116 8309   5.471   0.311   3.612
    1PA    H16R 8310   5.387   0.246   3.587
    1PA    H16S 8311   5.547   0.242   3.649
    1PA    H16T 8312   5.502   0.366   3.522
    1PA    C115 8313   5.425   0.412   3.718
    1PA    H15R 8314   5.510   0.471   3.753
    1PA    H15S 8315   5.357   0.488   3.682
    1PA    C114 8316   5.361   0.346   3.842
    1PA    H14R 8317   5.273   0.294   3.803
    1PA    H14S 8318   5.422   0.259   3.868
    1PA    C113 8319   5.337   0.441   3.960
    1PA    H13R 8320   5.435   0.464   4.004
    1PA    H13S 8321   5.293   0.527   3.910
    1PA    C112 8322   5.236   0.383   4.060
    1PA    H12R 8323   5.148   0.353   4.002
    1PA    H12S 8324   5.284   0.293   4.099
    1PA    C111 8325   5.205   0.486   4.169
    1PA    H11R 8326   5.296   0.507   4.225
    1PA    H11S 8327   5.169   0.582   4.132
    1PA    C110 8328   5.112   0.410   4.265
    1PA    H10R 8329   5.023   0.372   4.214
    1PA    H10S 8330   5.165   0.321   4.300
    1PA     C19 8331   5.073   0.487   4.391
    1PA     H9R 8332   5.165   0.497   4.449
    1PA     H9S 8333   5.052   0.587   4.352
    1PA     C18 8334   4.946   0.432   4.456
    1PA     H8R 8335   4.863   0.418   4.386
    1PA     H8S 8336   4.963   0.325   4.472
    1PA     C17 8337   4.902   0.492   4.591
    1PA     H7R 8338   4.987   0.480   4.658
    1PA     H7S 8339   4.872   0.596   4.574
    1PA     C16 8340   4.783   0.424   4.658
    1PA     H6R 8341   4.690   0.433   4.602
    1PA     H6S 8342   4.808   0.317   4.662
    1PA     C15 8343   4.765   0.472   4.803
    1PA     H5R 8344   4.848   0.449   4.871
    1PA     H5S 8345   4.750   0.580   4.807
    1PA     C14 8346   4.642   0.403   4.864
    1PA     H4R 8347   4.556   0.429   4.803
    1PA     H4S 8348   4.640   0.294   4.860
    1PA     C13 8349   4.628   0.450   5.010
    1PA     H3R 8350   4.719   0.426   5.065
    1PA     H3S 8351   4.622   0.558   5.023
    1PA     C12 8352   4.512   0.373   5.074
    1PA     H2R 8353   4.424   0.377   5.010
    1PA     H2S 8354   4.529   0.267   5.092
    2PC     C11 8355   4.475   0.433   5.208
    2PC     O12 8356   4.358   0.459   5.228
    2PC     O11 8357   4.571   0.432   5.302
    2PC      C1 8358   4.536   0.472   5.436
    2PC      HR 8359   4.433   0.443   5.458
    2PC      HS 8360   4.603   0.417   5.504
    2PC      C2 8361   4.549   0.624   5.454
    2PC      HX 8362   4.634   0.654   5.392
    2PC      C3 8363   4.572   0.660   5.601
    2PC      HA 8364   4.674   0.646   5.635
    2PC      HB 8365   4.546   0.766   5.613
    2PC     O31 8366   4.483   0.584   5.685
    2PC     P31 8367   4.484   0.645   5.833
    2PC     O32 8368   4.629   0.607   5.890
    2PC     C31 8369   4.646   0.610   6.033
    2PC     H1A 8370   4.568   0.551   6.081
    2PC     H1B 8371   4.741   0.560   6.057
    2PC     C32 8372   4.649   0.749   6.097
    2PC     H2A 8373   4.572   0.813   6.052
    2PC     H2B 8374   4.638   0.741   6.205
    2PC     N31 8375   4.774   0.831   6.084
    2PC     C33 8376   4.883   0.769   6.167
    2PC     H3A 8377   4.974   0.822   6.138
    2PC     H3B 8378   4.858   0.771   6.273
    2PC     H3C 8379   4.893   0.663   6.142
    2PC     C34 8380   4.828   0.839   5.944
    2PC     H4A 8381   4.922   0.894   5.945
    2PC     H4B 8382   4.832   0.736   5.907
    2PC     H4C 8383   4.760   0.899   5.884
    2PC     C35 8384   4.758   0.975   6.125
    2PC     H5A 8385   4.852   1.025   6.146
    2PC     H5B 8386   4.709   0.965   6.222
    2PC     H5C 8387   4.688   1.018   6.052
    2PC     O33 8388   4.475   0.793   5.844
    2PC     O34 8389   4.381   0.590   5.923
    2PC     O21 8390   4.426   0.677   5.400
    2PC     C21 8391   4.424   0.750   5.287
    2PC     O22 8392   4.523   0.798   5.235
    3OL     C12 8393   4.284   0.792   5.252
    3OL     H2R 8394   4.275   0.901   5.253
    3OL     H2S 8395   4.217   0.748   5.326
    3OL     C13 8396   4.251   0.754   5.107
    3OL     H3R 8397   4.143   0.768   5.096
    3OL     H3S 8398   4.260   0.647   5.090
    3OL     C14 8399   4.322   0.834   4.997
    3OL     H4R 8400   4.430   0.838   5.010
    3OL     H4S 8401   4.305   0.943   4.991
    3OL     C15 8402   4.293   0.779   4.857
    3OL     H5R 8403   4.324   0.848   4.778
    3OL     H5S 8404   4.185   0.771   4.840
    3OL     C16 8405   4.363   0.647   4.824
    3OL     H6R 8406   4.333   0.565   4.891
    3OL     H6S 8407   4.466   0.665   4.854
    3OL     C17 8408   4.340   0.588   4.684
    3OL     H7R 8409   4.232   0.601   4.672
    3OL     H7S 8410   4.360   0.481   4.677
    3OL     C18 8411   4.414   0.660   4.570
    3OL     H8R 8412   4.522   0.647   4.580
    3OL     H8S 8413   4.380   0.764   4.570
    3OL     C19 8414   4.379   0.608   4.433
    3OL     H9R 8415   4.272   0.595   4.424
    3OL    C110 8416   4.453   0.569   4.330
    3OL    H10R 8417   4.408   0.516   4.247
    3OL    C111 8418   4.604   0.567   4.332
    3OL    H11R 8419   4.636   0.464   4.353
    3OL    H11S 8420   4.642   0.625   4.416
    3OL    C112 8421   4.671   0.604   4.198
    3OL    H12R 8422   4.776   0.626   4.216
    3OL    H12S 8423   4.634   0.703   4.168
    3OL    C113 8424   4.652   0.509   4.080
    3OL    H13R 8425   4.544   0.510   4.061
    3OL    H13S 8426   4.677   0.405   4.101
    3OL    C114 8427   4.738   0.544   3.958
    3OL    H14R 8428   4.844   0.542   3.983
    3OL    H14S 8429   4.711   0.640   3.915
    3OL    C115 8430   4.722   0.434   3.851
    3OL    H15R 8431   4.620   0.435   3.814
    3OL    H15S 8432   4.722   0.331   3.888
    3OL    C116 8433   4.830   0.439   3.742
    3OL    H16R 8434   4.827   0.542   3.704
    3OL    H16S 8435   4.795   0.374   3.661
    3OL    C117 8436   4.967   0.385   3.784
    3OL    H17R 8437   4.959   0.276   3.790
    3OL    H17S 8438   4.996   0.417   3.885
    3OL    C118 8439   5.068   0.418   3.673
    3OL    H18R 8440   5.007   0.408   3.583
    3OL    H18S 8441   5.139   0.336   3.667
    3OL    H18T 8442   5.114   0.517   3.672
    1PA    C116 8443   5.217   5.248   3.784
    1PA    H16R 8444   5.248   5.148   3.753
    1PA    H16S 8445   5.307   5.307   3.764
    1PA    H16T 8446   5.135   5.289   3.726
    1PA    C115 8447   5.169   5.242   3.930
    1PA    H15R 8448   5.098   5.159   3.924
    1PA    H15S 8449   5.247   5.210   3.998
    1PA    C114 8450   5.100   5.371   3.977
    1PA    H14R 8451   5.159   5.462   3.965
    1PA    H14S 8452   5.018   5.384   3.906
    1PA    C113 8453   5.056   5.349   4.122
    1PA    H13R 8454   5.010   5.250   4.126
    1PA    H13S 8455   5.148   5.358   4.180
    1PA    C112 8456   4.958   5.454   4.178
    1PA    H12R 8457   5.002   5.551   4.153
    1PA    H12S 8458   4.857   5.445   4.139
    1PA    C111 8459   4.952   5.442   4.331
    1PA    H11R 8460   4.915   5.343   4.360
    1PA    H11S 8461   5.053   5.447   4.371
    1PA    C110 8462   4.862   5.552   4.388
    1PA    H10R 8463   4.895   5.647   4.344
    1PA    H10S 8464   4.759   5.543   4.354
    1PA     C19 8465   4.863   5.547   4.541
    1PA     H9R 8466   4.853   5.444   4.576
    1PA     H9S 8467   4.961   5.576   4.579
    1PA     C18 8468   4.757   5.643   4.598
    1PA     H8R 8469   4.785   5.742   4.563
    1PA     H8S 8470   4.660   5.610   4.560
    1PA     C17 8471   4.764   5.629   4.751
    1PA     H7R 8472   4.748   5.523   4.769
    1PA     H7S 8473   4.860   5.664   4.788
    1PA     C16 8474   4.658   5.715   4.823
    1PA     H6R 8475   4.676   5.820   4.801
    1PA     H6S 8476   4.557   5.689   4.792
    1PA     C15 8477   4.653   5.706   4.976
    1PA     H5R 8478   4.636   5.602   5.003
    1PA     H5S 8479   4.751   5.737   5.012
    1PA     C14 8480   4.540   5.792   5.037
    1PA     H4R 8481   4.569   5.893   5.007
    1PA     H4S 8482   4.441   5.768   4.998
    1PA     C13 8483   4.534   5.803   5.190
    1PA     H3R 8484   4.632   5.817   5.235
    1PA     H3S 8485   4.476   5.893   5.211
    1PA     C12 8486   4.475   5.683   5.267
    1PA     H2R 8487   4.394   5.635   5.211
    1PA     H2S 8488   4.555   5.612   5.284
    2PC     C11 8489   4.432   5.736   5.402
    2PC     O12 8490   4.317   5.747   5.439
    2PC     O11 8491   4.537   5.782   5.472
    2PC      C1 8492   4.508   5.823   5.606
    2PC      HR 8493   4.434   5.904   5.606
    2PC      HS 8494   4.479   5.737   5.667
    2PC      C2 8495   4.636   5.883   5.668
    2PC      HX 8496   4.708   5.801   5.669
    2PC      C3 8497   4.605   5.939   5.807
    2PC      HA 8498   4.562   6.039   5.794
    2PC      HB 8499   4.528   5.877   5.853
    2PC     O31 8500   4.726   5.950   5.884
    2PC     P31 8501   4.717   5.992   6.038
    2PC     O32 8502   4.698   5.854   6.117
    2PC     C31 8503   4.577   5.779   6.095
    2PC     H1A 8504   4.489   5.842   6.104
    2PC     H1B 8505   4.584   5.749   5.990
    2PC     C32 8506   4.580   5.663   6.195
    2PC     H2A 8507   4.517   5.582   6.160
    2PC     H2B 8508   4.681   5.622   6.200
    2PC     N31 8509   4.533   5.680   6.337
    2PC     C33 8510   4.569   5.820   6.376
    2PC     H3A 8511   4.508   5.890   6.319
    2PC     H3B 8512   4.535   5.837   6.478
    2PC     H3C 8513   4.678   5.826   6.377
    2PC     C34 8514   4.384   5.676   6.345
    2PC     H4A 8515   4.338   5.745   6.274
    2PC     H4B 8516   4.348   5.577   6.318
    2PC     H4C 8517   4.355   5.700   6.447
    2PC     C35 8518   4.608   5.585   6.425
    2PC     H5A 8519   4.714   5.601   6.406
    2PC     H5B 8520   4.568   5.484   6.416
    2PC     H5C 8521   4.576   5.619   6.524
    2PC     O33 8522   4.834   6.072   6.082
    2PC     O34 8523   4.608   6.089   6.064
    2PC     O21 8524   4.686   5.990   5.586
    2PC     C21 8525   4.818   6.012   5.588
    2PC     O22 8526   4.897   5.939   5.645
    3OL     C12 8527   4.862   6.123   5.496
    3OL     H2R 8528   4.971   6.130   5.504
    3OL     H2S 8529   4.826   6.223   5.522
    3OL     C13 8530   4.817   6.085   5.354
    3OL     H3R 8531   4.726   6.143   5.337
    3OL     H3S 8532   4.784   5.983   5.332
    3OL     C14 8533   4.930   6.121   5.258
    3OL     H4R 8534   5.015   6.058   5.286
    3OL     H4S 8535   4.952   6.228   5.266
    3OL     C15 8536   4.892   6.082   5.114
    3OL     H5R 8537   4.888   5.973   5.116
    3OL     H5S 8538   4.972   6.108   5.044
    3OL     C16 8539   4.758   6.141   5.069
    3OL     H6R 8540   4.744   6.239   5.114
    3OL     H6S 8541   4.675   6.082   5.109
    3OL     C17 8542   4.752   6.168   4.918
    3OL     H7R 8543   4.763   6.074   4.863
    3OL     H7S 8544   4.843   6.224   4.897
    3OL     C18 8545   4.629   6.248   4.873
    3OL     H8R 8546   4.642   6.269   4.767
    3OL     H8S 8547   4.626   6.348   4.918
    3OL     C19 8548   4.505   6.167   4.903
    3OL     H9R 8549   4.494   6.131   5.005
    3OL    C110 8550   4.406   6.138   4.820
    3OL    H10R 8551   4.326   6.072   4.850
    3OL    C111 8552   4.410   6.157   4.670
    3OL    H11R 8553   4.489   6.225   4.637
    3OL    H11S 8554   4.321   6.207   4.633
    3OL    C112 8555   4.447   6.029   4.596
    3OL    H12R 8556   4.546   5.990   4.621
    3OL    H12S 8557   4.453   6.055   4.490
    3OL    C113 8558   4.340   5.919   4.604
    3OL    H13R 8559   4.245   5.962   4.572
    3OL    H13S 8560   4.331   5.898   4.711
    3OL    C114 8561   4.363   5.783   4.538
    3OL    H14R 8562   4.272   5.725   4.554
    3OL    H14S 8563   4.452   5.735   4.578
    3OL    C115 8564   4.384   5.795   4.386
    3OL    H15R 8565   4.465   5.867   4.371
    3OL    H15S 8566   4.293   5.839   4.346
    3OL    C116 8567   4.407   5.656   4.325
    3OL    H16R 8568   4.460   5.595   4.399
    3OL    H16S 8569   4.479   5.677   4.246
    3OL    C117 8570   4.289   5.594   4.249
    3OL    H17R 8571   4.311   5.509   4.183
    3OL    H17S 8572   4.241   5.671   4.189
    3OL    C118 8573   4.198   5.535   4.358
    3OL    H18R 8574   4.112   5.494   4.305
    3OL    H18S 8575   4.150   5.611   4.420
    3OL    H18T 8576   4.246   5.465   4.426
    1PA    C116 8577   5.639   2.967   4.280
    1PA    H16R 8578   5.585   2.884   4.324
    1PA    H16S 8579   5.665   3.033   4.362
    1PA    H16T 8580   5.727   2.932   4.225
    1PA    C115 8581   5.546   3.037   4.180
    1PA    H15R 8582   5.522   2.962   4.104
    1PA    H15S 8583   5.456   3.080   4.224
    1PA    C114 8584   5.626   3.148   4.111
    1PA    H14R 8585   5.695   3.198   4.179
    1PA    H14S 8586   5.681   3.097   4.031
    1PA    C113 8587   5.534   3.247   4.039
    1PA    H13R 8588   5.448   3.277   4.100
    1PA    H13S 8589   5.591   3.335   4.009
    1PA    C112 8590   5.469   3.181   3.917
    1PA    H12R 8591   5.534   3.131   3.845
    1PA    H12S 8592   5.394   3.103   3.935
    1PA    C111 8593   5.416   3.293   3.827
    1PA    H11R 8594   5.361   3.245   3.745
    1PA    H11S 8595   5.348   3.361   3.879
    1PA    C110 8596   5.526   3.382   3.768
    1PA    H10R 8597   5.546   3.458   3.844
    1PA    H10S 8598   5.612   3.319   3.746
    1PA     C19 8599   5.476   3.451   3.640
    1PA     H9R 8600   5.371   3.474   3.657
    1PA     H9S 8601   5.533   3.544   3.628
    1PA     C18 8602   5.500   3.362   3.517
    1PA     H8R 8603   5.603   3.330   3.507
    1PA     H8S 8604   5.442   3.270   3.525
    1PA     C17 8605   5.449   3.429   3.389
    1PA     H7R 8606   5.346   3.459   3.413
    1PA     H7S 8607   5.516   3.514   3.376
    1PA     C16 8608   5.461   3.340   3.265
    1PA     H6R 8609   5.566   3.319   3.241
    1PA     H6S 8610   5.411   3.248   3.297
    1PA     C15 8611   5.407   3.403   3.136
    1PA     H5R 8612   5.468   3.489   3.109
    1PA     H5S 8613   5.407   3.327   3.057
    1PA     C14 8614   5.259   3.443   3.136
    1PA     H4R 8615   5.195   3.367   3.183
    1PA     H4S 8616   5.244   3.530   3.200
    1PA     C13 8617   5.204   3.474   2.996
    1PA     H3R 8618   5.268   3.554   2.959
    1PA     H3S 8619   5.222   3.383   2.939
    1PA     C12 8620   5.055   3.510   2.999
    1PA     H2R 8621   4.996   3.442   3.063
    1PA     H2S 8622   5.037   3.608   3.043
    2PC     C11 8623   4.995   3.514   2.861
    2PC     O12 8624   4.920   3.429   2.817
    2PC     O11 8625   5.030   3.626   2.795
    2PC      C1 8626   5.002   3.625   2.654
    2PC      HR 8627   4.905   3.581   2.632
    2PC      HS 8628   4.993   3.732   2.632
    2PC      C2 8629   5.119   3.565   2.575
    2PC      HX 8630   5.213   3.588   2.627
    2PC      C3 8631   5.128   3.607   2.428
    2PC      HA 8632   5.140   3.716   2.425
    2PC      HB 8633   5.039   3.580   2.370
    2PC     O31 8634   5.246   3.544   2.373
    2PC     P31 8635   5.263   3.548   2.213
    2PC     O32 8636   5.255   3.705   2.184
    2PC     C31 8637   5.357   3.801   2.219
    2PC     H1A 8638   5.323   3.850   2.311
    2PC     H1B 8639   5.455   3.757   2.238
    2PC     C32 8640   5.376   3.903   2.106
    2PC     H2A 8641   5.455   3.971   2.137
    2PC     H2B 8642   5.401   3.850   2.014
    2PC     N31 8643   5.259   3.983   2.060
    2PC     C33 8644   5.299   4.091   1.964
    2PC     H3A 8645   5.359   4.044   1.886
    2PC     H3B 8646   5.207   4.127   1.919
    2PC     H3C 8647   5.354   4.162   2.027
    2PC     C34 8648   5.155   3.895   1.996
    2PC     H4A 8649   5.092   3.960   1.936
    2PC     H4B 8650   5.200   3.826   1.925
    2PC     H4C 8651   5.105   3.843   2.078
    2PC     C35 8652   5.200   4.058   2.176
    2PC     H5A 8653   5.285   4.107   2.223
    2PC     H5B 8654   5.155   3.988   2.247
    2PC     H5C 8655   5.134   4.125   2.121
    2PC     O33 8656   5.387   3.478   2.175
    2PC     O34 8657   5.157   3.476   2.140
    2PC     O21 8658   5.104   3.422   2.584
    2PC     C21 8659   5.008   3.343   2.534
    2PC     O22 8660   4.927   3.380   2.452
    3OL     C12 8661   5.016   3.198   2.576
    3OL     H2R 8662   5.048   3.144   2.486
    3OL     H2S 8663   4.912   3.167   2.591
    3OL     C13 8664   5.087   3.163   2.707
    3OL     H3R 8665   5.036   3.217   2.787
    3OL     H3S 8666   5.192   3.190   2.695
    3OL     C14 8667   5.093   3.014   2.743
    3OL     H4R 8668   5.131   2.964   2.653
    3OL     H4S 8669   4.997   2.966   2.763
    3OL     C15 8670   5.184   2.974   2.861
    3OL     H5R 8671   5.287   3.008   2.850
    3OL     H5S 8672   5.187   2.865   2.857
    3OL     C16 8673   5.132   3.017   2.998
    3OL     H6R 8674   5.025   2.994   3.007
    3OL     H6S 8675   5.140   3.124   3.019
    3OL     C17 8676   5.198   2.940   3.114
    3OL     H7R 8677   5.306   2.953   3.106
    3OL     H7S 8678   5.181   2.834   3.093
    3OL     C18 8679   5.130   2.980   3.245
    3OL     H8R 8680   5.025   2.990   3.216
    3OL     H8S 8681   5.169   3.081   3.258
    3OL     C19 8682   5.142   2.901   3.373
    3OL     H9R 8683   5.223   2.829   3.376
    3OL    C110 8684   5.069   2.930   3.480
    3OL    H10R 8685   5.100   2.878   3.571
    3OL    C111 8686   4.958   3.032   3.472
    3OL    H11R 8687   4.876   3.002   3.537
    3OL    H11S 8688   4.913   3.055   3.376
    3OL    C112 8689   5.005   3.172   3.516
    3OL    H12R 8690   4.931   3.246   3.486
    3OL    H12S 8691   5.098   3.194   3.464
    3OL    C113 8692   5.024   3.162   3.668
    3OL    H13R 8693   5.117   3.106   3.685
    3OL    H13S 8694   4.944   3.112   3.722
    3OL    C114 8695   5.048   3.305   3.720
    3OL    H14R 8696   5.115   3.357   3.651
    3OL    H14S 8697   5.101   3.292   3.815
    3OL    C115 8698   4.924   3.391   3.746
    3OL    H15R 8699   4.845   3.343   3.803
    3OL    H15S 8700   4.883   3.414   3.648
    3OL    C116 8701   4.966   3.521   3.816
    3OL    H16R 8702   5.006   3.477   3.908
    3OL    H16S 8703   4.878   3.583   3.832
    3OL    C117 8704   5.072   3.607   3.745
    3OL    H17R 8705   5.043   3.637   3.645
    3OL    H17S 8706   5.167   3.555   3.735
    3OL    C118 8707   5.085   3.738   3.824
    3OL    H18R 8708   5.123   3.709   3.923
    3OL    H18S 8709   4.989   3.789   3.830
    3OL    H18T 8710   5.166   3.798   3.782
    1PA    C116 8711   6.058   2.254   4.009
    1PA    H16R 8712   5.977   2.222   4.075
    1PA    H16S 8713   6.075   2.360   4.025
    1PA    H16T 8714   6.145   2.192   4.033
    1PA    C115 8715   6.023   2.228   3.862
    1PA    H15R 8716   6.016   2.120   3.847
    1PA    H15S 8717   5.932   2.275   3.825
    1PA    C114 8718   6.128   2.291   3.769
    1PA    H14R 8719   6.146   2.395   3.797
    1PA    H14S 8720   6.227   2.255   3.799
    1PA    C113 8721   6.104   2.253   3.622
    1PA    H13R 8722   6.098   2.145   3.609
    1PA    H13S 8723   6.006   2.301   3.613
    1PA    C112 8724   6.216   2.307   3.532
    1PA    H12R 8725   6.219   2.413   3.558
    1PA    H12S 8726   6.310   2.257   3.554
    1PA    C111 8727   6.182   2.305   3.382
    1PA    H11R 8728   6.192   2.203   3.344
    1PA    H11S 8729   6.084   2.346   3.357
    1PA    C110 8730   6.288   2.394   3.314
    1PA    H10R 8731   6.259   2.499   3.311
    1PA    H10S 8732   6.374   2.398   3.381
    1PA     C19 8733   6.316   2.350   3.170
    1PA     H9R 8734   6.405   2.406   3.139
    1PA     H9S 8735   6.341   2.246   3.151
    1PA     C18 8736   6.198   2.387   3.079
    1PA     H8R 8737   6.112   2.325   3.104
    1PA     H8S 8738   6.193   2.495   3.087
    1PA     C17 8739   6.230   2.364   2.930
    1PA     H7R 8740   6.151   2.427   2.887
    1PA     H7S 8741   6.324   2.416   2.910
    1PA     C16 8742   6.215   2.222   2.874
    1PA     H6R 8743   6.299   2.163   2.909
    1PA     H6S 8744   6.134   2.172   2.928
    1PA     C15 8745   6.201   2.221   2.721
    1PA     H5R 8746   6.177   2.121   2.684
    1PA     H5S 8747   6.119   2.282   2.684
    1PA     C14 8748   6.334   2.256   2.653
    1PA     H4R 8749   6.374   2.347   2.698
    1PA     H4S 8750   6.415   2.185   2.673
    1PA     C13 8751   6.323   2.274   2.501
    1PA     H3R 8752   6.319   2.172   2.462
    1PA     H3S 8753   6.227   2.319   2.475
    1PA     C12 8754   6.440   2.353   2.441
    1PA     H2R 8755   6.481   2.434   2.502
    1PA     H2S 8756   6.522   2.281   2.435
    2PC     C11 8757   6.402   2.416   2.309
    2PC     O12 8758   6.463   2.406   2.205
    2PC     O11 8759   6.301   2.503   2.321
    2PC      C1 8760   6.280   2.604   2.221
    2PC      HR 8761   6.360   2.678   2.216
    2PC      HS 8762   6.268   2.553   2.125
    2PC      C2 8763   6.147   2.680   2.239
    2PC      HX 8764   6.059   2.616   2.238
    2PC      C3 8765   6.129   2.779   2.123
    2PC      HA 8766   6.118   2.719   2.032
    2PC      HB 8767   6.044   2.847   2.131
    2PC     O31 8768   6.245   2.864   2.114
    2PC     P31 8769   6.259   2.966   1.991
    2PC     O32 8770   6.143   3.077   1.988
    2PC     C31 8771   6.018   3.063   1.918
    2PC     H1A 8772   6.035   3.073   1.810
    2PC     H1B 8773   5.960   2.973   1.939
    2PC     C32 8774   5.941   3.187   1.965
    2PC     H2A 8775   6.016   3.263   1.985
    2PC     H2B 8776   5.873   3.231   1.891
    2PC     N31 8777   5.861   3.163   2.089
    2PC     C33 8778   5.750   3.062   2.075
    2PC     H3A 8779   5.693   3.060   2.168
    2PC     H3B 8780   5.686   3.097   1.994
    2PC     H3C 8781   5.796   2.965   2.054
    2PC     C34 8782   5.945   3.139   2.210
    2PC     H4A 8783   5.993   3.042   2.199
    2PC     H4B 8784   6.020   3.218   2.204
    2PC     H4C 8785   5.885   3.149   2.301
    2PC     C35 8786   5.797   3.295   2.118
    2PC     H5A 8787   5.744   3.291   2.214
    2PC     H5B 8788   5.728   3.316   2.036
    2PC     H5C 8789   5.871   3.375   2.129
    2PC     O33 8790   6.391   3.030   2.015
    2PC     O34 8791   6.278   2.897   1.862
    2PC     O21 8792   6.158   2.758   2.359
    2PC     C21 8793   6.058   2.834   2.409
    2PC     O22 8794   5.950   2.842   2.354
    3OL     C12 8795   6.098   2.905   2.536
    3OL     H2R 8796   6.050   3.001   2.553
    3OL     H2S 8797   6.206   2.923   2.538
    3OL     C13 8798   6.049   2.816   2.651
    3OL     H3R 8799   6.085   2.713   2.648
    3OL     H3S 8800   5.941   2.801   2.653
    3OL     C14 8801   6.083   2.875   2.789
    3OL     H4R 8802   6.006   2.836   2.856
    3OL     H4S 8803   6.064   2.983   2.787
    3OL     C15 8804   6.232   2.866   2.822
    3OL     H5R 8805   6.288   2.910   2.739
    3OL     H5S 8806   6.265   2.763   2.837
    3OL     C16 8807   6.269   2.959   2.939
    3OL     H6R 8808   6.246   3.065   2.928
    3OL     H6S 8809   6.376   2.950   2.959
    3OL     C17 8810   6.206   2.913   3.072
    3OL     H7R 8811   6.255   2.823   3.111
    3OL     H7S 8812   6.100   2.890   3.058
    3OL     C18 8813   6.209   3.021   3.180
    3OL     H8R 8814   6.134   3.096   3.151
    3OL     H8S 8815   6.312   3.056   3.174
    3OL     C19 8816   6.186   2.969   3.320
    3OL     H9R 8817   6.123   2.881   3.320
    3OL    C110 8818   6.240   3.013   3.433
    3OL    H10R 8819   6.227   2.963   3.528
    3OL    C111 8820   6.336   3.130   3.431
    3OL    H11R 8821   6.308   3.196   3.349
    3OL    H11S 8822   6.435   3.086   3.415
    3OL    C112 8823   6.337   3.209   3.562
    3OL    H12R 8824   6.386   3.142   3.633
    3OL    H12S 8825   6.234   3.230   3.589
    3OL    C113 8826   6.424   3.335   3.545
    3OL    H13R 8827   6.370   3.409   3.484
    3OL    H13S 8828   6.515   3.304   3.494
    3OL    C114 8829   6.457   3.387   3.686
    3OL    H14R 8830   6.561   3.421   3.686
    3OL    H14S 8831   6.451   3.311   3.764
    3OL    C115 8832   6.388   3.519   3.721
    3OL    H15R 8833   6.284   3.496   3.701
    3OL    H15S 8834   6.420   3.595   3.650
    3OL    C116 8835   6.421   3.554   3.867
    3OL    H16R 8836   6.527   3.572   3.882
    3OL    H16S 8837   6.381   3.471   3.927
    3OL    C117 8838   6.350   3.683   3.911
    3OL    H17R 8839   6.376   3.701   4.015
    3OL    H17S 8840   6.242   3.666   3.906
    3OL    C118 8841   6.392   3.805   3.828
    3OL    H18R 8842   6.379   3.779   3.723
    3OL    H18S 8843   6.500   3.818   3.839
    3OL    H18T 8844   6.345   3.901   3.846
    1PA    C116 8845   0.985   4.019   4.118
    1PA    H16R 8846   1.054   4.099   4.089
    1PA    H16S 8847   1.018   3.949   4.195
    1PA    H16T 8848   0.891   4.068   4.147
    1PA    C115 8849   0.955   3.936   3.992
    1PA    H15R 8850   1.045   3.904   3.939
    1PA    H15S 8851   0.903   3.846   4.026
    1PA    C114 8852   0.861   4.002   3.891
    1PA    H14R 8853   0.763   4.022   3.936
    1PA    H14S 8854   0.894   4.102   3.862
    1PA    C113 8855   0.808   3.922   3.771
    1PA    H13R 8856   0.735   3.852   3.812
    1PA    H13S 8857   0.737   3.991   3.725
    1PA    C112 8858   0.907   3.852   3.676
    1PA    H12R 8859   0.959   3.918   3.606
    1PA    H12S 8860   0.983   3.801   3.736
    1PA    C111 8861   0.844   3.744   3.586
    1PA    H11R 8862   0.786   3.673   3.646
    1PA    H11S 8863   0.774   3.785   3.513
    1PA    C110 8864   0.947   3.672   3.497
    1PA    H10R 8865   1.013   3.621   3.568
    1PA    H10S 8866   0.893   3.597   3.440
    1PA     C19 8867   1.040   3.754   3.406
    1PA     H9R 8868   0.977   3.798   3.328
    1PA     H9S 8869   1.097   3.830   3.459
    1PA     C18 8870   1.140   3.652   3.351
    1PA     H8R 8871   1.187   3.608   3.439
    1PA     H8S 8872   1.079   3.574   3.305
    1PA     C17 8873   1.237   3.717   3.251
    1PA     H7R 8874   1.302   3.777   3.316
    1PA     H7S 8875   1.304   3.641   3.209
    1PA     C16 8876   1.180   3.796   3.132
    1PA     H6R 8877   1.118   3.882   3.158
    1PA     H6S 8878   1.266   3.845   3.086
    1PA     C15 8879   1.100   3.709   3.034
    1PA     H5R 8880   1.171   3.634   2.998
    1PA     H5S 8881   1.027   3.648   3.089
    1PA     C14 8882   1.038   3.774   2.910
    1PA     H4R 8883   1.107   3.850   2.872
    1PA     H4S 8884   1.028   3.690   2.841
    1PA     C13 8885   0.907   3.850   2.935
    1PA     H3R 8886   0.840   3.793   3.001
    1PA     H3S 8887   0.937   3.939   2.991
    1PA     C12 8888   0.833   3.891   2.806
    1PA     H2R 8889   0.780   3.806   2.762
    1PA     H2S 8890   0.755   3.963   2.829
    2PC     C11 8891   0.915   3.951   2.695
    2PC     O12 8892   0.912   4.063   2.648
    2PC     O11 8893   0.995   3.853   2.649
    2PC      C1 8894   1.093   3.894   2.552
    2PC      HR 8895   1.042   3.920   2.458
    2PC      HS 8896   1.150   3.982   2.581
    2PC      C2 8897   1.187   3.776   2.523
    2PC      HX 8898   1.251   3.808   2.441
    2PC      C3 8899   1.105   3.655   2.477
    2PC      HA 8900   1.065   3.600   2.564
    2PC      HB 8901   1.020   3.689   2.416
    2PC     O31 8902   1.191   3.563   2.407
    2PC     P31 8903   1.254   3.599   2.265
    2PC     O32 8904   1.405   3.629   2.309
    2PC     C31 8905   1.512   3.549   2.254
    2PC     H1A 8906   1.478   3.449   2.226
    2PC     H1B 8907   1.556   3.600   2.168
    2PC     C32 8908   1.616   3.542   2.367
    2PC     H2A 8909   1.561   3.537   2.461
    2PC     H2B 8910   1.676   3.451   2.358
    2PC     N31 8911   1.713   3.652   2.398
    2PC     C33 8912   1.647   3.785   2.416
    2PC     H3A 8913   1.608   3.821   2.321
    2PC     H3B 8914   1.569   3.771   2.492
    2PC     H3C 8915   1.722   3.853   2.457
    2PC     C34 8916   1.790   3.618   2.521
    2PC     H4A 8917   1.858   3.540   2.487
    2PC     H4B 8918   1.845   3.710   2.544
    2PC     H4C 8919   1.728   3.590   2.606
    2PC     C35 8920   1.812   3.669   2.286
    2PC     H5A 8921   1.892   3.737   2.317
    2PC     H5B 8922   1.754   3.691   2.197
    2PC     H5C 8923   1.864   3.575   2.273
    2PC     O33 8924   1.236   3.490   2.167
    2PC     O34 8925   1.192   3.714   2.196
    2PC     O21 8926   1.258   3.749   2.645
    2PC     C21 8927   1.371   3.806   2.692
    2PC     O22 8928   1.429   3.894   2.633
    3OL     C12 8929   1.424   3.743   2.818
    3OL     H2R 8930   1.384   3.786   2.910
    3OL     H2S 8931   1.528   3.777   2.824
    3OL     C13 8932   1.413   3.590   2.819
    3OL     H3R 8933   1.452   3.545   2.727
    3OL     H3S 8934   1.307   3.567   2.836
    3OL     C14 8935   1.494   3.529   2.933
    3OL     H4R 8936   1.446   3.538   3.031
    3OL     H4S 8937   1.585   3.585   2.955
    3OL     C15 8938   1.530   3.382   2.906
    3OL     H5R 8939   1.625   3.358   2.954
    3OL     H5S 8940   1.547   3.373   2.798
    3OL     C16 8941   1.422   3.285   2.952
    3OL     H6R 8942   1.331   3.297   2.892
    3OL     H6S 8943   1.394   3.308   3.055
    3OL     C17 8944   1.469   3.139   2.947
    3OL     H7R 8945   1.564   3.131   3.000
    3OL     H7S 8946   1.491   3.125   2.841
    3OL     C18 8947   1.368   3.039   3.007
    3OL     H8R 8948   1.325   3.086   3.096
    3OL     H8S 8949   1.420   2.949   3.040
    3OL     C19 8950   1.260   3.016   2.906
    3OL     H9R 8951   1.266   3.072   2.813
    3OL    C110 8952   1.164   2.924   2.911
    3OL    H10R 8953   1.089   2.902   2.835
    3OL    C111 8954   1.140   2.835   3.030
    3OL    H11R 8955   1.226   2.844   3.097
    3OL    H11S 8956   1.133   2.732   2.994
    3OL    C112 8957   1.007   2.875   3.095
    3OL    H12R 8958   0.922   2.819   3.057
    3OL    H12S 8959   0.991   2.976   3.058
    3OL    C113 8960   1.027   2.876   3.247
    3OL    H13R 8961   0.945   2.930   3.295
    3OL    H13S 8962   1.119   2.924   3.281
    3OL    C114 8963   1.012   2.731   3.295
    3OL    H14R 8964   1.080   2.662   3.245
    3OL    H14S 8965   0.915   2.688   3.268
    3OL    C115 8966   1.024   2.722   3.448
    3OL    H15R 8967   0.946   2.781   3.495
    3OL    H15S 8968   1.123   2.754   3.480
    3OL    C116 8969   1.005   2.578   3.499
    3OL    H16R 8970   1.012   2.574   3.608
    3OL    H16S 8971   1.088   2.517   3.465
    3OL    C117 8972   0.864   2.527   3.464
    3OL    H17R 8973   0.851   2.529   3.356
    3OL    H17S 8974   0.785   2.593   3.502
    3OL    C118 8975   0.842   2.389   3.528
    3OL    H18R 8976   0.933   2.335   3.500
    3OL    H18S 8977   0.750   2.344   3.490
    3OL    H18T 8978   0.834   2.392   3.637
    1PA    C116 8979  -0.087   4.419   3.504
    1PA    H16R 8980  -0.159   4.484   3.554
    1PA    H16S 8981  -0.079   4.439   3.397
    1PA    H16T 8982   0.015   4.430   3.541
    1PA    C115 8983  -0.128   4.271   3.518
    1PA    H15R 8984  -0.148   4.254   3.624
    1PA    H15S 8985  -0.217   4.255   3.457
    1PA    C114 8986  -0.018   4.174   3.471
    1PA    H14R 8987   0.008   4.209   3.371
    1PA    H14S 8988   0.069   4.185   3.536
    1PA    C113 8989  -0.068   4.029   3.469
    1PA    H13R 8990  -0.099   3.993   3.568
    1PA    H13S 8991  -0.159   4.026   3.409
    1PA    C112 8992   0.038   3.939   3.406
    1PA    H12R 8993   0.055   3.973   3.304
    1PA    H12S 8994   0.125   3.926   3.471
    1PA    C111 8995  -0.029   3.803   3.383
    1PA    H11R 8996  -0.070   3.770   3.479
    1PA    H11S 8997  -0.115   3.821   3.317
    1PA    C110 8998   0.074   3.704   3.329
    1PA    H10R 8999   0.135   3.753   3.253
    1PA    H10S 9000   0.134   3.666   3.412
    1PA     C19 9001   0.006   3.590   3.251
    1PA     H9R 9002  -0.067   3.544   3.318
    1PA     H9S 9003  -0.057   3.631   3.172
    1PA     C18 9004   0.111   3.493   3.197
    1PA     H8R 9005   0.178   3.540   3.124
    1PA     H8S 9006   0.180   3.453   3.271
    1PA     C17 9007   0.053   3.370   3.125
    1PA     H7R 9008  -0.014   3.310   3.187
    1PA     H7S 9009  -0.006   3.410   3.042
    1PA     C16 9010   0.164   3.284   3.063
    1PA     H6R 9011   0.216   3.353   2.996
    1PA     H6S 9012   0.230   3.248   3.142
    1PA     C15 9013   0.104   3.162   2.993
    1PA     H5R 9014   0.051   3.095   3.061
    1PA     H5S 9015   0.027   3.192   2.922
    1PA     C14 9016   0.212   3.075   2.926
    1PA     H4R 9017   0.275   3.045   3.010
    1PA     H4S 9018   0.177   2.988   2.870
    1PA     C13 9019   0.308   3.147   2.830
    1PA     H3R 9020   0.371   3.213   2.889
    1PA     H3S 9021   0.374   3.074   2.784
    1PA     C12 9022   0.236   3.226   2.720
    1PA     H2R 9023   0.167   3.164   2.661
    1PA     H2S 9024   0.165   3.294   2.768
    2PC     C11 9025   0.334   3.302   2.635
    2PC     O12 9026   0.452   3.324   2.653
    2PC     O11 9027   0.287   3.321   2.511
    2PC      C1 9028   0.365   3.390   2.411
    2PC      HR 9029   0.418   3.475   2.455
    2PC      HS 9030   0.445   3.330   2.368
    2PC      C2 9031   0.267   3.443   2.305
    2PC      HX 9032   0.226   3.351   2.263
    2PC      C3 9033   0.330   3.538   2.202
    2PC      HA 9034   0.414   3.491   2.150
    2PC      HB 9035   0.255   3.579   2.134
    2PC     O31 9036   0.397   3.651   2.261
    2PC     P31 9037   0.468   3.756   2.163
    2PC     O32 9038   0.503   3.868   2.272
    2PC     C31 9039   0.410   3.969   2.314
    2PC     H1A 9040   0.359   4.002   2.222
    2PC     H1B 9041   0.337   3.924   2.381
    2PC     C32 9042   0.483   4.092   2.370
    2PC     H2A 9043   0.580   4.101   2.321
    2PC     H2B 9044   0.431   4.186   2.345
    2PC     N31 9045   0.513   4.103   2.516
    2PC     C33 9046   0.634   4.182   2.553
    2PC     H3A 9047   0.609   4.283   2.520
    2PC     H3B 9048   0.648   4.176   2.661
    2PC     H3C 9049   0.718   4.149   2.491
    2PC     C34 9050   0.391   4.153   2.587
    2PC     H4A 9051   0.417   4.159   2.693
    2PC     H4B 9052   0.364   4.257   2.566
    2PC     H4C 9053   0.308   4.085   2.566
    2PC     C35 9054   0.537   3.966   2.573
    2PC     H5A 9055   0.636   3.932   2.544
    2PC     H5B 9056   0.469   3.893   2.529
    2PC     H5C 9057   0.545   3.975   2.682
    2PC     O33 9058   0.589   3.685   2.114
    2PC     O34 9059   0.383   3.822   2.062
    2PC     O21 9060   0.156   3.509   2.368
    2PC     C21 9061   0.041   3.443   2.389
    2PC     O22 9062   0.025   3.328   2.355
    3OL     C12 9063  -0.069   3.516   2.462
    3OL     H2R 9064  -0.153   3.514   2.393
    3OL     H2S 9065  -0.039   3.621   2.461
    3OL     C13 9066  -0.102   3.453   2.598
    3OL     H3R 9067  -0.163   3.525   2.653
    3OL     H3S 9068  -0.016   3.420   2.656
    3OL     C14 9069  -0.201   3.338   2.579
    3OL     H4R 9070  -0.155   3.252   2.529
    3OL     H4S 9071  -0.297   3.356   2.529
    3OL     C15 9072  -0.240   3.283   2.717
    3OL     H5R 9073  -0.160   3.278   2.790
    3OL     H5S 9074  -0.284   3.184   2.704
    3OL     C16 9075  -0.356   3.360   2.782
    3OL     H6R 9076  -0.434   3.379   2.707
    3OL     H6S 9077  -0.324   3.461   2.809
    3OL     C17 9078  -0.409   3.287   2.906
    3OL     H7R 9079  -0.322   3.256   2.964
    3OL     H7S 9080  -0.462   3.199   2.869
    3OL     C18 9081  -0.499   3.369   2.999
    3OL     H8R 9082  -0.540   3.294   3.067
    3OL     H8S 9083  -0.587   3.416   2.955
    3OL     C19 9084  -0.422   3.480   3.067
    3OL     H9R 9085  -0.408   3.562   2.998
    3OL    C110 9086  -0.368   3.492   3.187
    3OL    H10R 9087  -0.311   3.584   3.204
    3OL    C111 9088  -0.367   3.387   3.295
    3OL    H11R 9089  -0.266   3.350   3.314
    3OL    H11S 9090  -0.424   3.301   3.259
    3OL    C112 9091  -0.442   3.442   3.418
    3OL    H12R 9092  -0.433   3.374   3.503
    3OL    H12S 9093  -0.545   3.471   3.396
    3OL    C113 9094  -0.364   3.560   3.477
    3OL    H13R 9095  -0.340   3.631   3.397
    3OL    H13S 9096  -0.264   3.527   3.505
    3OL    C114 9097  -0.440   3.627   3.592
    3OL    H14R 9098  -0.508   3.701   3.548
    3OL    H14S 9099  -0.358   3.682   3.639
    3OL    C115 9100  -0.512   3.533   3.690
    3OL    H15R 9101  -0.435   3.463   3.723
    3OL    H15S 9102  -0.588   3.468   3.646
    3OL    C116 9103  -0.569   3.602   3.814
    3OL    H16R 9104  -0.489   3.595   3.887
    3OL    H16S 9105  -0.649   3.541   3.856
    3OL    C117 9106  -0.609   3.749   3.794
    3OL    H17R 9107  -0.538   3.811   3.739
    3OL    H17S 9108  -0.610   3.796   3.893
    3OL    C118 9109  -0.746   3.765   3.728
    3OL    H18R 9110  -0.777   3.867   3.705
    3OL    H18S 9111  -0.821   3.734   3.801
    3OL    H18T 9112  -0.757   3.711   3.633
    1PA    C116 9113   4.938   2.213   3.622
    1PA    H16R 9114   4.955   2.320   3.637
    1PA    H16S 9115   4.839   2.184   3.659
    1PA    H16T 9116   4.945   2.196   3.514
    1PA    C115 9117   5.042   2.125   3.692
    1PA    H15R 9118   5.017   2.121   3.798
    1PA    H15S 9119   5.050   2.023   3.654
    1PA    C114 9120   5.188   2.173   3.692
    1PA    H14R 9121   5.198   2.270   3.740
    1PA    H14S 9122   5.241   2.092   3.743
    1PA    C113 9123   5.248   2.189   3.551
    1PA    H13R 9124   5.211   2.278   3.501
    1PA    H13S 9125   5.351   2.207   3.583
    1PA    C112 9126   5.261   2.065   3.461
    1PA    H12R 9127   5.324   1.995   3.515
    1PA    H12S 9128   5.160   2.025   3.445
    1PA    C111 9129   5.337   2.099   3.332
    1PA    H11R 9130   5.293   2.190   3.290
    1PA    H11S 9131   5.440   2.130   3.354
    1PA    C110 9132   5.345   1.984   3.230
    1PA    H10R 9133   5.407   1.904   3.271
    1PA    H10S 9134   5.246   1.940   3.214
    1PA     C19 9135   5.408   2.035   3.101
    1PA     H9R 9136   5.377   1.969   3.020
    1PA     H9S 9137   5.369   2.132   3.068
    1PA     C18 9138   5.562   2.030   3.110
    1PA     H8R 9139   5.589   2.082   3.202
    1PA     H8S 9140   5.597   1.927   3.109
    1PA     C17 9141   5.619   2.099   2.985
    1PA     H7R 9142   5.562   2.191   2.969
    1PA     H7S 9143   5.723   2.130   2.998
    1PA     C16 9144   5.606   2.006   2.864
    1PA     H6R 9145   5.652   1.908   2.879
    1PA     H6S 9146   5.501   1.980   2.849
    1PA     C15 9147   5.658   2.068   2.734
    1PA     H5R 9148   5.591   2.137   2.683
    1PA     H5S 9149   5.751   2.121   2.758
    1PA     C14 9150   5.691   1.957   2.634
    1PA     H4R 9151   5.756   1.888   2.689
    1PA     H4S 9152   5.606   1.895   2.604
    1PA     C13 9153   5.766   2.008   2.510
    1PA     H3R 9154   5.698   2.056   2.439
    1PA     H3S 9155   5.834   2.083   2.552
    1PA     C12 9156   5.842   1.897   2.437
    1PA     H2R 9157   5.913   1.850   2.505
    1PA     H2S 9158   5.779   1.816   2.400
    2PC     C11 9159   5.919   1.946   2.316
    2PC     O12 9160   5.899   1.907   2.203
    2PC     O11 9161   6.005   2.044   2.348
    2PC      C1 9162   6.034   2.149   2.254
    2PC      HR 9163   6.128   2.196   2.286
    2PC      HS 9164   6.047   2.103   2.157
    2PC      C2 9165   5.921   2.253   2.265
    2PC      HX 9166   5.833   2.191   2.285
    2PC      C3 9167   5.907   2.325   2.131
    2PC      HA 9168   5.874   2.245   2.064
    2PC      HB 9169   5.834   2.406   2.126
    2PC     O31 9170   6.028   2.378   2.073
    2PC     P31 9171   6.033   2.418   1.918
    2PC     O32 9172   6.040   2.278   1.839
    2PC     C31 9173   6.154   2.192   1.856
    2PC     H1A 9174   6.236   2.235   1.914
    2PC     H1B 9175   6.129   2.106   1.918
    2PC     C32 9176   6.205   2.146   1.718
    2PC     H2A 9177   6.289   2.078   1.729
    2PC     H2B 9178   6.125   2.095   1.664
    2PC     N31 9179   6.258   2.246   1.620
    2PC     C33 9180   6.346   2.342   1.695
    2PC     H3A 9181   6.291   2.396   1.772
    2PC     H3B 9182   6.428   2.291   1.745
    2PC     H3C 9183   6.393   2.415   1.629
    2PC     C34 9184   6.340   2.180   1.514
    2PC     H4A 9185   6.284   2.094   1.478
    2PC     H4B 9186   6.376   2.246   1.435
    2PC     H4C 9187   6.431   2.142   1.561
    2PC     C35 9188   6.150   2.322   1.548
    2PC     H5A 9189   6.200   2.391   1.479
    2PC     H5B 9190   6.076   2.369   1.613
    2PC     H5C 9191   6.093   2.247   1.494
    2PC     O33 9192   5.908   2.482   1.872
    2PC     O34 9193   6.137   2.516   1.879
    2PC     O21 9194   5.954   2.349   2.367
    2PC     C21 9195   5.845   2.403   2.426
    2PC     O22 9196   5.731   2.394   2.387
    3OL     C12 9197   5.883   2.491   2.542
    3OL     H2R 9198   5.824   2.582   2.530
    3OL     H2S 9199   5.989   2.518   2.547
    3OL     C13 9200   5.835   2.429   2.674
    3OL     H3R 9201   5.728   2.408   2.666
    3OL     H3S 9202   5.898   2.340   2.682
    3OL     C14 9203   5.835   2.519   2.798
    3OL     H4R 9204   5.750   2.588   2.796
    3OL     H4S 9205   5.932   2.567   2.813
    3OL     C15 9206   5.812   2.425   2.917
    3OL     H5R 9207   5.901   2.364   2.934
    3OL     H5S 9208   5.729   2.356   2.905
    3OL     C16 9209   5.793   2.509   3.045
    3OL     H6R 9210   5.700   2.567   3.041
    3OL     H6S 9211   5.872   2.584   3.054
    3OL     C17 9212   5.797   2.419   3.169
    3OL     H7R 9213   5.886   2.355   3.172
    3OL     H7S 9214   5.711   2.354   3.159
    3OL     C18 9215   5.779   2.495   3.302
    3OL     H8R 9216   5.727   2.429   3.372
    3OL     H8S 9217   5.708   2.574   3.277
    3OL     C19 9218   5.914   2.548   3.339
    3OL     H9R 9219   5.981   2.567   3.255
    3OL    C110 9220   5.950   2.566   3.465
    3OL    H10R 9221   6.048   2.600   3.497
    3OL    C111 9222   5.857   2.537   3.580
    3OL    H11R 9223   5.831   2.431   3.578
    3OL    H11S 9224   5.763   2.592   3.570
    3OL    C112 9225   5.916   2.580   3.715
    3OL    H12R 9226   6.002   2.516   3.737
    3OL    H12S 9227   5.834   2.567   3.786
    3OL    C113 9228   5.966   2.724   3.718
    3OL    H13R 9229   6.040   2.744   3.640
    3OL    H13S 9230   6.014   2.741   3.815
    3OL    C114 9231   5.852   2.826   3.712
    3OL    H14R 9232   5.779   2.804   3.791
    3OL    H14S 9233   5.797   2.797   3.622
    3OL    C115 9234   5.880   2.976   3.700
    3OL    H15R 9235   5.788   3.025   3.666
    3OL    H15S 9236   5.961   2.995   3.629
    3OL    C116 9237   5.930   3.024   3.837
    3OL    H16R 9238   6.022   2.974   3.869
    3OL    H16S 9239   5.853   3.006   3.912
    3OL    C117 9240   5.954   3.176   3.827
    3OL    H17R 9241   5.855   3.219   3.810
    3OL    H17S 9242   6.014   3.207   3.741
    3OL    C118 9243   6.005   3.236   3.958
    3OL    H18R 9244   5.934   3.218   4.039
    3OL    H18S 9245   5.996   3.344   3.943
    3OL    H18T 9246   6.108   3.200   3.966
    1PA    C116 9247   6.979   0.207   3.552
    1PA    H16R 9248   7.066   0.157   3.509
    1PA    H16S 9249   6.937   0.138   3.625
    1PA    H16T 9250   7.032   0.289   3.602
    1PA    C115 9251   6.888   0.258   3.439
    1PA    H15R 9252   6.819   0.181   3.403
    1PA    H15S 9253   6.824   0.337   3.477
    1PA    C114 9254   6.967   0.307   3.317
    1PA    H14R 9255   7.028   0.389   3.356
    1PA    H14S 9256   7.023   0.225   3.272
    1PA    C113 9257   6.877   0.362   3.206
    1PA    H13R 9258   6.931   0.360   3.112
    1PA    H13S 9259   6.790   0.295   3.200
    1PA    C112 9260   6.823   0.504   3.231
    1PA    H12R 9261   6.762   0.504   3.322
    1PA    H12S 9262   6.903   0.578   3.243
    1PA    C111 9263   6.727   0.543   3.118
    1PA    H11R 9264   6.647   0.472   3.099
    1PA    H11S 9265   6.676   0.634   3.152
    1PA    C110 9266   6.793   0.587   2.987
    1PA    H10R 9267   6.824   0.692   2.981
    1PA    H10S 9268   6.884   0.528   2.976
    1PA     C19 9269   6.695   0.578   2.869
    1PA     H9R 9270   6.745   0.588   2.772
    1PA     H9S 9271   6.652   0.478   2.861
    1PA     C18 9272   6.589   0.688   2.884
    1PA     H8R 9273   6.531   0.684   2.977
    1PA     H8S 9274   6.635   0.786   2.887
    1PA     C17 9275   6.494   0.697   2.763
    1PA     H7R 9276   6.550   0.695   2.670
    1PA     H7S 9277   6.426   0.612   2.759
    1PA     C16 9278   6.417   0.829   2.781
    1PA     H6R 9279   6.371   0.827   2.880
    1PA     H6S 9280   6.493   0.907   2.778
    1PA     C15 9281   6.314   0.847   2.669
    1PA     H5R 9282   6.271   0.948   2.677
    1PA     H5S 9283   6.371   0.837   2.576
    1PA     C14 9284   6.197   0.748   2.672
    1PA     H4R 9285   6.234   0.646   2.664
    1PA     H4S 9286   6.155   0.767   2.771
    1PA     C13 9287   6.090   0.784   2.568
    1PA     H3R 9288   5.992   0.741   2.590
    1PA     H3S 9289   6.091   0.892   2.553
    1PA     C12 9290   6.132   0.734   2.429
    1PA     H2R 9291   6.239   0.751   2.415
    1PA     H2S 9292   6.110   0.628   2.418
    2PC     C11 9293   6.057   0.804   2.319
    2PC     O12 9294   5.937   0.814   2.311
    2PC     O11 9295   6.144   0.851   2.227
    2PC      C1 9296   6.091   0.921   2.113
    2PC      HR 9297   6.177   0.936   2.047
    2PC      HS 9298   6.022   0.852   2.063
    2PC      C2 9299   6.023   1.056   2.141
    2PC      HX 9300   5.937   1.036   2.206
    2PC      C3 9301   5.977   1.130   2.014
    2PC      HA 9302   5.912   1.079   1.943
    2PC      HB 9303   5.928   1.225   2.037
    2PC     O31 9304   6.097   1.164   1.942
    2PC     P31 9305   6.095   1.272   1.823
    2PC     O32 9306   6.073   1.395   1.923
    2PC     C31 9307   6.055   1.526   1.866
    2PC     H1A 9308   6.123   1.544   1.783
    2PC     H1B 9309   5.952   1.516   1.831
    2PC     C32 9310   6.056   1.639   1.971
    2PC     H2A 9311   6.036   1.734   1.921
    2PC     H2B 9312   5.979   1.612   2.043
    2PC     N31 9313   6.186   1.673   2.036
    2PC     C33 9314   6.237   1.555   2.113
    2PC     H3A 9315   6.334   1.584   2.154
    2PC     H3B 9316   6.165   1.524   2.189
    2PC     H3C 9317   6.256   1.472   2.045
    2PC     C34 9318   6.287   1.717   1.935
    2PC     H4A 9319   6.377   1.752   1.986
    2PC     H4B 9320   6.316   1.628   1.877
    2PC     H4C 9321   6.248   1.795   1.871
    2PC     C35 9322   6.160   1.785   2.133
    2PC     H5A 9323   6.109   1.870   2.087
    2PC     H5B 9324   6.254   1.820   2.177
    2PC     H5C 9325   6.093   1.745   2.208
    2PC     O33 9326   6.215   1.258   1.739
    2PC     O34 9327   5.972   1.257   1.742
    2PC     O21 9328   6.112   1.144   2.211
    2PC     C21 9329   6.073   1.218   2.316
    2PC     O22 9330   5.955   1.234   2.341
    3OL     C12 9331   6.184   1.261   2.409
    3OL     H2R 9332   6.182   1.370   2.406
    3OL     H2S 9333   6.279   1.231   2.364
    3OL     C13 9334   6.168   1.194   2.546
    3OL     H3R 9335   6.213   1.096   2.536
    3OL     H3S 9336   6.061   1.183   2.565
    3OL     C14 9337   6.242   1.267   2.659
    3OL     H4R 9338   6.314   1.342   2.628
    3OL     H4S 9339   6.302   1.189   2.706
    3OL     C15 9340   6.143   1.327   2.761
    3OL     H5R 9341   6.071   1.252   2.794
    3OL     H5S 9342   6.083   1.405   2.713
    3OL     C16 9343   6.219   1.392   2.878
    3OL     H6R 9344   6.290   1.461   2.833
    3OL     H6S 9345   6.275   1.318   2.936
    3OL     C17 9346   6.126   1.460   2.979
    3OL     H7R 9347   6.059   1.388   3.026
    3OL     H7S 9348   6.072   1.538   2.924
    3OL     C18 9349   6.201   1.534   3.090
    3OL     H8R 9350   6.267   1.610   3.047
    3OL     H8S 9351   6.270   1.466   3.142
    3OL     C19 9352   6.112   1.602   3.191
    3OL     H9R 9353   6.085   1.706   3.176
    3OL    C110 9354   6.075   1.550   3.307
    3OL    H10R 9355   6.006   1.610   3.367
    3OL    C111 9356   6.112   1.411   3.350
    3OL    H11R 9357   6.121   1.338   3.269
    3OL    H11S 9358   6.030   1.375   3.412
    3OL    C112 9359   6.242   1.424   3.431
    3OL    H12R 9360   6.320   1.482   3.382
    3OL    H12S 9361   6.276   1.326   3.464
    3OL    C113 9362   6.229   1.510   3.558
    3OL    H13R 9363   6.202   1.615   3.540
    3OL    H13S 9364   6.325   1.523   3.609
    3OL    C114 9365   6.126   1.455   3.658
    3OL    H14R 9366   6.163   1.354   3.677
    3OL    H14S 9367   6.027   1.440   3.616
    3OL    C115 9368   6.127   1.525   3.795
    3OL    H15R 9369   6.137   1.633   3.784
    3OL    H15S 9370   6.217   1.492   3.848
    3OL    C116 9371   5.996   1.501   3.871
    3OL    H16R 9372   5.916   1.548   3.813
    3OL    H16S 9373   5.995   1.550   3.969
    3OL    C117 9374   5.965   1.352   3.891
    3OL    H17R 9375   6.030   1.299   3.962
    3OL    H17S 9376   5.983   1.303   3.795
    3OL    C118 9377   5.825   1.327   3.948
    3OL    H18R 9378   5.817   1.240   4.013
    3OL    H18S 9379   5.743   1.345   3.878
    3OL    H18T 9380   5.823   1.411   4.019
    1PA    C116 9381   2.900   3.946   4.357
    1PA    H16R 9382   2.910   3.892   4.452
    1PA    H16S 9383   2.858   4.042   4.388
    1PA    H16T 9384   3.005   3.954   4.328
    1PA    C115 9385   2.804   3.869   4.266
    1PA    H15R 9386   2.705   3.871   4.312
    1PA    H15S 9387   2.795   3.919   4.170
    1PA    C114 9388   2.856   3.728   4.236
    1PA    H14R 9389   2.960   3.731   4.204
    1PA    H14S 9390   2.863   3.670   4.328
    1PA    C113 9391   2.772   3.653   4.131
    1PA    H13R 9392   2.668   3.648   4.163
    1PA    H13S 9393   2.768   3.720   4.044
    1PA    C112 9394   2.843   3.522   4.096
    1PA    H12R 9395   2.948   3.542   4.073
    1PA    H12S 9396   2.826   3.455   4.180
    1PA    C111 9397   2.787   3.456   3.969
    1PA    H11R 9398   2.742   3.522   3.895
    1PA    H11S 9399   2.877   3.409   3.927
    1PA    C110 9400   2.697   3.337   4.003
    1PA    H10R 9401   2.734   3.282   4.090
    1PA    H10S 9402   2.601   3.370   4.042
    1PA     C19 9403   2.679   3.238   3.887
    1PA     H9R 9404   2.774   3.218   3.837
    1PA     H9S 9405   2.647   3.143   3.929
    1PA     C18 9406   2.565   3.280   3.793
    1PA     H8R 9407   2.478   3.313   3.851
    1PA     H8S 9408   2.597   3.373   3.746
    1PA     C17 9409   2.548   3.171   3.686
    1PA     H7R 9410   2.640   3.168   3.628
    1PA     H7S 9411   2.529   3.073   3.730
    1PA     C16 9412   2.435   3.205   3.588
    1PA     H6R 9413   2.339   3.195   3.638
    1PA     H6S 9414   2.433   3.312   3.569
    1PA     C15 9415   2.434   3.124   3.457
    1PA     H5R 9416   2.532   3.133   3.411
    1PA     H5S 9417   2.422   3.018   3.477
    1PA     C14 9418   2.323   3.166   3.359
    1PA     H4R 9419   2.223   3.152   3.400
    1PA     H4S 9420   2.334   3.273   3.343
    1PA     C13 9421   2.328   3.089   3.227
    1PA     H3R 9422   2.359   2.986   3.245
    1PA     H3S 9423   2.226   3.095   3.187
    1PA     C12 9424   2.418   3.144   3.115
    1PA     H2R 9425   2.380   3.244   3.094
    1PA     H2S 9426   2.525   3.159   3.135
    2PC     C11 9427   2.407   3.073   2.983
    2PC     O12 9428   2.321   2.989   2.964
    2PC     O11 9429   2.500   3.105   2.891
    2PC      C1 9430   2.486   3.036   2.766
    2PC      HR 9431   2.463   2.930   2.778
    2PC      HS 9432   2.405   3.083   2.709
    2PC      C2 9433   2.617   3.049   2.686
    2PC      HX 9434   2.672   3.140   2.712
    2PC      C3 9435   2.594   3.047   2.534
    2PC      HA 9436   2.528   2.961   2.518
    2PC      HB 9437   2.538   3.133   2.498
    2PC     O31 9438   2.721   3.027   2.469
    2PC     P31 9439   2.732   3.031   2.309
    2PC     O32 9440   2.848   2.924   2.281
    2PC     C31 9441   2.979   2.931   2.340
    2PC     H1A 9442   3.025   3.025   2.307
    2PC     H1B 9443   2.966   2.938   2.448
    2PC     C32 9444   3.067   2.814   2.292
    2PC     H2A 9445   3.160   2.831   2.346
    2PC     H2B 9446   3.022   2.723   2.332
    2PC     N31 9447   3.095   2.788   2.147
    2PC     C33 9448   3.182   2.900   2.100
    2PC     H3A 9449   3.270   2.904   2.164
    2PC     H3B 9450   3.217   2.880   1.998
    2PC     H3C 9451   3.129   2.995   2.113
    2PC     C34 9452   3.158   2.653   2.126
    2PC     H4A 9453   3.184   2.652   2.020
    2PC     H4B 9454   3.251   2.654   2.184
    2PC     H4C 9455   3.090   2.569   2.137
    2PC     C35 9456   2.966   2.787   2.070
    2PC     H5A 9457   2.991   2.763   1.967
    2PC     H5B 9458   2.922   2.886   2.075
    2PC     H5C 9459   2.898   2.717   2.118
    2PC     O33 9460   2.611   2.984   2.238
    2PC     O34 9461   2.772   3.166   2.263
    2PC     O21 9462   2.705   2.942   2.722
    2PC     C21 9463   2.698   2.818   2.670
    2PC     O22 9464   2.600   2.772   2.614
    3OL     C12 9465   2.818   2.733   2.699
    3OL     H2R 9466   2.848   2.701   2.599
    3OL     H2S 9467   2.794   2.646   2.760
    3OL     C13 9468   2.938   2.795   2.773
    3OL     H3R 9469   2.965   2.898   2.749
    3OL     H3S 9470   3.023   2.741   2.730
    3OL     C14 9471   2.933   2.785   2.926
    3OL     H4R 9472   2.908   2.683   2.955
    3OL     H4S 9473   2.849   2.844   2.961
    3OL     C15 9474   3.060   2.823   3.004
    3OL     H5R 9475   3.076   2.931   3.006
    3OL     H5S 9476   3.144   2.770   2.957
    3OL     C16 9477   3.057   2.762   3.145
    3OL     H6R 9478   3.046   2.654   3.135
    3OL     H6S 9479   2.976   2.822   3.187
    3OL     C17 9480   3.178   2.788   3.235
    3OL     H7R 9481   3.160   2.769   3.341
    3OL     H7S 9482   3.203   2.894   3.224
    3OL     C18 9483   3.298   2.696   3.211
    3OL     H8R 9484   3.379   2.728   3.276
    3OL     H8S 9485   3.323   2.714   3.106
    3OL     C19 9486   3.265   2.553   3.248
    3OL     H9R 9487   3.212   2.536   3.342
    3OL    C110 9488   3.266   2.445   3.171
    3OL    H10R 9489   3.221   2.352   3.205
    3OL    C111 9490   3.330   2.431   3.036
    3OL    H11R 9491   3.410   2.358   3.051
    3OL    H11S 9492   3.378   2.524   3.003
    3OL    C112 9493   3.237   2.369   2.931
    3OL    H12R 9494   3.256   2.262   2.938
    3OL    H12S 9495   3.275   2.403   2.834
    3OL    C113 9496   3.089   2.406   2.948
    3OL    H13R 9497   3.077   2.514   2.939
    3OL    H13S 9498   3.055   2.375   3.047
    3OL    C114 9499   3.006   2.328   2.846
    3OL    H14R 9500   3.031   2.222   2.845
    3OL    H14S 9501   3.040   2.357   2.747
    3OL    C115 9502   2.854   2.343   2.859
    3OL    H15R 9503   2.821   2.448   2.857
    3OL    H15S 9504   2.823   2.284   2.946
    3OL    C116 9505   2.763   2.282   2.752
    3OL    H16R 9506   2.773   2.349   2.667
    3OL    H16S 9507   2.657   2.294   2.775
    3OL    C117 9508   2.803   2.139   2.712
    3OL    H17R 9509   2.786   2.075   2.799
    3OL    H17S 9510   2.912   2.132   2.701
    3OL    C118 9511   2.725   2.085   2.592
    3OL    H18R 9512   2.618   2.088   2.609
    3OL    H18S 9513   2.768   1.985   2.582
    3OL    H18T 9514   2.748   2.132   2.496
    1PA    C116 9515   1.263   1.830   3.945
    1PA    H16R 9516   1.346   1.808   4.012
    1PA    H16S 9517   1.189   1.753   3.965
    1PA    H16T 9518   1.223   1.925   3.982
    1PA    C115 9519   1.321   1.822   3.803
    1PA    H15R 9520   1.377   1.728   3.798
    1PA    H15S 9521   1.245   1.817   3.725
    1PA    C114 9522   1.402   1.944   3.757
    1PA    H14R 9523   1.343   2.036   3.753
    1PA    H14S 9524   1.473   1.963   3.838
    1PA    C113 9525   1.462   1.904   3.622
    1PA    H13R 9526   1.549   1.841   3.641
    1PA    H13S 9527   1.382   1.853   3.567
    1PA    C112 9528   1.511   2.014   3.527
    1PA    H12R 9529   1.425   2.081   3.528
    1PA    H12S 9530   1.599   2.061   3.571
    1PA    C111 9531   1.543   1.972   3.383
    1PA    H11R 9532   1.627   1.902   3.385
    1PA    H11S 9533   1.458   1.921   3.336
    1PA    C110 9534   1.571   2.093   3.293
    1PA    H10R 9535   1.474   2.143   3.280
    1PA    H10S 9536   1.647   2.151   3.346
    1PA     C19 9537   1.627   2.043   3.159
    1PA     H9R 9538   1.715   1.984   3.184
    1PA     H9S 9539   1.560   1.969   3.116
    1PA     C18 9540   1.674   2.150   3.059
    1PA     H8R 9541   1.581   2.201   3.031
    1PA     H8S 9542   1.739   2.230   3.095
    1PA     C17 9543   1.740   2.079   2.941
    1PA     H7R 9544   1.819   2.020   2.988
    1PA     H7S 9545   1.668   2.026   2.878
    1PA     C16 9546   1.824   2.181   2.863
    1PA     H6R 9547   1.754   2.257   2.828
    1PA     H6S 9548   1.892   2.229   2.933
    1PA     C15 9549   1.904   2.125   2.744
    1PA     H5R 9550   1.968   2.046   2.783
    1PA     H5S 9551   1.834   2.074   2.677
    1PA     C14 9552   1.986   2.229   2.666
    1PA     H4R 9553   1.914   2.307   2.641
    1PA     H4S 9554   2.064   2.279   2.723
    1PA     C13 9555   2.041   2.170   2.535
    1PA     H3R 9556   2.125   2.233   2.504
    1PA     H3S 9557   2.077   2.070   2.559
    1PA     C12 9558   1.940   2.157   2.421
    1PA     H2R 9559   1.873   2.073   2.443
    1PA     H2S 9560   1.881   2.249   2.417
    2PC     C11 9561   1.991   2.120   2.284
    2PC     O12 9562   1.963   2.013   2.233
    2PC     O11 9563   2.084   2.200   2.230
    2PC      C1 9564   2.126   2.174   2.095
    2PC      HR 9565   2.213   2.236   2.073
    2PC      HS 9566   2.163   2.071   2.093
    2PC      C2 9567   2.019   2.215   1.993
    2PC      HX 9568   1.946   2.134   1.987
    2PC      C3 9569   2.092   2.233   1.859
    2PC      HA 9570   2.130   2.335   1.866
    2PC      HB 9571   2.172   2.161   1.844
    2PC     O31 9572   2.003   2.219   1.747
    2PC     P31 9573   2.034   2.302   1.614
    2PC     O32 9574   1.978   2.205   1.500
    2PC     C31 9575   2.027   2.222   1.366
    2PC     H1A 9576   1.991   2.319   1.329
    2PC     H1B 9577   2.136   2.214   1.364
    2PC     C32 9578   1.952   2.124   1.275
    2PC     H2A 9579   1.957   2.022   1.315
    2PC     H2B 9580   1.845   2.146   1.273
    2PC     N31 9581   1.992   2.114   1.131
    2PC     C33 9582   2.139   2.090   1.114
    2PC     H3A 9583   2.193   2.178   1.148
    2PC     H3B 9584   2.171   2.009   1.179
    2PC     H3C 9585   2.160   2.082   1.007
    2PC     C34 9586   1.924   1.999   1.062
    2PC     H4A 9587   1.957   1.991   0.958
    2PC     H4B 9588   1.952   1.907   1.113
    2PC     H4C 9589   1.816   2.006   1.059
    2PC     C35 9590   1.954   2.239   1.057
    2PC     H5A 9591   1.985   2.329   1.111
    2PC     H5B 9592   1.846   2.243   1.069
    2PC     H5C 9593   1.980   2.238   0.951
    2PC     O33 9594   1.961   2.431   1.605
    2PC     O34 9595   2.178   2.327   1.589
    2PC     O21 9596   1.972   2.348   2.023
    2PC     C21 9597   1.867   2.362   2.106
    2PC     O22 9598   1.781   2.276   2.105
    3OL     C12 9599   1.853   2.495   2.174
    3OL     H2R 9600   1.786   2.496   2.261
    3OL     H2S 9601   1.810   2.568   2.105
    3OL     C13 9602   1.987   2.544   2.230
    3OL     H3R 9603   2.048   2.586   2.150
    3OL     H3S 9604   2.049   2.465   2.271
    3OL     C14 9605   1.960   2.653   2.335
    3OL     H4R 9606   1.873   2.713   2.307
    3OL     H4S 9607   2.038   2.730   2.337
    3OL     C15 9608   1.955   2.588   2.474
    3OL     H5R 9609   2.037   2.518   2.493
    3OL     H5S 9610   1.869   2.522   2.483
    3OL     C16 9611   1.938   2.694   2.583
    3OL     H6R 9612   1.857   2.758   2.548
    3OL     H6S 9613   2.027   2.758   2.580
    3OL     C17 9614   1.901   2.649   2.725
    3OL     H7R 9615   1.820   2.579   2.704
    3OL     H7S 9616   1.860   2.732   2.782
    3OL     C18 9617   2.018   2.583   2.800
    3OL     H8R 9618   2.094   2.661   2.806
    3OL     H8S 9619   2.061   2.498   2.746
    3OL     C19 9620   1.977   2.530   2.935
    3OL     H9R 9621   1.919   2.438   2.927
    3OL    C110 9622   1.997   2.582   3.055
    3OL    H10R 9623   1.961   2.516   3.134
    3OL    C111 9624   2.067   2.704   3.110
    3OL    H11R 9625   2.115   2.765   3.034
    3OL    H11S 9626   2.151   2.670   3.171
    3OL    C112 9627   1.984   2.799   3.198
    3OL    H12R 9628   2.033   2.893   3.224
    3OL    H12S 9629   1.961   2.754   3.295
    3OL    C113 9630   1.862   2.838   3.114
    3OL    H13R 9631   1.811   2.742   3.105
    3OL    H13S 9632   1.884   2.874   3.013
    3OL    C114 9633   1.774   2.946   3.180
    3OL    H14R 9634   1.700   2.986   3.111
    3OL    H14S 9635   1.838   3.023   3.225
    3OL    C115 9636   1.689   2.882   3.290
    3OL    H15R 9637   1.749   2.828   3.363
    3OL    H15S 9638   1.609   2.824   3.243
    3OL    C116 9639   1.624   2.991   3.377
    3OL    H16R 9640   1.556   3.060   3.326
    3OL    H16S 9641   1.710   3.048   3.412
    3OL    C117 9642   1.540   2.934   3.492
    3OL    H17R 9643   1.525   3.007   3.572
    3OL    H17S 9644   1.596   2.850   3.533
    3OL    C118 9645   1.405   2.878   3.443
    3OL    H18R 9646   1.361   2.812   3.518
    3OL    H18S 9647   1.409   2.829   3.345
    3OL    H18T 9648   1.334   2.960   3.436
    1PA    C116 9649   5.465   2.941   3.525
    1PA    H16R 9650   5.368   2.925   3.478
    1PA    H16S 9651   5.447   3.013   3.605
    1PA    H16T 9652   5.494   2.846   3.570
    1PA    C115 9653   5.578   2.987   3.431
    1PA    H15R 9654   5.575   3.093   3.403
    1PA    H15S 9655   5.673   2.989   3.486
    1PA    C114 9656   5.589   2.890   3.313
    1PA    H14R 9657   5.592   2.784   3.342
    1PA    H14S 9658   5.501   2.903   3.250
    1PA    C113 9659   5.713   2.920   3.229
    1PA    H13R 9660   5.800   2.957   3.284
    1PA    H13S 9661   5.750   2.831   3.179
    1PA    C112 9662   5.687   3.031   3.125
    1PA    H12R 9663   5.607   3.096   3.161
    1PA    H12S 9664   5.787   3.074   3.124
    1PA    C111 9665   5.643   2.969   2.992
    1PA    H11R 9666   5.700   2.878   2.972
    1PA    H11S 9667   5.536   2.950   3.001
    1PA    C110 9668   5.661   3.065   2.873
    1PA    H10R 9669   5.766   3.092   2.862
    1PA    H10S 9670   5.625   3.016   2.782
    1PA     C19 9671   5.571   3.188   2.885
    1PA     H9R 9672   5.469   3.154   2.905
    1PA     H9S 9673   5.597   3.254   2.968
    1PA     C18 9674   5.564   3.257   2.748
    1PA     H8R 9675   5.668   3.274   2.720
    1PA     H8S 9676   5.525   3.188   2.672
    1PA     C17 9677   5.486   3.389   2.747
    1PA     H7R 9678   5.380   3.377   2.766
    1PA     H7S 9679   5.531   3.459   2.818
    1PA     C16 9680   5.485   3.450   2.606
    1PA     H6R 9681   5.437   3.374   2.544
    1PA     H6S 9682   5.415   3.532   2.596
    1PA     C15 9683   5.614   3.484   2.529
    1PA     H5R 9684   5.668   3.392   2.510
    1PA     H5S 9685   5.577   3.530   2.436
    1PA     C14 9686   5.708   3.579   2.604
    1PA     H4R 9687   5.649   3.670   2.623
    1PA     H4S 9688   5.727   3.526   2.697
    1PA     C13 9689   5.836   3.612   2.527
    1PA     H3R 9690   5.886   3.521   2.493
    1PA     H3S 9691   5.805   3.654   2.431
    1PA     C12 9692   5.937   3.704   2.597
    1PA     H2R 9693   5.873   3.780   2.644
    1PA     H2S 9694   5.984   3.650   2.680
    2PC     C11 9695   6.033   3.767   2.500
    2PC     O12 9696   6.092   3.698   2.420
    2PC     O11 9697   6.054   3.900   2.510
    2PC      C1 9698   6.118   3.968   2.400
    2PC      HR 9699   6.222   3.945   2.375
    2PC      HS 9700   6.064   3.944   2.308
    2PC      C2 9701   6.105   4.120   2.412
    2PC      HX 9702   6.000   4.147   2.400
    2PC      C3 9703   6.167   4.184   2.287
    2PC      HA 9704   6.274   4.199   2.304
    2PC      HB 9705   6.150   4.125   2.197
    2PC     O31 9706   6.106   4.312   2.261
    2PC     P31 9707   6.144   4.397   2.131
    2PC     O32 9708   6.040   4.519   2.127
    2PC     C31 9709   6.051   4.615   2.021
    2PC     H1A 9710   6.147   4.663   2.042
    2PC     H1B 9711   6.067   4.555   1.931
    2PC     C32 9712   5.922   4.696   2.002
    2PC     H2A 9713   5.890   4.749   2.092
    2PC     H2B 9714   5.946   4.771   1.926
    2PC     N31 9715   5.794   4.626   1.966
    2PC     C33 9716   5.679   4.722   1.963
    2PC     H3A 9717   5.593   4.658   1.947
    2PC     H3B 9718   5.669   4.762   2.064
    2PC     H3C 9719   5.686   4.801   1.888
    2PC     C34 9720   5.816   4.561   1.833
    2PC     H4A 9721   5.877   4.471   1.835
    2PC     H4B 9722   5.718   4.531   1.795
    2PC     H4C 9723   5.862   4.639   1.773
    2PC     C35 9724   5.754   4.527   2.071
    2PC     H5A 9725   5.657   4.479   2.058
    2PC     H5B 9726   5.753   4.582   2.164
    2PC     H5C 9727   5.843   4.465   2.086
    2PC     O33 9728   6.281   4.446   2.156
    2PC     O34 9729   6.137   4.325   2.002
    2PC     O21 9730   6.164   4.171   2.532
    2PC     C21 9731   6.293   4.166   2.571
    2PC     O22 9732   6.380   4.108   2.509
    3OL     C12 9733   6.308   4.228   2.708
    3OL     H2R 9734   6.238   4.169   2.767
    3OL     H2S 9735   6.273   4.331   2.706
    3OL     C13 9736   6.456   4.225   2.751
    3OL     H3R 9737   6.530   4.270   2.685
    3OL     H3S 9738   6.489   4.122   2.761
    3OL     C14 9739   6.485   4.303   2.880
    3OL     H4R 9740   6.581   4.266   2.919
    3OL     H4S 9741   6.404   4.286   2.951
    3OL     C15 9742   6.499   4.453   2.850
    3OL     H5R 9743   6.400   4.480   2.811
    3OL     H5S 9744   6.572   4.464   2.769
    3OL     C16 9745   6.523   4.529   2.981
    3OL     H6R 9746   6.622   4.513   3.023
    3OL     H6S 9747   6.445   4.497   3.051
    3OL     C17 9748   6.506   4.678   2.949
    3OL     H7R 9749   6.412   4.692   2.895
    3OL     H7S 9750   6.590   4.713   2.889
    3OL     C18 9751   6.496   4.763   3.076
    3OL     H8R 9752   6.452   4.697   3.151
    3OL     H8S 9753   6.424   4.844   3.058
    3OL     C19 9754   6.627   4.825   3.118
    3OL     H9R 9755   6.660   4.903   3.050
    3OL    C110 9756   6.704   4.794   3.221
    3OL    H10R 9757   6.797   4.850   3.225
    3OL    C111 9758   6.678   4.691   3.328
    3OL    H11R 9759   6.733   4.600   3.301
    3OL    H11S 9760   6.574   4.659   3.329
    3OL    C112 9761   6.735   4.742   3.461
    3OL    H12R 9762   6.676   4.832   3.481
    3OL    H12S 9763   6.838   4.776   3.446
    3OL    C113 9764   6.706   4.641   3.572
    3OL    H13R 9765   6.598   4.631   3.556
    3OL    H13S 9766   6.730   4.682   3.670
    3OL    C114 9767   6.772   4.503   3.562
    3OL    H14R 9768   6.879   4.516   3.573
    3OL    H14S 9769   6.750   4.455   3.466
    3OL    C115 9770   6.737   4.409   3.678
    3OL    H15R 9771   6.633   4.406   3.709
    3OL    H15S 9772   6.801   4.447   3.758
    3OL    C116 9773   6.783   4.266   3.645
    3OL    H16R 9774   6.891   4.256   3.638
    3OL    H16S 9775   6.727   4.238   3.556
    3OL    C117 9776   6.744   4.173   3.762
    3OL    H17R 9777   6.644   4.186   3.802
    3OL    H17S 9778   6.804   4.189   3.852
    3OL    C118 9779   6.764   4.028   3.717
    3OL    H18R 9780   6.733   3.961   3.797
    3OL    H18S 9781   6.869   4.005   3.696
    3OL    H18T 9782   6.701   4.000   3.631
    1PA    C116 9783   6.027   4.006   3.534
    1PA    H16R 9784   6.061   4.110   3.528
    1PA    H16S 9785   6.107   3.935   3.553
    1PA    H16T 9786   5.960   4.004   3.620
    1PA    C115 9787   5.940   3.984   3.410
    1PA    H15R 9788   5.992   4.005   3.316
    1PA    H15S 9789   5.911   3.878   3.410
    1PA    C114 9790   5.811   4.067   3.409
    1PA    H14R 9791   5.742   4.029   3.484
    1PA    H14S 9792   5.824   4.175   3.418
    1PA    C113 9793   5.748   4.043   3.271
    1PA    H13R 9794   5.650   4.090   3.262
    1PA    H13S 9795   5.816   4.090   3.199
    1PA    C112 9796   5.718   3.896   3.239
    1PA    H12R 9797   5.801   3.825   3.234
    1PA    H12S 9798   5.640   3.864   3.309
    1PA    C111 9799   5.664   3.893   3.096
    1PA    H11R 9800   5.574   3.954   3.089
    1PA    H11S 9801   5.738   3.930   3.025
    1PA    C110 9802   5.608   3.756   3.052
    1PA    H10R 9803   5.680   3.676   3.069
    1PA    H10S 9804   5.516   3.737   3.107
    1PA     C19 9805   5.568   3.750   2.904
    1PA     H9R 9806   5.640   3.802   2.842
    1PA     H9S 9807   5.562   3.651   2.859
    1PA     C18 9808   5.429   3.812   2.886
    1PA     H8R 9809   5.346   3.771   2.944
    1PA     H8S 9810   5.445   3.912   2.927
    1PA     C17 9811   5.398   3.826   2.736
    1PA     H7R 9812   5.489   3.865   2.690
    1PA     H7S 9813   5.363   3.732   2.691
    1PA     C16 9814   5.268   3.905   2.716
    1PA     H6R 9815   5.181   3.851   2.754
    1PA     H6S 9816   5.266   3.995   2.779
    1PA     C15 9817   5.258   3.945   2.568
    1PA     H5R 9818   5.346   4.005   2.541
    1PA     H5S 9819   5.264   3.857   2.504
    1PA     C14 9820   5.131   4.024   2.535
    1PA     H4R 9821   5.110   4.008   2.429
    1PA     H4S 9822   5.047   3.988   2.595
    1PA     C13 9823   5.147   4.175   2.560
    1PA     H3R 9824   5.154   4.185   2.668
    1PA     H3S 9825   5.235   4.204   2.503
    1PA     C12 9826   5.028   4.266   2.527
    1PA     H2R 9827   4.940   4.233   2.583
    1PA     H2S 9828   5.049   4.362   2.573
    2PC     C11 9829   4.995   4.287   2.381
    2PC     O12 9830   5.080   4.306   2.297
    2PC     O11 9831   4.864   4.294   2.353
    2PC      C1 9832   4.827   4.321   2.216
    2PC      HR 9833   4.888   4.404   2.180
    2PC      HS 9834   4.845   4.234   2.152
    2PC      C2 9835   4.677   4.351   2.213
    2PC      HX 9836   4.615   4.268   2.248
    2PC      C3 9837   4.635   4.363   2.065
    2PC      HA 9838   4.635   4.267   2.014
    2PC      HB 9839   4.532   4.397   2.057
    2PC     O31 9840   4.717   4.457   1.992
    2PC     P31 9841   4.674   4.491   1.842
    2PC     O32 9842   4.686   4.357   1.755
    2PC     C31 9843   4.614   4.345   1.630
    2PC     H1A 9844   4.514   4.308   1.654
    2PC     H1B 9845   4.617   4.440   1.577
    2PC     C32 9846   4.671   4.227   1.551
    2PC     H2A 9847   4.779   4.234   1.539
    2PC     H2B 9848   4.653   4.127   1.591
    2PC     N31 9849   4.619   4.216   1.411
    2PC     C33 9850   4.475   4.177   1.402
    2PC     H3A 9851   4.436   4.180   1.300
    2PC     H3B 9852   4.471   4.073   1.438
    2PC     H3C 9853   4.415   4.244   1.463
    2PC     C34 9854   4.643   4.340   1.330
    2PC     H4A 9855   4.736   4.380   1.373
    2PC     H4B 9856   4.655   4.306   1.228
    2PC     H4C 9857   4.561   4.411   1.340
    2PC     C35 9858   4.699   4.105   1.350
    2PC     H5A 9859   4.807   4.120   1.338
    2PC     H5B 9860   4.669   4.088   1.246
    2PC     H5C 9861   4.677   4.011   1.401
    2PC     O33 9862   4.540   4.554   1.849
    2PC     O34 9863   4.744   4.604   1.776
    2PC     O21 9864   4.652   4.471   2.288
    2PC     C21 9865   4.527   4.496   2.330
    2PC     O22 9866   4.435   4.423   2.300
    3OL     C12 9867   4.516   4.616   2.420
    3OL     H2R 9868   4.420   4.664   2.404
    3OL     H2S 9869   4.584   4.698   2.396
    3OL     C13 9870   4.523   4.566   2.565
    3OL     H3R 9871   4.450   4.486   2.580
    3OL     H3S 9872   4.491   4.643   2.635
    3OL     C14 9873   4.659   4.507   2.607
    3OL     H4R 9874   4.729   4.590   2.615
    3OL     H4S 9875   4.704   4.450   2.525
    3OL     C15 9876   4.652   4.430   2.739
    3OL     H5R 9877   4.742   4.371   2.758
    3OL     H5S 9878   4.567   4.361   2.737
    3OL     C16 9879   4.636   4.522   2.861
    3OL     H6R 9880   4.545   4.583   2.854
    3OL     H6S 9881   4.728   4.580   2.865
    3OL     C17 9882   4.632   4.434   2.986
    3OL     H7R 9883   4.717   4.365   2.980
    3OL     H7S 9884   4.549   4.362   2.983
    3OL     C18 9885   4.626   4.533   3.103
    3OL     H8R 9886   4.546   4.605   3.088
    3OL     H8S 9887   4.726   4.577   3.110
    3OL     C19 9888   4.599   4.438   3.218
    3OL     H9R 9889   4.549   4.344   3.195
    3OL    C110 9890   4.666   4.449   3.331
    3OL    H10R 9891   4.660   4.378   3.413
    3OL    C111 9892   4.761   4.556   3.380
    3OL    H11R 9893   4.741   4.647   3.323
    3OL    H11S 9894   4.867   4.529   3.377
    3OL    C112 9895   4.743   4.590   3.528
    3OL    H12R 9896   4.818   4.658   3.567
    3OL    H12S 9897   4.751   4.504   3.595
    3OL    C113 9898   4.607   4.659   3.548
    3OL    H13R 9899   4.518   4.608   3.508
    3OL    H13S 9900   4.595   4.759   3.506
    3OL    C114 9901   4.587   4.677   3.699
    3OL    H14R 9902   4.679   4.727   3.731
    3OL    H14S 9903   4.567   4.583   3.750
    3OL    C115 9904   4.466   4.764   3.734
    3OL    H15R 9905   4.378   4.720   3.686
    3OL    H15S 9906   4.485   4.863   3.691
    3OL    C116 9907   4.450   4.770   3.886
    3OL    H16R 9908   4.549   4.774   3.932
    3OL    H16S 9909   4.416   4.667   3.900
    3OL    C117 9910   4.352   4.877   3.937
    3OL    H17R 9911   4.258   4.858   3.884
    3OL    H17S 9912   4.383   4.978   3.909
    3OL    C118 9913   4.331   4.877   4.089
    3OL    H18R 9914   4.421   4.900   4.147
    3OL    H18S 9915   4.297   4.775   4.111
    3OL    H18T 9916   4.254   4.950   4.113
    1PA    C116 9917   0.491   4.962   3.666
    1PA    H16R 9918   0.413   4.902   3.619
    1PA    H16S 9919   0.505   4.930   3.769
    1PA    H16T 9920   0.582   4.929   3.616
    1PA    C115 9921   0.461   5.112   3.653
    1PA    H15R 9922   0.406   5.122   3.559
    1PA    H15S 9923   0.394   5.145   3.732
    1PA    C114 9924   0.589   5.197   3.644
    1PA    H14R 9925   0.556   5.299   3.628
    1PA    H14S 9926   0.646   5.179   3.735
    1PA    C113 9927   0.671   5.161   3.519
    1PA    H13R 9928   0.770   5.201   3.536
    1PA    H13S 9929   0.697   5.055   3.520
    1PA    C112 9930   0.607   5.207   3.387
    1PA    H12R 9931   0.507   5.168   3.370
    1PA    H12S 9932   0.602   5.316   3.388
    1PA    C111 9933   0.697   5.152   3.275
    1PA    H11R 9934   0.793   5.203   3.259
    1PA    H11S 9935   0.720   5.046   3.292
    1PA    C110 9936   0.619   5.160   3.143
    1PA    H10R 9937   0.531   5.096   3.141
    1PA    H10S 9938   0.581   5.262   3.141
    1PA     C19 9939   0.698   5.114   3.020
    1PA     H9R 9940   0.798   5.158   3.015
    1PA     H9S 9941   0.715   5.006   3.029
    1PA     C18 9942   0.614   5.145   2.895
    1PA     H8R 9943   0.517   5.096   2.902
    1PA     H8S 9944   0.606   5.253   2.888
    1PA     C17 9945   0.688   5.092   2.772
    1PA     H7R 9946   0.791   5.129   2.770
    1PA     H7S 9947   0.697   4.984   2.776
    1PA     C16 9948   0.619   5.128   2.639
    1PA     H6R 9949   0.637   5.232   2.610
    1PA     H6S 9950   0.674   5.073   2.563
    1PA     C15 9951   0.471   5.091   2.629
    1PA     H5R 9952   0.412   5.149   2.701
    1PA     H5S 9953   0.431   5.121   2.532
    1PA     C14 9954   0.450   4.939   2.635
    1PA     H4R 9955   0.489   4.893   2.544
    1PA     H4S 9956   0.496   4.906   2.728
    1PA     C13 9957   0.305   4.899   2.665
    1PA     H3R 9958   0.306   4.790   2.663
    1PA     H3S 9959   0.284   4.944   2.762
    1PA     C12 9960   0.206   4.955   2.561
    1PA     H2R 9961   0.110   4.905   2.577
    1PA     H2S 9962   0.188   5.061   2.585
    2PC     C11 9963   0.249   4.955   2.417
    2PC     O12 9964   0.207   5.037   2.338
    2PC     O11 9965   0.314   4.842   2.382
    2PC      C1 9966   0.343   4.816   2.244
    2PC      HR 9967   0.338   4.708   2.228
    2PC      HS 9968   0.270   4.862   2.177
    2PC      C2 9969   0.483   4.867   2.210
    2PC      HX 9970   0.489   4.964   2.260
    2PC      C3 9971   0.493   4.894   2.059
    2PC      HA 9972   0.430   4.978   2.026
    2PC      HB 9973   0.597   4.914   2.035
    2PC     O31 9974   0.459   4.776   1.984
    2PC     P31 9975   0.502   4.767   1.830
    2PC     O32 9976   0.363   4.733   1.758
    2PC     C31 9977   0.295   4.844   1.698
    2PC     H1A 9978   0.296   4.925   1.770
    2PC     H1B 9979   0.356   4.864   1.609
    2PC     C32 9980   0.155   4.809   1.644
    2PC     H2A 9981   0.101   4.767   1.729
    2PC     H2B 9982   0.105   4.900   1.610
    2PC     N31 9983   0.130   4.709   1.535
    2PC     C33 9984   0.205   4.747   1.410
    2PC     H3A 9985   0.313   4.753   1.424
    2PC     H3B 9986   0.179   4.677   1.331
    2PC     H3C 9987   0.177   4.848   1.383
    2PC     C34 9988   0.175   4.572   1.575
    2PC     H4A 9989   0.123   4.540   1.666
    2PC     H4B 9990   0.156   4.505   1.491
    2PC     H4C 9991   0.282   4.577   1.597
    2PC     C35 9992  -0.016   4.711   1.503
    2PC     H5A 9993  -0.074   4.702   1.595
    2PC     H5B 9994  -0.037   4.635   1.428
    2PC     H5C 9995  -0.027   4.808   1.455
    2PC     O33 9996   0.556   4.891   1.769
    2PC     O34 9997   0.604   4.660   1.819
    2PC     O21 9998   0.591   4.776   2.240
    2PC     C21 9999   0.708   4.824   2.285
    2PC     O2210000   0.729   4.938   2.322
    3OL     C1210001   0.818   4.722   2.303
    3OL     H2R10002   0.899   4.741   2.233
    3OL     H2S10003   0.778   4.620   2.296
    3OL     C1310004   0.883   4.731   2.442
    3OL     H3R10005   0.917   4.832   2.463
    3OL     H3S10006   0.964   4.662   2.417
    3OL     C1410007   0.798   4.664   2.551
    3OL     H4R10008   0.786   4.558   2.529
    3OL     H4S10009   0.699   4.710   2.548
    3OL     C1510010   0.882   4.672   2.680
    3OL     H5R10011   0.895   4.773   2.719
    3OL     H5S10012   0.980   4.630   2.654
    3OL     C1610013   0.833   4.584   2.796
    3OL     H6R10014   0.920   4.565   2.859
    3OL     H6S10015   0.801   4.484   2.766
    3OL     C1710016   0.725   4.646   2.886
    3OL     H7R10017   0.627   4.660   2.839
    3OL     H7S10018   0.748   4.747   2.921
    3OL     C1810019   0.700   4.565   3.014
    3OL     H8R10020   0.796   4.534   3.054
    3OL     H8S10021   0.652   4.472   2.981
    3OL     C1910022   0.619   4.628   3.124
    3OL     H9R10023   0.512   4.624   3.102
    3OL    C11010024   0.659   4.669   3.243
    3OL    H10R10025   0.588   4.718   3.309
    3OL    C11110026   0.800   4.665   3.298
    3OL    H11R10027   0.871   4.628   3.223
    3OL    H11S10028   0.804   4.594   3.380
    3OL    C11210029   0.836   4.806   3.345
    3OL    H12R10030   0.767   4.831   3.425
    3OL    H12S10031   0.820   4.874   3.261
    3OL    C11310032   0.988   4.814   3.373
    3OL    H13R10033   1.042   4.761   3.295
    3OL    H13S10034   0.994   4.750   3.461
    3OL    C11410035   1.040   4.954   3.408
    3OL    H14R10036   0.973   4.996   3.482
    3OL    H14S10037   1.028   5.008   3.313
    3OL    C11510038   1.189   4.958   3.447
    3OL    H15R10039   1.219   4.894   3.531
    3OL    H15S10040   1.210   5.061   3.475
    3OL    C11610041   1.274   4.908   3.330
    3OL    H16R10042   1.255   4.969   3.241
    3OL    H16S10043   1.267   4.801   3.311
    3OL    C11710044   1.423   4.931   3.358
    3OL    H17R10045   1.440   5.038   3.371
    3OL    H17S10046   1.474   4.918   3.262
    3OL    C11810047   1.484   4.830   3.456
    3OL    H18R10048   1.445   4.729   3.443
    3OL    H18S10049   1.593   4.824   3.459
    3OL    H18T10050   1.459   4.852   3.560
    1PA    C11610051   1.069   2.369   4.000
    1PA    H16R10052   1.092   2.263   4.016
    1PA    H16S10053   1.142   2.433   4.049
    1PA    H16T10054   0.968   2.384   4.040
    1PA    C11510055   1.079   2.395   3.849
    1PA    H15R10056   0.995   2.348   3.797
    1PA    H15S10057   1.076   2.503   3.838
    1PA    C11410058   1.207   2.347   3.779
    1PA    H14R10059   1.222   2.243   3.812
    1PA    H14S10060   1.199   2.356   3.671
    1PA    C11310061   1.333   2.424   3.819
    1PA    H13R10062   1.319   2.527   3.785
    1PA    H13S10063   1.342   2.427   3.928
    1PA    C11210064   1.469   2.373   3.771
    1PA    H12R10065   1.552   2.437   3.803
    1PA    H12S10066   1.485   2.282   3.829
    1PA    C11110067   1.471   2.357   3.619
    1PA    H11R10068   1.554   2.294   3.586
    1PA    H11S10069   1.379   2.316   3.577
    1PA    C11010070   1.499   2.498   3.564
    1PA    H10R10071   1.426   2.576   3.588
    1PA    H10S10072   1.591   2.530   3.612
    1PA     C1910073   1.528   2.503   3.414
    1PA     H9R10074   1.584   2.595   3.394
    1PA     H9S10075   1.601   2.425   3.391
    1PA     C1810076   1.405   2.459   3.333
    1PA     H8R10077   1.359   2.372   3.381
    1PA     H8S10078   1.330   2.539   3.338
    1PA     C1710079   1.443   2.434   3.187
    1PA     H7R10080   1.539   2.384   3.172
    1PA     H7S10081   1.375   2.359   3.146
    1PA     C1610082   1.448   2.571   3.119
    1PA     H6R10083   1.356   2.626   3.141
    1PA     H6S10084   1.538   2.616   3.161
    1PA     C1510085   1.462   2.564   2.966
    1PA     H5R10086   1.552   2.509   2.940
    1PA     H5S10087   1.372   2.514   2.929
    1PA     C1410088   1.470   2.704   2.902
    1PA     H4R10089   1.376   2.754   2.926
    1PA     H4S10090   1.534   2.771   2.959
    1PA     C1310091   1.508   2.699   2.754
    1PA     H3R10092   1.595   2.634   2.738
    1PA     H3S10093   1.430   2.646   2.699
    1PA     C1210094   1.529   2.838   2.692
    1PA     H2R10095   1.436   2.891   2.717
    1PA     H2S10096   1.620   2.896   2.711
    2PC     C1110097   1.539   2.816   2.543
    2PC     O1210098   1.636   2.835   2.473
    2PC     O1110099   1.425   2.769   2.491
    2PC      C110100   1.426   2.721   2.355
    2PC      HR10101   1.325   2.704   2.318
    2PC      HS10102   1.475   2.794   2.291
    2PC      C210103   1.506   2.591   2.335
    2PC      HX10104   1.613   2.614   2.340
    2PC      C310105   1.472   2.525   2.201
    2PC      HA10106   1.542   2.444   2.182
    2PC      HB10107   1.370   2.485   2.203
    2PC     O3110108   1.492   2.619   2.093
    2PC     P3110109   1.447   2.576   1.946
    2PC     O3210110   1.534   2.442   1.932
    2PC     C3110111   1.576   2.404   1.800
    2PC     H1A10112   1.497   2.385   1.727
    2PC     H1B10113   1.635   2.485   1.756
    2PC     C3210114   1.656   2.274   1.819
    2PC     H2A10115   1.711   2.249   1.728
    2PC     H2B10116   1.727   2.291   1.901
    2PC     N3110117   1.592   2.144   1.856
    2PC     C3310118   1.694   2.039   1.891
    2PC     H3A10119   1.650   1.950   1.936
    2PC     H3B10120   1.752   2.020   1.800
    2PC     H3C10121   1.765   2.079   1.963
    2PC     C3410122   1.499   2.163   1.972
    2PC     H4A10123   1.438   2.073   1.984
    2PC     H4B10124   1.552   2.189   2.064
    2PC     H4C10125   1.443   2.251   1.939
    2PC     C3510126   1.508   2.093   1.743
    2PC     H5A10127   1.422   2.159   1.730
    2PC     H5B10128   1.491   1.986   1.757
    2PC     H5C10129   1.573   2.103   1.656
    2PC     O3310130   1.300   2.569   1.933
    2PC     O3410131   1.487   2.674   1.842
    2PC     O2110132   1.463   2.490   2.429
    2PC     C2110133   1.539   2.386   2.467
    2PC     O2210134   1.654   2.371   2.430
    3OL     C1210135   1.451   2.297   2.551
    3OL     H2R10136   1.355   2.286   2.501
    3OL     H2S10137   1.436   2.353   2.644
    3OL     C1310138   1.496   2.153   2.577
    3OL     H3R10139   1.599   2.156   2.614
    3OL     H3S10140   1.491   2.107   2.478
    3OL     C1410141   1.406   2.070   2.669
    3OL     H4R10142   1.301   2.066   2.638
    3OL     H4S10143   1.421   2.109   2.770
    3OL     C1510144   1.452   1.924   2.665
    3OL     H5R10145   1.552   1.909   2.706
    3OL     H5S10146   1.453   1.895   2.559
    3OL     C1610147   1.363   1.825   2.742
    3OL     H6R10148   1.256   1.845   2.732
    3OL     H6S10149   1.376   1.836   2.850
    3OL     C1710150   1.388   1.679   2.703
    3OL     H7R10151   1.385   1.677   2.594
    3OL     H7S10152   1.307   1.621   2.748
    3OL     C1810153   1.517   1.618   2.761
    3OL     H8R10154   1.533   1.654   2.863
    3OL     H8S10155   1.590   1.671   2.699
    3OL     C1910156   1.545   1.474   2.726
    3OL     H9R10157   1.573   1.444   2.625
    3OL    C11010158   1.551   1.371   2.808
    3OL    H10R10159   1.576   1.274   2.767
    3OL    C11110160   1.520   1.370   2.956
    3OL    H11R10161   1.512   1.472   2.994
    3OL    H11S10162   1.601   1.325   3.012
    3OL    C11210163   1.384   1.302   2.979
    3OL    H12R10164   1.385   1.203   2.931
    3OL    H12S10165   1.311   1.356   2.919
    3OL    C11310166   1.348   1.302   3.128
    3OL    H13R10167   1.333   1.403   3.165
    3OL    H13S10168   1.425   1.247   3.182
    3OL    C11410169   1.211   1.239   3.156
    3OL    H14R10170   1.140   1.269   3.078
    3OL    H14S10171   1.168   1.283   3.246
    3OL    C11510172   1.216   1.086   3.164
    3OL    H15R10173   1.299   1.061   3.230
    3OL    H15S10174   1.238   1.058   3.061
    3OL    C11610175   1.087   1.020   3.215
    3OL    H16R10176   1.081   0.918   3.175
    3OL    H16S10177   0.998   1.066   3.171
    3OL    C11710178   1.088   1.013   3.369
    3OL    H17R10179   1.122   1.109   3.409
    3OL    H17S10180   1.164   0.937   3.392
    3OL    C11810181   0.954   0.958   3.419
    3OL    H18R10182   0.952   0.934   3.525
    3OL    H18S10183   0.934   0.870   3.355
    3OL    H18T10184   0.871   1.027   3.404
    1PA    C11610185   6.241   1.063   3.653
    1PA    H16R10186   6.188   1.011   3.732
    1PA    H16S10187   6.169   1.132   3.609
    1PA    H16T10188   6.328   1.110   3.699
    1PA    C11510189   6.293   0.961   3.550
    1PA    H15R10190   6.373   0.909   3.603
    1PA    H15S10191   6.219   0.887   3.519
    1PA    C11410192   6.341   1.033   3.423
    1PA    H14R10193   6.253   1.088   3.387
    1PA    H14S10194   6.410   1.114   3.449
    1PA    C11310195   6.410   0.943   3.321
    1PA    H13R10196   6.504   0.900   3.358
    1PA    H13S10197   6.354   0.849   3.306
    1PA    C11210198   6.455   1.019   3.195
    1PA    H12R10199   6.513   1.107   3.223
    1PA    H12S10200   6.517   0.957   3.130
    1PA    C11110201   6.341   1.078   3.112
    1PA    H11R10202   6.309   1.170   3.162
    1PA    H11S10203   6.387   1.099   3.015
    1PA    C11010204   6.223   0.983   3.089
    1PA    H10R10205   6.259   0.890   3.042
    1PA    H10S10206   6.184   0.953   3.187
    1PA     C1910207   6.117   1.050   3.000
    1PA     H9R10208   6.082   1.143   3.046
    1PA     H9S10209   6.166   1.079   2.907
    1PA     C1810210   5.998   0.962   2.961
    1PA     H8R10211   6.029   0.866   2.917
    1PA     H8S10212   5.935   0.934   3.046
    1PA     C1710213   5.903   1.022   2.857
    1PA     H7R10214   5.854   1.109   2.902
    1PA     H7S10215   5.954   1.060   2.769
    1PA     C1610216   5.800   0.917   2.812
    1PA     H6R10217   5.847   0.825   2.778
    1PA     H6S10218   5.728   0.891   2.890
    1PA     C1510219   5.712   0.977   2.701
    1PA     H5R10220   5.658   1.063   2.742
    1PA     H5S10221   5.767   1.002   2.610
    1PA     C1410222   5.598   0.885   2.653
    1PA     H4R10223   5.543   0.844   2.738
    1PA     H4S10224   5.536   0.952   2.592
    1PA     C1310225   5.644   0.776   2.556
    1PA     H3R10226   5.696   0.819   2.470
    1PA     H3S10227   5.712   0.710   2.610
    1PA     C1210228   5.524   0.693   2.508
    1PA     H2R10229   5.458   0.670   2.592
    1PA     H2S10230   5.461   0.762   2.453
    2PC     C1110231   5.571   0.576   2.425
    2PC     O1210232   5.666   0.506   2.453
    2PC     O1110233   5.485   0.550   2.325
    2PC      C110234   5.504   0.434   2.241
    2PC      HR10235   5.611   0.435   2.218
    2PC      HS10236   5.489   0.340   2.295
    2PC      C210237   5.406   0.437   2.123
    2PC      HX10238   5.427   0.349   2.062
    2PC      C310239   5.421   0.565   2.039
    2PC      HA10240   5.370   0.650   2.087
    2PC      HB10241   5.526   0.585   2.021
    2PC     O3110242   5.349   0.542   1.917
    2PC     P3110243   5.360   0.651   1.800
    2PC     O3210244   5.513   0.679   1.761
    2PC     C3110245   5.529   0.742   1.633
    2PC     H1A10246   5.485   0.681   1.554
    2PC     H1B10247   5.479   0.839   1.635
    2PC     C3210248   5.682   0.759   1.620
    2PC     H2A10249   5.714   0.862   1.635
    2PC     H2B10250   5.736   0.711   1.701
    2PC     N3110251   5.757   0.707   1.502
    2PC     C3310252   5.904   0.706   1.532
    2PC     H3A10253   5.915   0.648   1.623
    2PC     H3B10254   5.961   0.652   1.456
    2PC     H3C10255   5.936   0.810   1.541
    2PC     C3410256   5.721   0.564   1.477
    2PC     H4A10257   5.776   0.500   1.547
    2PC     H4B10258   5.613   0.552   1.470
    2PC     H4C10259   5.756   0.548   1.375
    2PC     C3510260   5.721   0.784   1.378
    2PC     H5A10261   5.769   0.737   1.292
    2PC     H5B10262   5.759   0.885   1.397
    2PC     H5C10263   5.614   0.793   1.360
    2PC     O3310264   5.289   0.595   1.682
    2PC     O3410265   5.288   0.779   1.822
    2PC     O2110266   5.268   0.431   2.160
    2PC     C2110267   5.226   0.333   2.241
    2PC     O2210268   5.285   0.227   2.252
    3OL     C1210269   5.106   0.371   2.325
    3OL     H2R10270   5.013   0.350   2.271
    3OL     H2S10271   5.112   0.478   2.345
    3OL     C1310272   5.116   0.303   2.462
    3OL     H3R10273   5.119   0.195   2.444
    3OL     H3S10274   5.025   0.328   2.517
    3OL     C1410275   5.226   0.365   2.549
    3OL     H4R10276   5.192   0.467   2.566
    3OL     H4S10277   5.317   0.379   2.490
    3OL     C1510278   5.251   0.301   2.686
    3OL     H5R10279   5.255   0.193   2.671
    3OL     H5S10280   5.163   0.317   2.748
    3OL     C1610281   5.371   0.366   2.757
    3OL     H6R10282   5.455   0.367   2.687
    3OL     H6S10283   5.398   0.311   2.847
    3OL     C1710284   5.335   0.510   2.794
    3OL     H7R10285   5.237   0.505   2.841
    3OL     H7S10286   5.319   0.560   2.698
    3OL     C1810287   5.436   0.586   2.881
    3OL     H8R10288   5.532   0.584   2.829
    3OL     H8S10289   5.444   0.546   2.983
    3OL     C1910290   5.381   0.726   2.889
    3OL     H9R10291   5.320   0.763   2.806
    3OL    C11010292   5.392   0.811   2.990
    3OL    H10R10293   5.343   0.907   2.981
    3OL    C11110294   5.466   0.792   3.120
    3OL    H11R10295   5.540   0.872   3.135
    3OL    H11S10296   5.518   0.697   3.106
    3OL    C11210297   5.375   0.769   3.242
    3OL    H12R10298   5.307   0.853   3.252
    3OL    H12S10299   5.434   0.765   3.334
    3OL    C11310300   5.308   0.631   3.238
    3OL    H13R10301   5.266   0.612   3.139
    3OL    H13S10302   5.223   0.628   3.307
    3OL    C11410303   5.399   0.512   3.274
    3OL    H14R10304   5.443   0.524   3.374
    3OL    H14S10305   5.485   0.510   3.207
    3OL    C11510306   5.339   0.371   3.272
    3OL    H15R10307   5.245   0.369   3.328
    3OL    H15S10308   5.402   0.296   3.322
    3OL    C11610309   5.315   0.324   3.128
    3OL    H16R10310   5.401   0.333   3.062
    3OL    H16S10311   5.241   0.391   3.085
    3OL    C11710312   5.265   0.179   3.116
    3OL    H17R10313   5.241   0.148   3.014
    3OL    H17S10314   5.167   0.183   3.163
    3OL    C11810315   5.362   0.071   3.165
    3OL    H18R10316   5.442   0.057   3.091
    3OL    H18S10317   5.313  -0.024   3.189
    3OL    H18T10318   5.406   0.107   3.258
    1PA    C11610319   0.123   1.427   3.928
    1PA    H16R10320   0.044   1.356   3.904
    1PA    H16S10321   0.078   1.526   3.916
    1PA    H16T10322   0.161   1.413   4.030
    1PA    C11510323   0.234   1.413   3.823
    1PA    H15R10324   0.315   1.485   3.838
    1PA    H15S10325   0.273   1.313   3.838
    1PA    C11410326   0.186   1.421   3.677
    1PA    H14R10327   0.093   1.364   3.675
    1PA    H14S10328   0.159   1.524   3.653
    1PA    C11310329   0.283   1.361   3.574
    1PA    H13R10330   0.359   1.437   3.559
    1PA    H13S10331   0.334   1.275   3.617
    1PA    C11210332   0.214   1.335   3.439
    1PA    H12R10333   0.286   1.269   3.390
    1PA    H12S10334   0.118   1.285   3.452
    1PA    C11110335   0.185   1.461   3.357
    1PA    H11R10336   0.115   1.527   3.408
    1PA    H11S10337   0.278   1.518   3.349
    1PA    C11010338   0.120   1.420   3.224
    1PA    H10R10339   0.181   1.334   3.194
    1PA    H10S10340   0.026   1.369   3.247
    1PA     C1910341   0.113   1.534   3.122
    1PA     H9R10342   0.024   1.591   3.150
    1PA     H9S10343   0.192   1.609   3.135
    1PA     C1810344   0.096   1.490   2.977
    1PA     H8R10345   0.049   1.391   2.979
    1PA     H8S10346   0.024   1.564   2.942
    1PA     C1710347   0.226   1.475   2.897
    1PA     H7R10348   0.221   1.532   2.804
    1PA     H7S10349   0.303   1.515   2.963
    1PA     C1610350   0.274   1.330   2.882
    1PA     H6R10351   0.383   1.325   2.883
    1PA     H6S10352   0.235   1.276   2.969
    1PA     C1510353   0.215   1.276   2.751
    1PA     H5R10354   0.106   1.273   2.750
    1PA     H5S10355   0.243   1.342   2.668
    1PA     C1410356   0.267   1.136   2.717
    1PA     H4R10357   0.376   1.141   2.716
    1PA     H4S10358   0.239   1.071   2.800
    1PA     C1310359   0.208   1.088   2.583
    1PA     H3R10360   0.103   1.078   2.610
    1PA     H3S10361   0.230   1.157   2.501
    1PA     C1210362   0.270   0.955   2.539
    1PA     H2R10363   0.379   0.962   2.542
    1PA     H2S10364   0.235   0.870   2.599
    2PC     C1110365   0.232   0.923   2.397
    2PC     O1210366   0.314   0.923   2.307
    2PC     O1110367   0.098   0.924   2.383
    2PC      C110368   0.036   0.881   2.260
    2PC      HR10369  -0.067   0.916   2.255
    2PC      HS10370   0.090   0.944   2.189
    2PC      C210371   0.065   0.738   2.211
    2PC      HX10372   0.172   0.718   2.204
    2PC      C310373   0.010   0.722   2.068
    2PC      HA10374  -0.098   0.736   2.063
    2PC      HB10375   0.050   0.796   1.999
    2PC     O3110376   0.049   0.591   2.025
    2PC     P3110377  -0.020   0.526   1.896
    2PC     O3210378  -0.093   0.403   1.968
    2PC     C3110379  -0.235   0.415   1.985
    2PC     H1A10380  -0.255   0.488   2.063
    2PC     H1B10381  -0.272   0.449   1.887
    2PC     C3210382  -0.294   0.284   2.039
    2PC     H2A10383  -0.243   0.266   2.134
    2PC     H2B10384  -0.401   0.303   2.052
    2PC     N3110385  -0.283   0.156   1.962
    2PC     C3310386  -0.345   0.170   1.826
    2PC     H3A10387  -0.454   0.163   1.832
    2PC     H3B10388  -0.320   0.269   1.787
    2PC     H3C10389  -0.307   0.084   1.771
    2PC     C3410390  -0.137   0.124   1.946
    2PC     H4A10391  -0.114   0.145   2.051
    2PC     H4B10392  -0.131   0.019   1.917
    2PC     H4C10393  -0.093   0.198   1.879
    2PC     C3510394  -0.348   0.048   2.042
    2PC     H5A10395  -0.455   0.066   2.054
    2PC     H5B10396  -0.298   0.038   2.139
    2PC     H5C10397  -0.336  -0.047   1.989
    2PC     O3310398  -0.106   0.617   1.816
    2PC     O3410399   0.082   0.489   1.795
    2PC     O2110400  -0.007   0.648   2.296
    2PC     C2110401   0.062   0.597   2.399
    2PC     O2210402   0.177   0.621   2.430
    3OL     C1210403  -0.018   0.486   2.461
    3OL     H2R10404  -0.079   0.434   2.386
    3OL     H2S10405  -0.088   0.536   2.528
    3OL     C1310406   0.067   0.383   2.536
    3OL     H3R10407   0.120   0.428   2.620
    3OL     H3S10408   0.146   0.338   2.475
    3OL     C1410409  -0.022   0.269   2.589
    3OL     H4R10410   0.036   0.198   2.649
    3OL     H4S10411  -0.053   0.211   2.502
    3OL     C1510412  -0.142   0.309   2.677
    3OL     H5R10413  -0.213   0.226   2.684
    3OL     H5S10414  -0.195   0.397   2.642
    3OL     C1610415  -0.092   0.340   2.819
    3OL     H6R10416  -0.002   0.402   2.813
    3OL     H6S10417  -0.060   0.242   2.853
    3OL     C1710418  -0.198   0.406   2.908
    3OL     H7R10419  -0.297   0.359   2.906
    3OL     H7S10420  -0.217   0.509   2.878
    3OL     C1810421  -0.142   0.419   3.051
    3OL     H8R10422  -0.057   0.487   3.038
    3OL     H8S10423  -0.103   0.320   3.078
    3OL     C1910424  -0.251   0.471   3.141
    3OL     H9R10425  -0.350   0.487   3.098
    3OL    C11010426  -0.232   0.505   3.267
    3OL    H10R10427  -0.310   0.557   3.323
    3OL    C11110428  -0.099   0.515   3.336
    3OL    H11R10429  -0.089   0.622   3.354
    3OL    H11S10430  -0.012   0.487   3.275
    3OL    C11210431  -0.101   0.429   3.463
    3OL    H12R10432  -0.134   0.333   3.420
    3OL    H12S10433  -0.176   0.444   3.540
    3OL    C11310434   0.037   0.423   3.530
    3OL    H13R10435   0.114   0.386   3.462
    3OL    H13S10436   0.036   0.351   3.612
    3OL    C11410437   0.080   0.560   3.584
    3OL    H14R10438   0.003   0.586   3.657
    3OL    H14S10439   0.074   0.628   3.499
    3OL    C11510440   0.221   0.573   3.643
    3OL    H15R10441   0.241   0.678   3.665
    3OL    H15S10442   0.287   0.548   3.560
    3OL    C11610443   0.254   0.480   3.761
    3OL    H16R10444   0.356   0.496   3.797
    3OL    H16S10445   0.249   0.374   3.733
    3OL    C11710446   0.148   0.507   3.869
    3OL    H17R10447   0.050   0.477   3.830
    3OL    H17S10448   0.156   0.615   3.879
    3OL    C11810449   0.174   0.433   4.000
    3OL    H18R10450   0.155   0.325   3.993
    3OL    H18S10451   0.103   0.465   4.077
    3OL    H18T10452   0.273   0.454   4.042
    1PA    C11610453   5.152   1.717   3.577
    1PA    H16R10454   5.230   1.717   3.501
    1PA    H16S10455   5.149   1.620   3.626
    1PA    H16T10456   5.176   1.798   3.648
    1PA    C11510457   5.012   1.734   3.516
    1PA    H15R10458   4.945   1.722   3.600
    1PA    H15S10459   5.010   1.834   3.473
    1PA    C11410460   4.978   1.622   3.415
    1PA    H14R10461   5.020   1.529   3.453
    1PA    H14S10462   4.871   1.603   3.419
    1PA    C11310463   5.011   1.640   3.266
    1PA    H13R10464   4.940   1.569   3.223
    1PA    H13S10465   4.977   1.737   3.232
    1PA    C11210466   5.157   1.604   3.236
    1PA    H12R10467   5.205   1.699   3.264
    1PA    H12S10468   5.193   1.524   3.301
    1PA    C11110469   5.177   1.577   3.087
    1PA    H11R10470   5.284   1.561   3.073
    1PA    H11S10471   5.128   1.482   3.062
    1PA    C11010472   5.131   1.681   2.983
    1PA    H10R10473   5.028   1.707   3.005
    1PA    H10S10474   5.175   1.777   3.011
    1PA     C1910475   5.163   1.651   2.836
    1PA     H9R10476   5.131   1.549   2.812
    1PA     H9S10477   5.102   1.721   2.779
    1PA     C1810478   5.311   1.666   2.799
    1PA     H8R10479   5.343   1.770   2.814
    1PA     H8S10480   5.373   1.601   2.861
    1PA     C1710481   5.330   1.636   2.649
    1PA     H7R10482   5.258   1.698   2.596
    1PA     H7S10483   5.428   1.675   2.622
    1PA     C1610484   5.329   1.486   2.618
    1PA     H6R10485   5.400   1.433   2.682
    1PA     H6S10486   5.231   1.445   2.644
    1PA     C1510487   5.330   1.461   2.466
    1PA     H5R10488   5.239   1.505   2.425
    1PA     H5S10489   5.420   1.495   2.414
    1PA     C1410490   5.331   1.310   2.440
    1PA     H4R10491   5.413   1.258   2.492
    1PA     H4S10492   5.239   1.274   2.486
    1PA     C1310493   5.331   1.269   2.292
    1PA     H3R10494   5.411   1.320   2.238
    1PA     H3S10495   5.341   1.161   2.296
    1PA     C1210496   5.199   1.294   2.217
    1PA     H2R10497   5.170   1.399   2.224
    1PA     H2S10498   5.224   1.264   2.115
    2PC     C1110499   5.080   1.212   2.258
    2PC     O1210500   5.063   1.094   2.231
    2PC     O1110501   4.977   1.279   2.313
    2PC      C110502   4.851   1.214   2.341
    2PC      HR10503   4.818   1.140   2.268
    2PC      HS10504   4.873   1.160   2.433
    2PC      C210505   4.739   1.319   2.345
    2PC      HX10506   4.641   1.281   2.375
    2PC      C310507   4.723   1.374   2.203
    2PC      HA10508   4.813   1.412   2.154
    2PC      HB10509   4.684   1.293   2.140
    2PC     O3110510   4.613   1.466   2.205
    2PC     P3110511   4.551   1.509   2.063
    2PC     O3210512   4.393   1.529   2.081
    2PC     C3110513   4.312   1.415   2.109
    2PC     H1A10514   4.340   1.337   2.037
    2PC     H1B10515   4.327   1.386   2.213
    2PC     C3210516   4.164   1.448   2.082
    2PC     H2A10517   4.150   1.503   1.989
    2PC     H2B10518   4.103   1.358   2.073
    2PC     N3110519   4.087   1.520   2.189
    2PC     C3310520   4.127   1.661   2.220
    2PC     H3A10521   4.071   1.686   2.310
    2PC     H3B10522   4.235   1.667   2.227
    2PC     H3C10523   4.086   1.719   2.137
    2PC     C3410524   3.944   1.512   2.144
    2PC     H4A10525   3.890   1.545   2.233
    2PC     H4B10526   3.930   1.577   2.057
    2PC     H4C10527   3.926   1.405   2.131
    2PC     C3510528   4.089   1.442   2.317
    2PC     H5A10529   4.026   1.488   2.393
    2PC     H5B10530   4.193   1.431   2.348
    2PC     H5C10531   4.057   1.344   2.283
    2PC     O3310532   4.614   1.632   2.009
    2PC     O3410533   4.576   1.395   1.972
    2PC     O2110534   4.778   1.425   2.435
    2PC     C2110535   4.779   1.394   2.565
    2PC     O2210536   4.740   1.289   2.613
    3OL     C1210537   4.834   1.509   2.646
    3OL     H2R10538   4.775   1.598   2.622
    3OL     H2S10539   4.938   1.521   2.616
    3OL     C1310540   4.839   1.478   2.796
    3OL     H3R10541   4.903   1.558   2.835
    3OL     H3S10542   4.902   1.392   2.820
    3OL     C1410543   4.702   1.479   2.865
    3OL     H4R10544   4.655   1.386   2.832
    3OL     H4S10545   4.650   1.568   2.829
    3OL     C1510546   4.732   1.483   3.015
    3OL     H5R10547   4.798   1.568   3.036
    3OL     H5S10548   4.785   1.389   3.035
    3OL     C1610549   4.607   1.493   3.103
    3OL     H6R10550   4.528   1.431   3.059
    3OL     H6S10551   4.576   1.598   3.096
    3OL     C1710552   4.640   1.459   3.248
    3OL     H7R10553   4.734   1.510   3.268
    3OL     H7S10554   4.670   1.354   3.248
    3OL     C1810555   4.531   1.492   3.351
    3OL     H8R10556   4.430   1.471   3.316
    3OL     H8S10557   4.525   1.601   3.359
    3OL     C1910558   4.543   1.410   3.477
    3OL     H9R10559   4.607   1.450   3.556
    3OL    C11010560   4.491   1.289   3.492
    3OL    H10R10561   4.509   1.231   3.582
    3OL    C11110562   4.421   1.209   3.385
    3OL    H11R10563   4.488   1.128   3.355
    3OL    H11S10564   4.404   1.261   3.290
    3OL    C11210565   4.287   1.160   3.439
    3OL    H12R10566   4.309   1.096   3.525
    3OL    H12S10567   4.240   1.095   3.365
    3OL    C11310568   4.195   1.280   3.470
    3OL    H13R10569   4.179   1.338   3.379
    3OL    H13S10570   4.241   1.336   3.552
    3OL    C11410571   4.053   1.248   3.518
    3OL    H14R10572   4.011   1.190   3.435
    3OL    H14S10573   3.991   1.338   3.520
    3OL    C11510574   4.053   1.172   3.652
    3OL    H15R10575   4.092   1.233   3.733
    3OL    H15S10576   4.121   1.087   3.645
    3OL    C11610577   3.913   1.115   3.680
    3OL    H16R10578   3.913   1.044   3.763
    3OL    H16S10579   3.871   1.066   3.592
    3OL    C11710580   3.801   1.212   3.722
    3OL    H17R10581   3.703   1.164   3.719
    3OL    H17S10582   3.804   1.298   3.654
    3OL    C11810583   3.825   1.260   3.866
    3OL    H18R10584   3.741   1.313   3.911
    3OL    H18S10585   3.915   1.321   3.872
    3OL    H18T10586   3.840   1.167   3.921
    1PA    C11610587  -0.202   2.573   3.979
    1PA    H16R10588  -0.246   2.564   3.880
    1PA    H16S10589  -0.177   2.678   3.996
    1PA    H16T10590  -0.276   2.553   4.057
    1PA    C11510591  -0.083   2.480   4.007
    1PA    H15R10592  -0.029   2.492   4.102
    1PA    H15S10593  -0.131   2.382   4.006
    1PA    C11410594   0.013   2.487   3.888
    1PA    H14R10595   0.076   2.398   3.888
    1PA    H14S10596  -0.044   2.510   3.798
    1PA    C11310597   0.097   2.614   3.905
    1PA    H13R10598   0.044   2.710   3.911
    1PA    H13S10599   0.156   2.595   3.995
    1PA    C11210600   0.198   2.620   3.789
    1PA    H12R10601   0.298   2.652   3.821
    1PA    H12S10602   0.212   2.520   3.748
    1PA    C11110603   0.158   2.703   3.666
    1PA    H11R10604   0.146   2.809   3.685
    1PA    H11S10605   0.247   2.697   3.602
    1PA    C11010606   0.035   2.650   3.592
    1PA    H10R10607   0.048   2.542   3.579
    1PA    H10S10608  -0.052   2.658   3.658
    1PA     C1910609   0.007   2.723   3.460
    1PA     H9R10610  -0.095   2.692   3.436
    1PA     H9S10611   0.019   2.831   3.457
    1PA     C1810612   0.101   2.671   3.350
    1PA     H8R10613   0.206   2.700   3.349
    1PA     H8S10614   0.101   2.562   3.351
    1PA     C1710615   0.058   2.712   3.208
    1PA     H7R10616  -0.042   2.672   3.194
    1PA     H7S10617   0.054   2.821   3.207
    1PA     C1610618   0.152   2.650   3.104
    1PA     H6R10619   0.251   2.695   3.106
    1PA     H6S10620   0.157   2.543   3.121
    1PA     C1510621   0.100   2.691   2.965
    1PA     H5R10622  -0.006   2.668   2.950
    1PA     H5S10623   0.120   2.795   2.937
    1PA     C1410624   0.171   2.602   2.861
    1PA     H4R10625   0.279   2.614   2.867
    1PA     H4S10626   0.141   2.501   2.889
    1PA     C1310627   0.120   2.617   2.717
    1PA     H3R10628   0.183   2.553   2.655
    1PA     H3S10629   0.013   2.597   2.716
    1PA     C1210630   0.138   2.763   2.672
    1PA     H2R10631   0.045   2.818   2.689
    1PA     H2S10632   0.223   2.813   2.717
    2PC     C1110633   0.149   2.780   2.523
    2PC     O1210634   0.209   2.701   2.453
    2PC     O1110635   0.100   2.896   2.476
    2PC      C110636   0.105   2.929   2.336
    2PC      HR10637   0.098   2.839   2.274
    2PC      HS10638   0.020   2.992   2.308
    2PC      C210639   0.237   3.002   2.306
    2PC      HX10640   0.250   3.096   2.359
    2PC      C310641   0.249   3.042   2.158
    2PC      HA10642   0.271   2.951   2.101
    2PC      HB10643   0.155   3.086   2.126
    2PC     O3110644   0.359   3.134   2.146
    2PC     P3110645   0.409   3.175   1.999
    2PC     O3210646   0.531   3.278   2.014
    2PC     C3110647   0.653   3.246   2.084
    2PC     H1A10648   0.632   3.180   2.169
    2PC     H1B10649   0.699   3.181   2.010
    2PC     C3210650   0.723   3.377   2.119
    2PC     H2A10651   0.705   3.445   2.036
    2PC     H2B10652   0.685   3.415   2.214
    2PC     N3110653   0.873   3.365   2.136
    2PC     C3310654   0.921   3.502   2.173
    2PC     H3A10655   0.875   3.521   2.270
    2PC     H3B10656   1.029   3.507   2.167
    2PC     H3C10657   0.886   3.561   2.088
    2PC     C3410658   0.911   3.269   2.244
    2PC     H4A10659   1.018   3.268   2.264
    2PC     H4B10660   0.846   3.283   2.332
    2PC     H4C10661   0.892   3.170   2.203
    2PC     C3510662   0.931   3.323   2.004
    2PC     H5A10663   1.038   3.344   2.004
    2PC     H5B10664   0.880   3.363   1.917
    2PC     H5C10665   0.921   3.215   1.995
    2PC     O3310666   0.459   3.060   1.921
    2PC     O3410667   0.295   3.219   1.915
    2PC     O2110668   0.343   2.912   2.342
    2PC     C2110669   0.463   2.958   2.380
    2PC     O2210670   0.501   3.071   2.401
    3OL     C1210671   0.554   2.841   2.411
    3OL     H2R10672   0.659   2.864   2.394
    3OL     H2S10673   0.533   2.761   2.340
    3OL     C1310674   0.537   2.776   2.549
    3OL     H3R10675   0.590   2.680   2.549
    3OL     H3S10676   0.433   2.751   2.570
    3OL     C1410677   0.593   2.859   2.665
    3OL     H4R10678   0.548   2.958   2.656
    3OL     H4S10679   0.697   2.873   2.636
    3OL     C1510680   0.568   2.792   2.801
    3OL     H5R10681   0.635   2.706   2.799
    3OL     H5S10682   0.464   2.761   2.801
    3OL     C1610683   0.595   2.890   2.916
    3OL     H6R10684   0.508   2.955   2.915
    3OL     H6S10685   0.692   2.940   2.914
    3OL     C1710686   0.584   2.808   3.046
    3OL     H7R10687   0.670   2.743   3.059
    3OL     H7S10688   0.498   2.742   3.029
    3OL     C1810689   0.559   2.887   3.175
    3OL     H8R10690   0.459   2.929   3.157
    3OL     H8S10691   0.635   2.964   3.186
    3OL     C1910692   0.585   2.804   3.297
    3OL     H9R10693   0.592   2.699   3.267
    3OL    C11010694   0.578   2.837   3.425
    3OL    H10R10695   0.587   2.760   3.501
    3OL    C11110696   0.572   2.982   3.469
    3OL    H11R10697   0.470   3.008   3.500
    3OL    H11S10698   0.585   3.056   3.390
    3OL    C11210699   0.669   3.022   3.580
    3OL    H12R10700   0.768   2.977   3.573
    3OL    H12S10701   0.633   2.992   3.679
    3OL    C11310702   0.672   3.175   3.592
    3OL    H13R10703   0.704   3.211   3.690
    3OL    H13S10704   0.567   3.204   3.578
    3OL    C11410705   0.770   3.230   3.488
    3OL    H14R10706   0.751   3.337   3.482
    3OL    H14S10707   0.747   3.172   3.398
    3OL    C11510708   0.920   3.201   3.513
    3OL    H15R10709   0.935   3.094   3.525
    3OL    H15S10710   0.960   3.244   3.605
    3OL    C11610711   0.991   3.246   3.384
    3OL    H16R10712   0.938   3.331   3.342
    3OL    H16S10713   0.970   3.164   3.315
    3OL    C11710714   1.137   3.278   3.423
    3OL    H17R10715   1.190   3.194   3.469
    3OL    H17S10716   1.132   3.363   3.491
    3OL    C11810717   1.216   3.325   3.300
    3OL    H18R10718   1.245   3.233   3.250
    3OL    H18S10719   1.307   3.373   3.339
    3OL    H18T10720   1.157   3.391   3.236
    1PA    C11610721  -0.027   5.432   3.953
    1PA    H16R10722  -0.050   5.423   4.059
    1PA    H16S10723  -0.108   5.382   3.900
    1PA    H16T10724  -0.031   5.539   3.932
    1PA    C11510725   0.107   5.361   3.929
    1PA    H15R10726   0.175   5.377   4.013
    1PA    H15S10727   0.083   5.254   3.928
    1PA    C11410728   0.181   5.398   3.800
    1PA    H14R10729   0.285   5.367   3.792
    1PA    H14S10730   0.129   5.352   3.716
    1PA    C11310731   0.179   5.550   3.778
    1PA    H13R10732   0.080   5.589   3.756
    1PA    H13S10733   0.216   5.601   3.867
    1PA    C11210734   0.277   5.599   3.670
    1PA    H12R10735   0.286   5.708   3.673
    1PA    H12S10736   0.380   5.570   3.694
    1PA    C11110737   0.227   5.543   3.536
    1PA    H11R10738   0.220   5.434   3.536
    1PA    H11S10739   0.131   5.586   3.505
    1PA    C11010740   0.337   5.568   3.432
    1PA    H10R10741   0.352   5.673   3.405
    1PA    H10S10742   0.433   5.536   3.473
    1PA     C1910743   0.300   5.503   3.298
    1PA     H9R10744   0.309   5.396   3.314
    1PA     H9S10745   0.197   5.532   3.271
    1PA     C1810746   0.388   5.547   3.180
    1PA     H8R10747   0.387   5.656   3.173
    1PA     H8S10748   0.490   5.513   3.201
    1PA     C1710749   0.355   5.484   3.043
    1PA     H7R10750   0.372   5.377   3.045
    1PA     H7S10751   0.252   5.514   3.020
    1PA     C1610752   0.446   5.547   2.937
    1PA     H6R10753   0.419   5.653   2.939
    1PA     H6S10754   0.552   5.537   2.963
    1PA     C1510755   0.425   5.494   2.795
    1PA     H5R10756   0.438   5.387   2.780
    1PA     H5S10757   0.319   5.516   2.779
    1PA     C1410758   0.513   5.571   2.695
    1PA     H4R10759   0.513   5.678   2.718
    1PA     H4S10760   0.616   5.539   2.707
    1PA     C1310761   0.455   5.555   2.553
    1PA     H3R10762   0.451   5.450   2.523
    1PA     H3S10763   0.352   5.589   2.545
    1PA     C1210764   0.546   5.636   2.460
    1PA     H2R10765   0.543   5.739   2.497
    1PA     H2S10766   0.650   5.601   2.464
    2PC     C1110767   0.508   5.654   2.315
    2PC     O1210768   0.585   5.647   2.222
    2PC     O1110769   0.386   5.712   2.313
    2PC      C110770   0.344   5.751   2.182
    2PC      HR10771   0.258   5.817   2.198
    2PC      HS10772   0.422   5.798   2.121
    2PC      C210773   0.297   5.622   2.113
    2PC      HX10774   0.381   5.553   2.111
    2PC      C310775   0.256   5.642   1.966
    2PC      HA10776   0.158   5.688   1.951
    2PC      HB10777   0.333   5.702   1.918
    2PC     O3110778   0.242   5.511   1.908
    2PC     P3110779   0.183   5.508   1.759
    2PC     O3210780   0.027   5.543   1.769
    2PC     C3110781  -0.047   5.444   1.844
    2PC     H1A10782  -0.050   5.353   1.785
    2PC     H1B10783   0.005   5.425   1.938
    2PC     C3210784  -0.188   5.500   1.871
    2PC     H2A10785  -0.185   5.591   1.931
    2PC     H2B10786  -0.233   5.516   1.773
    2PC     N3110787  -0.284   5.412   1.944
    2PC     C3310788  -0.411   5.483   1.981
    2PC     H3A10789  -0.470   5.487   1.890
    2PC     H3B10790  -0.447   5.421   2.063
    2PC     H3C10791  -0.388   5.589   1.989
    2PC     C3410792  -0.330   5.300   1.855
    2PC     H4A10793  -0.236   5.258   1.820
    2PC     H4B10794  -0.407   5.243   1.908
    2PC     H4C10795  -0.383   5.333   1.765
    2PC     C3510796  -0.225   5.355   2.070
    2PC     H5A10797  -0.298   5.303   2.131
    2PC     H5B10798  -0.200   5.442   2.131
    2PC     H5C10799  -0.140   5.296   2.036
    2PC     O3310800   0.255   5.606   1.674
    2PC     O3410801   0.214   5.375   1.702
    2PC     O2110802   0.181   5.573   2.183
    2PC     C2110803   0.195   5.479   2.278
    2PC     O2210804   0.296   5.412   2.291
    3OL     C1210805   0.071   5.464   2.362
    3OL     H2R10806   0.003   5.431   2.283
    3OL     H2S10807   0.016   5.552   2.396
    3OL     C1310808   0.084   5.368   2.482
    3OL     H3R10809   0.111   5.427   2.570
    3OL     H3S10810   0.164   5.296   2.466
    3OL     C1410811  -0.049   5.295   2.504
    3OL     H4R10812  -0.073   5.234   2.417
    3OL     H4S10813  -0.123   5.376   2.510
    3OL     C1510814  -0.060   5.199   2.623
    3OL     H5R10815  -0.030   5.105   2.577
    3OL     H5S10816  -0.166   5.200   2.650
    3OL     C1610817   0.023   5.247   2.743
    3OL     H6R10818   0.000   5.349   2.777
    3OL     H6S10819   0.127   5.257   2.711
    3OL     C1710820   0.021   5.151   2.863
    3OL     H7R10821   0.097   5.182   2.935
    3OL     H7S10822   0.043   5.051   2.825
    3OL     C1810823  -0.116   5.156   2.932
    3OL     H8R10824  -0.124   5.081   3.011
    3OL     H8S10825  -0.195   5.143   2.859
    3OL     C1910826  -0.141   5.292   2.992
    3OL     H9R10827  -0.217   5.351   2.942
    3OL    C11010828  -0.086   5.331   3.106
    3OL    H10R10829  -0.113   5.431   3.141
    3OL    C11110830   0.008   5.256   3.197
    3OL    H11R10831   0.110   5.296   3.199
    3OL    H11S10832   0.017   5.150   3.175
    3OL    C11210833  -0.056   5.260   3.337
    3OL    H12R10834  -0.154   5.213   3.333
    3OL    H12S10835  -0.087   5.365   3.346
    3OL    C11310836   0.034   5.196   3.443
    3OL    H13R10837   0.124   5.257   3.459
    3OL    H13S10838   0.066   5.095   3.416
    3OL    C11410839  -0.032   5.184   3.581
    3OL    H14R10840  -0.072   5.279   3.618
    3OL    H14S10841   0.050   5.151   3.645
    3OL    C11510842  -0.134   5.070   3.584
    3OL    H15R10843  -0.082   4.979   3.614
    3OL    H15S10844  -0.192   5.064   3.492
    3OL    C11610845  -0.227   5.081   3.706
    3OL    H16R10846  -0.171   5.114   3.794
    3OL    H16S10847  -0.262   4.980   3.726
    3OL    C11710848  -0.343   5.175   3.669
    3OL    H17R10849  -0.400   5.133   3.586
    3OL    H17S10850  -0.308   5.273   3.635
    3OL    C11810851  -0.434   5.198   3.789
    3OL    H18R10852  -0.461   5.099   3.827
    3OL    H18S10853  -0.522   5.251   3.753
    3OL    H18T10854  -0.378   5.260   3.860
    1PA    C11610855  -0.825   2.191   3.666
    1PA    H16R10856  -0.849   2.280   3.608
    1PA    H16S10857  -0.760   2.221   3.748
    1PA    H16T10858  -0.914   2.158   3.721
    1PA    C11510859  -0.776   2.069   3.586
    1PA    H15R10860  -0.731   1.991   3.648
    1PA    H15S10861  -0.850   2.023   3.520
    1PA    C11410862  -0.662   2.115   3.495
    1PA    H14R10863  -0.701   2.195   3.432
    1PA    H14S10864  -0.587   2.138   3.571
    1PA    C11310865  -0.626   1.994   3.407
    1PA    H13R10866  -0.587   1.905   3.456
    1PA    H13S10867  -0.721   1.968   3.360
    1PA    C11210868  -0.529   2.038   3.297
    1PA    H12R10869  -0.554   2.132   3.247
    1PA    H12S10870  -0.431   2.060   3.338
    1PA    C11110871  -0.513   1.934   3.185
    1PA    H11R10872  -0.472   1.844   3.231
    1PA    H11S10873  -0.612   1.911   3.146
    1PA    C11010874  -0.423   1.972   3.067
    1PA    H10R10875  -0.463   2.065   3.025
    1PA    H10S10876  -0.321   1.999   3.097
    1PA     C1910877  -0.420   1.874   2.950
    1PA     H9R10878  -0.452   1.777   2.988
    1PA     H9S10879  -0.497   1.900   2.877
    1PA     C1810880  -0.286   1.865   2.877
    1PA     H8R10881  -0.261   1.970   2.860
    1PA     H8S10882  -0.209   1.815   2.937
    1PA     C1710883  -0.303   1.775   2.753
    1PA     H7R10884  -0.325   1.671   2.779
    1PA     H7S10885  -0.390   1.793   2.690
    1PA     C1610886  -0.183   1.774   2.657
    1PA     H6R10887  -0.169   1.877   2.623
    1PA     H6S10888  -0.092   1.746   2.711
    1PA     C1510889  -0.204   1.669   2.547
    1PA     H5R10890  -0.226   1.574   2.597
    1PA     H5S10891  -0.289   1.707   2.490
    1PA     C1410892  -0.088   1.659   2.448
    1PA     H4R10893  -0.115   1.575   2.383
    1PA     H4S10894  -0.088   1.746   2.382
    1PA     C1310895   0.047   1.630   2.514
    1PA     H3R10896   0.070   1.705   2.590
    1PA     H3S10897   0.050   1.533   2.564
    1PA     C1210898   0.159   1.636   2.409
    1PA     H2R10899   0.164   1.741   2.379
    1PA     H2S10900   0.249   1.600   2.460
    2PC     C1110901   0.134   1.551   2.286
    2PC     O1210902   0.131   1.592   2.172
    2PC     O1110903   0.122   1.420   2.310
    2PC      C110904   0.107   1.332   2.197
    2PC      HR10905   0.098   1.230   2.237
    2PC      HS10906   0.014   1.357   2.145
    2PC      C210907   0.234   1.333   2.111
    2PC      HX10908   0.250   1.429   2.062
    2PC      C310909   0.226   1.229   1.997
    2PC      HA10910   0.255   1.131   2.035
    2PC      HB10911   0.120   1.225   1.971
    2PC     O3110912   0.297   1.268   1.878
    2PC     P3110913   0.283   1.190   1.739
    2PC     O3210914   0.347   1.046   1.769
    2PC     C3110915   0.384   0.971   1.652
    2PC     H1A10916   0.445   1.036   1.590
    2PC     H1B10917   0.445   0.888   1.689
    2PC     C3210918   0.260   0.924   1.575
    2PC     H2A10919   0.197   1.011   1.563
    2PC     H2B10920   0.292   0.898   1.474
    2PC     N3110921   0.189   0.801   1.624
    2PC     C3310922   0.142   0.807   1.766
    2PC     H3A10923   0.071   0.725   1.781
    2PC     H3B10924   0.227   0.798   1.833
    2PC     H3C10925   0.086   0.899   1.782
    2PC     C3410926   0.075   0.782   1.528
    2PC     H4A10927   0.101   0.802   1.424
    2PC     H4B10928   0.042   0.682   1.558
    2PC     H4C10929  -0.001   0.850   1.566
    2PC     C3510930   0.285   0.686   1.618
    2PC     H5A10931   0.303   0.676   1.511
    2PC     H5B10932   0.232   0.594   1.643
    2PC     H5C10933   0.377   0.705   1.674
    2PC     O3310934   0.136   1.195   1.724
    2PC     O3410935   0.342   1.269   1.629
    2PC     O2110936   0.350   1.304   2.191
    2PC     C2110937   0.443   1.397   2.215
    2PC     O2210938   0.449   1.499   2.151
    3OL     C1210939   0.541   1.377   2.329
    3OL     H2R10940   0.566   1.470   2.379
    3OL     H2S10941   0.630   1.330   2.286
    3OL     C1310942   0.478   1.285   2.435
    3OL     H3R10943   0.439   1.196   2.386
    3OL     H3S10944   0.391   1.336   2.476
    3OL     C1410945   0.572   1.244   2.550
    3OL     H4R10946   0.667   1.225   2.500
    3OL     H4S10947   0.539   1.154   2.601
    3OL     C1510948   0.596   1.361   2.647
    3OL     H5R10949   0.502   1.397   2.688
    3OL     H5S10950   0.641   1.445   2.595
    3OL     C1610951   0.679   1.317   2.769
    3OL     H6R10952   0.761   1.258   2.725
    3OL     H6S10953   0.616   1.251   2.829
    3OL     C1710954   0.743   1.431   2.850
    3OL     H7R10955   0.772   1.510   2.781
    3OL     H7S10956   0.834   1.394   2.897
    3OL     C1810957   0.650   1.487   2.958
    3OL     H8R10958   0.554   1.509   2.912
    3OL     H8S10959   0.698   1.576   3.000
    3OL     C1910960   0.627   1.379   3.061
    3OL     H9R10961   0.601   1.281   3.020
    3OL    C11010962   0.639   1.395   3.192
    3OL    H10R10963   0.622   1.310   3.258
    3OL    C11110964   0.668   1.527   3.259
    3OL    H11R10965   0.573   1.577   3.276
    3OL    H11S10966   0.729   1.585   3.190
    3OL    C11210967   0.740   1.496   3.391
    3OL    H12R10968   0.838   1.454   3.368
    3OL    H12S10969   0.675   1.427   3.445
    3OL    C11310970   0.759   1.620   3.480
    3OL    H13R10971   0.657   1.651   3.503
    3OL    H13S10972   0.808   1.698   3.422
    3OL    C11410973   0.842   1.585   3.605
    3OL    H14R10974   0.940   1.557   3.565
    3OL    H14S10975   0.793   1.507   3.663
    3OL    C11510976   0.850   1.714   3.688
    3OL    H15R10977   0.753   1.741   3.731
    3OL    H15S10978   0.886   1.794   3.623
    3OL    C11610979   0.940   1.692   3.811
    3OL    H16R10980   1.040   1.695   3.767
    3OL    H16S10981   0.929   1.597   3.864
    3OL    C11710982   0.929   1.806   3.913
    3OL    H17R10983   1.008   1.798   3.988
    3OL    H17S10984   0.831   1.801   3.962
    3OL    C11810985   0.949   1.937   3.835
    3OL    H18R10986   0.841   1.959   3.828
    3OL    H18S10987   0.995   1.918   3.739
    3OL    H18T10988   1.012   2.011   3.885
    1PA    C11610989   0.351   4.335   3.202
    1PA    H16R10990   0.355   4.314   3.095
    1PA    H16S10991   0.395   4.432   3.225
    1PA    H16T10992   0.248   4.324   3.236
    1PA    C11510993   0.439   4.238   3.283
    1PA    H15R10994   0.534   4.236   3.230
    1PA    H15S10995   0.460   4.281   3.381
    1PA    C11410996   0.391   4.092   3.283
    1PA    H14R10997   0.287   4.086   3.315
    1PA    H14S10998   0.395   4.054   3.180
    1PA    C11310999   0.478   4.014   3.382
    1PA    H13R11000   0.579   4.001   3.342
    1PA    H13S11001   0.481   4.062   3.480
    1PA    C11211002   0.431   3.869   3.402
    1PA    H12R11003   0.465   3.833   3.499
    1PA    H12S11004   0.322   3.867   3.414
    1PA    C11111005   0.474   3.779   3.285
    1PA    H11R11006   0.428   3.813   3.192
    1PA    H11S11007   0.581   3.796   3.272
    1PA    C11011008   0.454   3.630   3.316
    1PA    H10R11009   0.513   3.613   3.406
    1PA    H10S11010   0.348   3.606   3.323
    1PA     C1911011   0.502   3.541   3.201
    1PA     H9R11012   0.441   3.558   3.112
    1PA     H9S11013   0.599   3.578   3.169
    1PA     C1811014   0.502   3.394   3.246
    1PA     H8R11015   0.541   3.373   3.345
    1PA     H8S11016   0.394   3.375   3.243
    1PA     C1711017   0.554   3.294   3.141
    1PA     H7R11018   0.540   3.189   3.165
    1PA     H7S11019   0.504   3.305   3.044
    1PA     C1611020   0.705   3.310   3.118
    1PA     H6R11021   0.726   3.414   3.091
    1PA     H6S11022   0.760   3.287   3.209
    1PA     C1511023   0.754   3.222   3.002
    1PA     H5R11024   0.743   3.114   3.014
    1PA     H5S11025   0.698   3.247   2.912
    1PA     C1411026   0.897   3.257   2.959
    1PA     H4R11027   0.911   3.361   2.992
    1PA     H4S11028   0.969   3.190   3.006
    1PA     C1311029   0.921   3.258   2.807
    1PA     H3R11030   0.934   3.157   2.768
    1PA     H3S11031   0.832   3.289   2.749
    1PA     C1211032   1.041   3.343   2.763
    1PA     H2R11033   1.015   3.449   2.760
    1PA     H2S11034   1.119   3.339   2.839
    2PC     C1111035   1.101   3.286   2.637
    2PC     O1211036   1.046   3.215   2.555
    2PC     O1111037   1.228   3.329   2.627
    2PC      C111038   1.309   3.306   2.510
    2PC      HR11039   1.241   3.295   2.424
    2PC      HS11040   1.369   3.397   2.495
    2PC      C211041   1.407   3.193   2.543
    2PC      HX11042   1.463   3.221   2.632
    2PC      C311043   1.506   3.171   2.428
    2PC      HA11044   1.590   3.234   2.459
    2PC      HB11045   1.542   3.068   2.431
    2PC     O3111046   1.459   3.210   2.298
    2PC     P3111047   1.562   3.185   2.178
    2PC     O3211048   1.534   3.034   2.131
    2PC     C3111049   1.415   2.996   2.060
    2PC     H1A11050   1.411   2.887   2.069
    2PC     H1B11051   1.324   3.041   2.099
    2PC     C3211052   1.434   3.022   1.910
    2PC     H2A11053   1.503   3.106   1.894
    2PC     H2B11054   1.485   2.933   1.873
    2PC     N3111055   1.314   3.031   1.820
    2PC     C3311056   1.228   3.148   1.856
    2PC     H3A11057   1.296   3.228   1.887
    2PC     H3B11058   1.167   3.180   1.772
    2PC     H3C11059   1.157   3.115   1.932
    2PC     C3411060   1.374   3.049   1.684
    2PC     H4A11061   1.433   3.140   1.688
    2PC     H4B11062   1.438   2.961   1.677
    2PC     H4C11063   1.296   3.054   1.608
    2PC     C3511064   1.233   2.905   1.832
    2PC     H5A11065   1.190   2.910   1.932
    2PC     H5B11066   1.306   2.824   1.824
    2PC     H5C11067   1.162   2.899   1.750
    2PC     O3311068   1.540   3.275   2.062
    2PC     O3411069   1.703   3.212   2.213
    2PC     O2111070   1.340   3.072   2.581
    2PC     C2111071   1.259   3.009   2.493
    2PC     O2211072   1.248   3.030   2.374
    3OL     C1211073   1.164   2.924   2.574
    3OL     H2R11074   1.101   2.990   2.634
    3OL     H2S11075   1.222   2.869   2.648
    3OL     C1311076   1.078   2.820   2.501
    3OL     H3R11077   1.142   2.762   2.434
    3OL     H3S11078   1.006   2.867   2.434
    3OL     C1411079   0.997   2.719   2.584
    3OL     H4R11080   0.944   2.647   2.522
    3OL     H4S11081   0.933   2.770   2.656
    3OL     C1511082   1.093   2.633   2.667
    3OL     H5R11083   1.148   2.689   2.743
    3OL     H5S11084   1.170   2.586   2.605
    3OL     C1611085   1.021   2.508   2.721
    3OL     H6R11086   0.976   2.450   2.641
    3OL     H6S11087   0.933   2.543   2.775
    3OL     C1711088   1.113   2.426   2.813
    3OL     H7R11089   1.151   2.484   2.897
    3OL     H7S11090   1.202   2.399   2.755
    3OL     C1811091   1.036   2.306   2.869
    3OL     H8R11092   0.996   2.257   2.780
    3OL     H8S11093   0.958   2.330   2.942
    3OL     C1911094   1.136   2.213   2.934
    3OL     H9R11095   1.223   2.197   2.871
    3OL    C11011096   1.137   2.174   3.060
    3OL    H10R11097   1.228   2.123   3.092
    3OL    C11111098   1.038   2.202   3.170
    3OL    H11R11099   0.936   2.225   3.140
    3OL    H11S11100   1.075   2.286   3.230
    3OL    C11211101   1.023   2.078   3.260
    3OL    H12R11102   1.028   1.991   3.195
    3OL    H12S11103   0.927   2.069   3.312
    3OL    C11311104   1.138   2.070   3.361
    3OL    H13R11105   1.135   2.157   3.426
    3OL    H13S11106   1.225   2.105   3.305
    3OL    C11411107   1.139   1.938   3.440
    3OL    H14R11108   1.034   1.924   3.468
    3OL    H14S11109   1.201   1.943   3.529
    3OL    C11511110   1.191   1.827   3.347
    3OL    H15R11111   1.281   1.775   3.379
    3OL    H15S11112   1.215   1.871   3.251
    3OL    C11611113   1.075   1.731   3.315
    3OL    H16R11114   1.006   1.786   3.251
    3OL    H16S11115   1.027   1.695   3.407
    3OL    C11711116   1.117   1.599   3.249
    3OL    H17R11117   1.029   1.535   3.245
    3OL    H17S11118   1.192   1.559   3.318
    3OL    C11811119   1.172   1.635   3.111
    3OL    H18R11120   1.257   1.703   3.115
    3OL    H18S11121   1.097   1.684   3.049
    3OL    H18T11122   1.196   1.540   3.061
    1PA    C11611123   0.339   2.407   4.131
    1PA    H16R11124   0.308   2.477   4.053
    1PA    H16S11125   0.383   2.463   4.215
    1PA    H16T11126   0.256   2.345   4.164
    1PA    C11511127   0.438   2.309   4.066
    1PA    H15R11128   0.532   2.357   4.036
    1PA    H15S11129   0.464   2.234   4.141
    1PA    C11411130   0.376   2.243   3.943
    1PA    H14R11131   0.420   2.147   3.915
    1PA    H14S11132   0.273   2.215   3.966
    1PA    C11311133   0.385   2.332   3.818
    1PA    H13R11134   0.348   2.432   3.842
    1PA    H13S11135   0.491   2.342   3.794
    1PA    C11211136   0.321   2.272   3.692
    1PA    H12R11137   0.355   2.169   3.695
    1PA    H12S11138   0.212   2.266   3.693
    1PA    C11111139   0.366   2.348   3.567
    1PA    H11R11140   0.333   2.450   3.582
    1PA    H11S11141   0.475   2.361   3.566
    1PA    C11011142   0.309   2.273   3.445
    1PA    H10R11143   0.350   2.173   3.434
    1PA    H10S11144   0.200   2.270   3.445
    1PA     C1911145   0.349   2.354   3.321
    1PA     H9R11146   0.273   2.338   3.244
    1PA     H9S11147   0.345   2.461   3.342
    1PA     C1811148   0.496   2.333   3.282
    1PA     H8R11149   0.564   2.361   3.363
    1PA     H8S11150   0.517   2.227   3.265
    1PA     C1711151   0.533   2.403   3.151
    1PA     H7R11152   0.527   2.512   3.152
    1PA     H7S11153   0.642   2.405   3.148
    1PA     C1611154   0.462   2.336   3.032
    1PA     H6R11155   0.476   2.229   3.051
    1PA     H6S11156   0.356   2.359   3.047
    1PA     C1511157   0.507   2.379   2.892
    1PA     H5R11158   0.435   2.357   2.814
    1PA     H5S11159   0.524   2.487   2.889
    1PA     C1411160   0.647   2.327   2.857
    1PA     H4R11161   0.721   2.372   2.924
    1PA     H4S11162   0.641   2.219   2.876
    1PA     C1311163   0.691   2.359   2.714
    1PA     H3R11164   0.683   2.466   2.694
    1PA     H3S11165   0.790   2.319   2.694
    1PA     C1211166   0.598   2.287   2.615
    1PA     H2R11167   0.602   2.186   2.655
    1PA     H2S11168   0.496   2.325   2.628
    2PC     C1111169   0.642   2.292   2.471
    2PC     O1211170   0.694   2.383   2.408
    2PC     O1111171   0.622   2.171   2.418
    2PC      C111172   0.676   2.132   2.290
    2PC      HR11173   0.644   2.039   2.243
    2PC      HS11174   0.649   2.209   2.217
    2PC      C211175   0.829   2.128   2.299
    2PC      HX11176   0.865   2.223   2.341
    2PC      C311177   0.892   2.110   2.160
    2PC      HA11178   0.861   2.201   2.108
    2PC      HB11179   1.000   2.098   2.172
    2PC     O3111180   0.841   1.991   2.095
    2PC     P3111181   0.878   1.962   1.942
    2PC     O3211182   0.795   1.830   1.902
    2PC     C3111183   0.658   1.848   1.862
    2PC     H1A11184   0.611   1.898   1.947
    2PC     H1B11185   0.640   1.916   1.778
    2PC     C3211186   0.593   1.710   1.840
    2PC     H2A11187   0.623   1.687   1.738
    2PC     H2B11188   0.623   1.641   1.919
    2PC     N3111189   0.444   1.699   1.850
    2PC     C3311190   0.394   1.764   1.976
    2PC     H3A11191   0.297   1.717   1.991
    2PC     H3B11192   0.468   1.740   2.053
    2PC     H3C11193   0.379   1.870   1.955
    2PC     C3411194   0.364   1.769   1.745
    2PC     H4A11195   0.258   1.776   1.772
    2PC     H4B11196   0.393   1.873   1.733
    2PC     H4C11197   0.380   1.717   1.651
    2PC     C3511198   0.406   1.554   1.853
    2PC     H5A11199   0.301   1.523   1.854
    2PC     H5B11200   0.466   1.510   1.933
    2PC     H5C11201   0.460   1.521   1.764
    2PC     O3311202   0.832   2.084   1.871
    2PC     O3411203   1.025   1.957   1.930
    2PC     O2111204   0.861   2.022   2.391
    2PC     C2111205   0.988   2.020   2.434
    2PC     O2211206   1.076   2.100   2.411
    3OL     C1211207   1.015   1.907   2.531
    3OL     H2R11208   1.122   1.911   2.549
    3OL     H2S11209   0.985   1.813   2.484
    3OL     C1311210   0.945   1.919   2.668
    3OL     H3R11211   0.851   1.970   2.648
    3OL     H3S11212   1.002   1.985   2.734
    3OL     C1411213   0.904   1.787   2.735
    3OL     H4R11214   0.984   1.714   2.727
    3OL     H4S11215   0.813   1.764   2.679
    3OL     C1511216   0.851   1.813   2.877
    3OL     H5R11217   0.911   1.897   2.913
    3OL     H5S11218   0.870   1.726   2.940
    3OL     C1611219   0.700   1.845   2.879
    3OL     H6R11220   0.641   1.758   2.851
    3OL     H6S11221   0.672   1.917   2.802
    3OL     C1711222   0.665   1.892   3.021
    3OL     H7R11223   0.719   1.986   3.022
    3OL     H7S11224   0.703   1.830   3.102
    3OL     C1811225   0.517   1.930   3.040
    3OL     H8R11226   0.474   1.989   2.959
    3OL     H8S11227   0.514   1.998   3.125
    3OL     C1911228   0.433   1.810   3.077
    3OL     H9R11229   0.404   1.741   2.999
    3OL    C11011230   0.412   1.768   3.201
    3OL    H10R11231   0.360   1.675   3.219
    3OL    C11111232   0.455   1.846   3.322
    3OL    H11R11233   0.398   1.939   3.316
    3OL    H11S11234   0.562   1.872   3.321
    3OL    C11211235   0.414   1.765   3.446
    3OL    H12R11236   0.456   1.664   3.440
    3OL    H12S11237   0.306   1.755   3.451
    3OL    C11311238   0.460   1.839   3.572
    3OL    H13R11239   0.437   1.945   3.557
    3OL    H13S11240   0.565   1.820   3.594
    3OL    C11411241   0.379   1.803   3.697
    3OL    H14R11242   0.361   1.695   3.706
    3OL    H14S11243   0.282   1.853   3.694
    3OL    C11511244   0.435   1.857   3.829
    3OL    H15R11245   0.433   1.966   3.822
    3OL    H15S11246   0.541   1.833   3.838
    3OL    C11611247   0.359   1.800   3.950
    3OL    H16R11248   0.364   1.691   3.957
    3OL    H16S11249   0.252   1.815   3.933
    3OL    C11711250   0.395   1.879   4.076
    3OL    H17R11251   0.313   1.866   4.147
    3OL    H17S11252   0.399   1.987   4.058
    3OL    C11811253   0.523   1.827   4.143
    3OL    H18R11254   0.505   1.722   4.169
    3OL    H18S11255   0.558   1.885   4.228
    3OL    H18T11256   0.607   1.827   4.073
    1PA    C11611257   3.368   0.938   3.737
    1PA    H16R11258   3.359   0.830   3.756
    1PA    H16S11259   3.355   1.000   3.826
    1PA    H16T11260   3.466   0.960   3.695
    1PA    C11511261   3.273   0.982   3.625
    1PA    H15R11262   3.273   1.091   3.612
    1PA    H15S11263   3.314   0.932   3.537
    1PA    C11411264   3.129   0.929   3.626
    1PA    H14R11265   3.128   0.820   3.637
    1PA    H14S11266   3.069   0.961   3.712
    1PA    C11311267   3.057   0.981   3.502
    1PA    H13R11268   3.048   1.090   3.500
    1PA    H13S11269   3.116   0.957   3.413
    1PA    C11211270   2.923   0.905   3.496
    1PA    H12R11271   2.923   0.796   3.510
    1PA    H12S11272   2.853   0.959   3.560
    1PA    C11111273   2.880   0.923   3.350
    1PA    H11R11274   2.881   1.028   3.317
    1PA    H11S11275   2.945   0.872   3.278
    1PA    C11011276   2.740   0.863   3.330
    1PA    H10R11277   2.742   0.759   3.363
    1PA    H10S11278   2.662   0.916   3.385
    1PA     C1911279   2.696   0.873   3.183
    1PA     H9R11280   2.776   0.830   3.122
    1PA     H9S11281   2.612   0.805   3.171
    1PA     C1811282   2.646   1.013   3.144
    1PA     H8R11283   2.563   1.049   3.205
    1PA     H8S11284   2.728   1.085   3.154
    1PA     C1711285   2.590   1.013   3.001
    1PA     H7R11286   2.645   0.938   2.944
    1PA     H7S11287   2.485   0.982   2.997
    1PA     C1611288   2.605   1.143   2.921
    1PA     H6R11289   2.549   1.230   2.956
    1PA     H6S11290   2.710   1.171   2.929
    1PA     C1511291   2.575   1.121   2.772
    1PA     H5R11292   2.648   1.057   2.721
    1PA     H5S11293   2.473   1.083   2.766
    1PA     C1411294   2.588   1.253   2.695
    1PA     H4R11295   2.506   1.320   2.722
    1PA     H4S11296   2.684   1.295   2.727
    1PA     C1311297   2.595   1.244   2.542
    1PA     H3R11298   2.688   1.198   2.509
    1PA     H3S11299   2.517   1.182   2.497
    1PA     C1211300   2.583   1.385   2.481
    1PA     H2R11301   2.494   1.420   2.533
    1PA     H2S11302   2.660   1.457   2.509
    2PC     C1111303   2.573   1.394   2.331
    2PC     O1211304   2.598   1.302   2.255
    2PC     O1111305   2.518   1.509   2.290
    2PC      C111306   2.484   1.532   2.152
    2PC      HR11307   2.475   1.637   2.122
    2PC      HS11308   2.563   1.493   2.087
    2PC      C211309   2.355   1.458   2.116
    2PC      HX11310   2.349   1.370   2.181
    2PC      C311311   2.334   1.417   1.970
    2PC      HA11312   2.426   1.371   1.934
    2PC      HB11313   2.257   1.339   1.966
    2PC     O3111314   2.286   1.526   1.889
    2PC     P3111315   2.236   1.504   1.739
    2PC     O3211316   2.078   1.526   1.758
    2PC     C3111317   2.006   1.408   1.798
    2PC     H1A11318   2.029   1.326   1.728
    2PC     H1B11319   2.035   1.375   1.898
    2PC     C3211320   1.859   1.452   1.801
    2PC     H2A11321   1.802   1.369   1.842
    2PC     H2B11322   1.851   1.532   1.874
    2PC     N3111323   1.791   1.495   1.675
    2PC     C3311324   1.822   1.402   1.561
    2PC     H3A11325   1.808   1.301   1.600
    2PC     H3B11326   1.755   1.417   1.477
    2PC     H3C11327   1.929   1.416   1.546
    2PC     C3411328   1.643   1.515   1.693
    2PC     H4A11329   1.610   1.548   1.595
    2PC     H4B11330   1.593   1.426   1.732
    2PC     H4C11331   1.634   1.590   1.771
    2PC     C3511332   1.842   1.630   1.636
    2PC     H5A11333   1.849   1.694   1.724
    2PC     H5B11334   1.773   1.675   1.564
    2PC     H5C11335   1.939   1.609   1.589
    2PC     O3311336   2.292   1.599   1.640
    2PC     O3411337   2.261   1.367   1.691
    2PC     O2111338   2.239   1.533   2.157
    2PC     C2111339   2.123   1.466   2.168
    2PC     O2211340   2.114   1.346   2.185
    3OL     C1211341   2.004   1.558   2.170
    3OL     H2R11342   1.910   1.503   2.172
    3OL     H2S11343   2.005   1.620   2.080
    3OL     C1311344   2.014   1.649   2.294
    3OL     H3R11345   2.063   1.744   2.275
    3OL     H3S11346   2.067   1.596   2.373
    3OL     C1411347   1.874   1.684   2.345
    3OL     H4R11348   1.813   1.593   2.348
    3OL     H4S11349   1.822   1.738   2.266
    3OL     C1511350   1.875   1.764   2.476
    3OL     H5R11351   1.771   1.792   2.491
    3OL     H5S11352   1.940   1.850   2.491
    3OL     C1611353   1.894   1.669   2.596
    3OL     H6R11354   1.986   1.610   2.598
    3OL     H6S11355   1.820   1.591   2.609
    3OL     C1711356   1.894   1.750   2.727
    3OL     H7R11357   1.798   1.799   2.742
    3OL     H7S11358   1.970   1.828   2.722
    3OL     C1811359   1.907   1.656   2.848
    3OL     H8R11360   1.989   1.585   2.830
    3OL     H8S11361   1.821   1.590   2.847
    3OL     C1911362   1.923   1.743   2.970
    3OL     H9R11363   1.995   1.824   2.958
    3OL    C11011364   1.849   1.732   3.079
    3OL    H10R11365   1.859   1.807   3.158
    3OL    C11111366   1.732   1.640   3.104
    3OL    H11R11367   1.743   1.542   3.058
    3OL    H11S11368   1.636   1.683   3.075
    3OL    C11211369   1.732   1.612   3.255
    3OL    H12R11370   1.734   1.705   3.312
    3OL    H12S11371   1.822   1.555   3.282
    3OL    C11311372   1.611   1.523   3.288
    3OL    H13R11373   1.635   1.429   3.239
    3OL    H13S11374   1.526   1.564   3.233
    3OL    C11411375   1.592   1.513   3.440
    3OL    H14R11376   1.564   1.611   3.480
    3OL    H14S11377   1.677   1.471   3.494
    3OL    C11511378   1.491   1.405   3.480
    3OL    H15R11379   1.398   1.417   3.423
    3OL    H15S11380   1.462   1.422   3.584
    3OL    C11611381   1.540   1.262   3.457
    3OL    H16R11382   1.634   1.243   3.510
    3OL    H16S11383   1.559   1.240   3.352
    3OL    C11711384   1.443   1.149   3.493
    3OL    H17R11385   1.348   1.171   3.444
    3OL    H17S11386   1.415   1.160   3.598
    3OL    C11811387   1.496   1.009   3.457
    3OL    H18R11388   1.588   0.988   3.512
    3OL    H18S11389   1.509   1.004   3.348
    3OL    H18T11390   1.412   0.942   3.473
    1PA    C11611391   3.726   4.432   4.213
    1PA    H16R11392   3.619   4.451   4.204
    1PA    H16S11393   3.780   4.484   4.133
    1PA    H16T11394   3.767   4.487   4.297
    1PA    C11511395   3.761   4.282   4.209
    1PA    H15R11396   3.867   4.258   4.212
    1PA    H15S11397   3.721   4.240   4.302
    1PA    C11411398   3.689   4.213   4.093
    1PA    H14R11399   3.672   4.107   4.116
    1PA    H14S11400   3.582   4.231   4.104
    1PA    C11311401   3.728   4.236   3.946
    1PA    H13R11402   3.835   4.229   3.924
    1PA    H13S11403   3.677   4.159   3.888
    1PA    C11211404   3.675   4.368   3.889
    1PA    H12R11405   3.574   4.393   3.922
    1PA    H12S11406   3.748   4.442   3.923
    1PA    C11111407   3.690   4.370   3.736
    1PA    H11R11408   3.708   4.473   3.704
    1PA    H11S11409   3.780   4.313   3.711
    1PA    C11011410   3.568   4.314   3.661
    1PA    H10R11411   3.543   4.211   3.686
    1PA    H10S11412   3.492   4.385   3.693
    1PA     C1911413   3.583   4.324   3.508
    1PA     H9R11414   3.598   4.427   3.475
    1PA     H9S11415   3.668   4.261   3.480
    1PA     C1811416   3.461   4.272   3.431
    1PA     H8R11417   3.452   4.164   3.446
    1PA     H8S11418   3.370   4.317   3.472
    1PA     C1711419   3.471   4.315   3.284
    1PA     H7R11420   3.459   4.423   3.289
    1PA     H7S11421   3.569   4.288   3.245
    1PA     C1611422   3.358   4.250   3.203
    1PA     H6R11423   3.359   4.143   3.183
    1PA     H6S11424   3.263   4.267   3.255
    1PA     C1511425   3.352   4.319   3.065
    1PA     H5R11426   3.322   4.422   3.084
    1PA     H5S11427   3.450   4.323   3.017
    1PA     C1411428   3.255   4.250   2.969
    1PA     H4R11429   3.263   4.141   2.965
    1PA     H4S11430   3.151   4.261   3.003
    1PA     C1311431   3.277   4.296   2.824
    1PA     H3R11432   3.229   4.394   2.829
    1PA     H3S11433   3.381   4.306   2.792
    1PA     C1211434   3.211   4.202   2.721
    1PA     H2R11435   3.214   4.097   2.752
    1PA     H2S11436   3.105   4.228   2.721
    2PC     C1111437   3.261   4.217   2.580
    2PC     O1211438   3.311   4.125   2.519
    2PC     O1111439   3.250   4.345   2.540
    2PC      C111440   3.281   4.381   2.404
    2PC      HR11441   3.390   4.385   2.396
    2PC      HS11442   3.246   4.310   2.329
    2PC      C211443   3.228   4.524   2.382
    2PC      HX11444   3.121   4.509   2.396
    2PC      C311445   3.260   4.575   2.241
    2PC      HA11446   3.196   4.520   2.171
    2PC      HB11447   3.228   4.679   2.234
    2PC     O3111448   3.397   4.552   2.206
    2PC     P3111449   3.447   4.593   2.059
    2PC     O3211450   3.593   4.529   2.073
    2PC     C3111451   3.700   4.588   1.997
    2PC     H1A11452   3.710   4.695   2.016
    2PC     H1B11453   3.798   4.548   2.021
    2PC     C3211454   3.675   4.567   1.847
    2PC     H2A11455   3.573   4.576   1.811
    2PC     H2B11456   3.750   4.628   1.795
    2PC     N3111457   3.712   4.437   1.782
    2PC     C3311458   3.672   4.430   1.638
    2PC     H3A11459   3.568   4.461   1.624
    2PC     H3B11460   3.729   4.496   1.573
    2PC     H3C11461   3.684   4.331   1.594
    2PC     C3411462   3.861   4.431   1.787
    2PC     H4A11463   3.887   4.341   1.731
    2PC     H4B11464   3.892   4.512   1.721
    2PC     H4C11465   3.909   4.442   1.885
    2PC     C3511466   3.648   4.323   1.855
    2PC     H5A11467   3.656   4.228   1.803
    2PC     H5B11468   3.546   4.349   1.886
    2PC     H5C11469   3.701   4.306   1.949
    2PC     O3311470   3.392   4.516   1.945
    2PC     O3411471   3.446   4.738   2.026
    2PC     O2111472   3.277   4.621   2.477
    2PC     C2111473   3.206   4.731   2.508
    2PC     O2211474   3.094   4.748   2.465
    3OL     C1211475   3.275   4.834   2.593
    3OL     H2R11476   3.272   4.930   2.542
    3OL     H2S11477   3.380   4.802   2.597
    3OL     C1311478   3.218   4.852   2.735
    3OL     H3R11479   3.112   4.858   2.708
    3OL     H3S11480   3.264   4.938   2.785
    3OL     C1411481   3.240   4.726   2.820
    3OL     H4R11482   3.348   4.712   2.827
    3OL     H4S11483   3.196   4.649   2.757
    3OL     C1511484   3.173   4.729   2.958
    3OL     H5R11485   3.169   4.630   3.003
    3OL     H5S11486   3.071   4.769   2.952
    3OL     C1611487   3.257   4.823   3.046
    3OL     H6R11488   3.262   4.928   3.017
    3OL     H6S11489   3.360   4.787   3.046
    3OL     C1711490   3.190   4.808   3.183
    3OL     H7R11491   3.159   4.708   3.213
    3OL     H7S11492   3.099   4.868   3.176
    3OL     C1811493   3.278   4.879   3.287
    3OL     H8R11494   3.306   4.978   3.250
    3OL     H8S11495   3.368   4.820   3.307
    3OL     C1911496   3.205   4.890   3.418
    3OL     H9R11497   3.101   4.862   3.432
    3OL    C11011498   3.268   4.940   3.523
    3OL    H10R11499   3.209   4.935   3.614
    3OL    C11111500   3.410   4.990   3.539
    3OL    H11R11501   3.466   4.984   3.445
    3OL    H11S11502   3.465   4.919   3.601
    3OL    C11211503   3.438   5.127   3.603
    3OL    H12R11504   3.396   5.115   3.703
    3OL    H12S11505   3.380   5.198   3.544
    3OL    C11311506   3.581   5.181   3.623
    3OL    H13R11507   3.577   5.279   3.670
    3OL    H13S11508   3.608   5.189   3.517
    3OL    C11411509   3.679   5.094   3.702
    3OL    H14R11510   3.770   5.154   3.713
    3OL    H14S11511   3.696   4.998   3.653
    3OL    C11511512   3.631   5.074   3.847
    3OL    H15R11513   3.535   5.023   3.854
    3OL    H15S11514   3.622   5.166   3.904
    3OL    C11611515   3.732   4.985   3.922
    3OL    H16R11516   3.827   5.037   3.939
    3OL    H16S11517   3.755   4.892   3.869
    3OL    C11711518   3.682   4.960   4.064
    3OL    H17R11519   3.582   4.916   4.069
    3OL    H17S11520   3.661   5.046   4.127
    3OL    C11811521   3.780   4.881   4.152
    3OL    H18R11522   3.741   4.779   4.145
    3OL    H18S11523   3.776   4.906   4.259
    3OL    H18T11524   3.878   4.884   4.103
    1PA    C11611525   2.270   1.456   3.891
    1PA    H16R11526   2.350   1.472   3.819
    1PA    H16S11527   2.247   1.350   3.880
    1PA    H16T11528   2.312   1.469   3.991
    1PA    C11511529   2.153   1.548   3.853
    1PA    H15R11530   2.061   1.516   3.902
    1PA    H15S11531   2.161   1.650   3.892
    1PA    C11411532   2.132   1.547   3.701
    1PA    H14R11533   2.231   1.553   3.656
    1PA    H14S11534   2.105   1.447   3.667
    1PA    C11311535   2.040   1.661   3.653
    1PA    H13R11536   1.939   1.647   3.691
    1PA    H13S11537   2.073   1.752   3.703
    1PA    C11211538   2.036   1.673   3.500
    1PA    H12R11539   2.131   1.647   3.453
    1PA    H12S11540   1.965   1.595   3.472
    1PA    C11111541   1.971   1.806   3.457
    1PA    H11R11542   1.919   1.799   3.362
    1PA    H11S11543   1.899   1.838   3.533
    1PA    C11011544   2.069   1.922   3.435
    1PA    H10R11545   2.149   1.943   3.506
    1PA    H10S11546   2.123   1.897   3.344
    1PA     C1911547   1.988   2.052   3.421
    1PA     H9R11548   1.897   2.029   3.365
    1PA     H9S11549   1.956   2.091   3.518
    1PA     C1811550   2.063   2.170   3.358
    1PA     H8R11551   1.993   2.254   3.357
    1PA     H8S11552   2.149   2.192   3.422
    1PA     C1711553   2.110   2.137   3.216
    1PA     H7R11554   2.194   2.067   3.215
    1PA     H7S11555   2.026   2.112   3.150
    1PA     C1611556   2.182   2.261   3.159
    1PA     H6R11557   2.106   2.339   3.152
    1PA     H6S11558   2.271   2.295   3.213
    1PA     C1511559   2.229   2.234   3.016
    1PA     H5R11560   2.287   2.142   3.008
    1PA     H5S11561   2.143   2.215   2.951
    1PA     C1411562   2.309   2.348   2.952
    1PA     H4R11563   2.246   2.437   2.942
    1PA     H4S11564   2.387   2.380   3.021
    1PA     C1311565   2.360   2.314   2.811
    1PA     H3R11566   2.426   2.228   2.821
    1PA     H3S11567   2.277   2.272   2.753
    1PA     C1211568   2.422   2.438   2.747
    1PA     H2R11569   2.340   2.509   2.738
    1PA     H2S11570   2.499   2.490   2.804
    2PC     C1111571   2.479   2.418   2.608
    2PC     O1211572   2.584   2.457   2.564
    2PC     O1111573   2.396   2.349   2.528
    2PC      C111574   2.418   2.352   2.386
    2PC      HR11575   2.322   2.325   2.341
    2PC      HS11576   2.436   2.453   2.349
    2PC      C211577   2.515   2.242   2.339
    2PC      HX11578   2.593   2.235   2.415
    2PC      C311579   2.572   2.251   2.197
    2PC      HA11580   2.654   2.323   2.184
    2PC      HB11581   2.618   2.155   2.170
    2PC     O3111582   2.461   2.275   2.109
    2PC     P3111583   2.485   2.305   1.953
    2PC     O3211584   2.369   2.410   1.921
    2PC     C3111585   2.344   2.520   2.011
    2PC     H1A11586   2.310   2.487   2.109
    2PC     H1B11587   2.437   2.577   2.021
    2PC     C3211588   2.234   2.601   1.941
    2PC     H2A11589   2.158   2.528   1.915
    2PC     H2B11590   2.190   2.671   2.012
    2PC     N3111591   2.269   2.672   1.814
    2PC     C3311592   2.394   2.754   1.829
    2PC     H3A11593   2.405   2.812   1.738
    2PC     H3B11594   2.387   2.826   1.910
    2PC     H3C11595   2.475   2.681   1.846
    2PC     C3411596   2.289   2.586   1.693
    2PC     H4A11597   2.368   2.512   1.703
    2PC     H4B11598   2.201   2.523   1.678
    2PC     H4C11599   2.296   2.651   1.606
    2PC     C3511600   2.157   2.765   1.779
    2PC     H5A11601   2.189   2.794   1.679
    2PC     H5B11602   2.157   2.846   1.852
    2PC     H5C11603   2.065   2.705   1.782
    2PC     O3311604   2.621   2.360   1.934
    2PC     O3411605   2.465   2.181   1.874
    2PC     O2111606   2.434   2.123   2.348
    2PC     C2111607   2.489   2.001   2.339
    2PC     O2211608   2.606   1.974   2.324
    3OL     C1211609   2.379   1.897   2.345
    3OL     H2R11610   2.401   1.814   2.278
    3OL     H2S11611   2.290   1.942   2.301
    3OL     C1311612   2.344   1.854   2.488
    3OL     H3R11613   2.248   1.803   2.480
    3OL     H3S11614   2.336   1.939   2.556
    3OL     C1411615   2.450   1.753   2.535
    3OL     H4R11616   2.546   1.802   2.547
    3OL     H4S11617   2.453   1.673   2.461
    3OL     C1511618   2.416   1.688   2.670
    3OL     H5R11619   2.489   1.609   2.680
    3OL     H5S11620   2.313   1.653   2.669
    3OL     C1611621   2.421   1.785   2.790
    3OL     H6R11622   2.356   1.872   2.783
    3OL     H6S11623   2.526   1.813   2.800
    3OL     C1711624   2.398   1.715   2.924
    3OL     H7R11625   2.461   1.626   2.930
    3OL     H7S11626   2.291   1.692   2.930
    3OL     C1811627   2.429   1.808   3.042
    3OL     H8R11628   2.377   1.774   3.132
    3OL     H8S11629   2.398   1.912   3.033
    3OL     C1911630   2.575   1.821   3.078
    3OL     H9R11631   2.620   1.724   3.098
    3OL    C11011632   2.647   1.932   3.087
    3OL    H10R11633   2.755   1.929   3.092
    3OL    C11111634   2.591   2.072   3.087
    3OL    H11R11635   2.484   2.078   3.110
    3OL    H11S11636   2.607   2.111   2.986
    3OL    C11211637   2.662   2.158   3.192
    3OL    H12R11638   2.769   2.151   3.168
    3OL    H12S11639   2.654   2.106   3.288
    3OL    C11311640   2.620   2.305   3.206
    3OL    H13R11641   2.524   2.318   3.254
    3OL    H13S11642   2.613   2.343   3.104
    3OL    C11411643   2.720   2.402   3.271
    3OL    H14R11644   2.820   2.369   3.245
    3OL    H14S11645   2.711   2.399   3.380
    3OL    C11511646   2.714   2.545   3.214
    3OL    H15R11647   2.729   2.552   3.106
    3OL    H15S11648   2.786   2.603   3.272
    3OL    C11611649   2.581   2.609   3.258
    3OL    H16R11650   2.576   2.579   3.363
    3OL    H16S11651   2.502   2.558   3.203
    3OL    C11711652   2.567   2.761   3.245
    3OL    H17R11653   2.622   2.815   3.323
    3OL    H17S11654   2.463   2.785   3.266
    3OL    C11811655   2.616   2.827   3.115
    3OL    H18R11656   2.588   2.764   3.031
    3OL    H18S11657   2.725   2.833   3.124
    3OL    H18T11658   2.582   2.929   3.096
    1PA    C11611659   5.496   4.163   4.108
    1PA    H16R11660   5.581   4.100   4.079
    1PA    H16S11661   5.503   4.181   4.216
    1PA    H16T11662   5.502   4.259   4.055
    1PA    C11511663   5.356   4.106   4.086
    1PA    H15R11664   5.329   4.039   4.168
    1PA    H15S11665   5.284   4.188   4.091
    1PA    C11411666   5.334   4.021   3.960
    1PA    H14R11667   5.391   3.928   3.959
    1PA    H14S11668   5.227   4.001   3.950
    1PA    C11311669   5.369   4.103   3.835
    1PA    H13R11670   5.299   4.186   3.826
    1PA    H13S11671   5.473   4.135   3.850
    1PA    C11211672   5.369   4.010   3.713
    1PA    H12R11673   5.437   3.928   3.737
    1PA    H12S11674   5.267   3.971   3.702
    1PA    C11111675   5.417   4.072   3.581
    1PA    H11R11676   5.361   4.160   3.550
    1PA    H11S11677   5.519   4.108   3.597
    1PA    C11011678   5.414   3.969   3.467
    1PA    H10R11679   5.489   4.001   3.394
    1PA    H10S11680   5.459   3.877   3.505
    1PA     C1911681   5.274   3.946   3.408
    1PA     H9R11682   5.205   3.913   3.485
    1PA     H9S11683   5.232   4.041   3.373
    1PA     C1811684   5.281   3.838   3.299
    1PA     H8R11685   5.334   3.864   3.207
    1PA     H8S11686   5.326   3.750   3.345
    1PA     C1711687   5.145   3.784   3.252
    1PA     H7R11688   5.163   3.704   3.180
    1PA     H7S11689   5.087   3.738   3.332
    1PA     C1611690   5.055   3.891   3.189
    1PA     H6R11691   4.955   3.856   3.161
    1PA     H6S11692   5.051   3.957   3.276
    1PA     C1511693   5.096   3.963   3.060
    1PA     H5R11694   5.180   4.027   3.088
    1PA     H5S11695   5.122   3.876   2.999
    1PA     C1411696   4.991   4.052   2.992
    1PA     H4R11697   4.919   4.092   3.063
    1PA     H4S11698   5.047   4.139   2.957
    1PA     C1311699   4.921   3.983   2.874
    1PA     H3R11700   4.996   3.966   2.796
    1PA     H3S11701   4.877   3.887   2.903
    1PA     C1211702   4.805   4.058   2.807
    1PA     H2R11703   4.721   4.061   2.877
    1PA     H2S11704   4.842   4.159   2.791
    2PC     C1111705   4.756   4.001   2.676
    2PC     O1211706   4.793   3.900   2.621
    2PC     O1111707   4.680   4.089   2.609
    2PC      C111708   4.614   4.060   2.484
    2PC      HR11709   4.569   4.153   2.449
    2PC      HS11710   4.692   4.034   2.412
    2PC      C211711   4.505   3.953   2.491
    2PC      HX11712   4.537   3.884   2.570
    2PC      C311713   4.490   3.882   2.356
    2PC      HA11714   4.567   3.808   2.331
    2PC      HB11715   4.389   3.841   2.347
    2PC     O3111716   4.509   3.985   2.258
    2PC     P3111717   4.498   3.949   2.102
    2PC     O3211718   4.351   3.885   2.096
    2PC     C3111719   4.252   3.958   2.020
    2PC     H1A11720   4.226   4.049   2.073
    2PC     H1B11721   4.284   3.984   1.919
    2PC     C3211722   4.130   3.866   2.002
    2PC     H2A11723   4.073   3.906   1.918
    2PC     H2B11724   4.153   3.766   1.965
    2PC     N3111725   4.040   3.837   2.117
    2PC     C3311726   4.119   3.803   2.240
    2PC     H3A11727   4.203   3.749   2.197
    2PC     H3B11728   4.152   3.899   2.281
    2PC     H3C11729   4.046   3.761   2.309
    2PC     C3411730   3.960   3.962   2.140
    2PC     H4A11731   4.018   4.054   2.140
    2PC     H4B11732   3.885   3.964   2.061
    2PC     H4C11733   3.905   3.956   2.234
    2PC     C3511734   3.941   3.727   2.089
    2PC     H5A11735   3.990   3.632   2.112
    2PC     H5B11736   3.894   3.740   1.992
    2PC     H5C11737   3.866   3.735   2.167
    2PC     O3311738   4.511   4.081   2.038
    2PC     O3411739   4.622   3.883   2.054
    2PC     O2111740   4.379   4.011   2.529
    2PC     C2111741   4.338   4.030   2.655
    2PC     O2211742   4.376   3.965   2.751
    3OL     C1211743   4.244   4.147   2.658
    3OL     H2R11744   4.155   4.108   2.609
    3OL     H2S11745   4.291   4.220   2.592
    3OL     C1311746   4.215   4.206   2.797
    3OL     H3R11747   4.158   4.298   2.781
    3OL     H3S11748   4.308   4.230   2.849
    3OL     C1411749   4.127   4.107   2.874
    3OL     H4R11750   4.201   4.037   2.915
    3OL     H4S11751   4.056   4.066   2.803
    3OL     C1511752   4.038   4.153   2.990
    3OL     H5R11753   3.972   4.232   2.956
    3OL     H5S11754   4.090   4.207   3.070
    3OL     C1611755   3.970   4.039   3.068
    3OL     H6R11756   4.054   3.980   3.106
    3OL     H6S11757   3.914   3.975   2.999
    3OL     C1711758   3.875   4.091   3.177
    3OL     H7R11759   3.808   4.160   3.125
    3OL     H7S11760   3.933   4.154   3.245
    3OL     C1811761   3.806   3.971   3.244
    3OL     H8R11762   3.872   3.897   3.290
    3OL     H8S11763   3.747   3.920   3.167
    3OL     C1911764   3.718   4.028   3.352
    3OL     H9R11765   3.625   4.077   3.323
    3OL    C11011766   3.739   4.015   3.482
    3OL    H10R11767   3.659   4.054   3.543
    3OL    C11111768   3.856   3.961   3.560
    3OL    H11R11769   3.926   3.910   3.494
    3OL    H11S11770   3.809   3.884   3.622
    3OL    C11211771   3.933   4.057   3.653
    3OL    H12R11772   3.867   4.097   3.729
    3OL    H12S11773   3.972   4.134   3.587
    3OL    C11311774   4.041   3.977   3.728
    3OL    H13R11775   4.135   3.961   3.675
    3OL    H13S11776   3.998   3.879   3.748
    3OL    C11411777   4.080   4.035   3.864
    3OL    H14R11778   3.996   4.095   3.900
    3OL    H14S11779   4.159   4.106   3.841
    3OL    C11511780   4.133   3.925   3.958
    3OL    H15R11781   4.215   3.871   3.910
    3OL    H15S11782   4.061   3.844   3.969
    3OL    C11611783   4.181   3.989   4.089
    3OL    H16R11784   4.098   4.035   4.142
    3OL    H16S11785   4.256   4.064   4.062
    3OL    C11711786   4.241   3.882   4.181
    3OL    H17R11787   4.291   3.807   4.120
    3OL    H17S11788   4.162   3.829   4.236
    3OL    C11811789   4.337   3.954   4.276
    3OL    H18R11790   4.361   3.880   4.353
    3OL    H18S11791   4.299   4.043   4.327
    3OL    H18T11792   4.425   3.985   4.219
    1PA    C11611793   4.474   4.208   3.959
    1PA    H16R11794   4.380   4.163   3.927
    1PA    H16S11795   4.448   4.260   4.051
    1PA    H16T11796   4.545   4.127   3.972
    1PA    C11511797   4.512   4.307   3.848
    1PA    H15R11798   4.439   4.388   3.856
    1PA    H15S11799   4.603   4.361   3.875
    1PA    C11411800   4.541   4.248   3.709
    1PA    H14R11801   4.616   4.310   3.659
    1PA    H14S11802   4.576   4.146   3.730
    1PA    C11311803   4.409   4.232   3.633
    1PA    H13R11804   4.424   4.164   3.549
    1PA    H13S11805   4.339   4.184   3.701
    1PA    C11211806   4.346   4.360   3.577
    1PA    H12R11807   4.325   4.413   3.670
    1PA    H12S11808   4.421   4.414   3.519
    1PA    C11111809   4.222   4.328   3.493
    1PA    H11R11810   4.241   4.247   3.422
    1PA    H11S11811   4.149   4.277   3.556
    1PA    C11011812   4.164   4.450   3.419
    1PA    H10R11813   4.115   4.517   3.489
    1PA    H10S11814   4.240   4.507   3.366
    1PA     C1911815   4.054   4.403   3.323
    1PA     H9R11816   4.099   4.331   3.255
    1PA     H9S11817   3.973   4.347   3.370
    1PA     C1811818   3.998   4.524   3.247
    1PA     H8R11819   3.917   4.488   3.183
    1PA     H8S11820   3.965   4.604   3.314
    1PA     C1711821   4.096   4.587   3.147
    1PA     H7R11822   4.052   4.673   3.097
    1PA     H7S11823   4.175   4.640   3.200
    1PA     C1611824   4.155   4.488   3.046
    1PA     H6R11825   4.246   4.441   3.083
    1PA     H6S11826   4.086   4.403   3.037
    1PA     C1511827   4.188   4.544   2.907
    1PA     H5R11828   4.244   4.638   2.910
    1PA     H5S11829   4.256   4.480   2.851
    1PA     C1411830   4.059   4.556   2.824
    1PA     H4R11831   4.023   4.456   2.800
    1PA     H4S11832   3.986   4.605   2.888
    1PA     C1311833   4.071   4.618   2.684
    1PA     H3R11834   3.974   4.633   2.637
    1PA     H3S11835   4.140   4.702   2.677
    1PA     C1211836   4.115   4.511   2.583
    1PA     H2R11837   4.217   4.476   2.604
    1PA     H2S11838   4.049   4.425   2.598
    2PC     C1111839   4.114   4.559   2.440
    2PC     O1211840   4.073   4.492   2.348
    2PC     O1111841   4.168   4.680   2.420
    2PC      C111842   4.167   4.736   2.288
    2PC      HR11843   4.239   4.819   2.286
    2PC      HS11844   4.207   4.665   2.216
    2PC      C211845   4.026   4.777   2.242
    2PC      HX11846   3.958   4.692   2.230
    2PC      C311847   4.031   4.858   2.112
    2PC      HA11848   3.967   4.945   2.121
    2PC      HB11849   4.133   4.898   2.109
    2PC     O3111850   4.002   4.768   2.003
    2PC     P3111851   3.983   4.823   1.853
    2PC     O3211852   3.823   4.826   1.842
    2PC     C3111853   3.759   4.952   1.868
    2PC     H1A11854   3.771   4.984   1.972
    2PC     H1B11855   3.803   5.024   1.798
    2PC     C3211856   3.610   4.928   1.841
    2PC     H2A11857   3.599   4.882   1.742
    2PC     H2B11858   3.570   4.863   1.918
    2PC     N3111859   3.518   5.045   1.820
    2PC     C3311860   3.398   4.995   1.745
    2PC     H3A11861   3.341   5.088   1.747
    2PC     H3B11862   3.423   4.970   1.642
    2PC     H3C11863   3.347   4.917   1.801
    2PC     C3411864   3.486   5.103   1.955
    2PC     H4A11865   3.422   5.190   1.946
    2PC     H4B11866   3.459   5.022   2.023
    2PC     H4C11867   3.574   5.144   2.005
    2PC     C3511868   3.579   5.150   1.733
    2PC     H5A11869   3.609   5.108   1.637
    2PC     H5B11870   3.664   5.194   1.786
    2PC     H5C11871   3.501   5.226   1.719
    2PC     O3311872   4.042   4.956   1.824
    2PC     O3411873   4.046   4.737   1.751
    2PC     O2111874   3.979   4.862   2.347
    2PC     C2111875   3.848   4.882   2.373
    2PC     O2211876   3.762   4.862   2.290
    3OL     C1211877   3.813   4.948   2.503
    3OL     H2R11878   3.870   4.901   2.583
    3OL     H2S11879   3.709   4.934   2.534
    3OL     C1311880   3.846   5.098   2.509
    3OL     H3R11881   3.775   5.149   2.444
    3OL     H3S11882   3.946   5.121   2.471
    3OL     C1411883   3.833   5.140   2.656
    3OL     H4R11884   3.890   5.076   2.724
    3OL     H4S11885   3.727   5.130   2.681
    3OL     C1511886   3.880   5.284   2.677
    3OL     H5R11887   3.842   5.356   2.604
    3OL     H5S11888   3.988   5.285   2.663
    3OL     C1611889   3.839   5.346   2.811
    3OL     H6R11890   3.876   5.277   2.887
    3OL     H6S11891   3.730   5.337   2.821
    3OL     C1711892   3.892   5.487   2.838
    3OL     H7R11893   3.874   5.551   2.752
    3OL     H7S11894   3.998   5.486   2.866
    3OL     C1811895   3.812   5.556   2.950
    3OL     H8R11896   3.833   5.510   3.046
    3OL     H8S11897   3.706   5.541   2.927
    3OL     C1911898   3.852   5.702   2.950
    3OL     H9R11899   3.898   5.730   2.856
    3OL    C11011900   3.857   5.785   3.053
    3OL    H10R11901   3.889   5.887   3.035
    3OL    C11111902   3.808   5.755   3.192
    3OL    H11R11903   3.883   5.695   3.245
    3OL    H11S11904   3.717   5.695   3.178
    3OL    C11211905   3.782   5.883   3.272
    3OL    H12R11906   3.708   5.858   3.349
    3OL    H12S11907   3.736   5.953   3.202
    3OL    C11311908   3.908   5.947   3.334
    3OL    H13R11909   3.884   6.052   3.320
    3OL    H13S11910   3.994   5.917   3.275
    3OL    C11411911   3.912   5.915   3.484
    3OL    H14R11912   3.940   5.813   3.512
    3OL    H14S11913   3.818   5.941   3.533
    3OL    C11511914   4.028   5.989   3.553
    3OL    H15R11915   4.015   6.097   3.543
    3OL    H15S11916   4.113   5.965   3.488
    3OL    C11611917   4.044   5.941   3.697
    3OL    H16R11918   4.146   5.964   3.730
    3OL    H16S11919   4.038   5.832   3.701
    3OL    C11711920   3.935   5.997   3.789
    3OL    H17R11921   3.842   6.006   3.731
    3OL    H17S11922   3.967   6.098   3.816
    3OL    C11811923   3.938   5.927   3.925
    3OL    H18R11924   3.914   5.821   3.919
    3OL    H18S11925   3.870   5.981   3.992
    3OL    H18T11926   4.041   5.926   3.961
    1PA    C11611927   1.496   4.377   3.827
    1PA    H16R11928   1.521   4.367   3.933
    1PA    H16S11929   1.497   4.483   3.802
    1PA    H16T11930   1.581   4.332   3.776
    1PA    C11511931   1.372   4.292   3.797
    1PA    H15R11932   1.280   4.349   3.791
    1PA    H15S11933   1.387   4.259   3.694
    1PA    C11411934   1.362   4.170   3.890
    1PA    H14R11935   1.459   4.121   3.884
    1PA    H14S11936   1.345   4.203   3.992
    1PA    C11311937   1.244   4.081   3.846
    1PA    H13R11938   1.219   4.029   3.939
    1PA    H13S11939   1.160   4.150   3.833
    1PA    C11211940   1.271   3.995   3.722
    1PA    H12R11941   1.177   3.986   3.668
    1PA    H12S11942   1.335   4.059   3.660
    1PA    C11111943   1.326   3.859   3.766
    1PA    H11R11944   1.388   3.872   3.855
    1PA    H11S11945   1.246   3.788   3.789
    1PA    C11011946   1.405   3.804   3.646
    1PA    H10R11947   1.340   3.800   3.558
    1PA    H10S11948   1.499   3.859   3.641
    1PA     C1911949   1.426   3.653   3.665
    1PA     H9R11950   1.486   3.634   3.754
    1PA     H9S11951   1.331   3.602   3.680
    1PA     C1811952   1.506   3.600   3.545
    1PA     H8R11953   1.466   3.634   3.449
    1PA     H8S11954   1.609   3.634   3.541
    1PA     C1711955   1.518   3.448   3.567
    1PA     H7R11956   1.539   3.415   3.669
    1PA     H7S11957   1.424   3.397   3.545
    1PA     C1611958   1.622   3.397   3.466
    1PA     H6R11959   1.626   3.288   3.470
    1PA     H6S11960   1.587   3.413   3.364
    1PA     C1511961   1.766   3.443   3.496
    1PA     H5R11962   1.778   3.550   3.477
    1PA     H5S11963   1.779   3.432   3.604
    1PA     C1411964   1.884   3.376   3.425
    1PA     H4R11965   1.973   3.412   3.476
    1PA     H4S11966   1.884   3.268   3.444
    1PA     C1311967   1.892   3.416   3.277
    1PA     H3R11968   1.794   3.401   3.232
    1PA     H3S11969   1.912   3.523   3.283
    1PA     C1211970   2.002   3.344   3.197
    1PA     H2R11971   2.102   3.359   3.237
    1PA     H2S11972   1.977   3.239   3.211
    2PC     C1111973   1.996   3.386   3.052
    2PC     O1211974   1.918   3.468   3.009
    2PC     O1111975   2.087   3.317   2.979
    2PC      C111976   2.086   3.322   2.836
    2PC      HR11977   2.120   3.222   2.806
    2PC      HS11978   1.987   3.344   2.795
    2PC      C211979   2.184   3.428   2.786
    2PC      HX11980   2.174   3.532   2.818
    2PC      C311981   2.193   3.431   2.633
    2PC      HA11982   2.094   3.448   2.591
    2PC      HB11983   2.257   3.511   2.594
    2PC     O3111984   2.251   3.306   2.592
    2PC     P3111985   2.257   3.273   2.435
    2PC     O3211986   2.347   3.383   2.361
    2PC     C3111987   2.434   3.334   2.257
    2PC     H1A11988   2.490   3.248   2.293
    2PC     H1B11989   2.370   3.297   2.176
    2PC     C3211990   2.527   3.441   2.198
    2PC     H2A11991   2.607   3.473   2.265
    2PC     H2B11992   2.585   3.398   2.117
    2PC     N3111993   2.466   3.557   2.126
    2PC     C3311994   2.402   3.505   2.000
    2PC     H3A11995   2.313   3.447   2.026
    2PC     H3B11996   2.381   3.581   1.925
    2PC     H3C11997   2.470   3.436   1.950
    2PC     C3411998   2.370   3.639   2.207
    2PC     H4A11999   2.301   3.564   2.244
    2PC     H4B12000   2.426   3.675   2.294
    2PC     H4C12001   2.318   3.723   2.160
    2PC     C3512002   2.570   3.657   2.089
    2PC     H5A12003   2.644   3.655   2.170
    2PC     H5B12004   2.519   3.754   2.087
    2PC     H5C12005   2.616   3.621   1.997
    2PC     O3312006   2.327   3.143   2.428
    2PC     O3412007   2.124   3.250   2.374
    2PC     O2112008   2.316   3.397   2.835
    2PC     C2112009   2.421   3.476   2.809
    2PC     O2212010   2.408   3.591   2.772
    3OL     C1212011   2.558   3.414   2.825
    3OL     H2R12012   2.591   3.358   2.737
    3OL     H2S12013   2.555   3.340   2.905
    3OL     C1312014   2.670   3.510   2.866
    3OL     H3R12015   2.674   3.578   2.780
    3OL     H3S12016   2.767   3.461   2.874
    3OL     C1412017   2.645   3.580   3.001
    3OL     H4R12018   2.544   3.620   2.991
    3OL     H4S12019   2.715   3.661   3.017
    3OL     C1512020   2.668   3.489   3.122
    3OL     H5R12021   2.769   3.447   3.124
    3OL     H5S12022   2.605   3.403   3.100
    3OL     C1612023   2.631   3.550   3.258
    3OL     H6R12024   2.629   3.465   3.327
    3OL     H6S12025   2.533   3.599   3.259
    3OL     C1712026   2.735   3.650   3.311
    3OL     H7R12027   2.729   3.745   3.256
    3OL     H7S12028   2.832   3.603   3.294
    3OL     C1812029   2.729   3.673   3.462
    3OL     H8R12030   2.627   3.695   3.496
    3OL     H8S12031   2.793   3.760   3.482
    3OL     C1912032   2.788   3.556   3.536
    3OL     H9R12033   2.729   3.466   3.530
    3OL    C11012034   2.904   3.548   3.600
    3OL    H10R12035   2.924   3.455   3.653
    3OL    C11112036   3.010   3.654   3.621
    3OL    H11R12037   3.013   3.739   3.552
    3OL    H11S12038   3.103   3.604   3.592
    3OL    C11212039   3.021   3.695   3.768
    3OL    H12R12040   3.017   3.606   3.831
    3OL    H12S12041   2.936   3.757   3.795
    3OL    C11312042   3.141   3.790   3.780
    3OL    H13R12043   3.125   3.880   3.721
    3OL    H13S12044   3.223   3.731   3.739
    3OL    C11412045   3.159   3.829   3.928
    3OL    H14R12046   3.196   3.745   3.986
    3OL    H14S12047   3.064   3.861   3.970
    3OL    C11512048   3.266   3.937   3.950
    3OL    H15R12049   3.354   3.928   3.885
    3OL    H15S12050   3.290   3.938   4.056
    3OL    C11612051   3.201   4.070   3.909
    3OL    H16R12052   3.096   4.076   3.941
    3OL    H16S12053   3.187   4.078   3.801
    3OL    C11712054   3.280   4.192   3.958
    3OL    H17R12055   3.244   4.282   3.906
    3OL    H17S12056   3.384   4.172   3.934
    3OL    C11812057   3.242   4.218   4.105
    3OL    H18R12058   3.298   4.308   4.133
    3OL    H18S12059   3.268   4.128   4.161
    3OL    H18T12060   3.137   4.241   4.121
    1PA    C11612061   3.516   5.668   3.750
    1PA    H16R12062   3.462   5.622   3.667
    1PA    H16S12063   3.448   5.744   3.790
    1PA    H16T12064   3.539   5.597   3.830
    1PA    C11512065   3.643   5.731   3.694
    1PA    H15R12066   3.624   5.776   3.596
    1PA    H15S12067   3.666   5.810   3.766
    1PA    C11412068   3.759   5.630   3.696
    1PA    H14R12069   3.853   5.680   3.677
    1PA    H14S12070   3.767   5.578   3.792
    1PA    C11312071   3.726   5.518   3.596
    1PA    H13R12072   3.775   5.427   3.631
    1PA    H13S12073   3.617   5.506   3.588
    1PA    C11212074   3.791   5.541   3.460
    1PA    H12R12075   3.750   5.634   3.419
    1PA    H12S12076   3.899   5.551   3.473
    1PA    C11112077   3.764   5.421   3.369
    1PA    H11R12078   3.825   5.419   3.278
    1PA    H11S12079   3.781   5.323   3.415
    1PA    C11012080   3.615   5.423   3.330
    1PA    H10R12081   3.556   5.398   3.419
    1PA    H10S12082   3.589   5.522   3.293
    1PA     C1912083   3.579   5.333   3.211
    1PA     H9R12084   3.474   5.337   3.185
    1PA     H9S12085   3.624   5.373   3.120
    1PA     C1812086   3.602   5.182   3.230
    1PA     H8R12087   3.703   5.166   3.269
    1PA     H8S12088   3.518   5.142   3.287
    1PA     C1712089   3.602   5.101   3.099
    1PA     H7R12090   3.501   5.087   3.062
    1PA     H7S12091   3.656   5.157   3.023
    1PA     C1612092   3.661   4.960   3.116
    1PA     H6R12093   3.764   4.982   3.143
    1PA     H6S12094   3.620   4.914   3.206
    1PA     C1512095   3.647   4.884   2.983
    1PA     H5R12096   3.539   4.865   2.978
    1PA     H5S12097   3.681   4.934   2.892
    1PA     C1412098   3.719   4.749   2.992
    1PA     H4R12099   3.827   4.765   2.999
    1PA     H4S12100   3.693   4.705   3.088
    1PA     C1312101   3.681   4.642   2.889
    1PA     H3R12102   3.737   4.549   2.899
    1PA     H3S12103   3.576   4.612   2.898
    1PA     C1212104   3.702   4.699   2.748
    1PA     H2R12105   3.654   4.797   2.742
    1PA     H2S12106   3.808   4.720   2.734
    2PC     C1112107   3.633   4.613   2.645
    2PC     O1212108   3.524   4.563   2.663
    2PC     O1112109   3.702   4.615   2.530
    2PC      C112110   3.657   4.542   2.415
    2PC      HR12111   3.547   4.540   2.416
    2PC      HS12112   3.679   4.598   2.324
    2PC      C212113   3.715   4.400   2.416
    2PC      HX12114   3.823   4.408   2.433
    2PC      C312115   3.689   4.325   2.285
    2PC      HA12116   3.583   4.333   2.260
    2PC      HB12117   3.752   4.354   2.201
    2PC     O3112118   3.721   4.186   2.307
    2PC     P3112119   3.647   4.075   2.219
    2PC     O3212120   3.493   4.119   2.230
    2PC     C3112121   3.422   4.171   2.116
    2PC     H1A12122   3.331   4.219   2.155
    2PC     H1B12123   3.482   4.249   2.069
    2PC     C3212124   3.403   4.060   2.012
    2PC     H2A12125   3.373   4.099   1.914
    2PC     H2B12126   3.490   3.998   1.994
    2PC     N3112127   3.294   3.960   2.035
    2PC     C3312128   3.276   3.864   1.920
    2PC     H3A12129   3.271   3.920   1.827
    2PC     H3B12130   3.369   3.809   1.911
    2PC     H3C12131   3.186   3.806   1.941
    2PC     C3412132   3.323   3.876   2.155
    2PC     H4A12133   3.333   3.932   2.248
    2PC     H4B12134   3.247   3.800   2.167
    2PC     H4C12135   3.416   3.822   2.133
    2PC     C3512136   3.158   4.020   2.057
    2PC     H5A12137   3.089   3.939   2.080
    2PC     H5B12138   3.123   4.085   1.976
    2PC     H5C12139   3.179   4.073   2.150
    2PC     O3312140   3.698   4.079   2.080
    2PC     O3412141   3.668   3.933   2.257
    2PC     O2112142   3.659   4.319   2.522
    2PC     C2112143   3.717   4.310   2.642
    2PC     O2212144   3.824   4.363   2.665
    3OL     C1212145   3.651   4.210   2.733
    3OL     H2R12146   3.542   4.220   2.724
    3OL     H2S12147   3.666   4.233   2.839
    3OL     C1312148   3.723   4.077   2.707
    3OL     H3R12149   3.831   4.082   2.723
    3OL     H3S12150   3.703   4.045   2.605
    3OL     C1412151   3.669   3.970   2.802
    3OL     H4R12152   3.688   3.982   2.909
    3OL     H4S12153   3.702   3.871   2.772
    3OL     C1512154   3.516   3.954   2.792
    3OL     H5R12155   3.464   3.958   2.697
    3OL     H5S12156   3.476   4.032   2.858
    3OL     C1612157   3.476   3.821   2.857
    3OL     H6R12158   3.506   3.736   2.796
    3OL     H6S12159   3.367   3.816   2.846
    3OL     C1712160   3.512   3.795   3.004
    3OL     H7R12161   3.617   3.813   3.027
    3OL     H7S12162   3.496   3.689   3.027
    3OL     C1812163   3.429   3.878   3.103
    3OL     H8R12164   3.324   3.877   3.072
    3OL     H8S12165   3.456   3.984   3.100
    3OL     C1912166   3.435   3.832   3.247
    3OL     H9R12167   3.532   3.799   3.284
    3OL    C11012168   3.334   3.847   3.331
    3OL    H10R12169   3.355   3.824   3.435
    3OL    C11112170   3.188   3.876   3.306
    3OL    H11R12171   3.133   3.787   3.336
    3OL    H11S12172   3.159   3.893   3.203
    3OL    C11212173   3.155   4.004   3.385
    3OL    H12R12174   3.217   4.092   3.365
    3OL    H12S12175   3.167   3.979   3.490
    3OL    C11312176   3.009   4.048   3.366
    3OL    H13R12177   2.936   3.967   3.376
    3OL    H13S12178   2.997   4.087   3.264
    3OL    C11412179   2.984   4.168   3.459
    3OL    H14R12180   2.897   4.215   3.414
    3OL    H14S12181   3.056   4.250   3.450
    3OL    C11512182   2.968   4.148   3.610
    3OL    H15R12183   2.962   4.247   3.655
    3OL    H15S12184   3.049   4.088   3.653
    3OL    C11612185   2.835   4.075   3.635
    3OL    H16R12186   2.828   3.977   3.588
    3OL    H16S12187   2.758   4.135   3.586
    3OL    C11712188   2.805   4.072   3.786
    3OL    H17R12189   2.817   4.168   3.836
    3OL    H17S12190   2.881   4.012   3.835
    3OL    C11812191   2.669   4.006   3.817
    3OL    H18R12192   2.669   3.902   3.785
    3OL    H18S12193   2.586   4.065   3.777
    3OL    H18T12194   2.654   3.999   3.924
    1PA    C11612195   3.411   1.847   3.744
    1PA    H16R12196   3.446   1.814   3.843
    1PA    H16S12197   3.336   1.774   3.713
    1PA    H16T12198   3.362   1.944   3.738
    1PA    C11512199   3.517   1.852   3.633
    1PA    H15R12200   3.600   1.918   3.660
    1PA    H15S12201   3.552   1.752   3.609
    1PA    C11412202   3.465   1.890   3.493
    1PA    H14R12203   3.395   1.814   3.456
    1PA    H14S12204   3.423   1.990   3.501
    1PA    C11312205   3.571   1.903   3.384
    1PA    H13R12206   3.645   1.981   3.406
    1PA    H13S12207   3.623   1.808   3.373
    1PA    C11212208   3.506   1.939   3.250
    1PA    H12R12209   3.425   1.868   3.232
    1PA    H12S12210   3.454   2.035   3.260
    1PA    C11112211   3.611   1.944   3.138
    1PA    H11R12212   3.670   1.852   3.134
    1PA    H11S12213   3.555   1.946   3.044
    1PA    C11012214   3.692   2.074   3.137
    1PA    H10R12215   3.632   2.163   3.121
    1PA    H10S12216   3.726   2.093   3.239
    1PA     C1912217   3.814   2.063   3.044
    1PA     H9R12218   3.890   2.000   3.090
    1PA     H9S12219   3.782   2.004   2.958
    1PA     C1812220   3.870   2.199   3.000
    1PA     H8R12221   3.779   2.257   2.983
    1PA     H8S12222   3.922   2.251   3.081
    1PA     C1712223   3.958   2.189   2.875
    1PA     H7R12224   4.016   2.280   2.860
    1PA     H7S12225   4.034   2.112   2.891
    1PA     C1612226   3.873   2.156   2.752
    1PA     H6R12227   3.830   2.056   2.758
    1PA     H6S12228   3.793   2.229   2.737
    1PA     C1512229   3.960   2.153   2.625
    1PA     H5R12230   4.067   2.132   2.638
    1PA     H5S12231   3.916   2.090   2.547
    1PA     C1412232   3.959   2.291   2.558
    1PA     H4R12233   3.873   2.299   2.492
    1PA     H4S12234   3.952   2.372   2.631
    1PA     C1312235   4.083   2.320   2.473
    1PA     H3R12236   4.178   2.304   2.525
    1PA     H3S12237   4.089   2.247   2.392
    1PA     C1212238   4.086   2.466   2.425
    1PA     H2R12239   3.999   2.483   2.362
    1PA     H2S12240   4.079   2.539   2.506
    2PC     C1112241   4.207   2.485   2.338
    2PC     O1212242   4.223   2.443   2.225
    2PC     O1112243   4.298   2.555   2.409
    2PC      C112244   4.414   2.605   2.341
    2PC      HR12245   4.488   2.634   2.416
    2PC      HS12246   4.458   2.520   2.288
    2PC      C212247   4.373   2.719   2.247
    2PC      HX12248   4.275   2.697   2.204
    2PC      C312249   4.466   2.749   2.128
    2PC      HA12250   4.457   2.668   2.055
    2PC      HB12251   4.441   2.845   2.084
    2PC     O3112252   4.606   2.745   2.158
    2PC     P3112253   4.718   2.801   2.058
    2PC     O3212254   4.849   2.740   2.128
    2PC     C3112255   4.912   2.629   2.061
    2PC     H1A12256   4.845   2.545   2.041
    2PC     H1B12257   4.939   2.674   1.965
    2PC     C3212258   5.039   2.593   2.138
    2PC     H2A12259   5.124   2.578   2.071
    2PC     H2B12260   5.064   2.685   2.191
    2PC     N3112261   5.046   2.474   2.229
    2PC     C3312262   4.955   2.493   2.347
    2PC     H3A12263   4.853   2.516   2.317
    2PC     H3B12264   4.969   2.403   2.405
    2PC     H3C12265   4.994   2.580   2.402
    2PC     C3412266   4.998   2.351   2.159
    2PC     H4A12267   5.023   2.267   2.225
    2PC     H4B12268   4.889   2.357   2.161
    2PC     H4C12269   5.045   2.330   2.063
    2PC     C3512270   5.188   2.460   2.275
    2PC     H5A12271   5.262   2.466   2.194
    2PC     H5B12272   5.196   2.357   2.311
    2PC     H5C12273   5.219   2.519   2.361
    2PC     O3312274   4.710   2.747   1.921
    2PC     O3412275   4.720   2.949   2.046
    2PC     O2112276   4.367   2.836   2.330
    2PC     C2112277   4.261   2.918   2.318
    2PC     O2212278   4.177   2.901   2.232
    3OL     C1212279   4.266   3.032   2.417
    3OL     H2R12280   4.232   3.125   2.370
    3OL     H2S12281   4.371   3.049   2.440
    3OL     C1312282   4.198   3.014   2.554
    3OL     H3R12283   4.228   2.924   2.608
    3OL     H3S12284   4.092   3.010   2.532
    3OL     C1412285   4.237   3.128   2.649
    3OL     H4R12286   4.185   3.219   2.618
    3OL     H4S12287   4.345   3.142   2.652
    3OL     C1512288   4.175   3.108   2.788
    3OL     H5R12289   4.205   3.182   2.862
    3OL     H5S12290   4.206   3.011   2.828
    3OL     C1612291   4.021   3.115   2.786
    3OL     H6R12292   3.979   3.025   2.742
    3OL     H6S12293   3.977   3.197   2.730
    3OL     C1712294   3.964   3.133   2.927
    3OL     H7R12295   4.027   3.068   2.989
    3OL     H7S12296   3.862   3.093   2.921
    3OL     C1812297   3.966   3.272   2.990
    3OL     H8R12298   4.069   3.310   2.989
    3OL     H8S12299   3.940   3.269   3.096
    3OL     C1912300   3.884   3.377   2.919
    3OL     H9R12301   3.918   3.396   2.818
    3OL    C11012302   3.781   3.444   2.969
    3OL    H10R12303   3.737   3.522   2.909
    3OL    C11112304   3.710   3.430   3.102
    3OL    H11R12305   3.735   3.335   3.150
    3OL    H11S12306   3.603   3.430   3.083
    3OL    C11212307   3.747   3.545   3.197
    3OL    H12R12308   3.734   3.638   3.142
    3OL    H12S12309   3.853   3.538   3.222
    3OL    C11312310   3.672   3.544   3.330
    3OL    H13R12311   3.669   3.441   3.366
    3OL    H13S12312   3.568   3.575   3.317
    3OL    C11412313   3.736   3.638   3.434
    3OL    H14R12314   3.721   3.741   3.401
    3OL    H14S12315   3.843   3.616   3.440
    3OL    C11512316   3.679   3.621   3.576
    3OL    H15R12317   3.754   3.661   3.644
    3OL    H15S12318   3.666   3.521   3.619
    3OL    C11612319   3.551   3.702   3.598
    3OL    H16R12320   3.476   3.641   3.546
    3OL    H16S12321   3.549   3.798   3.546
    3OL    C11712322   3.511   3.725   3.744
    3OL    H17R12323   3.495   3.626   3.786
    3OL    H17S12324   3.419   3.783   3.739
    3OL    C11812325   3.610   3.802   3.833
    3OL    H18R12326   3.615   3.904   3.792
    3OL    H18S12327   3.708   3.754   3.833
    3OL    H18T12328   3.577   3.816   3.936
    1PA    C11612329   4.851   6.324   3.959
    1PA    H16R12330   4.921   6.400   3.924
    1PA    H16S12331   4.839   6.248   3.881
    1PA    H16T12332   4.879   6.280   4.055
    1PA    C11512333   4.712   6.384   3.980
    1PA    H15R12334   4.643   6.315   4.030
    1PA    H15S12335   4.723   6.469   4.047
    1PA    C11412336   4.660   6.440   3.846
    1PA    H14R12337   4.729   6.519   3.816
    1PA    H14S12338   4.665   6.357   3.775
    1PA    C11312339   4.518   6.496   3.837
    1PA    H13R12340   4.436   6.424   3.847
    1PA    H13S12341   4.513   6.565   3.921
    1PA    C11212342   4.504   6.575   3.706
    1PA    H12R12343   4.418   6.642   3.712
    1PA    H12S12344   4.597   6.626   3.680
    1PA    C11112345   4.474   6.473   3.595
    1PA    H11R12346   4.545   6.391   3.585
    1PA    H11S12347   4.379   6.422   3.614
    1PA    C11012348   4.458   6.534   3.455
    1PA    H10R12349   4.371   6.601   3.455
    1PA    H10S12350   4.547   6.596   3.438
    1PA     C1912351   4.454   6.427   3.346
    1PA     H9R12352   4.546   6.371   3.360
    1PA     H9S12353   4.369   6.359   3.358
    1PA     C1812354   4.441   6.481   3.203
    1PA     H8R12355   4.360   6.554   3.195
    1PA     H8S12356   4.538   6.528   3.183
    1PA     C1712357   4.418   6.361   3.109
    1PA     H7R12358   4.489   6.284   3.140
    1PA     H7S12359   4.320   6.323   3.141
    1PA     C1612360   4.406   6.399   2.961
    1PA     H6R12361   4.316   6.460   2.952
    1PA     H6S12362   4.485   6.471   2.937
    1PA     C1512363   4.406   6.273   2.874
    1PA     H5R12364   4.343   6.193   2.913
    1PA     H5S12365   4.359   6.306   2.782
    1PA     C1412366   4.552   6.226   2.868
    1PA     H4R12367   4.635   6.295   2.851
    1PA     H4S12368   4.576   6.179   2.964
    1PA     C1312369   4.580   6.117   2.764
    1PA     H3R12370   4.681   6.081   2.783
    1PA     H3S12371   4.507   6.039   2.785
    1PA     C1212372   4.562   6.163   2.618
    1PA     H2R12373   4.455   6.156   2.600
    1PA     H2S12374   4.592   6.267   2.603
    2PC     C1112375   4.638   6.077   2.520
    2PC     O1212376   4.640   5.959   2.548
    2PC     O1112377   4.692   6.150   2.422
    2PC      C112378   4.746   6.083   2.307
    2PC      HR12379   4.797   5.989   2.332
    2PC      HS12380   4.666   6.056   2.237
    2PC      C212381   4.851   6.174   2.241
    2PC      HX12382   4.798   6.267   2.220
    2PC      C312383   4.905   6.134   2.103
    2PC      HA12384   4.819   6.144   2.036
    2PC      HB12385   4.990   6.194   2.071
    2PC     O3112386   4.953   5.999   2.115
    2PC     P3112387   4.960   5.918   1.977
    2PC     O3212388   4.979   5.777   2.050
    2PC     C3112389   4.866   5.717   2.116
    2PC     H1A12390   4.823   5.789   2.186
    2PC     H1B12391   4.790   5.705   2.038
    2PC     C3212392   4.911   5.586   2.182
    2PC     H2A12393   4.971   5.597   2.272
    2PC     H2B12394   4.822   5.538   2.223
    2PC     N3112395   4.989   5.481   2.109
    2PC     C3312396   5.135   5.514   2.121
    2PC     H3A12397   5.170   5.480   2.219
    2PC     H3B12398   5.188   5.461   2.042
    2PC     H3C12399   5.149   5.621   2.105
    2PC     C3412400   4.966   5.349   2.176
    2PC     H4A12401   4.994   5.360   2.280
    2PC     H4B12402   4.861   5.323   2.158
    2PC     H4C12403   5.030   5.278   2.123
    2PC     C3512404   4.951   5.462   1.965
    2PC     H5A12405   5.010   5.389   1.910
    2PC     H5B12406   4.962   5.554   1.906
    2PC     H5C12407   4.848   5.431   1.950
    2PC     O3312408   4.832   5.925   1.904
    2PC     O3412409   5.059   5.978   1.884
    2PC     O2112410   4.957   6.203   2.334
    2PC     C2112411   4.959   6.322   2.396
    2PC     O2212412   4.882   6.414   2.379
    3OL     C1212413   5.079   6.325   2.488
    3OL     H2R12414   5.156   6.391   2.448
    3OL     H2S12415   5.114   6.222   2.495
    3OL     C1312416   5.038   6.362   2.631
    3OL     H3R12417   4.941   6.321   2.658
    3OL     H3S12418   5.023   6.470   2.628
    3OL     C1412419   5.146   6.342   2.738
    3OL     H4R12420   5.156   6.426   2.807
    3OL     H4S12421   5.245   6.343   2.691
    3OL     C1512422   5.128   6.211   2.816
    3OL     H5R12423   5.220   6.197   2.873
    3OL     H5S12424   5.125   6.119   2.756
    3OL     C1612425   5.002   6.191   2.901
    3OL     H6R12426   5.012   6.091   2.944
    3OL     H6S12427   4.906   6.174   2.851
    3OL     C1712428   4.992   6.304   3.005
    3OL     H7R12429   5.032   6.391   2.952
    3OL     H7S12430   5.054   6.283   3.092
    3OL     C1812431   4.846   6.322   3.050
    3OL     H8R12432   4.786   6.313   2.960
    3OL     H8S12433   4.834   6.424   3.087
    3OL     C1912434   4.805   6.228   3.160
    3OL     H9R12435   4.763   6.133   3.125
    3OL    C11012436   4.822   6.247   3.290
    3OL    H10R12437   4.807   6.168   3.363
    3OL    C11112438   4.890   6.366   3.353
    3OL    H11R12439   4.812   6.423   3.404
    3OL    H11S12440   4.935   6.432   3.279
    3OL    C11212441   4.996   6.318   3.453
    3OL    H12R12442   5.068   6.254   3.401
    3OL    H12S12443   4.952   6.256   3.532
    3OL    C11312444   5.065   6.445   3.503
    3OL    H13R12445   5.000   6.508   3.565
    3OL    H13S12446   5.093   6.508   3.418
    3OL    C11412447   5.188   6.415   3.590
    3OL    H14R12448   5.178   6.336   3.665
    3OL    H14S12449   5.201   6.501   3.656
    3OL    C11512450   5.312   6.399   3.501
    3OL    H15R12451   5.339   6.491   3.448
    3OL    H15S12452   5.291   6.333   3.417
    3OL    C11612453   5.427   6.346   3.589
    3OL    H16R12454   5.423   6.237   3.592
    3OL    H16S12455   5.413   6.382   3.691
    3OL    C11712456   5.562   6.396   3.537
    3OL    H17R12457   5.550   6.498   3.499
    3OL    H17S12458   5.608   6.335   3.459
    3OL    C11812459   5.667   6.413   3.648
    3OL    H18R12460   5.633   6.498   3.706
    3OL    H18S12461   5.761   6.445   3.604
    3OL    H18T12462   5.672   6.327   3.715
    1PA    C11612463   2.278   0.866   3.384
    1PA    H16R12464   2.308   0.796   3.463
    1PA    H16S12465   2.185   0.912   3.419
    1PA    H16T12466   2.359   0.939   3.379
    1PA    C11512467   2.264   0.798   3.247
    1PA    H15R12468   2.362   0.762   3.215
    1PA    H15S12469   2.191   0.717   3.255
    1PA    C11412470   2.210   0.886   3.133
    1PA    H14R12471   2.105   0.910   3.153
    1PA    H14S12472   2.266   0.978   3.149
    1PA    C11312473   2.240   0.825   2.996
    1PA    H13R12474   2.219   0.900   2.919
    1PA    H13S12475   2.347   0.808   3.008
    1PA    C11212476   2.170   0.691   2.973
    1PA    H12R12477   2.150   0.632   3.063
    1PA    H12S12478   2.068   0.712   2.938
    1PA    C11112479   2.242   0.623   2.856
    1PA    H11R12480   2.262   0.691   2.773
    1PA    H11S12481   2.340   0.592   2.894
    1PA    C11012482   2.161   0.514   2.785
    1PA    H10R12483   2.072   0.559   2.740
    1PA    H10S12484   2.216   0.465   2.705
    1PA     C1912485   2.114   0.411   2.888
    1PA     H9R12486   2.202   0.376   2.944
    1PA     H9S12487   2.041   0.452   2.958
    1PA     C1812488   2.043   0.288   2.829
    1PA     H8R12489   2.096   0.260   2.737
    1PA     H8S12490   2.047   0.208   2.903
    1PA     C1712491   1.900   0.326   2.790
    1PA     H7R12492   1.891   0.425   2.744
    1PA     H7S12493   1.860   0.259   2.713
    1PA     C1612494   1.802   0.313   2.908
    1PA     H6R12495   1.772   0.209   2.919
    1PA     H6S12496   1.846   0.338   3.005
    1PA     C1512497   1.676   0.401   2.897
    1PA     H5R12498   1.627   0.404   2.995
    1PA     H5S12499   1.710   0.503   2.882
    1PA     C1412500   1.571   0.372   2.789
    1PA     H4R12501   1.603   0.381   2.685
    1PA     H4S12502   1.538   0.269   2.802
    1PA     C1312503   1.451   0.465   2.812
    1PA     H3R12504   1.413   0.434   2.909
    1PA     H3S12505   1.484   0.568   2.831
    1PA     C1212506   1.336   0.470   2.710
    1PA     H2R12507   1.290   0.373   2.696
    1PA     H2S12508   1.262   0.546   2.735
    2PC     C1112509   1.370   0.529   2.575
    2PC     O1212510   1.481   0.575   2.554
    2PC     O1112511   1.269   0.520   2.488
    2PC      C112512   1.303   0.543   2.350
    2PC      HR12513   1.364   0.633   2.345
    2PC      HS12514   1.360   0.461   2.305
    2PC      C212515   1.176   0.536   2.264
    2PC      HX12516   1.122   0.444   2.287
    2PC      C312517   1.195   0.570   2.115
    2PC      HA12518   1.233   0.483   2.062
    2PC      HB12519   1.100   0.588   2.063
    2PC     O3112520   1.282   0.682   2.095
    2PC     P3112521   1.292   0.754   1.952
    2PC     O3212522   1.140   0.799   1.931
    2PC     C3112523   1.068   0.760   1.813
    2PC     H1A12524   1.108   0.820   1.731
    2PC     H1B12525   1.085   0.654   1.792
    2PC     C3212526   0.920   0.797   1.829
    2PC     H2A12527   0.883   0.758   1.734
    2PC     H2B12528   0.881   0.750   1.919
    2PC     N3112529   0.885   0.944   1.825
    2PC     C3312530   0.736   0.965   1.838
    2PC     H3A12531   0.678   0.903   1.769
    2PC     H3B12532   0.710   0.941   1.941
    2PC     H3C12533   0.718   1.072   1.823
    2PC     C3412534   0.944   1.009   1.947
    2PC     H4A12535   1.051   1.023   1.933
    2PC     H4B12536   0.899   1.107   1.959
    2PC     H4C12537   0.922   0.940   2.029
    2PC     C3512538   0.920   1.019   1.700
    2PC     H5A12539   0.886   1.122   1.699
    2PC     H5B12540   0.878   0.957   1.621
    2PC     H5C12541   1.029   1.019   1.699
    2PC     O3312542   1.391   0.864   1.953
    2PC     O3412543   1.346   0.663   1.848
    2PC     O2112544   1.102   0.650   2.314
    2PC     C2112545   0.974   0.674   2.282
    2PC     O2212546   0.906   0.589   2.228
    3OL     C1212547   0.915   0.788   2.360
    3OL     H2R12548   0.846   0.843   2.295
    3OL     H2S12549   0.994   0.849   2.403
    3OL     C1312550   0.835   0.740   2.483
    3OL     H3R12551   0.914   0.687   2.538
    3OL     H3S12552   0.757   0.669   2.455
    3OL     C1412553   0.776   0.854   2.568
    3OL     H4R12554   0.679   0.892   2.535
    3OL     H4S12555   0.845   0.937   2.549
    3OL     C1512556   0.766   0.818   2.717
    3OL     H5R12557   0.863   0.780   2.752
    3OL     H5S12558   0.699   0.733   2.728
    3OL     C1612559   0.733   0.945   2.798
    3OL     H6R12560   0.641   0.998   2.775
    3OL     H6S12561   0.812   1.017   2.777
    3OL     C1712562   0.739   0.914   2.949
    3OL     H7R12563   0.741   1.009   3.004
    3OL     H7S12564   0.840   0.879   2.970
    3OL     C1812565   0.618   0.830   2.994
    3OL     H8R12566   0.639   0.804   3.098
    3OL     H8S12567   0.605   0.737   2.939
    3OL     C1912568   0.490   0.909   2.986
    3OL     H9R12569   0.432   0.891   2.896
    3OL    C11012570   0.432   0.990   3.074
    3OL    H10R12571   0.332   1.028   3.053
    3OL    C11112572   0.489   1.022   3.210
    3OL    H11R12573   0.497   1.130   3.224
    3OL    H11S12574   0.590   0.980   3.224
    3OL    C11212575   0.401   0.965   3.321
    3OL    H12R12576   0.380   0.859   3.303
    3OL    H12S12577   0.300   1.007   3.311
    3OL    C11312578   0.466   0.985   3.459
    3OL    H13R12579   0.485   1.090   3.478
    3OL    H13S12580   0.559   0.927   3.460
    3OL    C11412581   0.370   0.934   3.567
    3OL    H14R12582   0.345   0.829   3.545
    3OL    H14S12583   0.282   0.998   3.560
    3OL    C11512584   0.437   0.938   3.705
    3OL    H15R12585   0.474   1.035   3.738
    3OL    H15S12586   0.526   0.873   3.705
    3OL    C11612587   0.337   0.888   3.810
    3OL    H16R12588   0.375   0.914   3.909
    3OL    H16S12589   0.339   0.779   3.802
    3OL    C11712590   0.189   0.926   3.798
    3OL    H17R12591   0.132   0.864   3.868
    3OL    H17S12592   0.155   0.910   3.695
    3OL    C11812593   0.167   1.075   3.828
    3OL    H18R12594   0.066   1.102   3.798
    3OL    H18S12595   0.233   1.135   3.765
    3OL    H18T12596   0.177   1.090   3.936
    1PA    C11612597   0.389  -0.769   4.291
    1PA    H16R12598   0.288  -0.728   4.282
    1PA    H16S12599   0.465  -0.713   4.346
    1PA    H16T12600   0.381  -0.862   4.349
    1PA    C11512601   0.449  -0.814   4.157
    1PA    H15R12602   0.549  -0.852   4.178
    1PA    H15S12603   0.388  -0.895   4.115
    1PA    C11412604   0.453  -0.701   4.054
    1PA    H14R12605   0.500  -0.753   3.970
    1PA    H14S12606   0.353  -0.672   4.021
    1PA    C11312607   0.539  -0.579   4.086
    1PA    H13R12608   0.489  -0.515   4.159
    1PA    H13S12609   0.636  -0.609   4.128
    1PA    C11212610   0.562  -0.495   3.960
    1PA    H12R12611   0.466  -0.449   3.934
    1PA    H12S12612   0.642  -0.425   3.988
    1PA    C11112613   0.631  -0.569   3.845
    1PA    H11R12614   0.715  -0.630   3.881
    1PA    H11S12615   0.553  -0.633   3.804
    1PA    C11012616   0.684  -0.474   3.737
    1PA    H10R12617   0.757  -0.403   3.778
    1PA    H10S12618   0.749  -0.530   3.670
    1PA     C1912619   0.579  -0.404   3.650
    1PA     H9R12620   0.509  -0.475   3.607
    1PA     H9S12621   0.523  -0.347   3.724
    1PA     C1812622   0.650  -0.327   3.537
    1PA     H8R12623   0.730  -0.264   3.573
    1PA     H8S12624   0.711  -0.392   3.474
    1PA     C1712625   0.557  -0.242   3.450
    1PA     H7R12626   0.466  -0.289   3.411
    1PA     H7S12627   0.527  -0.158   3.514
    1PA     C1612628   0.638  -0.188   3.332
    1PA     H6R12629   0.727  -0.135   3.364
    1PA     H6S12630   0.666  -0.265   3.260
    1PA     C1512631   0.543  -0.093   3.256
    1PA     H5R12632   0.443  -0.136   3.258
    1PA     H5S12633   0.514   0.000   3.305
    1PA     C1412634   0.598  -0.070   3.114
    1PA     H4R12635   0.698  -0.027   3.118
    1PA     H4S12636   0.612  -0.168   3.067
    1PA     C1312637   0.516   0.013   3.015
    1PA     H3R12638   0.427  -0.036   2.974
    1PA     H3S12639   0.485   0.102   3.070
    1PA     C1212640   0.596   0.072   2.898
    1PA     H2R12641   0.651   0.155   2.942
    1PA     H2S12642   0.670  -0.001   2.865
    2PC     C1112643   0.515   0.124   2.782
    2PC     O1212644   0.528   0.230   2.725
    2PC     O1112645   0.418   0.037   2.749
    2PC      C112646   0.316   0.063   2.651
    2PC      HR12647   0.268   0.161   2.658
    2PC      HS12648   0.364   0.069   2.553
    2PC      C212649   0.216  -0.053   2.636
    2PC      HX12650   0.275  -0.136   2.674
    2PC      C312651   0.172  -0.093   2.494
    2PC      HA12652   0.257  -0.134   2.439
    2PC      HB12653   0.094  -0.169   2.494
    2PC     O3112654   0.117   0.023   2.430
    2PC     P3112655   0.058   0.007   2.282
    2PC     O3212656   0.068   0.158   2.229
    2PC     C3112657   0.201   0.212   2.217
    2PC     H1A12658   0.243   0.232   2.316
    2PC     H1B12659   0.260   0.132   2.171
    2PC     C3212660   0.203   0.334   2.124
    2PC     H2A12661   0.156   0.311   2.029
    2PC     H2B12662   0.157   0.418   2.178
    2PC     N3112663   0.339   0.390   2.097
    2PC     C3312664   0.405   0.430   2.226
    2PC     H3A12665   0.415   0.338   2.284
    2PC     H3B12666   0.505   0.471   2.211
    2PC     H3C12667   0.335   0.500   2.271
    2PC     C3412668   0.429   0.283   2.043
    2PC     H4A12669   0.528   0.327   2.031
    2PC     H4B12670   0.432   0.204   2.118
    2PC     H4C12671   0.396   0.248   1.945
    2PC     C3512672   0.332   0.511   2.010
    2PC     H5A12673   0.432   0.554   2.018
    2PC     H5B12674   0.268   0.578   2.068
    2PC     H5C12675   0.281   0.494   1.914
    2PC     O3312676   0.138  -0.080   2.191
    2PC     O3412677  -0.076  -0.056   2.282
    2PC     O2112678   0.100  -0.028   2.717
    2PC     C2112679   0.022  -0.130   2.758
    2PC     O2212680   0.047  -0.247   2.744
    3OL     C1212681  -0.101  -0.080   2.831
    3OL     H2R12682  -0.082   0.024   2.859
    3OL     H2S12683  -0.127  -0.133   2.923
    3OL     C1312684  -0.222  -0.088   2.737
    3OL     H3R12685  -0.238  -0.196   2.729
    3OL     H3S12686  -0.202  -0.052   2.635
    3OL     C1412687  -0.348  -0.027   2.799
    3OL     H4R12688  -0.326   0.072   2.841
    3OL     H4S12689  -0.395  -0.079   2.883
    3OL     C1512690  -0.447  -0.006   2.684
    3OL     H5R12691  -0.477  -0.107   2.654
    3OL     H5S12692  -0.401   0.037   2.596
    3OL     C1612693  -0.563   0.080   2.736
    3OL     H6R12694  -0.591   0.055   2.839
    3OL     H6S12695  -0.648   0.054   2.673
    3OL     C1712696  -0.544   0.232   2.736
    3OL     H7R12697  -0.510   0.247   2.633
    3OL     H7S12698  -0.454   0.258   2.793
    3OL     C1812699  -0.663   0.318   2.781
    3OL     H8R12700  -0.678   0.289   2.885
    3OL     H8S12701  -0.754   0.298   2.724
    3OL     C1912702  -0.624   0.463   2.778
    3OL     H9R12703  -0.597   0.504   2.681
    3OL    C11012704  -0.611   0.533   2.890
    3OL    H10R12705  -0.583   0.636   2.873
    3OL    C11112706  -0.642   0.489   3.031
    3OL    H11R12707  -0.579   0.411   3.073
    3OL    H11S12708  -0.746   0.455   3.037
    3OL    C11212709  -0.644   0.618   3.114
    3OL    H12R12710  -0.724   0.683   3.076
    3OL    H12S12711  -0.547   0.667   3.110
    3OL    C11312712  -0.673   0.577   3.259
    3OL    H13R12713  -0.599   0.502   3.287
    3OL    H13S12714  -0.765   0.520   3.262
    3OL    C11412715  -0.688   0.699   3.351
    3OL    H14R12716  -0.771   0.762   3.318
    3OL    H14S12717  -0.598   0.760   3.342
    3OL    C11512718  -0.713   0.648   3.493
    3OL    H15R12719  -0.645   0.565   3.517
    3OL    H15S12720  -0.812   0.604   3.502
    3OL    C11612721  -0.714   0.765   3.592
    3OL    H16R12722  -0.779   0.741   3.676
    3OL    H16S12723  -0.745   0.860   3.549
    3OL    C11712724  -0.572   0.783   3.648
    3OL    H17R12725  -0.495   0.796   3.572
    3OL    H17S12726  -0.555   0.703   3.720
    3OL    C11812727  -0.565   0.916   3.725
    3OL    H18R12728  -0.461   0.951   3.727
    3OL    H18S12729  -0.592   0.899   3.829
    3OL    H18T12730  -0.624   0.991   3.673
    1PA    C11612731   6.618   6.588   3.015
    1PA    H16R12732   6.712   6.572   2.962
    1PA    H16S12733   6.617   6.692   3.049
    1PA    H16T12734   6.525   6.564   2.963
    1PA    C11512735   6.625   6.506   3.145
    1PA    H15R12736   6.629   6.399   3.126
    1PA    H15S12737   6.719   6.523   3.197
    1PA    C11412738   6.506   6.536   3.238
    1PA    H14R12739   6.545   6.516   3.338
    1PA    H14S12740   6.479   6.641   3.231
    1PA    C11312741   6.378   6.455   3.212
    1PA    H13R12742   6.304   6.488   3.285
    1PA    H13S12743   6.342   6.484   3.113
    1PA    C11212744   6.381   6.302   3.225
    1PA    H12R12745   6.438   6.252   3.146
    1PA    H12S12746   6.423   6.271   3.321
    1PA    C11112747   6.234   6.258   3.220
    1PA    H11R12748   6.170   6.312   3.290
    1PA    H11S12749   6.192   6.277   3.121
    1PA    C11012750   6.229   6.108   3.253
    1PA    H10R12751   6.292   6.091   3.339
    1PA    H10S12752   6.127   6.078   3.279
    1PA     C1912753   6.271   6.032   3.126
    1PA     H9R12754   6.193   6.049   3.052
    1PA     H9S12755   6.364   6.075   3.087
    1PA     C1812756   6.282   5.883   3.158
    1PA     H8R12757   6.347   5.860   3.243
    1PA     H8S12758   6.186   5.840   3.188
    1PA     C1712759   6.352   5.803   3.047
    1PA     H7R12760   6.441   5.853   3.008
    1PA     H7S12761   6.384   5.707   3.087
    1PA     C1612762   6.265   5.790   2.921
    1PA     H6R12763   6.173   5.737   2.947
    1PA     H6S12764   6.236   5.889   2.886
    1PA     C1512765   6.333   5.710   2.809
    1PA     H5R12766   6.386   5.618   2.836
    1PA     H5S12767   6.250   5.674   2.747
    1PA     C1412768   6.423   5.804   2.728
    1PA     H4R12769   6.368   5.887   2.683
    1PA     H4S12770   6.502   5.851   2.787
    1PA     C1312771   6.496   5.729   2.617
    1PA     H3R12772   6.562   5.652   2.659
    1PA     H3S12773   6.417   5.684   2.556
    1PA     C1212774   6.596   5.821   2.546
    1PA     H2R12775   6.657   5.874   2.619
    1PA     H2S12776   6.658   5.750   2.489
    2PC     C1112777   6.526   5.911   2.447
    2PC     O1212778   6.535   6.032   2.446
    2PC     O1112779   6.459   5.833   2.361
    2PC      C112780   6.373   5.884   2.257
    2PC      HR12781   6.379   5.993   2.254
    2PC      HS12782   6.399   5.835   2.163
    2PC      C212783   6.228   5.846   2.289
    2PC      HX12784   6.230   5.739   2.311
    2PC      C312785   6.132   5.898   2.181
    2PC      HA12786   6.035   5.911   2.230
    2PC      HB12787   6.157   6.002   2.157
    2PC     O3112788   6.139   5.819   2.062
    2PC     P3112789   6.070   5.857   1.922
    2PC     O3212790   6.183   5.807   1.821
    2PC     C3112791   6.300   5.891   1.831
    2PC     H1A12792   6.284   5.999   1.838
    2PC     H1B12793   6.362   5.855   1.914
    2PC     C3212794   6.376   5.854   1.702
    2PC     H2A12795   6.475   5.898   1.710
    2PC     H2B12796   6.382   5.746   1.689
    2PC     N3112797   6.326   5.895   1.567
    2PC     C3312798   6.201   5.818   1.536
    2PC     H3A12799   6.161   5.854   1.442
    2PC     H3B12800   6.221   5.712   1.525
    2PC     H3C12801   6.137   5.848   1.620
    2PC     C3412802   6.312   6.045   1.560
    2PC     H4A12803   6.234   6.060   1.635
    2PC     H4B12804   6.407   6.090   1.589
    2PC     H4C12805   6.271   6.063   1.461
    2PC     C3512806   6.415   5.863   1.451
    2PC     H5A12807   6.511   5.914   1.466
    2PC     H5B12808   6.367   5.880   1.355
    2PC     H5C12809   6.440   5.757   1.448
    2PC     O3312810   5.941   5.785   1.906
    2PC     O3412811   6.043   6.002   1.911
    2PC     O2112812   6.193   5.914   2.411
    2PC     C2112813   6.099   5.865   2.493
    2PC     O2212814   6.049   5.754   2.486
    3OL     C1212815   6.074   5.964   2.605
    3OL     H2R12816   6.087   6.061   2.557
    3OL     H2S12817   6.145   5.944   2.685
    3OL     C1312818   5.931   5.946   2.657
    3OL     H3R12819   5.922   5.842   2.687
    3OL     H3S12820   5.866   5.953   2.569
    3OL     C1412821   5.879   6.046   2.761
    3OL     H4R12822   5.773   6.062   2.738
    3OL     H4S12823   5.935   6.137   2.739
    3OL     C1512824   5.895   6.000   2.907
    3OL     H5R12825   5.858   6.075   2.977
    3OL     H5S12826   6.002   5.989   2.926
    3OL     C1612827   5.819   5.872   2.944
    3OL     H6R12828   5.849   5.789   2.879
    3OL     H6S12829   5.714   5.898   2.933
    3OL     C1712830   5.864   5.827   3.084
    3OL     H7R12831   5.973   5.828   3.090
    3OL     H7S12832   5.827   5.728   3.110
    3OL     C1812833   5.815   5.927   3.190
    3OL     H8R12834   5.712   5.956   3.166
    3OL     H8S12835   5.883   6.012   3.190
    3OL     C1912836   5.821   5.863   3.326
    3OL     H9R12837   5.784   5.761   3.321
    3OL    C11012838   5.864   5.915   3.439
    3OL    H10R12839   5.850   5.856   3.529
    3OL    C11112840   5.898   6.061   3.461
    3OL    H11R12841   5.817   6.112   3.514
    3OL    H11S12842   5.913   6.116   3.368
    3OL    C11212843   6.021   6.076   3.551
    3OL    H12R12844   6.103   6.025   3.501
    3OL    H12S12845   6.015   6.011   3.639
    3OL    C11312846   6.054   6.222   3.584
    3OL    H13R12847   5.980   6.257   3.656
    3OL    H13S12848   6.048   6.269   3.486
    3OL    C11412849   6.200   6.226   3.633
    3OL    H14R12850   6.265   6.161   3.576
    3OL    H14S12851   6.202   6.195   3.738
    3OL    C11512852   6.261   6.366   3.623
    3OL    H15R12853   6.187   6.428   3.675
    3OL    H15S12854   6.254   6.401   3.520
    3OL    C11612855   6.403   6.374   3.681
    3OL    H16R12856   6.417   6.291   3.751
    3OL    H16S12857   6.418   6.460   3.747
    3OL    C11712858   6.513   6.362   3.575
    3OL    H17R12859   6.496   6.432   3.493
    3OL    H17S12860   6.511   6.261   3.536
    3OL    C11812861   6.653   6.388   3.634
    3OL    H18R12862   6.663   6.320   3.718
    3OL    H18S12863   6.670   6.487   3.676
    3OL    H18T12864   6.735   6.368   3.565
    1PA    C11612865   5.436   1.878   3.823
    1PA    H16R12866   5.334   1.898   3.855
    1PA    H16S12867   5.450   1.893   3.716
    1PA    H16T12868   5.497   1.951   3.877
    1PA    C11512869   5.465   1.732   3.862
    1PA    H15R12870   5.425   1.716   3.962
    1PA    H15S12871   5.399   1.668   3.803
    1PA    C11412872   5.613   1.696   3.842
    1PA    H14R12873   5.664   1.772   3.901
    1PA    H14S12874   5.647   1.597   3.874
    1PA    C11312875   5.650   1.700   3.693
    1PA    H13R12876   5.605   1.791   3.652
    1PA    H13S12877   5.759   1.714   3.689
    1PA    C11212878   5.618   1.568   3.622
    1PA    H12R12879   5.671   1.495   3.684
    1PA    H12S12880   5.510   1.557   3.632
    1PA    C11112881   5.665   1.561   3.476
    1PA    H11R12882   5.756   1.622   3.470
    1PA    H11S12883   5.687   1.459   3.446
    1PA    C11012884   5.547   1.606   3.390
    1PA    H10R12885   5.452   1.557   3.414
    1PA    H10S12886   5.524   1.712   3.399
    1PA     C1912887   5.571   1.580   3.240
    1PA     H9R12888   5.573   1.472   3.224
    1PA     H9S12889   5.486   1.608   3.178
    1PA     C1812890   5.692   1.662   3.195
    1PA     H8R12891   5.685   1.763   3.237
    1PA     H8S12892   5.781   1.611   3.233
    1PA     C1712893   5.706   1.675   3.043
    1PA     H7R12894   5.610   1.707   3.002
    1PA     H7S12895   5.786   1.744   3.016
    1PA     C1612896   5.743   1.546   2.967
    1PA     H6R12897   5.844   1.514   2.991
    1PA     H6S12898   5.686   1.459   3.002
    1PA     C1512899   5.722   1.570   2.817
    1PA     H5R12900   5.616   1.590   2.800
    1PA     H5S12901   5.766   1.663   2.781
    1PA     C1412902   5.762   1.443   2.740
    1PA     H4R12903   5.862   1.405   2.759
    1PA     H4S12904   5.695   1.359   2.757
    1PA     C1312905   5.745   1.473   2.590
    1PA     H3R12906   5.719   1.380   2.540
    1PA     H3S12907   5.663   1.541   2.567
    1PA     C1212908   5.879   1.524   2.533
    1PA     H2R12909   5.912   1.617   2.579
    1PA     H2S12910   5.954   1.453   2.569
    2PC     C1112911   5.887   1.521   2.383
    2PC     O1212912   5.997   1.537   2.332
    2PC     O1112913   5.771   1.513   2.316
    2PC      C112914   5.772   1.515   2.172
    2PC      HR12915   5.818   1.607   2.135
    2PC      HS12916   5.826   1.428   2.133
    2PC      C212917   5.630   1.508   2.114
    2PC      HX12918   5.566   1.426   2.148
    2PC      C312919   5.636   1.501   1.960
    2PC      HA12920   5.676   1.403   1.932
    2PC      HB12921   5.536   1.517   1.919
    2PC     O3112922   5.725   1.600   1.906
    2PC     P3112923   5.702   1.658   1.758
    2PC     O3212924   5.547   1.698   1.764
    2PC     C3112925   5.450   1.657   1.666
    2PC     H1A12926   5.492   1.569   1.618
    2PC     H1B12927   5.352   1.638   1.711
    2PC     C3212928   5.446   1.772   1.564
    2PC     H2A12929   5.407   1.862   1.611
    2PC     H2B12930   5.543   1.793   1.518
    2PC     N3112931   5.352   1.761   1.447
    2PC     C3312932   5.222   1.697   1.485
    2PC     H3A12933   5.168   1.762   1.554
    2PC     H3B12934   5.164   1.694   1.393
    2PC     H3C12935   5.242   1.600   1.530
    2PC     C3412936   5.345   1.897   1.385
    2PC     H4A12937   5.310   1.969   1.460
    2PC     H4B12938   5.445   1.924   1.350
    2PC     H4C12939   5.277   1.896   1.300
    2PC     C3512940   5.415   1.673   1.343
    2PC     H5A12941   5.431   1.575   1.390
    2PC     H5B12942   5.513   1.716   1.322
    2PC     H5C12943   5.364   1.665   1.247
    2PC     O3312944   5.791   1.776   1.742
    2PC     O3412945   5.728   1.569   1.643
    2PC     O2112946   5.574   1.634   2.153
    2PC     C2112947   5.453   1.675   2.110
    2PC     O2212948   5.373   1.616   2.041
    3OL     C1212949   5.423   1.810   2.169
    3OL     H2R12950   5.342   1.865   2.121
    3OL     H2S12951   5.515   1.866   2.149
    3OL     C1312952   5.403   1.804   2.321
    3OL     H3R12953   5.485   1.754   2.373
    3OL     H3S12954   5.307   1.754   2.337
    3OL     C1412955   5.391   1.951   2.364
    3OL     H4R12956   5.314   2.005   2.308
    3OL     H4S12957   5.484   2.008   2.357
    3OL     C1512958   5.333   1.951   2.506
    3OL     H5R12959   5.397   1.910   2.585
    3OL     H5S12960   5.248   1.883   2.497
    3OL     C1612961   5.304   2.097   2.542
    3OL     H6R12962   5.232   2.145   2.476
    3OL     H6S12963   5.394   2.158   2.534
    3OL     C1712964   5.261   2.100   2.689
    3OL     H7R12965   5.243   2.204   2.717
    3OL     H7S12966   5.347   2.079   2.753
    3OL     C1812967   5.135   2.016   2.717
    3OL     H8R12968   5.159   1.912   2.697
    3OL     H8S12969   5.043   2.038   2.663
    3OL     C1912970   5.119   2.037   2.865
    3OL     H9R12971   5.209   2.025   2.924
    3OL    C11012972   5.004   2.058   2.928
    3OL    H10R12973   4.993   2.052   3.036
    3OL    C11112974   4.871   2.071   2.860
    3OL    H11R12975   4.874   2.101   2.755
    3OL    H11S12976   4.822   2.149   2.920
    3OL    C11212977   4.786   1.943   2.860
    3OL    H12R12978   4.846   1.879   2.796
    3OL    H12S12979   4.690   1.960   2.810
    3OL    C11312980   4.776   1.869   2.993
    3OL    H13R12981   4.870   1.830   3.032
    3OL    H13S12982   4.722   1.775   2.976
    3OL    C11412983   4.693   1.951   3.093
    3OL    H14R12984   4.595   1.973   3.052
    3OL    H14S12985   4.736   2.051   3.090
    3OL    C11512986   4.688   1.880   3.230
    3OL    H15R12987   4.783   1.843   3.268
    3OL    H15S12988   4.626   1.791   3.218
    3OL    C11612989   4.622   1.964   3.341
    3OL    H16R12990   4.522   1.997   3.313
    3OL    H16S12991   4.678   2.057   3.348
    3OL    C11712992   4.632   1.892   3.476
    3OL    H17R12993   4.737   1.874   3.500
    3OL    H17S12994   4.581   1.796   3.469
    3OL    C11812995   4.569   1.978   3.586
    3OL    H18R12996   4.594   2.084   3.573
    3OL    H18S12997   4.599   1.942   3.684
    3OL    H18T12998   4.461   1.972   3.594
    1PA    C11612999   5.546   4.986   3.558
    1PA    H16R13000   5.611   5.059   3.508
    1PA    H16S13001   5.556   5.017   3.662
    1PA    H16T13002   5.441   4.982   3.529
    1PA    C11513003   5.582   4.837   3.563
    1PA    H15R13004   5.651   4.826   3.648
    1PA    H15S13005   5.497   4.771   3.580
    1PA    C11413006   5.659   4.787   3.440
    1PA    H14R13007   5.600   4.799   3.350
    1PA    H14S13008   5.750   4.845   3.424
    1PA    C11313009   5.687   4.636   3.453
    1PA    H13R13010   5.783   4.613   3.407
    1PA    H13S13011   5.690   4.596   3.555
    1PA    C11213012   5.577   4.567   3.372
    1PA    H12R13013   5.478   4.595   3.409
    1PA    H12S13014   5.572   4.589   3.265
    1PA    C11113015   5.568   4.416   3.397
    1PA    H11R13016   5.662   4.362   3.388
    1PA    H11S13017   5.539   4.412   3.502
    1PA    C11013018   5.472   4.349   3.298
    1PA    H10R13019   5.458   4.246   3.330
    1PA    H10S13020   5.379   4.406   3.303
    1PA     C1913021   5.521   4.348   3.153
    1PA     H9R13022   5.516   4.443   3.098
    1PA     H9S13023   5.618   4.299   3.151
    1PA     C1813024   5.422   4.263   3.072
    1PA     H8R13025   5.422   4.159   3.104
    1PA     H8S13026   5.322   4.306   3.086
    1PA     C1713027   5.447   4.258   2.920
    1PA     H7R13028   5.357   4.220   2.870
    1PA     H7S13029   5.457   4.359   2.880
    1PA     C1613030   5.573   4.180   2.882
    1PA     H6R13031   5.660   4.233   2.922
    1PA     H6S13032   5.564   4.082   2.930
    1PA     C1513033   5.582   4.159   2.730
    1PA     H5R13034   5.502   4.095   2.694
    1PA     H5S13035   5.586   4.258   2.684
    1PA     C1413036   5.719   4.092   2.710
    1PA     H4R13037   5.795   4.157   2.753
    1PA     H4S13038   5.727   3.995   2.758
    1PA     C1313039   5.765   4.084   2.564
    1PA     H3R13040   5.766   4.184   2.519
    1PA     H3S13041   5.870   4.053   2.558
    1PA     C1213042   5.679   3.992   2.477
    1PA     H2R13043   5.669   3.890   2.516
    1PA     H2S13044   5.577   4.030   2.479
    2PC     C1113045   5.732   3.983   2.336
    2PC     O1213046   5.712   3.889   2.262
    2PC     O1113047   5.791   4.097   2.297
    2PC      C113048   5.827   4.126   2.161
    2PC      HR13049   5.884   4.217   2.143
    2PC      HS13050   5.875   4.042   2.110
    2PC      C213051   5.694   4.153   2.089
    2PC      HX13052   5.626   4.069   2.104
    2PC      C313053   5.706   4.176   1.938
    2PC      HA13054   5.780   4.255   1.923
    2PC      HB13055   5.735   4.083   1.890
    2PC     O3113056   5.576   4.206   1.883
    2PC     P3113057   5.561   4.240   1.727
    2PC     O3213058   5.463   4.119   1.690
    2PC     C3113059   5.389   4.132   1.568
    2PC     H1A13060   5.314   4.212   1.568
    2PC     H1B13061   5.450   4.148   1.478
    2PC     C3213062   5.313   4.001   1.547
    2PC     H2A13063   5.275   3.953   1.638
    2PC     H2B13064   5.217   4.012   1.496
    2PC     N3113065   5.387   3.891   1.476
    2PC     C3313066   5.288   3.780   1.456
    2PC     H3A13067   5.244   3.739   1.547
    2PC     H3B13068   5.213   3.826   1.391
    2PC     H3C13069   5.329   3.693   1.405
    2PC     C3413070   5.428   3.924   1.336
    2PC     H4A13071   5.335   3.927   1.277
    2PC     H4B13072   5.486   4.014   1.318
    2PC     H4C13073   5.477   3.835   1.296
    2PC     C3513074   5.498   3.833   1.558
    2PC     H5A13075   5.461   3.812   1.659
    2PC     H5B13076   5.579   3.906   1.552
    2PC     H5C13077   5.525   3.736   1.516
    2PC     O3313078   5.498   4.372   1.701
    2PC     O3413079   5.693   4.250   1.661
    2PC     O2113080   5.641   4.276   2.144
    2PC     C2113081   5.544   4.281   2.237
    2PC     O2213082   5.478   4.185   2.272
    3OL     C1213083   5.532   4.422   2.286
    3OL     H2R13084   5.503   4.490   2.206
    3OL     H2S13085   5.629   4.446   2.330
    3OL     C1313086   5.430   4.435   2.400
    3OL     H3R13087   5.468   4.377   2.484
    3OL     H3S13088   5.333   4.403   2.360
    3OL     C1413089   5.414   4.585   2.429
    3OL     H4R13090   5.391   4.629   2.332
    3OL     H4S13091   5.508   4.623   2.471
    3OL     C1513092   5.297   4.623   2.520
    3OL     H5R13093   5.206   4.599   2.463
    3OL     H5S13094   5.294   4.732   2.527
    3OL     C1613095   5.308   4.565   2.662
    3OL     H6R13096   5.404   4.594   2.706
    3OL     H6S13097   5.294   4.457   2.658
    3OL     C1713098   5.192   4.619   2.748
    3OL     H7R13099   5.099   4.583   2.705
    3OL     H7S13100   5.205   4.728   2.749
    3OL     C1813101   5.204   4.559   2.889
    3OL     H8R13102   5.284   4.606   2.946
    3OL     H8S13103   5.232   4.456   2.867
    3OL     C1913104   5.071   4.561   2.961
    3OL     H9R13105   4.998   4.493   2.919
    3OL    C11013106   5.043   4.622   3.076
    3OL    H10R13107   4.946   4.618   3.124
    3OL    C11113108   5.143   4.708   3.149
    3OL    H11R13109   5.084   4.781   3.205
    3OL    H11S13110   5.205   4.763   3.079
    3OL    C11213111   5.230   4.620   3.240
    3OL    H12R13112   5.304   4.686   3.285
    3OL    H12S13113   5.289   4.548   3.182
    3OL    C11313114   5.152   4.551   3.352
    3OL    H13R13115   5.075   4.620   3.387
    3OL    H13S13116   5.218   4.546   3.438
    3OL    C11413117   5.088   4.413   3.329
    3OL    H14R13118   5.157   4.348   3.275
    3OL    H14S13119   4.997   4.421   3.269
    3OL    C11513120   5.058   4.348   3.464
    3OL    H15R13121   5.009   4.423   3.528
    3OL    H15S13122   5.154   4.321   3.508
    3OL    C11613123   4.982   4.216   3.446
    3OL    H16R13124   5.029   4.141   3.382
    3OL    H16S13125   4.884   4.240   3.403
    3OL    C11713126   4.956   4.148   3.581
    3OL    H17R13127   4.890   4.215   3.636
    3OL    H17S13128   5.047   4.130   3.638
    3OL    C11813129   4.891   4.010   3.567
    3OL    H18R13130   4.937   3.937   3.501
    3OL    H18S13131   4.793   4.013   3.518
    3OL    H18T13132   4.872   3.979   3.670
    1PA    C11613133   6.437   3.776   2.773
    1PA    H16R13134   6.415   3.705   2.692
    1PA    H16S13135   6.517   3.731   2.833
    1PA    H16T13136   6.459   3.872   2.727
    1PA    C11513137   6.307   3.794   2.853
    1PA    H15R13138   6.221   3.809   2.788
    1PA    H15S13139   6.297   3.706   2.916
    1PA    C11413140   6.321   3.902   2.961
    1PA    H14R13141   6.412   3.891   3.020
    1PA    H14S13142   6.338   3.997   2.910
    1PA    C11313143   6.199   3.911   3.054
    1PA    H13R13144   6.148   3.814   3.055
    1PA    H13S13145   6.230   3.938   3.155
    1PA    C11213146   6.094   4.009   3.000
    1PA    H12R13147   6.095   4.015   2.891
    1PA    H12S13148   5.993   3.986   3.036
    1PA    C11113149   6.122   4.151   3.051
    1PA    H11R13150   6.119   4.151   3.160
    1PA    H11S13151   6.224   4.181   3.024
    1PA    C11013152   6.018   4.243   2.985
    1PA    H10R13153   6.014   4.220   2.878
    1PA    H10S13154   5.924   4.220   3.037
    1PA     C1913155   6.055   4.391   3.001
    1PA     H9R13156   6.092   4.410   3.102
    1PA     H9S13157   6.144   4.413   2.942
    1PA     C1813158   5.933   4.483   2.983
    1PA     H8R13159   5.845   4.419   2.972
    1PA     H8S13160   5.918   4.534   3.079
    1PA     C1713161   5.940   4.566   2.855
    1PA     H7R13162   5.880   4.657   2.861
    1PA     H7S13163   6.039   4.612   2.844
    1PA     C1613164   5.889   4.491   2.731
    1PA     H6R13165   5.949   4.401   2.716
    1PA     H6S13166   5.787   4.452   2.734
    1PA     C1513167   5.899   4.572   2.601
    1PA     H5R13168   5.873   4.503   2.520
    1PA     H5S13169   5.819   4.646   2.593
    1PA     C1413170   6.037   4.636   2.582
    1PA     H4R13171   6.114   4.583   2.638
    1PA     H4S13172   6.059   4.616   2.477
    1PA     C1313173   6.045   4.788   2.607
    1PA     H3R13174   5.980   4.844   2.540
    1PA     H3S13175   6.017   4.811   2.711
    1PA     C1213176   6.187   4.842   2.588
    1PA     H2R13177   6.190   4.944   2.627
    1PA     H2S13178   6.260   4.781   2.642
    2PC     C1113179   6.229   4.844   2.443
    2PC     O1213180   6.263   4.741   2.389
    2PC     O1113181   6.248   4.968   2.397
    2PC      C113182   6.284   4.985   2.259
    2PC      HR13183   6.312   5.089   2.237
    2PC      HS13184   6.366   4.917   2.233
    2PC      C213185   6.163   4.969   2.166
    2PC      HX13186   6.111   4.879   2.198
    2PC      C313187   6.208   4.956   2.020
    2PC      HA13188   6.282   5.035   2.005
    2PC      HB13189   6.249   4.857   1.998
    2PC     O3113190   6.095   4.974   1.933
    2PC     P3113191   6.122   4.953   1.776
    2PC     O3213192   6.000   5.023   1.700
    2PC     C3113193   5.874   4.956   1.682
    2PC     H1A13194   5.875   4.863   1.626
    2PC     H1B13195   5.824   4.934   1.777
    2PC     C3213196   5.789   5.054   1.600
    2PC     H2A13197   5.689   5.011   1.597
    2PC     H2B13198   5.782   5.156   1.639
    2PC     N3113199   5.819   5.073   1.454
    2PC     C3313200   5.836   4.941   1.385
    2PC     H3A13201   5.741   4.888   1.393
    2PC     H3B13202   5.865   4.951   1.280
    2PC     H3C13203   5.917   4.885   1.431
    2PC     C3413204   5.704   5.143   1.389
    2PC     H4A13205   5.722   5.165   1.283
    2PC     H4B13206   5.628   5.065   1.387
    2PC     H4C13207   5.672   5.238   1.433
    2PC     C3513208   5.946   5.152   1.443
    2PC     H5A13209   6.027   5.090   1.482
    2PC     H5B13210   5.943   5.242   1.505
    2PC     H5C13211   5.973   5.186   1.344
    2PC     O3313212   6.244   5.007   1.712
    2PC     O3413213   6.107   4.813   1.730
    2PC     O2113214   6.091   5.093   2.183
    2PC     C2113215   5.990   5.099   2.272
    2PC     O2213216   5.939   5.001   2.320
    3OL     C1213217   5.943   5.238   2.305
    3OL     H2R13218   5.834   5.234   2.308
    3OL     H2S13219   5.963   5.309   2.224
    3OL     C1313220   6.003   5.299   2.432
    3OL     H3R13221   6.092   5.355   2.402
    3OL     H3S13222   6.032   5.223   2.505
    3OL     C1413223   5.896   5.390   2.495
    3OL     H4R13224   5.811   5.332   2.531
    3OL     H4S13225   5.861   5.464   2.423
    3OL     C1513226   5.956   5.457   2.620
    3OL     H5R13227   6.037   5.523   2.587
    3OL     H5S13228   6.003   5.386   2.688
    3OL     C1613229   5.849   5.535   2.698
    3OL     H6R13230   5.771   5.564   2.627
    3OL     H6S13231   5.881   5.627   2.746
    3OL     C1713232   5.782   5.443   2.801
    3OL     H7R13233   5.846   5.372   2.853
    3OL     H7S13234   5.705   5.379   2.757
    3OL     C1813235   5.694   5.518   2.903
    3OL     H8R13236   5.629   5.591   2.854
    3OL     H8S13237   5.768   5.574   2.960
    3OL     C1913238   5.612   5.412   2.972
    3OL     H9R13239   5.551   5.361   2.897
    3OL    C11013240   5.625   5.367   3.095
    3OL    H10R13241   5.565   5.284   3.131
    3OL    C11113242   5.716   5.419   3.204
    3OL    H11R13243   5.649   5.458   3.281
    3OL    H11S13244   5.779   5.502   3.174
    3OL    C11213245   5.805   5.312   3.269
    3OL    H12R13246   5.758   5.218   3.296
    3OL    H12S13247   5.845   5.346   3.365
    3OL    C11313248   5.915   5.283   3.166
    3OL    H13R13249   5.965   5.377   3.141
    3OL    H13S13250   5.877   5.247   3.070
    3OL    C11413251   6.016   5.188   3.230
    3OL    H14R13252   6.031   5.218   3.334
    3OL    H14S13253   6.108   5.204   3.173
    3OL    C11513254   5.972   5.041   3.226
    3OL    H15R13255   5.951   5.013   3.122
    3OL    H15S13256   5.874   5.015   3.265
    3OL    C11613257   6.079   4.944   3.279
    3OL    H16R13258   6.087   4.946   3.388
    3OL    H16S13259   6.179   4.973   3.247
    3OL    C11713260   6.066   4.797   3.236
    3OL    H17R13261   6.060   4.787   3.128
    3OL    H17S13262   5.968   4.759   3.265
    3OL    C11813263   6.181   4.714   3.294
    3OL    H18R13264   6.183   4.735   3.402
    3OL    H18S13265   6.279   4.740   3.253
    3OL    H18T13266   6.167   4.607   3.276
    1PA    C11613267   5.441   1.222   3.471
    1PA    H16R13268   5.544   1.217   3.506
    1PA    H16S13269   5.413   1.327   3.460
    1PA    H16T13270   5.425   1.183   3.370
    1PA    C11513271   5.351   1.146   3.570
    1PA    H15R13272   5.389   1.044   3.581
    1PA    H15S13273   5.347   1.194   3.668
    1PA    C11413274   5.213   1.129   3.505
    1PA    H14R13275   5.217   1.043   3.437
    1PA    H14S13276   5.140   1.108   3.583
    1PA    C11313277   5.174   1.249   3.418
    1PA    H13R13278   5.179   1.341   3.476
    1PA    H13S13279   5.229   1.254   3.324
    1PA    C11213280   5.031   1.234   3.363
    1PA    H12R13281   4.958   1.223   3.444
    1PA    H12S13282   5.006   1.318   3.299
    1PA    C11113283   5.016   1.116   3.267
    1PA    H11R13284   5.083   1.123   3.180
    1PA    H11S13285   5.053   1.021   3.307
    1PA    C11013286   4.867   1.112   3.231
    1PA    H10R13287   4.814   1.069   3.317
    1PA    H10S13288   4.828   1.209   3.198
    1PA     C1913289   4.853   1.023   3.107
    1PA     H9R13290   4.897   1.065   3.017
    1PA     H9S13291   4.915   0.933   3.109
    1PA     C1813292   4.704   1.002   3.080
    1PA     H8R13293   4.678   0.937   3.164
    1PA     H8S13294   4.636   1.088   3.078
    1PA     C1713295   4.693   0.911   2.957
    1PA     H7R13296   4.711   0.962   2.862
    1PA     H7S13297   4.764   0.829   2.972
    1PA     C1613298   4.551   0.853   2.950
    1PA     H6R13299   4.548   0.791   3.041
    1PA     H6S13300   4.485   0.940   2.958
    1PA     C1513301   4.526   0.777   2.819
    1PA     H5R13302   4.582   0.833   2.744
    1PA     H5S13303   4.558   0.674   2.834
    1PA     C1413304   4.379   0.795   2.778
    1PA     H4R13305   4.318   0.759   2.861
    1PA     H4S13306   4.359   0.901   2.761
    1PA     C1313307   4.359   0.716   2.648
    1PA     H3R13308   4.438   0.735   2.575
    1PA     H3S13309   4.352   0.612   2.682
    1PA     C1213310   4.224   0.749   2.584
    1PA     H2R13311   4.153   0.707   2.655
    1PA     H2S13312   4.206   0.856   2.576
    2PC     C1113313   4.204   0.686   2.448
    2PC     O1213314   4.131   0.741   2.368
    2PC     O1113315   4.258   0.563   2.439
    2PC      C113316   4.242   0.482   2.322
    2PC      HR13317   4.223   0.380   2.355
    2PC      HS13318   4.148   0.516   2.277
    2PC      C213319   4.359   0.513   2.227
    2PC      HX13320   4.353   0.618   2.196
    2PC      C313321   4.363   0.416   2.108
    2PC      HA13322   4.436   0.337   2.130
    2PC      HB13323   4.263   0.372   2.097
    2PC     O3113324   4.403   0.486   1.989
    2PC     P3113325   4.405   0.415   1.846
    2PC     O3213326   4.562   0.434   1.820
    2PC     C3113327   4.654   0.335   1.870
    2PC     H1A13328   4.651   0.330   1.979
    2PC     H1B13329   4.634   0.239   1.823
    2PC     C3213330   4.796   0.364   1.818
    2PC     H2A13331   4.861   0.280   1.842
    2PC     H2B13332   4.798   0.360   1.709
    2PC     N3113333   4.863   0.487   1.870
    2PC     C3313334   4.876   0.497   2.019
    2PC     H3A13335   4.953   0.434   2.065
    2PC     H3B13336   4.886   0.603   2.039
    2PC     H3C13337   4.778   0.461   2.051
    2PC     C3413338   4.994   0.492   1.797
    2PC     H4A13339   5.043   0.397   1.819
    2PC     H4B13340   4.980   0.501   1.690
    2PC     H4C13341   5.050   0.579   1.835
    2PC     C3513342   4.782   0.603   1.820
    2PC     H5A13343   4.842   0.694   1.834
    2PC     H5B13344   4.691   0.612   1.879
    2PC     H5C13345   4.756   0.586   1.716
    2PC     O3313346   4.367   0.272   1.836
    2PC     O3413347   4.328   0.487   1.743
    2PC     O2113348   4.487   0.495   2.289
    2PC     C2113349   4.592   0.572   2.256
    2PC     O2213350   4.590   0.655   2.167
    3OL     C1213351   4.708   0.552   2.350
    3OL     H2R13352   4.806   0.574   2.306
    3OL     H2S13353   4.709   0.444   2.362
    3OL     C1313354   4.685   0.632   2.480
    3OL     H3R13355   4.587   0.605   2.520
    3OL     H3S13356   4.676   0.739   2.464
    3OL     C1413357   4.785   0.595   2.591
    3OL     H4R13358   4.788   0.486   2.590
    3OL     H4S13359   4.749   0.625   2.690
    3OL     C1513360   4.928   0.641   2.563
    3OL     H5R13361   4.961   0.620   2.461
    3OL     H5S13362   4.992   0.577   2.625
    3OL     C1613363   4.944   0.787   2.607
    3OL     H6R13364   4.915   0.801   2.712
    3OL     H6S13365   4.881   0.839   2.534
    3OL     C1713366   5.088   0.839   2.598
    3OL     H7R13367   5.122   0.824   2.495
    3OL     H7S13368   5.149   0.783   2.669
    3OL     C1813369   5.089   0.988   2.635
    3OL     H8R13370   5.021   1.039   2.566
    3OL     H8S13371   5.191   1.025   2.616
    3OL     C1913372   5.069   1.013   2.782
    3OL     H9R13373   5.001   0.946   2.834
    3OL    C11013374   5.135   1.101   2.856
    3OL    H10R13375   5.105   1.114   2.959
    3OL    C11113376   5.229   1.211   2.812
    3OL    H11R13377   5.215   1.298   2.876
    3OL    H11S13378   5.205   1.246   2.711
    3OL    C11213379   5.374   1.167   2.833
    3OL    H12R13380   5.444   1.219   2.767
    3OL    H12S13381   5.380   1.061   2.807
    3OL    C11313382   5.416   1.175   2.981
    3OL    H13R13383   5.354   1.108   3.041
    3OL    H13S13384   5.389   1.273   3.022
    3OL    C11413385   5.561   1.134   3.008
    3OL    H14R13386   5.608   1.213   2.949
    3OL    H14S13387   5.593   1.036   2.974
    3OL    C11513388   5.597   1.149   3.156
    3OL    H15R13389   5.519   1.099   3.214
    3OL    H15S13390   5.593   1.255   3.182
    3OL    C11613391   5.741   1.104   3.181
    3OL    H16R13392   5.816   1.150   3.117
    3OL    H16S13393   5.743   0.999   3.150
    3OL    C11713394   5.782   1.111   3.329
    3OL    H17R13395   5.736   1.032   3.389
    3OL    H17S13396   5.754   1.205   3.376
    3OL    C11813397   5.933   1.091   3.345
    3OL    H18R13398   5.964   0.989   3.323
    3OL    H18S13399   5.965   1.114   3.447
    3OL    H18T13400   5.973   1.169   3.280
    1PA    C11613401   1.164   4.647   3.839
    1PA    H16R13402   1.271   4.667   3.828
    1PA    H16S13403   1.116   4.669   3.744
    1PA    H16T13404   1.149   4.540   3.855
    1PA    C11513405   1.099   4.741   3.942
    1PA    H15R13406   0.992   4.720   3.940
    1PA    H15S13407   1.135   4.711   4.041
    1PA    C11413408   1.129   4.886   3.899
    1PA    H14R13409   1.120   4.901   3.792
    1PA    H14S13410   1.054   4.949   3.948
    1PA    C11313411   1.261   4.940   3.955
    1PA    H13R13412   1.257   4.923   4.063
    1PA    H13S13413   1.345   4.877   3.928
    1PA    C11213414   1.272   5.093   3.941
    1PA    H12R13415   1.202   5.152   4.000
    1PA    H12S13416   1.369   5.121   3.981
    1PA    C11113417   1.272   5.141   3.795
    1PA    H11R13418   1.358   5.115   3.733
    1PA    H11S13419   1.182   5.107   3.743
    1PA    C11013420   1.265   5.294   3.807
    1PA    H10R13421   1.182   5.337   3.862
    1PA    H10S13422   1.353   5.338   3.855
    1PA     C1913423   1.270   5.349   3.664
    1PA     H9R13424   1.300   5.454   3.672
    1PA     H9S13425   1.350   5.299   3.609
    1PA     C1813426   1.144   5.330   3.579
    1PA     H8R13427   1.123   5.223   3.568
    1PA     H8S13428   1.053   5.377   3.618
    1PA     C1713429   1.168   5.388   3.439
    1PA     H7R13430   1.193   5.492   3.464
    1PA     H7S13431   1.242   5.333   3.381
    1PA     C1613432   1.036   5.380   3.362
    1PA     H6R13433   1.006   5.277   3.345
    1PA     H6S13434   0.952   5.429   3.413
    1PA     C1513435   1.062   5.445   3.225
    1PA     H5R13436   1.080   5.552   3.237
    1PA     H5S13437   1.154   5.406   3.181
    1PA     C1413438   0.946   5.407   3.131
    1PA     H4R13439   0.961   5.298   3.132
    1PA     H4S13440   0.850   5.434   3.175
    1PA     C1313441   0.964   5.472   2.993
    1PA     H3R13442   0.969   5.581   2.998
    1PA     H3S13443   1.060   5.440   2.952
    1PA     C1213444   0.867   5.422   2.885
    1PA     H2R13445   0.877   5.314   2.887
    1PA     H2S13446   0.761   5.445   2.902
    2PC     C1113447   0.912   5.467   2.749
    2PC     O1213448   0.876   5.572   2.699
    2PC     O1113449   0.992   5.380   2.686
    2PC      C113450   1.026   5.410   2.550
    2PC      HR13451   1.049   5.312   2.507
    2PC      HS13452   0.937   5.448   2.500
    2PC      C213453   1.148   5.503   2.537
    2PC      HX13454   1.125   5.589   2.600
    2PC      C313455   1.162   5.543   2.390
    2PC      HA13456   1.067   5.585   2.354
    2PC      HB13457   1.243   5.613   2.370
    2PC     O3113458   1.157   5.417   2.320
    2PC     P3113459   1.186   5.418   2.163
    2PC     O3213460   1.341   5.376   2.160
    2PC     C3113461   1.441   5.463   2.104
    2PC     H1A13462   1.398   5.521   2.023
    2PC     H1B13463   1.480   5.538   2.173
    2PC     C3213464   1.560   5.377   2.058
    2PC     H2A13465   1.622   5.433   1.987
    2PC     H2B13466   1.619   5.356   2.147
    2PC     N3113467   1.534   5.244   1.994
    2PC     C3313468   1.484   5.143   2.093
    2PC     H3A13469   1.385   5.175   2.126
    2PC     H3B13470   1.494   5.042   2.053
    2PC     H3C13471   1.566   5.145   2.165
    2PC     C3413472   1.430   5.246   1.887
    2PC     H4A13473   1.439   5.335   1.825
    2PC     H4B13474   1.461   5.156   1.832
    2PC     H4C13475   1.332   5.240   1.935
    2PC     C3513476   1.663   5.182   1.950
    2PC     H5A13477   1.632   5.104   1.880
    2PC     H5B13478   1.709   5.132   2.035
    2PC     H5C13479   1.718   5.253   1.888
    2PC     O3313480   1.100   5.330   2.081
    2PC     O3413481   1.166   5.556   2.116
    2PC     O2113482   1.266   5.441   2.591
    2PC     C2113483   1.378   5.515   2.595
    2PC     O2213484   1.384   5.635   2.577
    3OL     C1213485   1.496   5.428   2.629
    3OL     H2R13486   1.573   5.488   2.679
    3OL     H2S13487   1.531   5.395   2.531
    3OL     C1313488   1.456   5.313   2.722
    3OL     H3R13489   1.537   5.244   2.748
    3OL     H3S13490   1.377   5.255   2.673
    3OL     C1413491   1.400   5.362   2.856
    3OL     H4R13492   1.315   5.426   2.832
    3OL     H4S13493   1.471   5.417   2.918
    3OL     C1513494   1.351   5.251   2.950
    3OL     H5R13495   1.346   5.290   3.052
    3OL     H5S13496   1.422   5.169   2.964
    3OL     C1613497   1.221   5.195   2.890
    3OL     H6R13498   1.253   5.148   2.797
    3OL     H6S13499   1.141   5.263   2.862
    3OL     C1713500   1.172   5.072   2.968
    3OL     H7R13501   1.129   5.101   3.064
    3OL     H7S13502   1.254   5.006   2.994
    3OL     C1813503   1.058   5.000   2.894
    3OL     H8R13504   1.093   4.958   2.799
    3OL     H8S13505   0.975   5.066   2.870
    3OL     C1913506   1.011   4.883   2.977
    3OL     H9R13507   0.928   4.913   3.041
    3OL    C11013508   1.058   4.760   2.971
    3OL    H10R13509   1.015   4.676   3.024
    3OL    C11113510   1.181   4.710   2.898
    3OL    H11R13511   1.204   4.769   2.809
    3OL    H11S13512   1.155   4.615   2.850
    3OL    C11213513   1.301   4.686   2.989
    3OL    H12R13514   1.336   4.785   3.018
    3OL    H12S13515   1.381   4.644   2.927
    3OL    C11313516   1.281   4.591   3.109
    3OL    H13R13517   1.245   4.495   3.072
    3OL    H13S13518   1.203   4.630   3.174
    3OL    C11413519   1.410   4.570   3.188
    3OL    H14R13520   1.442   4.665   3.231
    3OL    H14S13521   1.486   4.521   3.127
    3OL    C11513522   1.385   4.478   3.309
    3OL    H15R13523   1.308   4.517   3.376
    3OL    H15S13524   1.473   4.469   3.372
    3OL    C11613525   1.360   4.330   3.277
    3OL    H16R13526   1.442   4.299   3.212
    3OL    H16S13527   1.263   4.313   3.231
    3OL    C11713528   1.357   4.240   3.402
    3OL    H17R13529   1.281   4.281   3.469
    3OL    H17S13530   1.455   4.242   3.448
    3OL    C11813531   1.335   4.093   3.363
    3OL    H18R13532   1.410   4.075   3.286
    3OL    H18S13533   1.231   4.088   3.330
    3OL    H18T13534   1.347   4.025   3.447
    1PA    C11613535   2.440   1.821   3.918
    1PA    H16R13536   2.478   1.916   3.880
    1PA    H16S13537   2.346   1.823   3.973
    1PA    H16T13538   2.416   1.774   3.823
    1PA    C11513539   2.546   1.749   4.003
    1PA    H15R13540   2.563   1.805   4.095
    1PA    H15S13541   2.505   1.652   4.034
    1PA    C11413542   2.677   1.735   3.924
    1PA    H14R13543   2.720   1.637   3.942
    1PA    H14S13544   2.658   1.741   3.817
    1PA    C11313545   2.777   1.843   3.966
    1PA    H13R13546   2.734   1.941   3.943
    1PA    H13S13547   2.793   1.847   4.075
    1PA    C11213548   2.910   1.838   3.890
    1PA    H12R13549   2.969   1.926   3.915
    1PA    H12S13550   2.967   1.749   3.917
    1PA    C11113551   2.891   1.838   3.737
    1PA    H11R13552   2.870   1.738   3.699
    1PA    H11S13553   2.817   1.910   3.701
    1PA    C11013554   3.025   1.873   3.671
    1PA    H10R13555   3.066   1.959   3.726
    1PA    H10S13556   3.090   1.787   3.687
    1PA     C1913557   3.002   1.895   3.521
    1PA     H9R13558   2.922   1.967   3.503
    1PA     H9S13559   3.090   1.946   3.481
    1PA     C1813560   2.986   1.767   3.439
    1PA     H8R13561   3.069   1.697   3.456
    1PA     H8S13562   2.894   1.716   3.469
    1PA     C1713563   2.978   1.800   3.290
    1PA     H7R13564   2.936   1.708   3.250
    1PA     H7S13565   2.909   1.885   3.281
    1PA     C1613566   3.111   1.846   3.230
    1PA     H6R13567   3.158   1.927   3.288
    1PA     H6S13568   3.176   1.758   3.237
    1PA     C1513569   3.099   1.869   3.079
    1PA     H5R13570   3.039   1.786   3.040
    1PA     H5S13571   3.046   1.963   3.063
    1PA     C1413572   3.241   1.889   3.024
    1PA     H4R13573   3.288   1.958   3.095
    1PA     H4S13574   3.296   1.795   3.023
    1PA     C1313575   3.221   1.949   2.884
    1PA     H3R13576   3.188   1.876   2.810
    1PA     H3S13577   3.152   2.033   2.890
    1PA     C1213578   3.355   1.999   2.828
    1PA     H2R13579   3.406   2.062   2.902
    1PA     H2S13580   3.423   1.915   2.818
    2PC     C1113581   3.350   2.089   2.707
    2PC     O1213582   3.247   2.135   2.664
    2PC     O1113583   3.465   2.107   2.640
    2PC      C113584   3.478   2.207   2.536
    2PC      HR13585   3.577   2.191   2.493
    2PC      HS13586   3.398   2.183   2.465
    2PC      C213587   3.461   2.352   2.583
    2PC      HX13588   3.354   2.364   2.600
    2PC      C313589   3.484   2.444   2.462
    2PC      HA13590   3.421   2.414   2.378
    2PC      HB13591   3.462   2.546   2.492
    2PC     O3113592   3.621   2.420   2.424
    2PC     P3113593   3.669   2.446   2.274
    2PC     O3213594   3.796   2.348   2.267
    2PC     C3113595   3.793   2.220   2.202
    2PC     H1A13596   3.861   2.147   2.246
    2PC     H1B13597   3.693   2.177   2.207
    2PC     C3213598   3.824   2.231   2.052
    2PC     H2A13599   3.804   2.131   2.016
    2PC     H2B13600   3.757   2.306   2.010
    2PC     N3113601   3.962   2.266   2.006
    2PC     C3313602   3.962   2.228   1.861
    2PC     H3A13603   4.048   2.270   1.808
    2PC     H3B13604   3.946   2.122   1.841
    2PC     H3C13605   3.876   2.284   1.823
    2PC     C3413606   3.988   2.413   2.020
    2PC     H4A13607   4.094   2.433   2.037
    2PC     H4B13608   3.952   2.466   1.932
    2PC     H4C13609   3.927   2.456   2.100
    2PC     C3513610   4.070   2.185   2.070
    2PC     H5A13611   4.156   2.205   2.006
    2PC     H5B13612   4.034   2.083   2.082
    2PC     H5C13613   4.076   2.239   2.165
    2PC     O3313614   3.577   2.396   2.170
    2PC     O3413615   3.702   2.588   2.244
    2PC     O2113616   3.548   2.378   2.695
    2PC     C2113617   3.538   2.496   2.757
    2PC     O2213618   3.466   2.584   2.714
    3OL     C1213619   3.634   2.520   2.871
    3OL     H2R13620   3.640   2.430   2.932
    3OL     H2S13621   3.603   2.605   2.933
    3OL     C1313622   3.777   2.544   2.822
    3OL     H3R13623   3.780   2.628   2.752
    3OL     H3S13624   3.815   2.465   2.759
    3OL     C1413625   3.866   2.554   2.947
    3OL     H4R13626   3.968   2.540   2.910
    3OL     H4S13627   3.836   2.477   3.018
    3OL     C1513628   3.864   2.696   3.007
    3OL     H5R13629   3.760   2.727   3.020
    3OL     H5S13630   3.914   2.766   2.940
    3OL     C1613631   3.941   2.687   3.139
    3OL     H6R13632   4.027   2.621   3.125
    3OL     H6S13633   3.885   2.637   3.219
    3OL     C1713634   3.976   2.823   3.200
    3OL     H7R13635   3.888   2.883   3.223
    3OL     H7S13636   4.036   2.875   3.124
    3OL     C1813637   4.060   2.816   3.328
    3OL     H8R13638   4.127   2.903   3.324
    3OL     H8S13639   4.122   2.727   3.339
    3OL     C1913640   3.975   2.829   3.452
    3OL     H9R13641   3.910   2.916   3.453
    3OL    C11013642   3.957   2.746   3.553
    3OL    H10R13643   3.886   2.774   3.630
    3OL    C11113644   4.014   2.607   3.573
    3OL    H11R13645   4.114   2.617   3.615
    3OL    H11S13646   4.035   2.558   3.478
    3OL    C11213647   3.919   2.519   3.655
    3OL    H12R13648   3.939   2.412   3.646
    3OL    H12S13649   3.818   2.524   3.613
    3OL    C11313650   3.917   2.550   3.805
    3OL    H13R13651   3.873   2.649   3.808
    3OL    H13S13652   4.020   2.551   3.842
    3OL    C11413653   3.841   2.445   3.888
    3OL    H14R13654   3.889   2.348   3.876
    3OL    H14S13655   3.736   2.443   3.858
    3OL    C11513656   3.857   2.478   4.037
    3OL    H15R13657   3.850   2.585   4.054
    3OL    H15S13658   3.960   2.458   4.070
    3OL    C11613659   3.766   2.399   4.133
    3OL    H16R13660   3.766   2.293   4.106
    3OL    H16S13661   3.661   2.426   4.121
    3OL    C11713662   3.792   2.419   4.283
    3OL    H17R13663   3.898   2.395   4.291
    3OL    H17S13664   3.735   2.351   4.346
    3OL    C11813665   3.780   2.563   4.333
    3OL    H18R13666   3.831   2.631   4.264
    3OL    H18S13667   3.837   2.572   4.426
    3OL    H18T13668   3.675   2.588   4.349
    1PA    C11613669   4.411   2.766   3.622
    1PA    H16R13670   4.315   2.759   3.674
    1PA    H16S13671   4.476   2.835   3.674
    1PA    H16T13672   4.447   2.664   3.610
    1PA    C11513673   4.386   2.838   3.488
    1PA    H15R13674   4.316   2.779   3.429
    1PA    H15S13675   4.331   2.928   3.515
    1PA    C11413676   4.517   2.873   3.416
    1PA    H14R13677   4.492   2.935   3.330
    1PA    H14S13678   4.589   2.918   3.484
    1PA    C11313679   4.588   2.747   3.363
    1PA    H13R13680   4.614   2.680   3.445
    1PA    H13S13681   4.520   2.695   3.295
    1PA    C11213682   4.708   2.775   3.272
    1PA    H12R13683   4.680   2.843   3.191
    1PA    H12S13684   4.782   2.829   3.332
    1PA    C11113685   4.777   2.647   3.224
    1PA    H11R13686   4.830   2.591   3.300
    1PA    H11S13687   4.713   2.573   3.176
    1PA    C11013688   4.883   2.689   3.120
    1PA    H10R13689   4.840   2.758   3.047
    1PA    H10S13690   4.956   2.750   3.174
    1PA     C1913691   4.963   2.571   3.063
    1PA     H9R13692   5.059   2.610   3.031
    1PA     H9S13693   4.982   2.505   3.149
    1PA     C1813694   4.895   2.486   2.955
    1PA     H8R13695   4.954   2.395   2.948
    1PA     H8S13696   4.793   2.464   2.986
    1PA     C1713697   4.890   2.558   2.819
    1PA     H7R13698   4.859   2.663   2.825
    1PA     H7S13699   4.995   2.568   2.789
    1PA     C1613700   4.807   2.479   2.716
    1PA     H6R13701   4.840   2.528   2.624
    1PA     H6S13702   4.817   2.371   2.711
    1PA     C1513703   4.658   2.517   2.722
    1PA     H5R13704   4.625   2.572   2.810
    1PA     H5S13705   4.631   2.579   2.636
    1PA     C1413706   4.577   2.387   2.712
    1PA     H4R13707   4.598   2.317   2.793
    1PA     H4S13708   4.472   2.400   2.739
    1PA     C1313709   4.586   2.316   2.576
    1PA     H3R13710   4.561   2.381   2.493
    1PA     H3S13711   4.690   2.288   2.555
    1PA     C1213712   4.499   2.190   2.581
    1PA     H2R13713   4.556   2.116   2.637
    1PA     H2S13714   4.399   2.200   2.624
    2PC     C1113715   4.473   2.144   2.439
    2PC     O1213716   4.552   2.160   2.349
    2PC     O1113717   4.360   2.071   2.435
    2PC      C113718   4.302   2.037   2.308
    2PC      HR13719   4.203   1.992   2.318
    2PC      HS13720   4.302   2.128   2.248
    2PC      C213721   4.390   1.928   2.244
    2PC      HX13722   4.495   1.959   2.248
    2PC      C313723   4.359   1.918   2.094
    2PC      HA13724   4.401   2.003   2.039
    2PC      HB13725   4.408   1.827   2.058
    2PC     O3113726   4.218   1.894   2.080
    2PC     P3113727   4.175   1.857   1.930
    2PC     O3213728   4.192   2.001   1.861
    2PC     C3113729   4.188   2.010   1.718
    2PC     H1A13730   4.127   1.930   1.675
    2PC     H1B13731   4.156   2.109   1.685
    2PC     C3213732   4.331   1.986   1.667
    2PC     H2A13733   4.392   2.073   1.690
    2PC     H2B13734   4.367   1.895   1.715
    2PC     N3113735   4.355   1.979   1.519
    2PC     C3313736   4.502   1.974   1.487
    2PC     H3A13737   4.542   1.883   1.532
    2PC     H3B13738   4.511   1.976   1.378
    2PC     H3C13739   4.541   2.067   1.528
    2PC     C3413740   4.289   1.862   1.454
    2PC     H4A13741   4.185   1.880   1.480
    2PC     H4B13742   4.312   1.868   1.347
    2PC     H4C13743   4.338   1.773   1.494
    2PC     C3513744   4.310   2.107   1.455
    2PC     H5A13745   4.209   2.139   1.483
    2PC     H5B13746   4.314   2.080   1.349
    2PC     H5C13747   4.386   2.183   1.474
    2PC     O3313748   4.254   1.752   1.862
    2PC     O3413749   4.036   1.807   1.927
    2PC     O2113750   4.386   1.798   2.305
    2PC     C2113751   4.470   1.782   2.409
    2PC     O2213752   4.552   1.862   2.449
    3OL     C1213753   4.466   1.643   2.467
    3OL     H2R13754   4.543   1.627   2.542
    3OL     H2S13755   4.489   1.581   2.379
    3OL     C1313756   4.329   1.595   2.515
    3OL     H3R13757   4.325   1.486   2.516
    3OL     H3S13758   4.252   1.615   2.440
    3OL     C1413759   4.274   1.639   2.651
    3OL     H4R13760   4.346   1.607   2.727
    3OL     H4S13761   4.180   1.587   2.669
    3OL     C1513762   4.248   1.790   2.661
    3OL     H5R13763   4.173   1.820   2.588
    3OL     H5S13764   4.344   1.840   2.647
    3OL     C1613765   4.189   1.832   2.796
    3OL     H6R13766   4.108   1.762   2.815
    3OL     H6S13767   4.141   1.931   2.793
    3OL     C1713768   4.295   1.843   2.906
    3OL     H7R13769   4.365   1.926   2.892
    3OL     H7S13770   4.356   1.754   2.893
    3OL     C1813771   4.222   1.841   3.042
    3OL     H8R13772   4.169   1.745   3.041
    3OL     H8S13773   4.148   1.921   3.038
    3OL     C1913774   4.325   1.849   3.151
    3OL     H9R13775   4.410   1.912   3.126
    3OL    C11013776   4.331   1.781   3.264
    3OL    H10R13777   4.418   1.806   3.323
    3OL    C11113778   4.220   1.692   3.315
    3OL    H11R13779   4.214   1.599   3.259
    3OL    H11S13780   4.125   1.744   3.304
    3OL    C11213781   4.245   1.657   3.462
    3OL    H12R13782   4.312   1.728   3.512
    3OL    H12S13783   4.304   1.565   3.459
    3OL    C11313784   4.113   1.657   3.541
    3OL    H13R13785   4.054   1.576   3.497
    3OL    H13S13786   4.059   1.750   3.522
    3OL    C11413787   4.133   1.638   3.692
    3OL    H14R13788   4.216   1.569   3.708
    3OL    H14S13789   4.044   1.590   3.733
    3OL    C11513790   4.162   1.767   3.770
    3OL    H15R13791   4.218   1.834   3.705
    3OL    H15S13792   4.221   1.733   3.855
    3OL    C11613793   4.032   1.831   3.819
    3OL    H16R13794   3.971   1.763   3.879
    3OL    H16S13795   3.974   1.866   3.733
    3OL    C11713796   4.067   1.953   3.906
    3OL    H17R13797   4.113   2.010   3.825
    3OL    H17S13798   4.138   1.924   3.984
    3OL    C11813799   3.941   2.031   3.946
    3OL    H18R13800   3.912   1.979   4.037
    3OL    H18S13801   3.872   2.024   3.861
    3OL    H18T13802   3.957   2.134   3.980
    1PA    C11613803   3.157   4.559   3.613
    1PA    H16R13804   3.185   4.635   3.539
    1PA    H16S13805   3.173   4.463   3.564
    1PA    H16T13806   3.227   4.580   3.694
    1PA    C11513807   3.012   4.580   3.656
    1PA    H15R13808   2.992   4.502   3.730
    1PA    H15S13809   3.002   4.683   3.690
    1PA    C11413810   2.918   4.560   3.536
    1PA    H14R13811   2.938   4.465   3.486
    1PA    H14S13812   2.817   4.557   3.577
    1PA    C11313813   2.919   4.669   3.428
    1PA    H13R13814   2.892   4.764   3.474
    1PA    H13S13815   3.020   4.681   3.391
    1PA    C11213816   2.816   4.634   3.319
    1PA    H12R13817   2.836   4.539   3.271
    1PA    H12S13818   2.720   4.623   3.370
    1PA    C11113819   2.793   4.749   3.219
    1PA    H11R13820   2.767   4.836   3.280
    1PA    H11S13821   2.893   4.778   3.185
    1PA    C11013822   2.692   4.719   3.108
    1PA    H10R13823   2.734   4.644   3.039
    1PA    H10S13824   2.599   4.687   3.154
    1PA     C1913825   2.678   4.835   3.008
    1PA     H9R13826   2.614   4.814   2.923
    1PA     H9S13827   2.616   4.913   3.054
    1PA     C1813828   2.810   4.892   2.955
    1PA     H8R13829   2.857   4.951   3.034
    1PA     H8S13830   2.875   4.808   2.931
    1PA     C1713831   2.800   4.970   2.823
    1PA     H7R13832   2.892   4.971   2.765
    1PA     H7S13833   2.722   4.928   2.759
    1PA     C1613834   2.776   5.120   2.845
    1PA     H6R13835   2.675   5.136   2.884
    1PA     H6S13836   2.844   5.163   2.920
    1PA     C1513837   2.796   5.206   2.719
    1PA     H5R13838   2.727   5.174   2.641
    1PA     H5S13839   2.768   5.307   2.748
    1PA     C1413840   2.942   5.223   2.674
    1PA     H4R13841   3.005   5.254   2.758
    1PA     H4S13842   2.990   5.133   2.636
    1PA     C1313843   2.948   5.337   2.572
    1PA     H3R13844   2.854   5.392   2.568
    1PA     H3S13845   3.022   5.410   2.606
    1PA     C1213846   2.973   5.269   2.437
    1PA     H2R13847   3.064   5.209   2.439
    1PA     H2S13848   2.893   5.202   2.404
    2PC     C1113849   2.996   5.372   2.329
    2PC     O1213850   2.922   5.467   2.314
    2PC     O1113851   3.096   5.343   2.244
    2PC      C113852   3.135   5.438   2.143
    2PC      HR13853   3.045   5.471   2.091
    2PC      HS13854   3.177   5.523   2.198
    2PC      C213855   3.236   5.374   2.047
    2PC      HX13856   3.284   5.452   1.989
    2PC      C313857   3.149   5.292   1.950
    2PC      HA13858   3.138   5.190   1.986
    2PC      HB13859   3.050   5.337   1.941
    2PC     O3113860   3.215   5.278   1.823
    2PC     P3113861   3.130   5.222   1.699
    2PC     O3213862   3.034   5.347   1.671
    2PC     C3113863   2.894   5.328   1.644
    2PC     H1A13864   2.853   5.280   1.733
    2PC     H1B13865   2.842   5.423   1.629
    2PC     C3213866   2.856   5.245   1.520
    2PC     H2A13867   2.898   5.145   1.520
    2PC     H2B13868   2.749   5.224   1.516
    2PC     N3113869   2.885   5.288   1.379
    2PC     C3313870   3.031   5.305   1.350
    2PC     H3A13871   3.081   5.216   1.388
    2PC     H3B13872   3.038   5.307   1.241
    2PC     H3C13873   3.075   5.397   1.388
    2PC     C3413874   2.843   5.173   1.292
    2PC     H4A13875   2.887   5.082   1.334
    2PC     H4B13876   2.734   5.164   1.303
    2PC     H4C13877   2.869   5.200   1.190
    2PC     C3513878   2.805   5.407   1.335
    2PC     H5A13879   2.698   5.385   1.346
    2PC     H5B13880   2.837   5.431   1.234
    2PC     H5C13881   2.824   5.490   1.403
    2PC     O3313882   3.232   5.198   1.594
    2PC     O3413883   3.065   5.094   1.735
    2PC     O2113884   3.331   5.299   2.124
    2PC     C2113885   3.426   5.372   2.186
    2PC     O2213886   3.441   5.492   2.185
    3OL     C1213887   3.522   5.283   2.261
    3OL     H2R13888   3.625   5.298   2.230
    3OL     H2S13889   3.488   5.181   2.236
    3OL     C1313890   3.508   5.295   2.413
    3OL     H3R13891   3.514   5.400   2.442
    3OL     H3S13892   3.585   5.243   2.470
    3OL     C1413893   3.369   5.244   2.455
    3OL     H4R13894   3.357   5.136   2.445
    3OL     H4S13895   3.286   5.284   2.397
    3OL     C1513896   3.325   5.270   2.600
    3OL     H5R13897   3.217   5.256   2.605
    3OL     H5S13898   3.346   5.373   2.630
    3OL     C1613899   3.401   5.180   2.699
    3OL     H6R13900   3.506   5.211   2.706
    3OL     H6S13901   3.405   5.081   2.652
    3OL     C1713902   3.328   5.185   2.833
    3OL     H7R13903   3.356   5.104   2.901
    3OL     H7S13904   3.222   5.173   2.808
    3OL     C1813905   3.345   5.314   2.914
    3OL     H8R13906   3.437   5.364   2.884
    3OL     H8S13907   3.356   5.292   3.021
    3OL     C1913908   3.228   5.407   2.902
    3OL     H9R13909   3.228   5.478   2.819
    3OL    C11013910   3.132   5.419   2.994
    3OL    H10R13911   3.064   5.502   2.978
    3OL    C11113912   3.117   5.341   3.122
    3OL    H11R13913   3.161   5.397   3.205
    3OL    H11S13914   3.169   5.245   3.115
    3OL    C11213915   2.968   5.319   3.152
    3OL    H12R13916   2.911   5.302   3.061
    3OL    H12S13917   2.919   5.405   3.198
    3OL    C11313918   2.959   5.197   3.246
    3OL    H13R13919   3.033   5.202   3.326
    3OL    H13S13920   2.974   5.106   3.188
    3OL    C11413921   2.819   5.185   3.307
    3OL    H14R13922   2.818   5.085   3.351
    3OL    H14S13923   2.736   5.207   3.241
    3OL    C11513924   2.802   5.280   3.427
    3OL    H15R13925   2.790   5.382   3.389
    3OL    H15S13926   2.891   5.277   3.489
    3OL    C11613927   2.680   5.242   3.512
    3OL    H16R13928   2.678   5.134   3.526
    3OL    H16S13929   2.594   5.264   3.449
    3OL    C11713930   2.681   5.321   3.645
    3OL    H17R13931   2.676   5.427   3.623
    3OL    H17S13932   2.777   5.304   3.695
    3OL    C11813933   2.561   5.270   3.726
    3OL    H18R13934   2.469   5.276   3.668
    3OL    H18S13935   2.548   5.327   3.818
    3OL    H18T13936   2.579   5.164   3.748
    1PA    C11613937   3.058   2.631   4.182
    1PA    H16R13938   3.015   2.730   4.200
    1PA    H16S13939   3.156   2.655   4.226
    1PA    H16T13940   3.003   2.553   4.234
    1PA    C11513941   3.078   2.612   4.031
    1PA    H15R13942   3.037   2.518   3.992
    1PA    H15S13943   3.020   2.685   3.974
    1PA    C11413944   3.223   2.639   3.990
    1PA    H14R13945   3.246   2.733   4.042
    1PA    H14S13946   3.287   2.555   4.019
    1PA    C11313947   3.243   2.659   3.840
    1PA    H13R13948   3.234   2.564   3.787
    1PA    H13S13949   3.164   2.727   3.808
    1PA    C11213950   3.384   2.712   3.811
    1PA    H12R13951   3.392   2.810   3.858
    1PA    H12S13952   3.460   2.648   3.857
    1PA    C11113953   3.406   2.727   3.659
    1PA    H11R13954   3.392   2.629   3.612
    1PA    H11S13955   3.340   2.806   3.622
    1PA    C11013956   3.552   2.768   3.636
    1PA    H10R13957   3.593   2.847   3.699
    1PA    H10S13958   3.604   2.672   3.639
    1PA     C1913959   3.575   2.807   3.489
    1PA     H9R13960   3.684   2.804   3.481
    1PA     H9S13961   3.526   2.737   3.421
    1PA     C1813962   3.532   2.954   3.474
    1PA     H8R13963   3.423   2.956   3.483
    1PA     H8S13964   3.576   3.016   3.553
    1PA     C1713965   3.579   3.019   3.344
    1PA     H7R13966   3.577   3.128   3.354
    1PA     H7S13967   3.680   2.979   3.326
    1PA     C1613968   3.491   2.989   3.222
    1PA     H6R13969   3.488   2.884   3.192
    1PA     H6S13970   3.391   3.021   3.253
    1PA     C1513971   3.537   3.061   3.095
    1PA     H5R13972   3.529   3.169   3.113
    1PA     H5S13973   3.642   3.047   3.067
    1PA     C1413974   3.444   3.031   2.977
    1PA     H4R13975   3.437   2.924   2.954
    1PA     H4S13976   3.343   3.056   3.009
    1PA     C1313977   3.479   3.107   2.848
    1PA     H3R13978   3.587   3.111   2.835
    1PA     H3S13979   3.439   3.059   2.759
    1PA     C1213980   3.419   3.248   2.859
    1PA     H2R13981   3.311   3.240   2.873
    1PA     H2S13982   3.454   3.303   2.947
    2PC     C1113983   3.440   3.326   2.732
    2PC     O1213984   3.493   3.280   2.632
    2PC     O1113985   3.394   3.452   2.739
    2PC      C113986   3.367   3.537   2.626
    2PC      HR13987   3.304   3.624   2.644
    2PC      HS13988   3.457   3.579   2.580
    2PC      C213989   3.264   3.469   2.536
    2PC      HX13990   3.308   3.375   2.502
    2PC      C313991   3.215   3.548   2.414
    2PC      HA13992   3.132   3.613   2.444
    2PC      HB13993   3.303   3.602   2.378
    2PC     O3113994   3.156   3.461   2.316
    2PC     P3113995   3.104   3.515   2.174
    2PC     O3213996   3.242   3.507   2.092
    2PC     C3113997   3.303   3.381   2.059
    2PC     H1A13998   3.278   3.316   2.142
    2PC     H1B13999   3.258   3.336   1.970
    2PC     C3214000   3.454   3.388   2.032
    2PC     H2A14001   3.476   3.481   1.980
    2PC     H2B14002   3.516   3.405   2.120
    2PC     N3114003   3.518   3.269   1.967
    2PC     C3314004   3.668   3.278   1.974
    2PC     H3A14005   3.714   3.186   1.937
    2PC     H3B14006   3.719   3.367   1.937
    2PC     H3C14007   3.679   3.269   2.082
    2PC     C3414008   3.484   3.140   2.035
    2PC     H4A14009   3.376   3.122   2.038
    2PC     H4B14010   3.525   3.057   1.978
    2PC     H4C14011   3.519   3.136   2.139
    2PC     C3514012   3.482   3.253   1.822
    2PC     H5A14013   3.541   3.166   1.794
    2PC     H5B14014   3.521   3.334   1.760
    2PC     H5C14015   3.375   3.239   1.809
    2PC     O3314016   2.990   3.440   2.117
    2PC     O3414017   3.055   3.655   2.180
    2PC     O2114018   3.153   3.441   2.623
    2PC     C2114019   3.095   3.321   2.634
    2PC     O2214020   3.127   3.221   2.571
    3OL     C1214021   2.995   3.321   2.747
    3OL     H2R14022   2.918   3.383   2.701
    3OL     H2S14023   3.046   3.359   2.836
    3OL     C1314024   2.942   3.179   2.775
    3OL     H3R14025   3.025   3.109   2.782
    3OL     H3S14026   2.880   3.152   2.690
    3OL     C1414027   2.866   3.168   2.908
    3OL     H4R14028   2.818   3.071   2.919
    3OL     H4S14029   2.783   3.238   2.899
    3OL     C1514030   2.941   3.197   3.039
    3OL     H5R14031   2.964   3.302   3.055
    3OL     H5S14032   3.039   3.149   3.042
    3OL     C1614033   2.860   3.129   3.151
    3OL     H6R14034   2.850   3.023   3.127
    3OL     H6S14035   2.761   3.174   3.160
    3OL     C1714036   2.937   3.145   3.283
    3OL     H7R14037   2.975   3.246   3.295
    3OL     H7S14038   3.020   3.074   3.283
    3OL     C1814039   2.848   3.114   3.404
    3OL     H8R14040   2.803   3.014   3.396
    3OL     H8S14041   2.758   3.175   3.407
    3OL     C1914042   2.906   3.130   3.542
    3OL     H9R14043   2.892   3.225   3.593
    3OL    C11014044   2.981   3.040   3.605
    3OL    H10R14045   3.024   3.059   3.703
    3OL    C11114046   3.017   2.907   3.545
    3OL    H11R14047   3.121   2.878   3.560
    3OL    H11S14048   2.990   2.902   3.439
    3OL    C11214049   2.938   2.793   3.610
    3OL    H12R14050   2.830   2.801   3.597
    3OL    H12S14051   2.968   2.788   3.715
    3OL    C11314052   2.976   2.662   3.539
    3OL    H13R14053   3.083   2.639   3.543
    3OL    H13S14054   2.947   2.676   3.434
    3OL    C11414055   2.892   2.545   3.590
    3OL    H14R14056   2.924   2.456   3.536
    3OL    H14S14057   2.785   2.553   3.567
    3OL    C11514058   2.913   2.517   3.740
    3OL    H15R14059   2.882   2.598   3.806
    3OL    H15S14060   3.021   2.508   3.757
    3OL    C11614061   2.843   2.390   3.790
    3OL    H16R14062   2.738   2.399   3.762
    3OL    H16S14063   2.849   2.401   3.899
    3OL    C11714064   2.922   2.262   3.762
    3OL    H17R14065   2.949   2.253   3.657
    3OL    H17S14066   2.855   2.180   3.790
    3OL    C11814067   3.048   2.256   3.849
    3OL    H18R14068   3.094   2.158   3.837
    3OL    H18S14069   3.020   2.272   3.954
    3OL    H18T14070   3.121   2.332   3.818
    1PA    C11614071   3.269   3.170   4.074
    1PA    H16R14072   3.359   3.215   4.116
    1PA    H16S14073   3.292   3.070   4.036
    1PA    H16T14074   3.203   3.162   4.160
    1PA    C11514075   3.219   3.266   3.965
    1PA    H15R14076   3.127   3.235   3.915
    1PA    H15S14077   3.210   3.360   4.021
    1PA    C11414078   3.321   3.290   3.853
    1PA    H14R14079   3.411   3.344   3.882
    1PA    H14S14080   3.366   3.196   3.821
    1PA    C11314081   3.255   3.359   3.732
    1PA    H13R14082   3.159   3.309   3.716
    1PA    H13S14083   3.233   3.462   3.760
    1PA    C11214084   3.336   3.329   3.605
    1PA    H12R14085   3.432   3.380   3.613
    1PA    H12S14086   3.358   3.223   3.588
    1PA    C11114087   3.272   3.411   3.492
    1PA    H11R14088   3.163   3.410   3.489
    1PA    H11S14089   3.305   3.510   3.524
    1PA    C11014090   3.330   3.379   3.353
    1PA    H10R14091   3.439   3.381   3.350
    1PA    H10S14092   3.307   3.272   3.342
    1PA     C1914093   3.276   3.473   3.245
    1PA     H9R14094   3.278   3.575   3.284
    1PA     H9S14095   3.336   3.459   3.155
    1PA     C1814096   3.129   3.446   3.210
    1PA     H8R14097   3.120   3.343   3.175
    1PA     H8S14098   3.085   3.452   3.310
    1PA     C1714099   3.065   3.554   3.121
    1PA     H7R14100   2.963   3.520   3.105
    1PA     H7S14101   3.061   3.644   3.184
    1PA     C1614102   3.145   3.587   2.995
    1PA     H6R14103   3.239   3.641   3.011
    1PA     H6S14104   3.175   3.492   2.949
    1PA     C1514105   3.062   3.661   2.889
    1PA     H5R14106   3.121   3.674   2.797
    1PA     H5S14107   2.980   3.598   2.853
    1PA     C1414108   3.015   3.802   2.928
    1PA     H4R14109   2.963   3.791   3.024
    1PA     H4S14110   3.100   3.868   2.945
    1PA     C1314111   2.902   3.861   2.843
    1PA     H3R14112   2.817   3.792   2.848
    1PA     H3S14113   2.867   3.949   2.896
    1PA     C1214114   2.947   3.909   2.704
    1PA     H2R14115   3.035   3.974   2.700
    1PA     H2S14116   2.971   3.823   2.642
    2PC     C1114117   2.834   3.987   2.642
    2PC     O1214118   2.716   3.968   2.663
    2PC     O1114119   2.874   4.095   2.572
    2PC      C114120   2.778   4.168   2.494
    2PC      HR14121   2.735   4.096   2.424
    2PC      HS14122   2.701   4.202   2.563
    2PC      C214123   2.842   4.289   2.423
    2PC      HX14124   2.758   4.338   2.372
    2PC      C314125   2.942   4.230   2.322
    2PC      HA14126   3.017   4.175   2.379
    2PC      HB14127   2.878   4.168   2.259
    2PC     O3114128   3.009   4.331   2.245
    2PC     P3114129   2.933   4.404   2.125
    2PC     O3214130   2.954   4.558   2.164
    2PC     C3114131   2.927   4.666   2.073
    2PC     H1A14132   2.998   4.656   1.991
    2PC     H1B14133   2.825   4.657   2.033
    2PC     C3214134   2.939   4.798   2.150
    2PC     H2A14135   3.020   4.786   2.222
    2PC     H2B14136   2.956   4.885   2.085
    2PC     N3114137   2.823   4.845   2.232
    2PC     C3314138   2.781   4.743   2.333
    2PC     H3A14139   2.721   4.657   2.301
    2PC     H3B14140   2.864   4.725   2.401
    2PC     H3C14141   2.717   4.803   2.398
    2PC     C3414142   2.860   4.972   2.302
    2PC     H4A14143   2.876   5.049   2.226
    2PC     H4B14144   2.772   4.991   2.364
    2PC     H4C14145   2.952   4.953   2.358
    2PC     C3514146   2.705   4.884   2.147
    2PC     H5A14147   2.675   4.788   2.104
    2PC     H5B14148   2.736   4.954   2.070
    2PC     H5C14149   2.631   4.938   2.205
    2PC     O3314150   2.990   4.373   1.992
    2PC     O3414151   2.793   4.358   2.122
    2PC     O2114152   2.906   4.375   2.519
    2PC     C2114153   2.839   4.475   2.579
    2PC     O2214154   2.724   4.508   2.562
    3OL     C1214155   2.926   4.554   2.672
    3OL     H2R14156   2.929   4.658   2.637
    3OL     H2S14157   3.030   4.521   2.669
    3OL     C1314158   2.859   4.538   2.809
    3OL     H3R14159   2.757   4.578   2.811
    3OL     H3S14160   2.924   4.595   2.876
    3OL     C1414161   2.857   4.392   2.858
    3OL     H4R14162   2.961   4.357   2.858
    3OL     H4S14163   2.805   4.328   2.786
    3OL     C1514164   2.798   4.369   2.997
    3OL     H5R14165   2.697   4.407   3.014
    3OL     H5S14166   2.863   4.418   3.070
    3OL     C1614167   2.800   4.219   3.030
    3OL     H6R14168   2.902   4.193   3.059
    3OL     H6S14169   2.761   4.158   2.948
    3OL     C1714170   2.708   4.191   3.149
    3OL     H7R14171   2.614   4.246   3.138
    3OL     H7S14172   2.752   4.247   3.232
    3OL     C1814173   2.702   4.044   3.194
    3OL     H8R14174   2.805   4.007   3.189
    3OL     H8S14175   2.637   3.983   3.132
    3OL     C1914176   2.650   4.033   3.335
    3OL     H9R14177   2.721   4.014   3.415
    3OL    C11014178   2.524   4.019   3.372
    3OL    H10R14179   2.502   4.021   3.478
    3OL    C11114180   2.405   3.992   3.282
    3OL    H11R14181   2.430   4.019   3.179
    3OL    H11S14182   2.323   4.053   3.321
    3OL    C11214183   2.367   3.844   3.279
    3OL    H12R14184   2.333   3.812   3.378
    3OL    H12S14185   2.458   3.790   3.251
    3OL    C11314186   2.256   3.819   3.177
    3OL    H13R14187   2.250   3.710   3.168
    3OL    H13S14188   2.278   3.866   3.081
    3OL    C11414189   2.120   3.868   3.228
    3OL    H14R14190   2.121   3.976   3.245
    3OL    H14S14191   2.102   3.823   3.326
    3OL    C11514192   2.007   3.820   3.135
    3OL    H15R14193   2.028   3.720   3.098
    3OL    H15S14194   2.003   3.889   3.050
    3OL    C11614195   1.877   3.826   3.216
    3OL    H16R14196   1.848   3.922   3.260
    3OL    H16S14197   1.893   3.759   3.301
    3OL    C11714198   1.753   3.778   3.140
    3OL    H17R14199   1.768   3.680   3.093
    3OL    H17S14200   1.742   3.843   3.053
    3OL    C11814201   1.622   3.793   3.219
    3OL    H18R14202   1.622   3.718   3.298
    3OL    H18S14203   1.530   3.774   3.163
    3OL    H18T14204   1.618   3.890   3.269
    1PA    C11614205   2.830   4.405   3.999
    1PA    H16R14206   2.900   4.430   4.079
    1PA    H16S14207   2.885   4.374   3.910
    1PA    H16T14208   2.757   4.333   4.037
    1PA    C11514209   2.752   4.529   3.954
    1PA    H15R14210   2.689   4.578   4.029
    1PA    H15S14211   2.825   4.609   3.936
    1PA    C11414212   2.662   4.501   3.833
    1PA    H14R14213   2.595   4.585   3.810
    1PA    H14S14214   2.723   4.479   3.745
    1PA    C11314215   2.570   4.380   3.856
    1PA    H13R14216   2.620   4.283   3.864
    1PA    H13S14217   2.520   4.396   3.952
    1PA    C11214218   2.457   4.362   3.754
    1PA    H12R14219   2.398   4.273   3.776
    1PA    H12S14220   2.397   4.452   3.772
    1PA    C11114221   2.499   4.350   3.607
    1PA    H11R14222   2.579   4.422   3.588
    1PA    H11S14223   2.543   4.251   3.597
    1PA    C11014224   2.381   4.372   3.511
    1PA    H10R14225   2.302   4.298   3.523
    1PA    H10S14226   2.332   4.468   3.530
    1PA     C1914227   2.443   4.366   3.371
    1PA     H9R14228   2.504   4.456   3.358
    1PA     H9S14229   2.510   4.279   3.371
    1PA     C1814230   2.339   4.366   3.258
    1PA     H8R14231   2.400   4.376   3.168
    1PA     H8S14232   2.279   4.275   3.253
    1PA     C1714233   2.253   4.493   3.259
    1PA     H7R14234   2.190   4.493   3.349
    1PA     H7S14235   2.309   4.587   3.260
    1PA     C1614236   2.180   4.495   3.124
    1PA     H6R14237   2.158   4.396   3.083
    1PA     H6S14238   2.087   4.548   3.147
    1PA     C1514239   2.253   4.570   3.012
    1PA     H5R14240   2.290   4.664   3.055
    1PA     H5S14241   2.347   4.520   2.990
    1PA     C1414242   2.162   4.605   2.893
    1PA     H4R14243   2.223   4.611   2.803
    1PA     H4S14244   2.082   4.531   2.886
    1PA     C1314245   2.093   4.740   2.918
    1PA     H3R14246   1.990   4.734   2.882
    1PA     H3S14247   2.090   4.762   3.025
    1PA     C1214248   2.172   4.854   2.853
    1PA     H2R14249   2.131   4.946   2.895
    1PA     H2S14250   2.278   4.852   2.878
    2PC     C1114251   2.160   4.859   2.703
    2PC     O1214252   2.247   4.873   2.620
    2PC     O1114253   2.034   4.837   2.661
    2PC      C114254   2.000   4.835   2.521
    2PC      HR14255   1.893   4.850   2.508
    2PC      HS14256   2.056   4.900   2.453
    2PC      C214257   2.026   4.695   2.462
    2PC      HX14258   2.127   4.669   2.494
    2PC      C314259   2.018   4.697   2.309
    2PC      HA14260   1.916   4.717   2.276
    2PC      HB14261   2.086   4.778   2.279
    2PC     O3114262   2.074   4.579   2.248
    2PC     P3114263   2.099   4.585   2.090
    2PC     O3214264   2.150   4.436   2.061
    2PC     C3114265   2.279   4.388   2.102
    2PC     H1A14266   2.351   4.425   2.029
    2PC     H1B14267   2.284   4.429   2.203
    2PC     C3214268   2.280   4.236   2.124
    2PC     H2A14269   2.363   4.208   2.190
    2PC     H2B14270   2.190   4.199   2.172
    2PC     N3114271   2.301   4.159   1.996
    2PC     C3314272   2.332   4.015   2.020
    2PC     H3A14273   2.429   4.020   2.070
    2PC     H3B14274   2.267   3.968   2.093
    2PC     H3C14275   2.326   3.944   1.936
    2PC     C3414276   2.177   4.159   1.913
    2PC     H4A14277   2.090   4.121   1.968
    2PC     H4B14278   2.144   4.259   1.884
    2PC     H4C14279   2.195   4.092   1.829
    2PC     C3514280   2.419   4.213   1.921
    2PC     H5A14281   2.436   4.159   1.828
    2PC     H5B14282   2.509   4.228   1.980
    2PC     H5C14283   2.384   4.309   1.883
    2PC     O3314284   1.984   4.634   2.010
    2PC     O3414285   2.197   4.689   2.052
    2PC     O2114286   1.912   4.620   2.508
    2PC     C2114287   1.902   4.487   2.489
    2PC     O2214288   1.988   4.415   2.443
    3OL     C1214289   1.764   4.440   2.526
    3OL     H2R14290   1.723   4.382   2.443
    3OL     H2S14291   1.698   4.526   2.534
    3OL     C1314292   1.761   4.352   2.652
    3OL     H3R14293   1.826   4.265   2.640
    3OL     H3S14294   1.664   4.301   2.657
    3OL     C1414295   1.795   4.422   2.784
    3OL     H4R14296   1.725   4.506   2.793
    3OL     H4S14297   1.896   4.462   2.784
    3OL     C1514298   1.781   4.318   2.896
    3OL     H5R14299   1.833   4.226   2.870
    3OL     H5S14300   1.676   4.288   2.906
    3OL     C1614301   1.822   4.365   3.036
    3OL     H6R14302   1.792   4.469   3.054
    3OL     H6S14303   1.931   4.361   3.032
    3OL     C1714304   1.777   4.274   3.150
    3OL     H7R14305   1.828   4.179   3.132
    3OL     H7S14306   1.669   4.256   3.152
    3OL     C1814307   1.810   4.333   3.288
    3OL     H8R14308   1.769   4.434   3.303
    3OL     H8S14309   1.918   4.349   3.296
    3OL     C1914310   1.760   4.245   3.399
    3OL     H9R14311   1.652   4.235   3.408
    3OL    C11014312   1.843   4.187   3.485
    3OL    H10R14313   1.809   4.130   3.571
    3OL    C11114314   1.994   4.184   3.484
    3OL    H11R14315   2.037   4.282   3.506
    3OL    H11S14316   2.034   4.156   3.386
    3OL    C11214317   2.043   4.087   3.593
    3OL    H12R14318   2.022   3.985   3.560
    3OL    H12S14319   1.990   4.111   3.685
    3OL    C11314320   2.192   4.103   3.624
    3OL    H13R14321   2.211   4.197   3.676
    3OL    H13S14322   2.242   4.086   3.528
    3OL    C11414323   2.237   3.999   3.729
    3OL    H14R14324   2.155   3.967   3.793
    3OL    H14S14325   2.318   4.036   3.792
    3OL    C11514326   2.291   3.876   3.655
    3OL    H15R14327   2.386   3.888   3.602
    3OL    H15S14328   2.223   3.837   3.579
    3OL    C11614329   2.323   3.758   3.747
    3OL    H16R14330   2.232   3.702   3.768
    3OL    H16S14331   2.365   3.793   3.842
    3OL    C11714332   2.425   3.662   3.684
    3OL    H17R14333   2.455   3.606   3.773
    3OL    H17S14334   2.516   3.722   3.673
    3OL    C11814335   2.378   3.580   3.564
    3OL    H18R14336   2.355   3.642   3.477
    3OL    H18S14337   2.290   3.519   3.585
    3OL    H18T14338   2.458   3.512   3.535
    1PA    C11614339   2.623   1.126   4.193
    1PA    H16R14340   2.696   1.094   4.118
    1PA    H16S14341   2.569   1.036   4.223
    1PA    H16T14342   2.689   1.163   4.272
    1PA    C11514343   2.529   1.234   4.137
    1PA    H15R14344   2.466   1.186   4.062
    1PA    H15S14345   2.463   1.263   4.219
    1PA    C11414346   2.605   1.353   4.075
    1PA    H14R14347   2.530   1.433   4.078
    1PA    H14S14348   2.680   1.389   4.145
    1PA    C11314349   2.656   1.333   3.932
    1PA    H13R14350   2.606   1.252   3.879
    1PA    H13S14351   2.638   1.422   3.871
    1PA    C11214352   2.809   1.317   3.935
    1PA    H12R14353   2.850   1.405   3.986
    1PA    H12S14354   2.836   1.236   4.003
    1PA    C11114355   2.876   1.306   3.798
    1PA    H11R14356   2.967   1.247   3.814
    1PA    H11S14357   2.816   1.253   3.724
    1PA    C11014358   2.917   1.440   3.734
    1PA    H10R14359   2.828   1.503   3.737
    1PA    H10S14360   2.987   1.487   3.804
    1PA     C1914361   2.974   1.435   3.591
    1PA     H9R14362   2.998   1.540   3.576
    1PA     H9S14363   3.063   1.373   3.578
    1PA     C1814364   2.874   1.402   3.479
    1PA     H8R14365   2.852   1.297   3.499
    1PA     H8S14366   2.795   1.475   3.499
    1PA     C1714367   2.927   1.421   3.336
    1PA     H7R14368   2.976   1.518   3.328
    1PA     H7S14369   3.003   1.346   3.312
    1PA     C1614370   2.824   1.417   3.221
    1PA     H6R14371   2.777   1.319   3.224
    1PA     H6S14372   2.752   1.498   3.234
    1PA     C1514373   2.890   1.431   3.083
    1PA     H5R14374   2.998   1.447   3.082
    1PA     H5S14375   2.865   1.343   3.024
    1PA     C1414376   2.818   1.545   3.009
    1PA     H4R14377   2.713   1.524   2.987
    1PA     H4S14378   2.816   1.634   3.071
    1PA     C1314379   2.885   1.589   2.878
    1PA     H3R14380   2.987   1.615   2.905
    1PA     H3S14381   2.892   1.507   2.807
    1PA     C1214382   2.821   1.715   2.819
    1PA     H2R14383   2.712   1.708   2.813
    1PA     H2S14384   2.836   1.806   2.878
    2PC     C1114385   2.874   1.739   2.679
    2PC     O1214386   2.971   1.807   2.656
    2PC     O1114387   2.785   1.688   2.593
    2PC      C114388   2.794   1.714   2.452
    2PC      HR14389   2.701   1.676   2.407
    2PC      HS14390   2.819   1.819   2.437
    2PC      C214391   2.922   1.652   2.393
    2PC      HX14392   3.014   1.686   2.441
    2PC      C314393   2.932   1.682   2.243
    2PC      HA14394   2.920   1.788   2.219
    2PC      HB14395   3.029   1.655   2.202
    2PC     O3114396   2.838   1.607   2.164
    2PC     P3114397   2.839   1.635   2.006
    2PC     O3214398   2.693   1.678   1.956
    2PC     C3114399   2.677   1.647   1.817
    2PC     H1A14400   2.757   1.692   1.757
    2PC     H1B14401   2.671   1.539   1.801
    2PC     C3214402   2.540   1.707   1.781
    2PC     H2A14403   2.530   1.711   1.672
    2PC     H2B14404   2.460   1.643   1.818
    2PC     N3114405   2.512   1.850   1.815
    2PC     C3314406   2.627   1.937   1.773
    2PC     H3A14407   2.718   1.889   1.810
    2PC     H3B14408   2.636   1.935   1.664
    2PC     H3C14409   2.609   2.039   1.804
    2PC     C3414410   2.384   1.891   1.749
    2PC     H4A14411   2.349   1.986   1.789
    2PC     H4B14412   2.406   1.896   1.642
    2PC     H4C14413   2.312   1.810   1.765
    2PC     C3514414   2.481   1.880   1.958
    2PC     H5A14415   2.387   1.842   1.997
    2PC     H5B14416   2.505   1.986   1.967
    2PC     H5C14417   2.559   1.829   2.014
    2PC     O3314418   2.924   1.753   1.976
    2PC     O3414419   2.877   1.512   1.933
    2PC     O2114420   2.908   1.511   2.417
    2PC     C2114421   3.009   1.427   2.392
    2PC     O2214422   3.110   1.453   2.329
    3OL     C1214423   2.978   1.291   2.451
    3OL     H2R14424   3.050   1.218   2.412
    3OL     H2S14425   2.876   1.267   2.424
    3OL     C1314426   2.994   1.280   2.603
    3OL     H3R14427   2.932   1.355   2.653
    3OL     H3S14428   3.097   1.312   2.619
    3OL     C1414429   2.968   1.141   2.663
    3OL     H4R14430   3.024   1.063   2.611
    3OL     H4S14431   2.865   1.110   2.646
    3OL     C1514432   2.996   1.130   2.814
    3OL     H5R14433   2.928   1.200   2.862
    3OL     H5S14434   3.095   1.170   2.839
    3OL     C1614435   2.975   0.989   2.871
    3OL     H6R14436   3.035   0.918   2.812
    3OL     H6S14437   2.871   0.959   2.860
    3OL     C1714438   3.024   0.979   3.016
    3OL     H7R14439   3.002   0.874   3.037
    3OL     H7S14440   2.965   1.045   3.080
    3OL     C1814441   3.176   0.996   3.027
    3OL     H8R14442   3.215   1.089   2.987
    3OL     H8S14443   3.228   0.925   2.962
    3OL     C1914444   3.233   0.988   3.167
    3OL     H9R14445   3.225   1.086   3.214
    3OL    C11014446   3.295   0.886   3.226
    3OL    H10R14447   3.336   0.910   3.324
    3OL    C11114448   3.315   0.748   3.168
    3OL    H11R14449   3.422   0.726   3.176
    3OL    H11S14450   3.302   0.743   3.060
    3OL    C11214451   3.228   0.645   3.241
    3OL    H12R14452   3.253   0.543   3.214
    3OL    H12S14453   3.124   0.658   3.210
    3OL    C11314454   3.245   0.652   3.393
    3OL    H13R14455   3.201   0.743   3.434
    3OL    H13S14456   3.352   0.654   3.416
    3OL    C11414457   3.195   0.520   3.454
    3OL    H14R14458   3.245   0.432   3.413
    3OL    H14S14459   3.090   0.509   3.424
    3OL    C11514460   3.192   0.513   3.607
    3OL    H15R14461   3.139   0.599   3.648
    3OL    H15S14462   3.294   0.509   3.646
    3OL    C11614463   3.134   0.384   3.667
    3OL    H16R14464   3.193   0.295   3.643
    3OL    H16S14465   3.040   0.369   3.613
    3OL    C11714466   3.109   0.397   3.818
    3OL    H17R14467   3.019   0.457   3.839
    3OL    H17S14468   3.192   0.450   3.863
    3OL    C11814469   3.087   0.263   3.889
    3OL    H18R14470   3.078   0.272   3.997
    3OL    H18S14471   3.170   0.194   3.871
    3OL    H18T14472   2.991   0.219   3.859
    1PA    C11614473   3.159   1.361   4.127
    1PA    H16R14474   3.072   1.419   4.156
    1PA    H16S14475   3.212   1.345   4.221
    1PA    H16T14476   3.123   1.261   4.102
    1PA    C11514477   3.237   1.441   4.022
    1PA    H15R14478   3.171   1.432   3.935
    1PA    H15S14479   3.251   1.547   4.043
    1PA    C11414480   3.374   1.380   3.990
    1PA    H14R14481   3.443   1.405   4.072
    1PA    H14S14482   3.363   1.273   3.975
    1PA    C11314483   3.433   1.448   3.865
    1PA    H13R14484   3.408   1.555   3.862
    1PA    H13S14485   3.539   1.425   3.863
    1PA    C11214486   3.381   1.384   3.736
    1PA    H12R14487   3.426   1.286   3.719
    1PA    H12S14488   3.272   1.372   3.735
    1PA    C11114489   3.425   1.465   3.614
    1PA    H11R14490   3.355   1.548   3.598
    1PA    H11S14491   3.519   1.514   3.640
    1PA    C11014492   3.438   1.394   3.478
    1PA    H10R14493   3.506   1.460   3.425
    1PA    H10S14494   3.483   1.296   3.495
    1PA     C1914495   3.297   1.389   3.419
    1PA     H9R14496   3.235   1.328   3.485
    1PA     H9S14497   3.249   1.488   3.415
    1PA     C1814498   3.295   1.329   3.278
    1PA     H8R14499   3.376   1.259   3.253
    1PA     H8S14500   3.198   1.284   3.256
    1PA     C1714501   3.312   1.440   3.174
    1PA     H7R14502   3.244   1.522   3.200
    1PA     H7S14503   3.409   1.488   3.185
    1PA     C1614504   3.287   1.373   3.038
    1PA     H6R14505   3.350   1.284   3.043
    1PA     H6S14506   3.181   1.351   3.028
    1PA     C1514507   3.349   1.457   2.926
    1PA     H5R14508   3.301   1.554   2.933
    1PA     H5S14509   3.458   1.456   2.938
    1PA     C1414510   3.325   1.400   2.785
    1PA     H4R14511   3.379   1.306   2.769
    1PA     H4S14512   3.218   1.383   2.779
    1PA     C1314513   3.360   1.505   2.679
    1PA     H3R14514   3.460   1.545   2.699
    1PA     H3S14515   3.367   1.456   2.581
    1PA     C1214516   3.257   1.618   2.679
    1PA     H2R14517   3.161   1.576   2.650
    1PA     H2S14518   3.245   1.656   2.781
    2PC     C1114519   3.306   1.715   2.575
    2PC     O1214520   3.367   1.815   2.607
    2PC     O1114521   3.288   1.674   2.448
    2PC      C114522   3.305   1.754   2.330
    2PC      HR14523   3.323   1.679   2.253
    2PC      HS14524   3.211   1.810   2.320
    2PC      C214525   3.422   1.854   2.335
    2PC      HX14526   3.389   1.936   2.398
    2PC      C314527   3.437   1.906   2.191
    2PC      HA14528   3.347   1.960   2.160
    2PC      HB14529   3.520   1.976   2.186
    2PC     O3114530   3.452   1.795   2.101
    2PC     P3114531   3.470   1.824   1.945
    2PC     O3214532   3.408   1.691   1.882
    2PC     C3114533   3.265   1.698   1.868
    2PC     H1A14534   3.216   1.715   1.965
    2PC     H1B14535   3.230   1.769   1.793
    2PC     C3214536   3.201   1.564   1.829
    2PC     H2A14537   3.248   1.487   1.891
    2PC     H2B14538   3.094   1.576   1.845
    2PC     N3114539   3.206   1.527   1.683
    2PC     C3314540   3.343   1.521   1.624
    2PC     H3A14541   3.319   1.472   1.529
    2PC     H3B14542   3.383   1.622   1.610
    2PC     H3C14543   3.406   1.461   1.689
    2PC     C3414544   3.135   1.395   1.679
    2PC     H4A14545   3.153   1.337   1.588
    2PC     H4B14546   3.160   1.332   1.764
    2PC     H4C14547   3.027   1.411   1.681
    2PC     C3514548   3.117   1.622   1.608
    2PC     H5A14549   3.166   1.720   1.614
    2PC     H5B14550   3.014   1.623   1.643
    2PC     H5C14551   3.127   1.583   1.507
    2PC     O3314552   3.413   1.943   1.877
    2PC     O3414553   3.614   1.829   1.909
    2PC     O2114554   3.548   1.801   2.378
    2PC     C2114555   3.654   1.876   2.414
    2PC     O2214556   3.659   1.994   2.387
    3OL     C1214557   3.762   1.799   2.486
    3OL     H2R14558   3.847   1.866   2.469
    3OL     H2S14559   3.783   1.700   2.444
    3OL     C1314560   3.722   1.780   2.633
    3OL     H3R14561   3.627   1.727   2.627
    3OL     H3S14562   3.686   1.873   2.677
    3OL     C1414563   3.833   1.718   2.719
    3OL     H4R14564   3.912   1.793   2.725
    3OL     H4S14565   3.877   1.635   2.663
    3OL     C1514566   3.772   1.677   2.854
    3OL     H5R14567   3.687   1.611   2.835
    3OL     H5S14568   3.734   1.765   2.906
    3OL     C1614569   3.876   1.605   2.941
    3OL     H6R14570   3.964   1.666   2.961
    3OL     H6S14571   3.905   1.509   2.898
    3OL     C1714572   3.818   1.578   3.081
    3OL     H7R14573   3.719   1.532   3.080
    3OL     H7S14574   3.803   1.675   3.129
    3OL     C1814575   3.922   1.500   3.162
    3OL     H8R14576   4.018   1.552   3.161
    3OL     H8S14577   3.943   1.403   3.116
    3OL     C1914578   3.877   1.490   3.305
    3OL     H9R14579   3.901   1.577   3.367
    3OL    C11014580   3.802   1.395   3.359
    3OL    H10R14581   3.773   1.407   3.463
    3OL    C11114582   3.729   1.286   3.285
    3OL    H11R14583   3.781   1.246   3.198
    3OL    H11S14584   3.630   1.323   3.256
    3OL    C11214585   3.718   1.171   3.385
    3OL    H12R14586   3.660   1.197   3.473
    3OL    H12S14587   3.820   1.150   3.418
    3OL    C11314588   3.657   1.045   3.321
    3OL    H13R14589   3.698   1.036   3.220
    3OL    H13S14590   3.550   1.062   3.307
    3OL    C11414591   3.681   0.925   3.412
    3OL    H14R14592   3.612   0.850   3.372
    3OL    H14S14593   3.668   0.954   3.517
    3OL    C11514594   3.825   0.880   3.381
    3OL    H15R14595   3.901   0.944   3.426
    3OL    H15S14596   3.838   0.890   3.273
    3OL    C11614597   3.843   0.730   3.410
    3OL    H16R14598   3.940   0.706   3.367
    3OL    H16S14599   3.761   0.672   3.367
    3OL    C11714600   3.844   0.707   3.562
    3OL    H17R14601   3.755   0.752   3.606
    3OL    H17S14602   3.936   0.754   3.597
    3OL    C11814603   3.850   0.555   3.581
    3OL    H18R14604   3.752   0.514   3.554
    3OL    H18S14605   3.863   0.523   3.685
    3OL    H18T14606   3.932   0.519   3.519
    1PA    C11614607   0.043   5.940   4.207
    1PA    H16R14608  -0.039   5.971   4.272
    1PA    H16S14609   0.124   5.902   4.269
    1PA    H16T14610   0.006   5.862   4.140
    1PA    C11514611   0.102   6.055   4.124
    1PA    H15R14612   0.024   6.116   4.078
    1PA    H15S14613   0.149   6.127   4.191
    1PA    C11414614   0.208   6.018   4.018
    1PA    H14R14615   0.246   6.113   3.981
    1PA    H14S14616   0.287   5.963   4.069
    1PA    C11314617   0.147   5.931   3.906
    1PA    H13R14618   0.227   5.885   3.848
    1PA    H13S14619   0.101   5.839   3.941
    1PA    C11214620   0.060   6.000   3.801
    1PA    H12R14621  -0.041   6.008   3.842
    1PA    H12S14622   0.097   6.101   3.780
    1PA    C11114623   0.051   5.922   3.669
    1PA    H11R14624   0.041   5.814   3.682
    1PA    H11S14625  -0.047   5.938   3.625
    1PA    C11014626   0.166   5.962   3.575
    1PA    H10R14627   0.180   6.070   3.571
    1PA    H10S14628   0.261   5.939   3.623
    1PA     C1914629   0.155   5.910   3.431
    1PA     H9R14630   0.182   5.805   3.416
    1PA     H9S14631   0.051   5.925   3.402
    1PA     C1814632   0.251   5.984   3.337
    1PA     H8R14633   0.228   6.091   3.345
    1PA     H8S14634   0.357   5.983   3.364
    1PA     C1714635   0.230   5.950   3.188
    1PA     H7R14636   0.261   5.847   3.169
    1PA     H7S14637   0.128   5.969   3.155
    1PA     C1614638   0.320   6.044   3.107
    1PA     H6R14639   0.284   6.146   3.120
    1PA     H6S14640   0.422   6.057   3.144
    1PA     C1514641   0.321   5.997   2.961
    1PA     H5R14642   0.341   5.890   2.951
    1PA     H5S14643   0.222   6.016   2.918
    1PA     C1414644   0.412   6.094   2.884
    1PA     H4R14645   0.374   6.195   2.899
    1PA     H4S14646   0.512   6.096   2.928
    1PA     C1314647   0.422   6.068   2.733
    1PA     H3R14648   0.452   5.963   2.732
    1PA     H3S14649   0.324   6.078   2.686
    1PA     C1214650   0.521   6.162   2.662
    1PA     H2R14651   0.519   6.259   2.711
    1PA     H2S14652   0.624   6.130   2.680
    2PC     C1114653   0.491   6.181   2.515
    2PC     O1214654   0.463   6.288   2.465
    2PC     O1114655   0.498   6.068   2.443
    2PC      C114656   0.494   6.067   2.299
    2PC      HR14657   0.457   5.969   2.270
    2PC      HS14658   0.434   6.141   2.245
    2PC      C214659   0.637   6.079   2.243
    2PC      HX14660   0.689   6.166   2.283
    2PC      C314661   0.643   6.078   2.089
    2PC      HA14662   0.600   6.175   2.063
    2PC      HB14663   0.748   6.076   2.058
    2PC     O3114664   0.570   5.965   2.040
    2PC     P3114665   0.552   5.940   1.883
    2PC     O3214666   0.608   5.790   1.875
    2PC     C3114667   0.748   5.765   1.896
    2PC     H1A14668   0.812   5.844   1.857
    2PC     H1B14669   0.765   5.758   2.003
    2PC     C3214670   0.784   5.629   1.833
    2PC     H2A14671   0.738   5.618   1.735
    2PC     H2B14672   0.893   5.633   1.820
    2PC     N3114673   0.760   5.510   1.921
    2PC     C3314674   0.801   5.392   1.838
    2PC     H3A14675   0.760   5.417   1.739
    2PC     H3B14676   0.911   5.383   1.834
    2PC     H3C14677   0.760   5.300   1.877
    2PC     C3414678   0.829   5.502   2.053
    2PC     H4A14679   0.799   5.401   2.082
    2PC     H4B14680   0.937   5.511   2.034
    2PC     H4C14681   0.790   5.577   2.122
    2PC     C3514682   0.612   5.490   1.936
    2PC     H5A14683   0.597   5.395   1.988
    2PC     H5B14684   0.563   5.483   1.839
    2PC     H5C14685   0.557   5.565   1.993
    2PC     O3314686   0.415   5.967   1.833
    2PC     O3414687   0.636   6.021   1.792
    2PC     O2114688   0.705   5.960   2.287
    2PC     C2114689   0.839   5.967   2.302
    2PC     O2214690   0.906   6.059   2.259
    3OL     C1214691   0.900   5.852   2.378
    3OL     H2R14692   0.961   5.795   2.308
    3OL     H2S14693   0.821   5.776   2.393
    3OL     C1314694   0.964   5.886   2.514
    3OL     H3R14695   1.027   5.975   2.508
    3OL     H3S14696   1.021   5.799   2.544
    3OL     C1414697   0.850   5.922   2.610
    3OL     H4R14698   0.792   5.831   2.630
    3OL     H4S14699   0.780   5.993   2.564
    3OL     C1514700   0.898   5.980   2.744
    3OL     H5R14701   0.828   6.052   2.788
    3OL     H5S14702   0.994   6.030   2.735
    3OL     C1614703   0.926   5.867   2.845
    3OL     H6R14704   0.997   5.897   2.922
    3OL     H6S14705   0.975   5.783   2.796
    3OL     C1714706   0.802   5.813   2.919
    3OL     H7R14707   0.817   5.707   2.942
    3OL     H7S14708   0.709   5.823   2.862
    3OL     C1814709   0.783   5.872   3.059
    3OL     H8R14710   0.765   5.979   3.043
    3OL     H8S14711   0.874   5.868   3.119
    3OL     C1914712   0.658   5.818   3.124
    3OL     H9R14713   0.571   5.823   3.060
    3OL    C11014714   0.644   5.785   3.252
    3OL    H10R14715   0.541   5.780   3.284
    3OL    C11114716   0.754   5.759   3.352
    3OL    H11R14717   0.762   5.851   3.410
    3OL    H11S14718   0.846   5.735   3.300
    3OL    C11214719   0.718   5.647   3.450
    3OL    H12R14720   0.700   5.556   3.391
    3OL    H12S14721   0.618   5.669   3.489
    3OL    C11314722   0.823   5.635   3.562
    3OL    H13R14723   0.845   5.737   3.594
    3OL    H13S14724   0.920   5.590   3.539
    3OL    C11414725   0.753   5.558   3.674
    3OL    H14R14726   0.727   5.463   3.627
    3OL    H14S14727   0.657   5.607   3.692
    3OL    C11514728   0.835   5.553   3.804
    3OL    H15R14729   0.868   5.654   3.831
    3OL    H15S14730   0.934   5.510   3.787
    3OL    C11614731   0.767   5.471   3.914
    3OL    H16R14732   0.756   5.370   3.873
    3OL    H16S14733   0.668   5.514   3.932
    3OL    C11714734   0.857   5.475   4.039
    3OL    H17R14735   0.857   5.578   4.077
    3OL    H17S14736   0.957   5.450   4.005
    3OL    C11814737   0.792   5.377   4.138
    3OL    H18R14738   0.798   5.276   4.099
    3OL    H18S14739   0.688   5.408   4.154
    3OL    H18T14740   0.841   5.380   4.236
    1PA    C11614741   4.393   5.855   4.013
    1PA    H16R14742   4.313   5.860   4.088
    1PA    H16S14743   4.492   5.861   4.059
    1PA    H16T14744   4.376   5.762   3.958
    1PA    C11514745   4.379   5.987   3.936
    1PA    H15R14746   4.275   6.019   3.922
    1PA    H15S14747   4.421   6.061   4.004
    1PA    C11414748   4.453   5.982   3.802
    1PA    H14R14749   4.559   5.967   3.824
    1PA    H14S14750   4.421   5.888   3.755
    1PA    C11314751   4.432   6.100   3.706
    1PA    H13R14752   4.327   6.105   3.677
    1PA    H13S14753   4.454   6.196   3.753
    1PA    C11214754   4.505   6.081   3.573
    1PA    H12R14755   4.521   6.170   3.512
    1PA    H12S14756   4.603   6.041   3.603
    1PA    C11114757   4.432   5.991   3.474
    1PA    H11R14758   4.399   5.904   3.532
    1PA    H11S14759   4.337   6.036   3.442
    1PA    C11014760   4.509   5.953   3.347
    1PA    H10R14761   4.554   6.035   3.290
    1PA    H10S14762   4.597   5.892   3.370
    1PA     C1914763   4.427   5.863   3.254
    1PA     H9R14764   4.483   5.796   3.188
    1PA     H9S14765   4.381   5.796   3.327
    1PA     C1814766   4.316   5.936   3.176
    1PA     H8R14767   4.262   6.006   3.241
    1PA     H8S14768   4.353   5.993   3.091
    1PA     C1714769   4.210   5.837   3.125
    1PA     H7R14770   4.175   5.766   3.200
    1PA     H7S14771   4.124   5.891   3.085
    1PA     C1614772   4.261   5.750   3.009
    1PA     H6R14773   4.352   5.695   3.033
    1PA     H6S14774   4.179   5.684   2.979
    1PA     C1514775   4.285   5.831   2.881
    1PA     H5R14776   4.194   5.885   2.853
    1PA     H5S14777   4.362   5.906   2.900
    1PA     C1414778   4.315   5.732   2.768
    1PA     H4R14779   4.402   5.668   2.789
    1PA     H4S14780   4.231   5.664   2.760
    1PA     C1314781   4.335   5.815   2.641
    1PA     H3R14782   4.248   5.878   2.617
    1PA     H3S14783   4.421   5.880   2.656
    1PA     C1214784   4.368   5.709   2.535
    1PA     H2R14785   4.451   5.649   2.574
    1PA     H2S14786   4.287   5.635   2.533
    2PC     C1114787   4.381   5.772   2.399
    2PC     O1214788   4.406   5.703   2.302
    2PC     O1114789   4.358   5.903   2.387
    2PC      C114790   4.329   5.960   2.258
    2PC      HR14791   4.415   5.972   2.192
    2PC      HS14792   4.257   5.894   2.208
    2PC      C214793   4.273   6.102   2.273
    2PC      HX14794   4.187   6.096   2.340
    2PC      C314795   4.215   6.145   2.138
    2PC      HA14796   4.131   6.083   2.105
    2PC      HB14797   4.177   6.248   2.136
    2PC     O3114798   4.324   6.145   2.044
    2PC     P3114799   4.312   6.181   1.889
    2PC     O3214800   4.257   6.046   1.822
    2PC     C3114801   4.354   5.945   1.789
    2PC     H1A14802   4.446   5.994   1.756
    2PC     H1B14803   4.374   5.882   1.876
    2PC     C3214804   4.296   5.857   1.678
    2PC     H2A14805   4.354   5.765   1.672
    2PC     H2B14806   4.193   5.830   1.700
    2PC     N3114807   4.301   5.909   1.537
    2PC     C3314808   4.216   5.823   1.448
    2PC     H3A14809   4.113   5.846   1.474
    2PC     H3B14810   4.223   5.859   1.345
    2PC     H3C14811   4.247   5.719   1.459
    2PC     C3414812   4.251   6.050   1.541
    2PC     H4A14813   4.144   6.038   1.560
    2PC     H4B14814   4.300   6.119   1.611
    2PC     H4C14815   4.262   6.093   1.442
    2PC     C3514816   4.436   5.908   1.471
    2PC     H5A14817   4.510   5.943   1.544
    2PC     H5B14818   4.437   5.961   1.376
    2PC     H5C14819   4.469   5.807   1.447
    2PC     O3314820   4.224   6.299   1.870
    2PC     O3414821   4.434   6.242   1.830
    2PC     O2114822   4.371   6.194   2.326
    2PC     C2114823   4.341   6.322   2.352
    2PC     O2214824   4.229   6.368   2.356
    3OL     C1214825   4.464   6.404   2.380
    3OL     H2R14826   4.506   6.417   2.280
    3OL     H2S14827   4.548   6.361   2.436
    3OL     C1314828   4.424   6.538   2.442
    3OL     H3R14829   4.347   6.530   2.518
    3OL     H3S14830   4.381   6.595   2.359
    3OL     C1414831   4.548   6.613   2.492
    3OL     H4R14832   4.530   6.721   2.484
    3OL     H4S14833   4.636   6.588   2.432
    3OL     C1514834   4.588   6.586   2.638
    3OL     H5R14835   4.620   6.488   2.673
    3OL     H5S14836   4.490   6.598   2.685
    3OL     C1614837   4.696   6.688   2.678
    3OL     H6R14838   4.666   6.792   2.671
    3OL     H6S14839   4.783   6.669   2.614
    3OL     C1714840   4.720   6.660   2.827
    3OL     H7R14841   4.748   6.555   2.835
    3OL     H7S14842   4.633   6.696   2.883
    3OL     C1814843   4.843   6.741   2.871
    3OL     H8R14844   4.831   6.847   2.850
    3OL     H8S14845   4.927   6.701   2.813
    3OL     C1914846   4.873   6.726   3.018
    3OL     H9R14847   4.844   6.633   3.065
    3OL    C11014848   4.910   6.831   3.091
    3OL    H10R14849   4.929   6.818   3.197
    3OL    C11114850   4.949   6.970   3.048
    3OL    H11R14851   4.892   7.005   2.962
    3OL    H11S14852   5.052   6.955   3.014
    3OL    C11214853   4.941   7.064   3.169
    3OL    H12R14854   4.985   7.162   3.150
    3OL    H12S14855   4.995   7.015   3.250
    3OL    C11314856   4.794   7.077   3.212
    3OL    H13R14857   4.747   6.979   3.206
    3OL    H13S14858   4.738   7.135   3.138
    3OL    C11414859   4.772   7.124   3.356
    3OL    H14R14860   4.821   7.221   3.370
    3OL    H14S14861   4.819   7.054   3.425
    3OL    C11514862   4.625   7.136   3.398
    3OL    H15R14863   4.575   7.040   3.383
    3OL    H15S14864   4.569   7.215   3.347
    3OL    C11614865   4.618   7.166   3.548
    3OL    H16R14866   4.703   7.121   3.599
    3OL    H16S14867   4.527   7.115   3.582
    3OL    C11714868   4.608   7.316   3.580
    3OL    H17R14869   4.510   7.342   3.538
    3OL    H17S14870   4.692   7.370   3.537
    3OL    C11814871   4.599   7.341   3.731
    3OL    H18R14872   4.503   7.299   3.763
    3OL    H18S14873   4.605   7.450   3.731
    3OL    H18T14874   4.685   7.287   3.772
    1PA    C11614875   2.794   5.382   4.193
    1PA    H16R14876   2.787   5.273   4.191
    1PA    H16S14877   2.729   5.393   4.279
    1PA    H16T14878   2.900   5.407   4.204
    1PA    C11514879   2.761   5.452   4.060
    1PA    H15R14880   2.773   5.384   3.976
    1PA    H15S14881   2.659   5.489   4.060
    1PA    C11414882   2.845   5.577   4.030
    1PA    H14R14883   2.838   5.657   4.104
    1PA    H14S14884   2.951   5.551   4.027
    1PA    C11314885   2.815   5.631   3.890
    1PA    H13R14886   2.844   5.551   3.822
    1PA    H13S14887   2.710   5.656   3.875
    1PA    C11214888   2.900   5.752   3.849
    1PA    H12R14889   2.897   5.833   3.922
    1PA    H12S14890   3.003   5.716   3.846
    1PA    C11114891   2.856   5.805   3.711
    1PA    H11R14892   2.882   5.723   3.643
    1PA    H11S14893   2.748   5.818   3.713
    1PA    C11014894   2.932   5.931   3.668
    1PA    H10R14895   2.913   6.014   3.736
    1PA    H10S14896   3.040   5.923   3.664
    1PA     C1914897   2.885   5.983   3.531
    1PA     H9R14898   2.879   6.092   3.534
    1PA     H9S14899   2.778   5.963   3.520
    1PA     C1814900   2.968   5.922   3.417
    1PA     H8R14901   3.073   5.950   3.427
    1PA     H8S14902   2.957   5.813   3.418
    1PA     C1714903   2.926   5.977   3.280
    1PA     H7R14904   2.831   5.928   3.257
    1PA     H7S14905   2.906   6.084   3.280
    1PA     C1614906   3.032   5.946   3.173
    1PA     H6R14907   3.122   5.998   3.208
    1PA     H6S14908   3.051   5.839   3.164
    1PA     C1514909   2.993   6.022   3.045
    1PA     H5R14910   2.891   5.991   3.025
    1PA     H5S14911   2.985   6.130   3.061
    1PA     C1414912   3.085   5.985   2.928
    1PA     H4R14913   3.186   6.002   2.967
    1PA     H4S14914   3.050   5.884   2.905
    1PA     C1314915   3.059   6.073   2.805
    1PA     H3R14916   2.971   6.043   2.748
    1PA     H3S14917   3.059   6.175   2.846
    1PA     C1214918   3.182   6.062   2.715
    1PA     H2R14919   3.272   6.098   2.765
    1PA     H2S14920   3.207   5.959   2.687
    2PC     C1114921   3.161   6.147   2.592
    2PC     O1214922   3.225   6.249   2.581
    2PC     O1114923   3.076   6.102   2.498
    2PC      C114924   3.068   6.177   2.376
    2PC      HR14925   3.071   6.283   2.401
    2PC      HS14926   3.156   6.142   2.320
    2PC      C214927   2.932   6.156   2.306
    2PC      HX14928   2.896   6.053   2.303
    2PC      C314929   2.935   6.214   2.164
    2PC      HA14930   2.976   6.142   2.092
    2PC      HB14931   2.835   6.246   2.134
    2PC     O3114932   3.023   6.327   2.166
    2PC     P3114933   3.070   6.389   2.026
    2PC     O3214934   2.943   6.470   1.971
    2PC     C3114935   2.845   6.417   1.881
    2PC     H1A14936   2.807   6.327   1.929
    2PC     H1B14937   2.762   6.487   1.871
    2PC     C3214938   2.901   6.396   1.739
    2PC     H2A14939   2.905   6.496   1.696
    2PC     H2B14940   3.002   6.356   1.742
    2PC     N3114941   2.816   6.317   1.644
    2PC     C3314942   2.713   6.229   1.708
    2PC     H3A14943   2.762   6.154   1.771
    2PC     H3B14944   2.646   6.292   1.766
    2PC     H3C14945   2.648   6.178   1.637
    2PC     C3414946   2.744   6.409   1.549
    2PC     H4A14947   2.710   6.345   1.467
    2PC     H4B14948   2.671   6.457   1.613
    2PC     H4C14949   2.816   6.484   1.515
    2PC     C3514950   2.906   6.232   1.560
    2PC     H5A14951   2.980   6.303   1.523
    2PC     H5B14952   2.848   6.182   1.483
    2PC     H5C14953   2.955   6.154   1.619
    2PC     O3314954   3.190   6.474   2.029
    2PC     O3414955   3.096   6.277   1.932
    2PC     O2114956   2.834   6.230   2.381
    2PC     C2114957   2.758   6.166   2.471
    2PC     O2214958   2.754   6.046   2.486
    3OL     C1214959   2.680   6.260   2.560
    3OL     H2R14960   2.575   6.230   2.565
    3OL     H2S14961   2.687   6.356   2.508
    3OL     C1314962   2.722   6.276   2.707
    3OL     H3R14963   2.684   6.365   2.756
    3OL     H3S14964   2.831   6.281   2.710
    3OL     C1414965   2.697   6.146   2.785
    3OL     H4R14966   2.765   6.144   2.870
    3OL     H4S14967   2.729   6.061   2.725
    3OL     C1514968   2.548   6.134   2.821
    3OL     H5R14969   2.494   6.118   2.727
    3OL     H5S14970   2.520   6.227   2.870
    3OL     C1614971   2.531   6.011   2.911
    3OL     H6R14972   2.614   5.988   2.978
    3OL     H6S14973   2.530   5.931   2.837
    3OL     C1714974   2.392   6.014   2.976
    3OL     H7R14975   2.368   5.911   3.005
    3OL     H7S14976   2.307   6.037   2.911
    3OL     C1814977   2.407   6.099   3.103
    3OL     H8R14978   2.307   6.094   3.147
    3OL     H8S14979   2.418   6.202   3.066
    3OL     C1914980   2.512   6.066   3.205
    3OL     H9R14981   2.488   5.977   3.263
    3OL    C11014982   2.626   6.127   3.236
    3OL    H10R14983   2.684   6.086   3.318
    3OL    C11114984   2.684   6.251   3.174
    3OL    H11R14985   2.623   6.292   3.093
    3OL    H11S14986   2.785   6.231   3.137
    3OL    C11214987   2.721   6.357   3.279
    3OL    H12R14988   2.762   6.448   3.234
    3OL    H12S14989   2.799   6.307   3.336
    3OL    C11314990   2.605   6.380   3.377
    3OL    H13R14991   2.647   6.442   3.456
    3OL    H13S14992   2.580   6.285   3.426
    3OL    C11414993   2.479   6.446   3.320
    3OL    H14R14994   2.439   6.372   3.250
    3OL    H14S14995   2.503   6.544   3.278
    3OL    C11514996   2.384   6.480   3.435
    3OL    H15R14997   2.432   6.539   3.514
    3OL    H15S14998   2.353   6.388   3.485
    3OL    C11614999   2.253   6.544   3.387
    3OL    H16R15000   2.193   6.487   3.316
    3OL    H16S15001   2.282   6.639   3.340
    3OL    C11715002   2.163   6.575   3.507
    3OL    H17R15003   2.218   6.615   3.592
    3OL    H17S15004   2.107   6.487   3.539
    3OL    C11815005   2.052   6.676   3.473
    3OL    H18R15006   1.990   6.697   3.560
    3OL    H18S15007   1.990   6.638   3.392
    3OL    H18T15008   2.091   6.769   3.433
    1PA    C11615009   1.668   6.002   3.660
    1PA    H16R15010   1.621   5.934   3.731
    1PA    H16S15011   1.637   6.101   3.695
    1PA    H16T15012   1.772   5.986   3.687
    1PA    C11515013   1.650   5.965   3.512
    1PA    H15R15014   1.571   6.026   3.468
    1PA    H15S15015   1.743   5.981   3.457
    1PA    C11415016   1.602   5.820   3.498
    1PA    H14R15017   1.678   5.746   3.525
    1PA    H14S15018   1.516   5.804   3.564
    1PA    C11315019   1.554   5.798   3.354
    1PA    H13R15020   1.506   5.888   3.315
    1PA    H13S15021   1.645   5.778   3.297
    1PA    C11215022   1.462   5.678   3.327
    1PA    H12R15023   1.533   5.596   3.337
    1PA    H12S15024   1.397   5.664   3.414
    1PA    C11115025   1.389   5.683   3.192
    1PA    H11R15026   1.452   5.704   3.105
    1PA    H11S15027   1.344   5.584   3.182
    1PA    C11015028   1.264   5.771   3.186
    1PA    H10R15029   1.203   5.744   3.273
    1PA    H10S15030   1.294   5.874   3.206
    1PA     C1915031   1.185   5.754   3.055
    1PA     H9R15032   1.159   5.650   3.035
    1PA     H9S15033   1.094   5.813   3.068
    1PA     C1815034   1.265   5.792   2.929
    1PA     H8R15035   1.361   5.741   2.921
    1PA     H8S15036   1.202   5.782   2.840
    1PA     C1715037   1.308   5.939   2.930
    1PA     H7R15038   1.230   6.011   2.954
    1PA     H7S15039   1.382   5.951   3.009
    1PA     C1615040   1.378   5.961   2.795
    1PA     H6R15041   1.442   5.875   2.778
    1PA     H6S15042   1.306   5.951   2.713
    1PA     C1515043   1.454   6.094   2.783
    1PA     H5R15044   1.397   6.167   2.727
    1PA     H5S15045   1.465   6.139   2.882
    1PA     C1415046   1.596   6.094   2.723
    1PA     H4R15047   1.639   6.192   2.742
    1PA     H4S15048   1.656   6.027   2.785
    1PA     C1315049   1.598   6.057   2.574
    1PA     H3R15050   1.592   5.949   2.564
    1PA     H3S15051   1.519   6.118   2.528
    1PA     C1215052   1.734   6.106   2.522
    1PA     H2R15053   1.739   6.213   2.543
    1PA     H2S15054   1.813   6.073   2.590
    2PC     C1115055   1.782   6.079   2.382
    2PC     O1215056   1.726   6.028   2.288
    2PC     O1115057   1.906   6.131   2.369
    2PC      C115058   1.970   6.111   2.241
    2PC      HR15059   1.957   6.009   2.205
    2PC      HS15060   1.914   6.177   2.174
    2PC      C215061   2.114   6.158   2.265
    2PC      HX15062   2.115   6.240   2.338
    2PC      C315063   2.190   6.213   2.144
    2PC      HA15064   2.141   6.307   2.118
    2PC      HB15065   2.290   6.248   2.172
    2PC     O3115066   2.201   6.120   2.035
    2PC     P3115067   2.270   6.178   1.902
    2PC     O3215068   2.132   6.214   1.830
    2PC     C3115069   2.060   6.109   1.763
    2PC     H1A15070   2.129   6.035   1.722
    2PC     H1B15071   2.025   6.044   1.843
    2PC     C3215072   1.948   6.150   1.666
    2PC     H2A15073   1.890   6.063   1.637
    2PC     H2B15074   1.876   6.219   1.709
    2PC     N3115075   2.004   6.220   1.546
    2PC     C3315076   2.111   6.320   1.578
    2PC     H3A15077   2.136   6.364   1.481
    2PC     H3B15078   2.065   6.384   1.653
    2PC     H3C15079   2.205   6.278   1.616
    2PC     C3415080   2.062   6.121   1.449
    2PC     H4A15081   1.988   6.052   1.411
    2PC     H4B15082   2.104   6.176   1.364
    2PC     H4C15083   2.135   6.061   1.504
    2PC     C3515084   1.879   6.283   1.494
    2PC     H5A15085   1.813   6.200   1.468
    2PC     H5B15086   1.904   6.354   1.415
    2PC     H5C15087   1.839   6.337   1.580
    2PC     O3315088   2.355   6.295   1.937
    2PC     O3415089   2.351   6.072   1.839
    2PC     O2115090   2.177   6.047   2.332
    2PC     C2115091   2.303   6.047   2.377
    2PC     O2215092   2.376   6.143   2.389
    3OL     C1215093   2.349   5.908   2.416
    3OL     H2R15094   2.458   5.912   2.424
    3OL     H2S15095   2.330   5.838   2.334
    3OL     C1315096   2.277   5.871   2.546
    3OL     H3R15097   2.172   5.862   2.522
    3OL     H3S15098   2.286   5.943   2.628
    3OL     C1415099   2.334   5.737   2.595
    3OL     H4R15100   2.439   5.743   2.623
    3OL     H4S15101   2.330   5.659   2.518
    3OL     C1515102   2.250   5.683   2.711
    3OL     H5R15103   2.144   5.669   2.686
    3OL     H5S15104   2.265   5.738   2.805
    3OL     C1615105   2.295   5.540   2.748
    3OL     H6R15106   2.402   5.545   2.771
    3OL     H6S15107   2.281   5.470   2.666
    3OL     C1715108   2.216   5.492   2.870
    3OL     H7R15109   2.112   5.509   2.842
    3OL     H7S15110   2.247   5.552   2.956
    3OL     C1815111   2.246   5.344   2.897
    3OL     H8R15112   2.204   5.295   2.809
    3OL     H8S15113   2.193   5.320   2.989
    3OL     C1915114   2.391   5.314   2.925
    3OL     H9R15115   2.455   5.400   2.904
    3OL    C11015116   2.440   5.219   3.003
    3OL    H10R15117   2.541   5.228   3.043
    3OL    C11115118   2.367   5.093   3.044
    3OL    H11R15119   2.410   5.010   2.989
    3OL    H11S15120   2.261   5.094   3.016
    3OL    C11215121   2.379   5.055   3.192
    3OL    H12R15122   2.330   5.135   3.248
    3OL    H12S15123   2.484   5.056   3.224
    3OL    C11315124   2.317   4.919   3.223
    3OL    H13R15125   2.363   4.838   3.165
    3OL    H13S15126   2.212   4.911   3.195
    3OL    C11415127   2.334   4.877   3.369
    3OL    H14R15128   2.281   4.782   3.381
    3OL    H14S15129   2.282   4.947   3.435
    3OL    C11515130   2.480   4.866   3.418
    3OL    H15R15131   2.550   4.948   3.408
    3OL    H15S15132   2.525   4.793   3.350
    3OL    C11615133   2.494   4.800   3.556
    3OL    H16R15134   2.594   4.755   3.558
    3OL    H16S15135   2.423   4.717   3.558
    3OL    C11715136   2.472   4.901   3.670
    3OL    H17R15137   2.371   4.942   3.662
    3OL    H17S15138   2.543   4.984   3.660
    3OL    C11815139   2.485   4.857   3.816
    3OL    H18R15140   2.586   4.818   3.825
    3OL    H18S15141   2.417   4.776   3.842
    3OL    H18T15142   2.468   4.941   3.884
    1PA    C11615143   4.321   3.431   4.498
    1PA    H16R15144   4.225   3.405   4.542
    1PA    H16S15145   4.325   3.539   4.484
    1PA    H16T15146   4.408   3.416   4.562
    1PA    C11515147   4.352   3.369   4.361
    1PA    H15R15148   4.455   3.395   4.335
    1PA    H15S15149   4.355   3.262   4.380
    1PA    C11415150   4.249   3.420   4.259
    1PA    H14R15151   4.157   3.361   4.263
    1PA    H14S15152   4.241   3.529   4.266
    1PA    C11315153   4.293   3.399   4.113
    1PA    H13R15154   4.398   3.427   4.102
    1PA    H13S15155   4.280   3.294   4.087
    1PA    C11215156   4.216   3.489   4.015
    1PA    H12R15157   4.111   3.466   4.035
    1PA    H12S15158   4.244   3.591   4.040
    1PA    C11115159   4.242   3.473   3.865
    1PA    H11R15160   4.349   3.474   3.845
    1PA    H11S15161   4.212   3.369   3.853
    1PA    C11015162   4.176   3.569   3.765
    1PA    H10R15163   4.075   3.534   3.742
    1PA    H10S15164   4.169   3.673   3.796
    1PA     C1915165   4.239   3.547   3.627
    1PA     H9R15166   4.345   3.573   3.639
    1PA     H9S15167   4.229   3.440   3.608
    1PA     C1815168   4.175   3.639   3.523
    1PA     H8R15169   4.066   3.651   3.525
    1PA     H8S15170   4.214   3.738   3.546
    1PA     C1715171   4.200   3.591   3.379
    1PA     H7R15172   4.308   3.585   3.364
    1PA     H7S15173   4.159   3.490   3.369
    1PA     C1615174   4.137   3.683   3.274
    1PA     H6R15175   4.031   3.690   3.296
    1PA     H6S15176   4.188   3.780   3.275
    1PA     C1515177   4.157   3.623   3.134
    1PA     H5R15178   4.263   3.604   3.114
    1PA     H5S15179   4.102   3.530   3.127
    1PA     C1415180   4.103   3.716   3.024
    1PA     H4R15181   3.998   3.727   3.049
    1PA     H4S15182   4.153   3.813   3.031
    1PA     C1315183   4.107   3.653   2.884
    1PA     H3R15184   4.199   3.602   2.854
    1PA     H3S15185   4.027   3.581   2.864
    1PA     C1215186   4.072   3.756   2.775
    1PA     H2R15187   3.968   3.788   2.786
    1PA     H2S15188   4.130   3.848   2.783
    2PC     C1115189   4.093   3.699   2.637
    2PC     O1215190   4.095   3.767   2.537
    2PC     O1115191   4.092   3.565   2.626
    2PC      C115192   4.093   3.500   2.498
    2PC      HR15193   4.086   3.391   2.505
    2PC      HS15194   4.018   3.545   2.433
    2PC      C215195   4.235   3.522   2.445
    2PC      HX15196   4.250   3.630   2.436
    2PC      C315197   4.262   3.451   2.312
    2PC      HA15198   4.366   3.466   2.282
    2PC      HB15199   4.235   3.346   2.325
    2PC     O3115200   4.180   3.513   2.211
    2PC     P3115201   4.216   3.476   2.060
    2PC     O3215202   4.323   3.592   2.030
    2PC     C3115203   4.462   3.563   2.048
    2PC     H1A15204   4.508   3.638   2.114
    2PC     H1B15205   4.478   3.462   2.088
    2PC     C3215206   4.534   3.586   1.914
    2PC     H2A15207   4.526   3.692   1.890
    2PC     H2B15208   4.641   3.573   1.931
    2PC     N3115209   4.503   3.499   1.797
    2PC     C3315210   4.381   3.530   1.715
    2PC     H3A15211   4.375   3.458   1.633
    2PC     H3B15212   4.299   3.533   1.786
    2PC     H3C15213   4.391   3.621   1.657
    2PC     C3415214   4.622   3.515   1.707
    2PC     H4A15215   4.604   3.463   1.613
    2PC     H4B15216   4.641   3.619   1.682
    2PC     H4C15217   4.713   3.475   1.753
    2PC     C3515218   4.509   3.354   1.836
    2PC     H5A15219   4.511   3.296   1.744
    2PC     H5B15220   4.417   3.334   1.891
    2PC     H5C15221   4.603   3.328   1.884
    2PC     O3315222   4.265   3.338   2.041
    2PC     O3415223   4.102   3.484   1.966
    2PC     O2115224   4.331   3.471   2.540
    2PC     C2115225   4.459   3.513   2.533
    2PC     O2215226   4.500   3.599   2.459
    3OL     C1215227   4.529   3.450   2.651
    3OL     H2R15228   4.593   3.370   2.613
    3OL     H2S15229   4.463   3.395   2.718
    3OL     C1315230   4.616   3.552   2.726
    3OL     H3R15231   4.662   3.614   2.648
    3OL     H3S15232   4.697   3.499   2.777
    3OL     C1415233   4.541   3.649   2.817
    3OL     H4R15234   4.455   3.685   2.760
    3OL     H4S15235   4.602   3.735   2.845
    3OL     C1515236   4.494   3.589   2.950
    3OL     H5R15237   4.439   3.500   2.920
    3OL     H5S15238   4.428   3.666   2.990
    3OL     C1615239   4.610   3.558   3.045
    3OL     H6R15240   4.682   3.640   3.054
    3OL     H6S15241   4.662   3.473   3.001
    3OL     C1715242   4.563   3.509   3.183
    3OL     H7R15243   4.514   3.597   3.227
    3OL     H7S15244   4.649   3.482   3.243
    3OL     C1815245   4.470   3.387   3.180
    3OL     H8R15246   4.426   3.369   3.082
    3OL     H8S15247   4.393   3.411   3.254
    3OL     C1915248   4.549   3.267   3.225
    3OL     H9R15249   4.607   3.220   3.147
    3OL    C11015250   4.555   3.219   3.348
    3OL    H10R15251   4.612   3.126   3.360
    3OL    C11115252   4.494   3.264   3.478
    3OL    H11R15253   4.392   3.225   3.485
    3OL    H11S15254   4.499   3.373   3.489
    3OL    C11215255   4.582   3.209   3.592
    3OL    H12R15256   4.687   3.222   3.566
    3OL    H12S15257   4.557   3.103   3.581
    3OL    C11315258   4.534   3.261   3.728
    3OL    H13R15259   4.425   3.256   3.731
    3OL    H13S15260   4.568   3.364   3.742
    3OL    C11415261   4.603   3.173   3.833
    3OL    H14R15262   4.711   3.189   3.829
    3OL    H14S15263   4.579   3.068   3.817
    3OL    C11515264   4.550   3.201   3.975
    3OL    H15R15265   4.441   3.207   3.974
    3OL    H15S15266   4.580   3.302   4.003
    3OL    C11615267   4.601   3.090   4.069
    3OL    H16R15268   4.699   3.053   4.040
    3OL    H16S15269   4.526   3.011   4.055
    3OL    C11715270   4.590   3.140   4.213
    3OL    H17R15271   4.576   3.055   4.280
    3OL    H17S15272   4.502   3.205   4.223
    3OL    C11815273   4.724   3.201   4.258
    3OL    H18R15274   4.802   3.128   4.236
    3OL    H18S15275   4.723   3.222   4.365
    3OL    H18T15276   4.748   3.294   4.206
    1PA    C11615277   5.144   6.001   3.964
    1PA    H16R15278   5.170   5.897   3.982
    1PA    H16S15279   5.095   6.033   4.056
    1PA    H16T15280   5.243   6.046   3.954
    1PA    C11515281   5.057   6.030   3.841
    1PA    H15R15282   4.959   5.986   3.862
    1PA    H15S15283   5.045   6.138   3.831
    1PA    C11415284   5.105   5.966   3.710
    1PA    H14R15285   5.166   6.036   3.653
    1PA    H14S15286   5.157   5.870   3.717
    1PA    C11315287   4.982   5.940   3.622
    1PA    H13R15288   4.909   5.878   3.674
    1PA    H13S15289   4.924   6.032   3.614
    1PA    C11215290   5.020   5.873   3.489
    1PA    H12R15291   5.084   5.936   3.426
    1PA    H12S15292   5.076   5.779   3.491
    1PA    C11115293   4.894   5.853   3.403
    1PA    H11R15294   4.826   5.788   3.457
    1PA    H11S15295   4.840   5.947   3.392
    1PA    C11015296   4.925   5.789   3.267
    1PA    H10R15297   5.017   5.837   3.233
    1PA    H10S15298   4.956   5.685   3.285
    1PA     C1915299   4.816   5.798   3.159
    1PA     H9R15300   4.736   5.725   3.173
    1PA     H9S15301   4.764   5.895   3.160
    1PA     C1815302   4.883   5.768   3.024
    1PA     H8R15303   4.958   5.846   3.004
    1PA     H8S15304   4.933   5.671   3.027
    1PA     C1715305   4.778   5.770   2.913
    1PA     H7R15306   4.711   5.688   2.939
    1PA     H7S15307   4.728   5.867   2.922
    1PA     C1615308   4.829   5.741   2.771
    1PA     H6R15309   4.881   5.644   2.775
    1PA     H6S15310   4.744   5.725   2.705
    1PA     C1515311   4.933   5.843   2.721
    1PA     H5R15312   4.884   5.940   2.712
    1PA     H5S15313   5.025   5.850   2.780
    1PA     C1415314   4.974   5.789   2.583
    1PA     H4R15315   5.030   5.696   2.591
    1PA     H4S15316   4.889   5.773   2.516
    1PA     C1315317   5.062   5.886   2.503
    1PA     H3R15318   5.016   5.985   2.491
    1PA     H3S15319   5.157   5.884   2.556
    1PA     C1215320   5.079   5.832   2.360
    1PA     H2R15321   5.126   5.734   2.368
    1PA     H2S15322   4.981   5.841   2.311
    2PC     C1115323   5.179   5.911   2.280
    2PC     O1215324   5.212   6.024   2.308
    2PC     O1115325   5.226   5.835   2.179
    2PC      C115326   5.336   5.883   2.100
    2PC      HR15327   5.306   5.967   2.037
    2PC      HS15328   5.419   5.920   2.161
    2PC      C215329   5.392   5.776   2.005
    2PC      HX15330   5.490   5.805   1.966
    2PC      C315331   5.293   5.743   1.893
    2PC      HA15332   5.204   5.720   1.952
    2PC      HB15333   5.278   5.837   1.840
    2PC     O3115334   5.335   5.634   1.808
    2PC     P3115335   5.241   5.584   1.689
    2PC     O3215336   5.245   5.699   1.578
    2PC     C3115337   5.195   5.680   1.444
    2PC     H1A15338   5.255   5.596   1.408
    2PC     H1B15339   5.087   5.678   1.429
    2PC     C3215340   5.236   5.800   1.357
    2PC     H2A15341   5.215   5.770   1.254
    2PC     H2B15342   5.175   5.887   1.382
    2PC     N3115343   5.377   5.850   1.352
    2PC     C3315344   5.467   5.731   1.353
    2PC     H3A15345   5.570   5.765   1.362
    2PC     H3B15346   5.443   5.673   1.442
    2PC     H3C15347   5.449   5.670   1.264
    2PC     C3415348   5.382   5.925   1.222
    2PC     H4A15349   5.353   6.026   1.249
    2PC     H4B15350   5.479   5.919   1.173
    2PC     H4C15351   5.307   5.883   1.155
    2PC     C3515352   5.409   5.940   1.468
    2PC     H5A15353   5.514   5.970   1.460
    2PC     H5B15354   5.391   5.877   1.555
    2PC     H5C15355   5.344   6.027   1.461
    2PC     O3315356   5.277   5.455   1.626
    2PC     O3415357   5.099   5.564   1.726
    2PC     O2115358   5.417   5.652   2.074
    2PC     C2115359   5.509   5.639   2.171
    2PC     O2215360   5.576   5.731   2.213
    3OL     C1215361   5.517   5.494   2.213
    3OL     H2R15362   5.604   5.447   2.166
    3OL     H2S15363   5.425   5.448   2.176
    3OL     C1315364   5.526   5.485   2.366
    3OL     H3R15365   5.613   5.546   2.392
    3OL     H3S15366   5.552   5.384   2.396
    3OL     C1415367   5.400   5.533   2.440
    3OL     H4R15368   5.305   5.497   2.399
    3OL     H4S15369   5.394   5.642   2.429
    3OL     C1515370   5.400   5.503   2.590
    3OL     H5R15371   5.478   5.556   2.645
    3OL     H5S15372   5.419   5.396   2.596
    3OL     C1615373   5.261   5.530   2.649
    3OL     H6R15374   5.187   5.477   2.588
    3OL     H6S15375   5.247   5.638   2.649
    3OL     C1715376   5.269   5.479   2.794
    3OL     H7R15377   5.358   5.512   2.849
    3OL     H7S15378   5.263   5.371   2.780
    3OL     C1815379   5.145   5.510   2.878
    3OL     H8R15380   5.055   5.480   2.823
    3OL     H8S15381   5.138   5.618   2.888
    3OL     C1915382   5.155   5.463   3.021
    3OL     H9R15383   5.246   5.498   3.071
    3OL    C11015384   5.058   5.401   3.086
    3OL    H10R15385   5.072   5.387   3.193
    3OL    C11115386   4.935   5.344   3.021
    3OL    H11R15387   4.967   5.254   2.968
    3OL    H11S15388   4.888   5.416   2.954
    3OL    C11215389   4.830   5.296   3.123
    3OL    H12R15390   4.872   5.224   3.193
    3OL    H12S15391   4.750   5.247   3.069
    3OL    C11315392   4.765   5.414   3.198
    3OL    H13R15393   4.707   5.478   3.132
    3OL    H13S15394   4.843   5.479   3.238
    3OL    C11415395   4.676   5.364   3.313
    3OL    H14R15396   4.611   5.281   3.287
    3OL    H14S15397   4.612   5.451   3.331
    3OL    C11515398   4.747   5.341   3.447
    3OL    H15R15399   4.834   5.280   3.423
    3OL    H15S15400   4.684   5.280   3.513
    3OL    C11615401   4.791   5.465   3.525
    3OL    H16R15402   4.706   5.531   3.539
    3OL    H16S15403   4.862   5.520   3.462
    3OL    C11715404   4.837   5.437   3.669
    3OL    H17R15405   4.922   5.369   3.667
    3OL    H17S15406   4.771   5.393   3.743
    3OL    C11815407   4.890   5.570   3.725
    3OL    H18R15408   4.976   5.606   3.667
    3OL    H18S15409   4.929   5.559   3.826
    3OL    H18T15410   4.817   5.651   3.725
    1PA    C11615411   5.758   6.973   3.941
    1PA    H16R15412   5.690   6.967   3.856
    1PA    H16S15413   5.836   7.043   3.913
    1PA    H16T15414   5.701   7.004   4.029
    1PA    C11515415   5.793   6.827   3.973
    1PA    H15R15416   5.832   6.826   4.075
    1PA    H15S15417   5.695   6.779   3.962
    1PA    C11415418   5.902   6.778   3.877
    1PA    H14R15419   5.988   6.843   3.896
    1PA    H14S15420   5.923   6.673   3.901
    1PA    C11315421   5.860   6.793   3.730
    1PA    H13R15422   5.753   6.776   3.721
    1PA    H13S15423   5.881   6.898   3.710
    1PA    C11215424   5.944   6.691   3.652
    1PA    H12R15425   6.052   6.703   3.654
    1PA    H12S15426   5.919   6.593   3.695
    1PA    C11115427   5.908   6.683   3.503
    1PA    H11R15428   5.804   6.655   3.487
    1PA    H11S15429   5.927   6.783   3.465
    1PA    C11015430   5.996   6.578   3.433
    1PA    H10R15431   6.101   6.604   3.442
    1PA    H10S15432   5.983   6.475   3.466
    1PA     C1915433   5.968   6.586   3.282
    1PA     H9R15434   5.965   6.693   3.259
    1PA     H9S15435   6.053   6.544   3.227
    1PA     C1815436   5.838   6.525   3.229
    1PA     H8R15437   5.759   6.536   3.303
    1PA     H8S15438   5.803   6.570   3.136
    1PA     C1715439   5.843   6.375   3.197
    1PA     H7R15440   5.924   6.357   3.126
    1PA     H7S15441   5.879   6.324   3.287
    1PA     C1615442   5.707   6.322   3.151
    1PA     H6R15443   5.702   6.214   3.167
    1PA     H6S15444   5.630   6.365   3.215
    1PA     C1515445   5.689   6.351   3.001
    1PA     H5R15446   5.691   6.458   2.980
    1PA     H5S15447   5.783   6.311   2.962
    1PA     C1415448   5.567   6.289   2.931
    1PA     H4R15449   5.573   6.180   2.941
    1PA     H4S15450   5.473   6.324   2.972
    1PA     C1315451   5.566   6.329   2.783
    1PA     H3R15452   5.667   6.317   2.743
    1PA     H3S15453   5.503   6.252   2.737
    1PA     C1215454   5.503   6.466   2.753
    1PA     H2R15455   5.406   6.478   2.803
    1PA     H2S15456   5.554   6.546   2.807
    2PC     C1115457   5.500   6.497   2.605
    2PC     O1215458   5.406   6.467   2.534
    2PC     O1115459   5.610   6.565   2.568
    2PC      C115460   5.643   6.592   2.431
    2PC      HR15461   5.553   6.604   2.371
    2PC      HS15462   5.700   6.685   2.438
    2PC      C215463   5.732   6.483   2.369
    2PC      HX15464   5.813   6.465   2.440
    2PC      C315465   5.784   6.518   2.229
    2PC      HA15466   5.872   6.583   2.237
    2PC      HB15467   5.804   6.432   2.165
    2PC     O3115468   5.690   6.597   2.153
    2PC     P3115469   5.712   6.640   2.001
    2PC     O3215470   5.560   6.651   1.949
    2PC     C3115471   5.494   6.527   1.919
    2PC     H1A15472   5.553   6.471   1.846
    2PC     H1B15473   5.486   6.467   2.010
    2PC     C3215474   5.351   6.562   1.874
    2PC     H2A15475   5.283   6.478   1.885
    2PC     H2B15476   5.314   6.644   1.937
    2PC     N3115477   5.344   6.611   1.732
    2PC     C3315478   5.421   6.738   1.713
    2PC     H3A15479   5.520   6.703   1.681
    2PC     H3B15480   5.376   6.806   1.641
    2PC     H3C15481   5.425   6.787   1.810
    2PC     C3415482   5.392   6.514   1.628
    2PC     H4A15483   5.322   6.431   1.620
    2PC     H4B15484   5.386   6.569   1.533
    2PC     H4C15485   5.496   6.488   1.649
    2PC     C3515486   5.202   6.630   1.688
    2PC     H5A15487   5.146   6.682   1.767
    2PC     H5B15488   5.149   6.540   1.659
    2PC     H5C15489   5.204   6.698   1.603
    2PC     O3315490   5.782   6.769   1.979
    2PC     O3415491   5.790   6.553   1.910
    2PC     O2115492   5.656   6.362   2.360
    2PC     C2115493   5.715   6.242   2.372
    2PC     O2215494   5.824   6.228   2.424
    3OL     C1215495   5.635   6.130   2.312
    3OL     H2R15496   5.680   6.105   2.215
    3OL     H2S15497   5.537   6.174   2.295
    3OL     C1315498   5.624   6.007   2.403
    3OL     H3R15499   5.725   5.968   2.418
    3OL     H3S15500   5.571   5.931   2.347
    3OL     C1415501   5.552   6.039   2.535
    3OL     H4R15502   5.485   6.125   2.529
    3OL     H4S15503   5.629   6.078   2.602
    3OL     C1515504   5.479   5.924   2.605
    3OL     H5R15505   5.551   5.843   2.619
    3OL     H5S15506   5.400   5.877   2.544
    3OL     C1615507   5.430   5.971   2.742
    3OL     H6R15508   5.364   6.056   2.724
    3OL     H6S15509   5.517   6.016   2.792
    3OL     C1715510   5.359   5.863   2.824
    3OL     H7R15511   5.395   5.761   2.808
    3OL     H7S15512   5.252   5.864   2.805
    3OL     C1815513   5.389   5.888   2.973
    3OL     H8R15514   5.489   5.929   2.987
    3OL     H8S15515   5.381   5.791   3.024
    3OL     C1915516   5.287   5.982   3.031
    3OL     H9R15517   5.199   6.000   2.968
    3OL    C11015518   5.304   6.048   3.144
    3OL    H10R15519   5.223   6.110   3.180
    3OL    C11115520   5.415   6.017   3.242
    3OL    H11R15521   5.484   6.102   3.240
    3OL    H11S15522   5.479   5.932   3.217
    3OL    C11215523   5.372   5.998   3.388
    3OL    H12R15524   5.305   5.912   3.390
    3OL    H12S15525   5.309   6.078   3.425
    3OL    C11315526   5.487   5.958   3.482
    3OL    H13R15527   5.563   6.035   3.494
    3OL    H13S15528   5.527   5.858   3.461
    3OL    C11415529   5.433   5.938   3.624
    3OL    H14R15530   5.360   5.857   3.621
    3OL    H14S15531   5.386   6.032   3.653
    3OL    C11515532   5.537   5.895   3.729
    3OL    H15R15533   5.606   5.824   3.682
    3OL    H15S15534   5.485   5.834   3.803
    3OL    C11615535   5.590   6.021   3.799
    3OL    H16R15536   5.496   6.065   3.833
    3OL    H16S15537   5.630   6.095   3.729
    3OL    C11715538   5.694   5.996   3.908
    3OL    H17R15539   5.662   5.909   3.967
    3OL    H17S15540   5.695   6.077   3.982
    3OL    C11815541   5.828   5.959   3.843
    3OL    H18R15542   5.906   5.941   3.918
    3OL    H18S15543   5.850   6.028   3.761
    3OL    H18T15544   5.805   5.864   3.795
    1PA    C11615545   4.674   2.660   3.988
    1PA    H16R15546   4.650   2.693   4.090
    1PA    H16S15547   4.742   2.575   3.987
    1PA    H16T15548   4.582   2.621   3.946
    1PA    C11515549   4.724   2.768   3.890
    1PA    H15R15550   4.643   2.839   3.878
    1PA    H15S15551   4.804   2.828   3.936
    1PA    C11415552   4.764   2.712   3.753
    1PA    H14R15553   4.688   2.639   3.723
    1PA    H14S15554   4.752   2.795   3.682
    1PA    C11315555   4.908   2.659   3.750
    1PA    H13R15556   4.969   2.747   3.770
    1PA    H13S15557   4.915   2.581   3.826
    1PA    C11215558   4.937   2.609   3.608
    1PA    H12R15559   4.882   2.515   3.609
    1PA    H12S15560   4.891   2.674   3.532
    1PA    C11115561   5.085   2.591   3.573
    1PA    H11R15562   5.140   2.683   3.594
    1PA    H11S15563   5.128   2.508   3.630
    1PA    C11015564   5.096   2.559   3.423
    1PA    H10R15565   5.024   2.484   3.390
    1PA    H10S15566   5.059   2.642   3.363
    1PA     C1915567   5.238   2.533   3.372
    1PA     H9R15568   5.299   2.619   3.401
    1PA     H9S15569   5.277   2.442   3.417
    1PA     C1815570   5.253   2.517   3.220
    1PA     H8R15571   5.195   2.440   3.169
    1PA     H8S15572   5.216   2.611   3.176
    1PA     C1715573   5.400   2.521   3.176
    1PA     H7R15574   5.437   2.622   3.190
    1PA     H7S15575   5.455   2.449   3.238
    1PA     C1615576   5.420   2.473   3.032
    1PA     H6R15577   5.520   2.429   3.025
    1PA     H6S15578   5.348   2.396   3.004
    1PA     C1515579   5.392   2.584   2.929
    1PA     H5R15580   5.284   2.596   2.924
    1PA     H5S15581   5.436   2.683   2.948
    1PA     C1415582   5.428   2.535   2.788
    1PA     H4R15583   5.536   2.525   2.778
    1PA     H4S15584   5.375   2.443   2.766
    1PA     C1315585   5.383   2.647   2.693
    1PA     H3R15586   5.350   2.595   2.603
    1PA     H3S15587   5.303   2.705   2.740
    1PA     C1215588   5.499   2.744   2.667
    1PA     H2R15589   5.544   2.796   2.751
    1PA     H2S15590   5.578   2.690   2.612
    2PC     C1115591   5.448   2.855   2.579
    2PC     O1215592   5.502   2.963   2.581
    2PC     O1115593   5.353   2.824   2.489
    2PC      C115594   5.302   2.929   2.405
    2PC      HR15595   5.243   2.995   2.469
    2PC      HS15596   5.378   2.991   2.357
    2PC      C215597   5.213   2.866   2.297
    2PC      HX15598   5.219   2.758   2.308
    2PC      C315599   5.275   2.897   2.160
    2PC      HA15600   5.267   2.998   2.120
    2PC      HB15601   5.376   2.855   2.165
    2PC     O3115602   5.210   2.813   2.062
    2PC     P3115603   5.279   2.804   1.918
    2PC     O3215604   5.194   2.925   1.855
    2PC     C3115605   5.064   2.888   1.805
    2PC     H1A15606   5.079   2.789   1.762
    2PC     H1B15607   4.990   2.880   1.884
    2PC     C3215608   5.014   2.986   1.698
    2PC     H2A15609   4.913   2.956   1.668
    2PC     H2B15610   4.994   3.082   1.744
    2PC     N3115611   5.091   3.009   1.571
    2PC     C3315612   5.122   2.880   1.501
    2PC     H3A15613   5.031   2.820   1.493
    2PC     H3B15614   5.169   2.888   1.404
    2PC     H3C15615   5.191   2.832   1.571
    2PC     C3415616   5.001   3.087   1.480
    2PC     H4A15617   4.918   3.019   1.462
    2PC     H4B15618   4.953   3.162   1.543
    2PC     H4C15619   5.051   3.123   1.390
    2PC     C3515620   5.218   3.084   1.598
    2PC     H5A15621   5.193   3.189   1.617
    2PC     H5B15622   5.277   3.084   1.506
    2PC     H5C15623   5.269   3.032   1.679
    2PC     O3315624   5.425   2.826   1.912
    2PC     O3415625   5.266   2.674   1.849
    2PC     O2115626   5.077   2.915   2.300
    2PC     C2115627   5.001   2.861   2.397
    2PC     O2215628   5.037   2.779   2.478
    3OL     C1215629   4.874   2.943   2.396
    3OL     H2R15630   4.835   2.948   2.294
    3OL     H2S15631   4.883   3.051   2.405
    3OL     C1315632   4.769   2.877   2.486
    3OL     H3R15633   4.809   2.861   2.587
    3OL     H3S15634   4.758   2.770   2.465
    3OL     C1415635   4.632   2.945   2.477
    3OL     H4R15636   4.552   2.876   2.507
    3OL     H4S15637   4.611   2.975   2.374
    3OL     C1515638   4.623   3.058   2.581
    3OL     H5R15639   4.523   3.100   2.567
    3OL     H5S15640   4.705   3.128   2.570
    3OL     C1615641   4.621   3.028   2.732
    3OL     H6R15642   4.599   3.124   2.780
    3OL     H6S15643   4.722   3.007   2.768
    3OL     C1715644   4.520   2.923   2.779
    3OL     H7R15645   4.510   2.844   2.704
    3OL     H7S15646   4.419   2.966   2.782
    3OL     C1815647   4.559   2.874   2.919
    3OL     H8R15648   4.622   2.949   2.965
    3OL     H8S15649   4.601   2.774   2.902
    3OL     C1915650   4.449   2.855   3.021
    3OL     H9R15651   4.471   2.917   3.108
    3OL    C11015652   4.355   2.764   3.040
    3OL    H10R15653   4.299   2.760   3.133
    3OL    C11115654   4.323   2.655   2.942
    3OL    H11R15655   4.394   2.654   2.859
    3OL    H11S15656   4.224   2.668   2.896
    3OL    C11215657   4.347   2.515   3.001
    3OL    H12R15658   4.447   2.524   3.044
    3OL    H12S15659   4.349   2.447   2.916
    3OL    C11315660   4.249   2.463   3.107
    3OL    H13R15661   4.152   2.441   3.061
    3OL    H13S15662   4.235   2.551   3.170
    3OL    C11415663   4.308   2.344   3.184
    3OL    H14R15664   4.404   2.355   3.235
    3OL    H14S15665   4.318   2.265   3.110
    3OL    C11515666   4.207   2.291   3.287
    3OL    H15R15667   4.111   2.277   3.238
    3OL    H15S15668   4.199   2.369   3.363
    3OL    C11615669   4.260   2.158   3.343
    3OL    H16R15670   4.364   2.171   3.376
    3OL    H16S15671   4.269   2.079   3.268
    3OL    C11715672   4.180   2.091   3.456
    3OL    H17R15673   4.172   2.160   3.540
    3OL    H17S15674   4.239   2.010   3.500
    3OL    C11815675   4.044   2.031   3.418
    3OL    H18R15676   4.058   1.939   3.361
    3OL    H18S15677   3.980   2.100   3.363
    3OL    H18T15678   3.990   2.010   3.511
    1PA    C11615679   1.301   5.444   4.208
    1PA    H16R15680   1.313   5.418   4.103
    1PA    H16S15681   1.208   5.406   4.251
    1PA    H16T15682   1.375   5.401   4.275
    1PA    C11515683   1.309   5.597   4.211
    1PA    H15R15684   1.302   5.634   4.314
    1PA    H15S15685   1.413   5.625   4.195
    1PA    C11415686   1.216   5.677   4.119
    1PA    H14R15687   1.116   5.633   4.116
    1PA    H14S15688   1.196   5.772   4.168
    1PA    C11315689   1.277   5.688   3.978
    1PA    H13R15690   1.367   5.750   3.971
    1PA    H13S15691   1.305   5.591   3.938
    1PA    C11215692   1.171   5.754   3.890
    1PA    H12R15693   1.085   5.687   3.894
    1PA    H12S15694   1.142   5.848   3.939
    1PA    C11115695   1.219   5.784   3.747
    1PA    H11R15696   1.315   5.836   3.740
    1PA    H11S15697   1.232   5.691   3.691
    1PA    C11015698   1.106   5.864   3.681
    1PA    H10R15699   1.010   5.811   3.679
    1PA    H10S15700   1.091   5.960   3.732
    1PA     C1915701   1.145   5.903   3.538
    1PA     H9R15702   1.242   5.953   3.536
    1PA     H9S15703   1.157   5.815   3.474
    1PA     C1815704   1.041   5.994   3.472
    1PA     H8R15705   0.946   5.941   3.479
    1PA     H8S15706   1.023   6.081   3.536
    1PA     C1715707   1.068   6.038   3.328
    1PA     H7R15708   1.163   6.092   3.331
    1PA     H7S15709   1.076   5.951   3.262
    1PA     C1615710   0.949   6.119   3.274
    1PA     H6R15711   0.860   6.058   3.291
    1PA     H6S15712   0.938   6.211   3.332
    1PA     C1515713   0.965   6.160   3.127
    1PA     H5R15714   0.990   6.069   3.074
    1PA     H5S15715   0.882   6.217   3.083
    1PA     C1415716   1.087   6.250   3.105
    1PA     H4R15717   1.082   6.330   3.180
    1PA     H4S15718   1.179   6.194   3.127
    1PA     C1315719   1.114   6.290   2.959
    1PA     H3R15720   1.133   6.199   2.901
    1PA     H3S15721   1.029   6.335   2.907
    1PA     C1215722   1.243   6.372   2.962
    1PA     H2R15723   1.230   6.460   3.026
    1PA     H2S15724   1.322   6.316   3.013
    2PC     C1115725   1.296   6.420   2.829
    2PC     O1215726   1.412   6.414   2.795
    2PC     O1115727   1.202   6.474   2.750
    2PC      C115728   1.236   6.528   2.621
    2PC      HR15729   1.291   6.621   2.635
    2PC      HS15730   1.293   6.460   2.557
    2PC      C215731   1.108   6.555   2.541
    2PC      HX15732   1.028   6.490   2.578
    2PC      C315733   1.129   6.539   2.390
    2PC      HA15734   1.145   6.433   2.368
    2PC      HB15735   1.035   6.561   2.339
    2PC     O3115736   1.237   6.623   2.344
    2PC     P3115737   1.297   6.599   2.197
    2PC     O3215738   1.411   6.709   2.177
    2PC     C3115739   1.550   6.678   2.196
    2PC     H1A15740   1.561   6.614   2.284
    2PC     H1B15741   1.577   6.615   2.111
    2PC     C3215742   1.642   6.801   2.196
    2PC     H2A15743   1.601   6.873   2.267
    2PC     H2B15744   1.740   6.766   2.227
    2PC     N3115745   1.661   6.873   2.066
    2PC     C3315746   1.704   6.784   1.954
    2PC     H3A15747   1.740   6.851   1.876
    2PC     H3B15748   1.787   6.727   1.997
    2PC     H3C15749   1.618   6.727   1.916
    2PC     C3415750   1.534   6.947   2.037
    2PC     H4A15751   1.452   6.876   2.025
    2PC     H4B15752   1.518   7.015   2.121
    2PC     H4C15753   1.548   7.010   1.948
    2PC     C3515754   1.768   6.975   2.090
    2PC     H5A15755   1.762   7.046   2.007
    2PC     H5B15756   1.863   6.921   2.095
    2PC     H5C15757   1.751   7.022   2.187
    2PC     O3315758   1.335   6.456   2.185
    2PC     O3415759   1.187   6.624   2.101
    2PC     O2115760   1.072   6.692   2.570
    2PC     C2115761   0.953   6.740   2.531
    2PC     O2215762   0.854   6.685   2.488
    3OL     C1215763   0.952   6.888   2.561
    3OL     H2R15764   0.862   6.919   2.506
    3OL     H2S15765   1.042   6.923   2.510
    3OL     C1315766   0.944   6.917   2.711
    3OL     H3R15767   0.956   7.026   2.719
    3OL     H3S15768   1.030   6.871   2.759
    3OL     C1415769   0.817   6.863   2.779
    3OL     H4R15770   0.807   6.756   2.761
    3OL     H4S15771   0.734   6.909   2.724
    3OL     C1515772   0.806   6.911   2.925
    3OL     H5R15773   0.705   6.894   2.963
    3OL     H5S15774   0.840   7.014   2.936
    3OL     C1615775   0.888   6.809   3.006
    3OL     H6R15776   0.996   6.808   2.987
    3OL     H6S15777   0.864   6.708   2.976
    3OL     C1715778   0.870   6.825   3.158
    3OL     H7R15779   0.765   6.819   3.190
    3OL     H7S15780   0.921   6.914   3.196
    3OL     C1815781   0.933   6.698   3.218
    3OL     H8R15782   1.038   6.700   3.187
    3OL     H8S15783   0.881   6.619   3.164
    3OL     C1915784   0.913   6.687   3.367
    3OL     H9R15785   0.812   6.711   3.402
    3OL    C11015786   1.010   6.666   3.455
    3OL    H10R15787   0.976   6.656   3.557
    3OL    C11115788   1.153   6.623   3.434
    3OL    H11R15789   1.212   6.698   3.488
    3OL    H11S15790   1.180   6.614   3.329
    3OL    C11215791   1.167   6.489   3.507
    3OL    H12R15792   1.090   6.424   3.465
    3OL    H12S15793   1.137   6.497   3.611
    3OL    C11315794   1.300   6.415   3.486
    3OL    H13R15795   1.382   6.474   3.528
    3OL    H13S15796   1.319   6.404   3.379
    3OL    C11415797   1.312   6.283   3.562
    3OL    H14R15798   1.402   6.230   3.530
    3OL    H14S15799   1.220   6.232   3.533
    3OL    C11515800   1.324   6.306   3.713
    3OL    H15R15801   1.228   6.347   3.743
    3OL    H15S15802   1.407   6.373   3.737
    3OL    C11615803   1.330   6.171   3.786
    3OL    H16R15804   1.397   6.105   3.731
    3OL    H16S15805   1.229   6.131   3.789
    3OL    C11715806   1.370   6.196   3.932
    3OL    H17R15807   1.303   6.265   3.984
    3OL    H17S15808   1.473   6.228   3.949
    3OL    C11815809   1.346   6.064   4.007
    3OL    H18R15810   1.369   6.069   4.114
    3OL    H18S15811   1.401   5.982   3.960
    3OL    H18T15812   1.244   6.025   4.004
    1PA    C11615813   1.664   4.646   4.028
    1PA    H16R15814   1.752   4.665   4.090
    1PA    H16S15815   1.678   4.577   3.944
    1PA    H16T15816   1.586   4.601   4.090
    1PA    C11515817   1.612   4.784   3.984
    1PA    H15R15818   1.519   4.784   3.928
    1PA    H15S15819   1.582   4.843   4.071
    1PA    C11415820   1.720   4.865   3.911
    1PA    H14R15821   1.785   4.906   3.989
    1PA    H14S15822   1.789   4.802   3.853
    1PA    C11315823   1.647   4.976   3.835
    1PA    H13R15824   1.589   4.931   3.754
    1PA    H13S15825   1.575   5.028   3.898
    1PA    C11215826   1.753   5.071   3.778
    1PA    H12R15827   1.816   5.111   3.858
    1PA    H12S15828   1.824   5.013   3.718
    1PA    C11115829   1.693   5.196   3.714
    1PA    H11R15830   1.612   5.231   3.780
    1PA    H11S15831   1.764   5.278   3.724
    1PA    C11015832   1.635   5.188   3.572
    1PA    H10R15833   1.578   5.095   3.564
    1PA    H10S15834   1.561   5.268   3.562
    1PA     C1915835   1.753   5.213   3.477
    1PA     H9R15836   1.801   5.304   3.515
    1PA     H9S15837   1.833   5.139   3.470
    1PA     C1815838   1.700   5.249   3.338
    1PA     H8R15839   1.621   5.178   3.311
    1PA     H8S15840   1.650   5.346   3.343
    1PA     C1715841   1.814   5.247   3.236
    1PA     H7R15842   1.877   5.329   3.271
    1PA     H7S15843   1.867   5.152   3.242
    1PA     C1615844   1.767   5.272   3.092
    1PA     H6R15845   1.695   5.194   3.067
    1PA     H6S15846   1.735   5.376   3.079
    1PA     C1515847   1.885   5.247   2.997
    1PA     H5R15848   1.970   5.315   2.999
    1PA     H5S15849   1.954   5.163   3.008
    1PA     C1415850   1.842   5.230   2.850
    1PA     H4R15851   1.768   5.152   2.832
    1PA     H4S15852   1.791   5.320   2.814
    1PA     C1315853   1.960   5.219   2.753
    1PA     H3R15854   2.015   5.313   2.758
    1PA     H3S15855   2.037   5.144   2.774
    1PA     C1215856   1.929   5.198   2.604
    1PA     H2R15857   1.930   5.089   2.595
    1PA     H2S15858   1.832   5.245   2.587
    2PC     C1115859   2.038   5.249   2.514
    2PC     O1215860   2.155   5.230   2.542
    2PC     O1115861   1.984   5.313   2.409
    2PC      C115862   2.073   5.360   2.307
    2PC      HR15863   2.118   5.452   2.345
    2PC      HS15864   2.156   5.291   2.288
    2PC      C215865   1.988   5.400   2.186
    2PC      HX15866   1.901   5.334   2.185
    2PC      C315867   2.062   5.415   2.052
    2PC      HA15868   2.103   5.517   2.056
    2PC      HB15869   2.150   5.352   2.039
    2PC     O3115870   1.961   5.398   1.951
    2PC     P3115871   2.005   5.402   1.797
    2PC     O3215872   1.967   5.253   1.753
    2PC     C3115873   2.032   5.145   1.823
    2PC     H1A15874   2.141   5.154   1.817
    2PC     H1B15875   1.990   5.139   1.923
    2PC     C3215876   1.993   5.019   1.744
    2PC     H2A15877   2.025   4.929   1.796
    2PC     H2B15878   1.884   5.012   1.736
    2PC     N3115879   2.043   5.004   1.604
    2PC     C3315880   2.017   4.864   1.555
    2PC     H3A15881   2.071   4.860   1.461
    2PC     H3B15882   2.064   4.786   1.615
    2PC     H3C15883   1.908   4.861   1.549
    2PC     C3415884   1.991   5.099   1.500
    2PC     H4A15885   2.006   5.203   1.529
    2PC     H4B15886   2.041   5.075   1.405
    2PC     H4C15887   1.884   5.082   1.491
    2PC     C3515888   2.192   5.016   1.602
    2PC     H5A15889   2.232   4.950   1.678
    2PC     H5B15890   2.220   5.120   1.621
    2PC     H5C15891   2.231   4.988   1.504
    2PC     O3315892   1.935   5.513   1.730
    2PC     O3415893   2.150   5.433   1.790
    2PC     O2115894   1.938   5.532   2.214
    2PC     C2115895   1.818   5.543   2.272
    2PC     O2215896   1.738   5.457   2.307
    3OL     C1215897   1.796   5.689   2.302
    3OL     H2R15898   1.752   5.747   2.221
    3OL     H2S15899   1.891   5.742   2.310
    3OL     C1315900   1.722   5.719   2.433
    3OL     H3R15901   1.626   5.669   2.443
    3OL     H3S15902   1.693   5.824   2.431
    3OL     C1415903   1.805   5.690   2.559
    3OL     H4R15904   1.908   5.727   2.560
    3OL     H4S15905   1.814   5.581   2.560
    3OL     C1515906   1.736   5.723   2.692
    3OL     H5R15907   1.634   5.687   2.681
    3OL     H5S15908   1.746   5.831   2.706
    3OL     C1615909   1.798   5.648   2.811
    3OL     H6R15910   1.905   5.670   2.811
    3OL     H6S15911   1.779   5.541   2.799
    3OL     C1715912   1.730   5.691   2.942
    3OL     H7R15913   1.756   5.620   3.020
    3OL     H7S15914   1.621   5.689   2.938
    3OL     C1815915   1.777   5.831   2.984
    3OL     H8R15916   1.727   5.863   3.076
    3OL     H8S15917   1.756   5.900   2.902
    3OL     C1915918   1.925   5.842   3.008
    3OL     H9R15919   1.992   5.868   2.926
    3OL    C11015920   1.992   5.825   3.121
    3OL    H10R15921   2.100   5.837   3.117
    3OL    C11115922   1.927   5.785   3.251
    3OL    H11R15923   1.832   5.732   3.238
    3OL    H11S15924   1.899   5.872   3.309
    3OL    C11215925   2.019   5.694   3.334
    3OL    H12R15926   2.109   5.751   3.359
    3OL    H12S15927   2.041   5.603   3.278
    3OL    C11315928   1.954   5.648   3.465
    3OL    H13R15929   1.858   5.598   3.449
    3OL    H13S15930   1.936   5.733   3.532
    3OL    C11415931   2.053   5.559   3.541
    3OL    H14R15932   2.147   5.612   3.557
    3OL    H14S15933   2.077   5.472   3.479
    3OL    C11515934   2.007   5.496   3.673
    3OL    H15R15935   1.914   5.438   3.665
    3OL    H15S15936   1.994   5.574   3.748
    3OL    C11615937   2.109   5.394   3.725
    3OL    H16R15938   2.093   5.387   3.833
    3OL    H16S15939   2.213   5.426   3.718
    3OL    C11715940   2.095   5.259   3.653
    3OL    H17R15941   2.082   5.264   3.545
    3OL    H17S15942   2.000   5.222   3.693
    3OL    C11815943   2.203   5.157   3.693
    3OL    H18R15944   2.168   5.055   3.675
    3OL    H18S15945   2.219   5.170   3.800
    3OL    H18T15946   2.299   5.176   3.644
    1PA    C11615947   4.219   5.647   3.575
    1PA    H16R15948   4.116   5.678   3.594
    1PA    H16S15949   4.238   5.665   3.469
    1PA    H16T15950   4.291   5.713   3.623
    1PA    C11515951   4.237   5.499   3.611
    1PA    H15R15952   4.218   5.486   3.717
    1PA    H15S15953   4.178   5.443   3.538
    1PA    C11415954   4.384   5.464   3.584
    1PA    H14R15955   4.403   5.459   3.476
    1PA    H14S15956   4.445   5.545   3.624
    1PA    C11315957   4.420   5.335   3.658
    1PA    H13R15958   4.528   5.317   3.660
    1PA    H13S15959   4.395   5.348   3.763
    1PA    C11215960   4.348   5.207   3.612
    1PA    H12R15961   4.358   5.123   3.681
    1PA    H12S15962   4.240   5.219   3.599
    1PA    C11115963   4.414   5.153   3.485
    1PA    H11R15964   4.396   5.218   3.399
    1PA    H11S15965   4.522   5.149   3.496
    1PA    C11015966   4.358   5.014   3.449
    1PA    H10R15967   4.415   4.942   3.507
    1PA    H10S15968   4.249   5.010   3.461
    1PA     C1915969   4.383   4.984   3.301
    1PA     H9R15970   4.334   4.891   3.273
    1PA     H9S15971   4.350   5.062   3.231
    1PA     C1815972   4.531   4.958   3.272
    1PA     H8R15973   4.584   5.043   3.317
    1PA     H8S15974   4.572   4.867   3.317
    1PA     C1715975   4.566   4.937   3.124
    1PA     H7R15976   4.514   4.855   3.074
    1PA     H7S15977   4.539   5.032   3.077
    1PA     C1615978   4.717   4.936   3.100
    1PA     H6R15979   4.756   5.034   3.128
    1PA     H6S15980   4.764   4.862   3.165
    1PA     C1515981   4.752   4.910   2.952
    1PA     H5R15982   4.861   4.912   2.951
    1PA     H5S15983   4.719   4.809   2.928
    1PA     C1415984   4.702   5.018   2.855
    1PA     H4R15985   4.598   5.050   2.870
    1PA     H4S15986   4.756   5.111   2.873
    1PA     C1315987   4.719   4.986   2.706
    1PA     H3R15988   4.658   4.900   2.677
    1PA     H3S15989   4.688   5.079   2.657
    1PA     C1215990   4.864   4.956   2.667
    1PA     H2R15991   4.934   5.037   2.689
    1PA     H2S15992   4.893   4.868   2.726
    2PC     C1115993   4.882   4.908   2.525
    2PC     O1215994   4.784   4.896   2.454
    2PC     O1115995   5.008   4.892   2.483
    2PC      C115996   5.025   4.864   2.343
    2PC      HR15997   5.120   4.812   2.329
    2PC      HS15998   4.944   4.803   2.303
    2PC      C215999   5.020   4.995   2.263
    2PC      HX16000   4.937   5.061   2.289
    2PC      C316001   5.014   4.963   2.113
    2PC      HA16002   5.103   4.912   2.076
    2PC      HB16003   4.930   4.896   2.091
    2PC     O3116004   4.995   5.087   2.043
    2PC     P3116005   4.927   5.091   1.898
    2PC     O3216006   4.785   5.162   1.916
    2PC     C3116007   4.674   5.079   1.953
    2PC     H1A16008   4.654   5.014   1.867
    2PC     H1B16009   4.701   5.011   2.035
    2PC     C3216010   4.549   5.161   1.988
    2PC     H2A16011   4.465   5.098   2.016
    2PC     H2B16012   4.590   5.222   2.069
    2PC     N3116013   4.498   5.257   1.884
    2PC     C3316014   4.460   5.179   1.762
    2PC     H3A16015   4.548   5.135   1.715
    2PC     H3B16016   4.414   5.086   1.796
    2PC     H3C16017   4.398   5.240   1.697
    2PC     C3416018   4.378   5.326   1.942
    2PC     H4A16019   4.299   5.252   1.932
    2PC     H4B16020   4.403   5.352   2.045
    2PC     H4C16021   4.357   5.418   1.887
    2PC     C3516022   4.595   5.368   1.856
    2PC     H5A16023   4.684   5.322   1.813
    2PC     H5B16024   4.620   5.419   1.949
    2PC     H5C16025   4.564   5.447   1.788
    2PC     O3316026   5.019   5.165   1.809
    2PC     O3416027   4.907   4.959   1.833
    2PC     O2116028   5.145   5.062   2.290
    2PC     C2116029   5.157   5.143   2.397
    2PC     O2216030   5.062   5.185   2.461
    3OL     C1216031   5.303   5.172   2.421
    3OL     H2R16032   5.308   5.252   2.494
    3OL     H2S16033   5.342   5.217   2.330
    3OL     C1316034   5.388   5.050   2.459
    3OL     H3R16035   5.491   5.083   2.448
    3OL     H3S16036   5.370   4.975   2.381
    3OL     C1416037   5.358   4.994   2.599
    3OL     H4R16038   5.261   4.943   2.600
    3OL     H4S16039   5.333   5.075   2.667
    3OL     C1516040   5.469   4.912   2.667
    3OL     H5R16041   5.525   4.857   2.592
    3OL     H5S16042   5.419   4.844   2.737
    3OL     C1616043   5.567   4.999   2.748
    3OL     H6R16044   5.516   5.061   2.822
    3OL     H6S16045   5.604   5.059   2.665
    3OL     C1716046   5.676   4.913   2.814
    3OL     H7R16047   5.760   4.975   2.842
    3OL     H7S16048   5.716   4.845   2.738
    3OL     C1816049   5.637   4.834   2.939
    3OL     H8R16050   5.696   4.742   2.938
    3OL     H8S16051   5.536   4.792   2.928
    3OL     C1916052   5.663   4.904   3.070
    3OL     H9R16053   5.766   4.904   3.104
    3OL    C11016054   5.568   4.961   3.143
    3OL    H10R16055   5.594   5.001   3.240
    3OL    C11116056   5.421   4.956   3.110
    3OL    H11R16057   5.372   4.887   3.179
    3OL    H11S16058   5.408   4.915   3.009
    3OL    C11216059   5.349   5.089   3.134
    3OL    H12R16060   5.245   5.073   3.105
    3OL    H12S16061   5.407   5.154   3.067
    3OL    C11316062   5.373   5.136   3.278
    3OL    H13R16063   5.478   5.159   3.298
    3OL    H13S16064   5.352   5.053   3.345
    3OL    C11416065   5.286   5.261   3.297
    3OL    H14R16066   5.188   5.259   3.249
    3OL    H14S16067   5.348   5.335   3.246
    3OL    C11516068   5.280   5.313   3.441
    3OL    H15R16069   5.364   5.299   3.508
    3OL    H15S16070   5.201   5.256   3.491
    3OL    C11616071   5.233   5.459   3.445
    3OL    H16R16072   5.202   5.473   3.550
    3OL    H16S16073   5.141   5.475   3.388
    3OL    C11716074   5.335   5.570   3.414
    3OL    H17R16075   5.287   5.668   3.411
    3OL    H17S16076   5.364   5.560   3.309
    3OL    C11816077   5.462   5.570   3.501
    3OL    H18R16078   5.504   5.471   3.481
    3OL    H18S16079   5.445   5.582   3.608
    3OL    H18T16080   5.531   5.651   3.479
    1PA    C11616081  -0.150   1.877   3.965
    1PA    H16R16082  -0.109   1.777   3.981
    1PA    H16S16083  -0.251   1.893   4.005
    1PA    H16T16084  -0.090   1.948   4.023
    1PA    C11516085  -0.143   1.915   3.817
    1PA    H15R16086  -0.198   1.847   3.751
    1PA    H15S16087  -0.186   2.015   3.812
    1PA    C11416088   0.002   1.913   3.766
    1PA    H14R16089   0.052   1.987   3.828
    1PA    H14S16090   0.048   1.815   3.780
    1PA    C11316091  -0.003   1.952   3.618
    1PA    H13R16092  -0.095   2.010   3.612
    1PA    H13S16093   0.094   2.001   3.604
    1PA    C11216094  -0.015   1.825   3.532
    1PA    H12R16095   0.085   1.782   3.530
    1PA    H12S16096  -0.089   1.758   3.576
    1PA    C11116097  -0.043   1.843   3.382
    1PA    H11R16098  -0.045   1.747   3.332
    1PA    H11S16099  -0.144   1.885   3.371
    1PA    C11016100   0.056   1.933   3.307
    1PA    H10R16101   0.068   2.036   3.342
    1PA    H10S16102   0.155   1.888   3.312
    1PA     C1916103   0.012   1.923   3.160
    1PA     H9R16104   0.008   1.818   3.128
    1PA     H9S16105  -0.089   1.962   3.144
    1PA     C1816106   0.107   2.001   3.069
    1PA     H8R16107   0.079   2.105   3.049
    1PA     H8S16108   0.201   2.002   3.123
    1PA     C1716109   0.118   1.946   2.926
    1PA     H7R16110   0.176   1.855   2.911
    1PA     H7S16111   0.016   1.926   2.893
    1PA     C1616112   0.182   2.044   2.826
    1PA     H6R16113   0.101   2.116   2.818
    1PA     H6S16114   0.269   2.097   2.866
    1PA     C1516115   0.206   1.989   2.685
    1PA     H5R16116   0.134   1.914   2.653
    1PA     H5S16117   0.209   2.074   2.616
    1PA     C1416118   0.352   1.941   2.680
    1PA     H4R16119   0.418   2.018   2.721
    1PA     H4S16120   0.363   1.844   2.729
    1PA     C1316121   0.395   1.912   2.535
    1PA     H3R16122   0.312   1.868   2.479
    1PA     H3S16123   0.425   2.009   2.495
    1PA     C1216124   0.511   1.813   2.525
    1PA     H2R16125   0.589   1.858   2.587
    1PA     H2S16126   0.478   1.722   2.575
    2PC     C1116127   0.557   1.802   2.382
    2PC     O1216128   0.485   1.838   2.291
    2PC     O1116129   0.677   1.743   2.369
    2PC      C116130   0.723   1.703   2.239
    2PC      HR16131   0.649   1.635   2.196
    2PC      HS16132   0.726   1.792   2.175
    2PC      C216133   0.860   1.632   2.240
    2PC      HX16134   0.928   1.708   2.280
    2PC      C316135   0.908   1.580   2.104
    2PC      HA16136   0.916   1.666   2.037
    2PC      HB16137   1.011   1.543   2.106
    2PC     O3116138   0.815   1.486   2.046
    2PC     P3116139   0.849   1.421   1.903
    2PC     O3216140   0.836   1.546   1.803
    2PC     C3116141   0.942   1.582   1.711
    2PC     H1A16142   1.022   1.631   1.766
    2PC     H1B16143   0.976   1.494   1.655
    2PC     C3216144   0.881   1.677   1.608
    2PC     H2A16145   0.789   1.644   1.556
    2PC     H2B16146   0.852   1.773   1.651
    2PC     N3116147   0.969   1.722   1.495
    2PC     C3316148   1.007   1.607   1.406
    2PC     H3A16149   1.050   1.658   1.320
    2PC     H3B16150   1.085   1.544   1.448
    2PC     H3C16151   0.913   1.556   1.384
    2PC     C3416152   0.896   1.827   1.418
    2PC     H4A16153   0.953   1.861   1.331
    2PC     H4B16154   0.796   1.787   1.399
    2PC     H4C16155   0.884   1.918   1.477
    2PC     C3516156   1.093   1.789   1.548
    2PC     H5A16157   1.077   1.860   1.628
    2PC     H5B16158   1.154   1.830   1.468
    2PC     H5C16159   1.147   1.703   1.587
    2PC     O3316160   0.983   1.359   1.917
    2PC     O3416161   0.756   1.308   1.882
    2PC     O2116162   0.851   1.518   2.327
    2PC     C2116163   0.970   1.471   2.369
    2PC     O2216164   1.080   1.513   2.344
    3OL     C1216165   0.949   1.351   2.458
    3OL     H2R16166   0.904   1.264   2.409
    3OL     H2S16167   0.870   1.370   2.531
    3OL     C1316168   1.075   1.311   2.536
    3OL     H3R16169   1.110   1.398   2.591
    3OL     H3S16170   1.147   1.282   2.459
    3OL     C1416171   1.055   1.203   2.643
    3OL     H4R16172   0.975   1.129   2.631
    3OL     H4S16173   1.037   1.254   2.738
    3OL     C1516174   1.188   1.130   2.668
    3OL     H5R16175   1.267   1.199   2.700
    3OL     H5S16176   1.210   1.083   2.572
    3OL     C1616177   1.170   1.011   2.762
    3OL     H6R16178   1.085   0.946   2.740
    3OL     H6S16179   1.157   1.033   2.868
    3OL     C1716180   1.297   0.925   2.768
    3OL     H7R16181   1.386   0.987   2.768
    3OL     H7S16182   1.296   0.871   2.672
    3OL     C1816183   1.306   0.824   2.884
    3OL     H8R16184   1.311   0.887   2.973
    3OL     H8S16185   1.393   0.758   2.875
    3OL     C1916186   1.188   0.733   2.908
    3OL     H9R16187   1.104   0.769   2.849
    3OL    C11016188   1.177   0.643   3.004
    3OL    H10R16189   1.082   0.593   3.021
    3OL    C11116190   1.280   0.584   3.098
    3OL    H11R16191   1.377   0.599   3.049
    3OL    H11S16192   1.253   0.479   3.094
    3OL    C11216193   1.274   0.659   3.232
    3OL    H12R16194   1.175   0.646   3.274
    3OL    H12S16195   1.288   0.767   3.226
    3OL    C11316196   1.368   0.598   3.337
    3OL    H13R16197   1.358   0.489   3.328
    3OL    H13S16198   1.335   0.623   3.438
    3OL    C11416199   1.511   0.651   3.315
    3OL    H14R16200   1.512   0.760   3.304
    3OL    H14S16201   1.555   0.611   3.224
    3OL    C11516202   1.603   0.609   3.430
    3OL    H15R16203   1.602   0.504   3.459
    3OL    H15S16204   1.578   0.672   3.516
    3OL    C11616205   1.752   0.640   3.408
    3OL    H16R16206   1.800   0.636   3.506
    3OL    H16S16207   1.766   0.743   3.376
    3OL    C11716208   1.821   0.538   3.317
    3OL    H17R16209   1.763   0.536   3.225
    3OL    H17S16210   1.818   0.446   3.376
    3OL    C11816211   1.969   0.574   3.292
    3OL    H18R16212   1.968   0.677   3.256
    3OL    H18S16213   2.001   0.510   3.210
    3OL    H18T16214   2.033   0.562   3.380
    1PA    C11616215   3.438   5.388   4.008
    1PA    H16R16216   3.414   5.487   4.049
    1PA    H16S16217   3.483   5.401   3.909
    1PA    H16T16218   3.510   5.343   4.078
    1PA    C11516219   3.309   5.306   4.009
    1PA    H15R16220   3.320   5.207   3.965
    1PA    H15S16221   3.271   5.292   4.111
    1PA    C11416222   3.202   5.374   3.923
    1PA    H14R16223   3.110   5.320   3.946
    1PA    H14S16224   3.187   5.478   3.953
    1PA    C11316225   3.223   5.354   3.772
    1PA    H13R16226   3.323   5.388   3.745
    1PA    H13S16227   3.201   5.255   3.733
    1PA    C11216228   3.118   5.442   3.703
    1PA    H12R16229   3.016   5.410   3.726
    1PA    H12S16230   3.128   5.546   3.736
    1PA    C11116231   3.127   5.440   3.550
    1PA    H11R16232   3.138   5.335   3.521
    1PA    H11S16233   3.034   5.480   3.508
    1PA    C11016234   3.242   5.514   3.480
    1PA    H10R16235   3.337   5.475   3.516
    1PA    H10S16236   3.229   5.499   3.373
    1PA     C1916237   3.231   5.666   3.499
    1PA     H9R16238   3.128   5.702   3.487
    1PA     H9S16239   3.257   5.697   3.601
    1PA     C1816240   3.334   5.742   3.414
    1PA     H8R16241   3.348   5.845   3.449
    1PA     H8S16242   3.428   5.687   3.417
    1PA     C1716243   3.288   5.753   3.268
    1PA     H7R16244   3.187   5.713   3.253
    1PA     H7S16245   3.274   5.858   3.244
    1PA     C1616246   3.386   5.701   3.162
    1PA     H6R16247   3.478   5.759   3.174
    1PA     H6S16248   3.400   5.594   3.176
    1PA     C1516249   3.347   5.731   3.017
    1PA     H5R16250   3.262   5.675   2.977
    1PA     H5S16251   3.316   5.835   3.006
    1PA     C1416252   3.473   5.709   2.931
    1PA     H4R16253   3.555   5.770   2.967
    1PA     H4S16254   3.504   5.604   2.928
    1PA     C1316255   3.451   5.755   2.787
    1PA     H3R16256   3.379   5.691   2.736
    1PA     H3S16257   3.417   5.859   2.796
    1PA     C1216258   3.583   5.747   2.709
    1PA     H2R16259   3.645   5.820   2.761
    1PA     H2S16260   3.630   5.648   2.719
    2PC     C1116261   3.566   5.773   2.562
    2PC     O1216262   3.636   5.732   2.471
    2PC     O1116263   3.470   5.864   2.539
    2PC      C116264   3.428   5.914   2.410
    2PC      HR16265   3.399   6.019   2.420
    2PC      HS16266   3.510   5.912   2.338
    2PC      C216267   3.309   5.828   2.365
    2PC      HX16268   3.336   5.722   2.360
    2PC      C316269   3.251   5.873   2.231
    2PC      HA16270   3.189   5.960   2.251
    2PC      HB16271   3.333   5.897   2.162
    2PC     O3116272   3.168   5.763   2.190
    2PC     P3116273   3.078   5.790   2.060
    2PC     O3216274   2.942   5.849   2.119
    2PC     C3116275   2.843   5.762   2.177
    2PC     H1A16276   2.820   5.685   2.103
    2PC     H1B16277   2.897   5.718   2.261
    2PC     C3216278   2.715   5.838   2.213
    2PC     H2A16279   2.646   5.779   2.273
    2PC     H2B16280   2.740   5.918   2.283
    2PC     N3116281   2.637   5.892   2.096
    2PC     C3316282   2.602   5.781   2.002
    2PC     H3A16283   2.686   5.770   1.932
    2PC     H3B16284   2.580   5.693   2.063
    2PC     H3C16285   2.514   5.812   1.946
    2PC     C3416286   2.506   5.947   2.143
    2PC     H4A16287   2.466   6.001   2.057
    2PC     H4B16288   2.436   5.865   2.159
    2PC     H4C16289   2.538   6.013   2.224
    2PC     C3516290   2.689   6.009   2.019
    2PC     H5A16291   2.784   5.975   1.977
    2PC     H5B16292   2.716   6.084   2.094
    2PC     H5C16293   2.611   6.040   1.949
    2PC     O3316294   3.146   5.881   1.965
    2PC     O3416295   3.050   5.679   1.966
    2PC     O2116296   3.199   5.853   2.454
    2PC     C2116297   3.129   5.750   2.504
    2PC     O2216298   3.178   5.639   2.503
    3OL     C1216299   2.993   5.786   2.558
    3OL     H2R16300   2.915   5.779   2.482
    3OL     H2S16301   2.993   5.893   2.580
    3OL     C1316302   2.963   5.704   2.684
    3OL     H3R16303   3.037   5.727   2.762
    3OL     H3S16304   2.966   5.599   2.657
    3OL     C1416305   2.823   5.727   2.741
    3OL     H4R16306   2.749   5.693   2.667
    3OL     H4S16307   2.806   5.832   2.766
    3OL     C1516308   2.807   5.643   2.868
    3OL     H5R16309   2.884   5.666   2.943
    3OL     H5S16310   2.826   5.538   2.844
    3OL     C1616311   2.668   5.655   2.932
    3OL     H6R16312   2.594   5.632   2.856
    3OL     H6S16313   2.666   5.760   2.962
    3OL     C1716314   2.667   5.567   3.057
    3OL     H7R16315   2.732   5.608   3.134
    3OL     H7S16316   2.704   5.468   3.030
    3OL     C1816317   2.521   5.559   3.106
    3OL     H8R16318   2.450   5.525   3.031
    3OL     H8S16319   2.499   5.664   3.125
    3OL     C1916320   2.509   5.480   3.234
    3OL     H9R16321   2.522   5.373   3.220
    3OL    C11016322   2.486   5.531   3.354
    3OL    H10R16323   2.481   5.458   3.435
    3OL    C11116324   2.470   5.676   3.392
    3OL    H11R16325   2.390   5.717   3.331
    3OL    H11S16326   2.560   5.731   3.365
    3OL    C11216327   2.427   5.690   3.539
    3OL    H12R16328   2.505   5.638   3.595
    3OL    H12S16329   2.335   5.632   3.551
    3OL    C11316330   2.416   5.836   3.583
    3OL    H13R16331   2.509   5.888   3.555
    3OL    H13S16332   2.419   5.834   3.692
    3OL    C11416333   2.297   5.912   3.523
    3OL    H14R16334   2.200   5.864   3.540
    3OL    H14S16335   2.313   5.903   3.415
    3OL    C11516336   2.272   6.052   3.579
    3OL    H15R16337   2.364   6.110   3.578
    3OL    H15S16338   2.239   6.044   3.683
    3OL    C11616339   2.167   6.131   3.499
    3OL    H16R16340   2.176   6.115   3.391
    3OL    H16S16341   2.172   6.240   3.511
    3OL    C11716342   2.022   6.091   3.528
    3OL    H17R16343   2.005   6.095   3.635
    3OL    H17S16344   1.997   5.989   3.497
    3OL    C11816345   1.932   6.193   3.458
    3OL    H18R16346   1.947   6.292   3.501
    3OL    H18S16347   1.826   6.167   3.463
    3OL    H18T16348   1.959   6.200   3.352
    1PA    C11616349   1.943   4.332   3.914
    1PA    H16R16350   1.895   4.362   3.821
    1PA    H16S16351   1.887   4.349   4.007
    1PA    H16T16352   1.943   4.223   3.906
    1PA    C11516353   2.081   4.398   3.924
    1PA    H15R16354   2.132   4.348   4.007
    1PA    H15S16355   2.143   4.381   3.836
    1PA    C11416356   2.082   4.550   3.947
    1PA    H14R16357   2.028   4.578   4.038
    1PA    H14S16358   2.186   4.576   3.962
    1PA    C11316359   2.029   4.641   3.835
    1PA    H13R16360   1.936   4.606   3.792
    1PA    H13S16361   2.007   4.740   3.876
    1PA    C11216362   2.131   4.655   3.721
    1PA    H12R16363   2.221   4.694   3.769
    1PA    H12S16364   2.149   4.559   3.673
    1PA    C11116365   2.095   4.763   3.618
    1PA    H11R16366   2.059   4.851   3.672
    1PA    H11S16367   2.181   4.791   3.556
    1PA    C11016368   1.981   4.714   3.529
    1PA    H10R16369   2.015   4.631   3.466
    1PA    H10S16370   1.898   4.683   3.593
    1PA     C1916371   1.926   4.815   3.427
    1PA     H9R16372   1.860   4.889   3.474
    1PA     H9S16373   2.002   4.879   3.382
    1PA     C1816374   1.853   4.744   3.313
    1PA     H8R16375   1.923   4.676   3.262
    1PA     H8S16376   1.770   4.680   3.344
    1PA     C1716377   1.798   4.840   3.207
    1PA     H7R16378   1.712   4.899   3.242
    1PA     H7S16379   1.885   4.900   3.179
    1PA     C1616380   1.745   4.771   3.081
    1PA     H6R16381   1.829   4.714   3.040
    1PA     H6S16382   1.660   4.707   3.106
    1PA     C1516383   1.700   4.879   2.981
    1PA     H5R16384   1.606   4.914   3.024
    1PA     H5S16385   1.769   4.961   2.963
    1PA     C1416386   1.672   4.806   2.849
    1PA     H4R16387   1.760   4.750   2.817
    1PA     H4S16388   1.593   4.734   2.869
    1PA     C1316389   1.636   4.887   2.723
    1PA     H3R16390   1.700   4.974   2.707
    1PA     H3S16391   1.649   4.816   2.642
    1PA     C1216392   1.491   4.937   2.726
    1PA     H2R16393   1.416   4.871   2.771
    1PA     H2S16394   1.491   5.035   2.774
    2PC     C1116395   1.443   4.972   2.587
    2PC     O1216396   1.521   5.022   2.508
    2PC     O1116397   1.318   4.928   2.569
    2PC      C116398   1.237   4.948   2.452
    2PC      HR16399   1.130   4.932   2.472
    2PC      HS16400   1.245   5.052   2.421
    2PC      C216401   1.302   4.873   2.335
    2PC      HX16402   1.409   4.894   2.330
    2PC      C316403   1.247   4.905   2.195
    2PC      HA16404   1.153   4.851   2.184
    2PC      HB16405   1.225   5.010   2.179
    2PC     O3116406   1.338   4.857   2.094
    2PC     P3116407   1.287   4.865   1.942
    2PC     O3216408   1.229   4.716   1.940
    2PC     C3116409   1.289   4.621   1.850
    2PC     H1A16410   1.262   4.653   1.749
    2PC     H1B16411   1.397   4.614   1.861
    2PC     C3216412   1.229   4.484   1.882
    2PC     H2A16413   1.121   4.496   1.895
    2PC     H2B16414   1.243   4.414   1.799
    2PC     N3116415   1.276   4.405   2.001
    2PC     C3316416   1.423   4.388   2.023
    2PC     H3A16417   1.473   4.359   1.931
    2PC     H3B16418   1.458   4.485   2.061
    2PC     H3C16419   1.438   4.310   2.098
    2PC     C3416420   1.223   4.470   2.125
    2PC     H4A16421   1.260   4.404   2.203
    2PC     H4B16422   1.264   4.570   2.138
    2PC     H4C16423   1.115   4.462   2.117
    2PC     C3516424   1.217   4.267   1.993
    2PC     H5A16425   1.108   4.277   1.995
    2PC     H5B16426   1.251   4.207   2.077
    2PC     H5C16427   1.257   4.224   1.902
    2PC     O3316428   1.168   4.950   1.918
    2PC     O3416429   1.386   4.902   1.838
    2PC     O2116430   1.271   4.734   2.354
    2PC     C2116431   1.362   4.660   2.420
    2PC     O2216432   1.468   4.713   2.447
    3OL     C1216433   1.316   4.525   2.469
    3OL     H2R16434   1.348   4.447   2.400
    3OL     H2S16435   1.207   4.521   2.476
    3OL     C1316436   1.386   4.492   2.602
    3OL     H3R16437   1.358   4.567   2.676
    3OL     H3S16438   1.493   4.508   2.591
    3OL     C1416439   1.342   4.354   2.653
    3OL     H4R16440   1.374   4.275   2.585
    3OL     H4S16441   1.233   4.348   2.653
    3OL     C1516442   1.394   4.315   2.792
    3OL     H5R16443   1.353   4.388   2.862
    3OL     H5S16444   1.503   4.322   2.801
    3OL     C1616445   1.355   4.176   2.841
    3OL     H6R16446   1.399   4.174   2.941
    3OL     H6S16447   1.394   4.094   2.779
    3OL     C1716448   1.203   4.154   2.839
    3OL     H7R16449   1.179   4.053   2.873
    3OL     H7S16450   1.169   4.164   2.736
    3OL     C1816451   1.129   4.254   2.929
    3OL     H8R16452   1.139   4.357   2.893
    3OL     H8S16453   1.167   4.247   3.031
    3OL     C1916454   0.981   4.226   2.921
    3OL     H9R16455   0.959   4.192   2.820
    3OL    C11016456   0.889   4.231   3.016
    3OL    H10R16457   0.787   4.208   2.984
    3OL    C11116458   0.909   4.261   3.162
    3OL    H11R16459   0.851   4.349   3.192
    3OL    H11S16460   1.012   4.280   3.192
    3OL    C11216461   0.861   4.136   3.238
    3OL    H12R16462   0.938   4.059   3.239
    3OL    H12S16463   0.776   4.099   3.180
    3OL    C11316464   0.821   4.168   3.383
    3OL    H13R16465   0.774   4.083   3.433
    3OL    H13S16466   0.741   4.242   3.377
    3OL    C11416467   0.931   4.222   3.477
    3OL    H14R16468   0.971   4.315   3.437
    3OL    H14S16469   1.022   4.162   3.477
    3OL    C11516470   0.886   4.239   3.622
    3OL    H15R16471   0.973   4.249   3.688
    3OL    H15S16472   0.831   4.152   3.660
    3OL    C11616473   0.798   4.364   3.641
    3OL    H16R16474   0.703   4.346   3.591
    3OL    H16S16475   0.850   4.444   3.588
    3OL    C11716476   0.775   4.412   3.785
    3OL    H17R16477   0.873   4.427   3.832
    3OL    H17S16478   0.717   4.332   3.832
    3OL    C11816479   0.708   4.549   3.804
    3OL    H18R16480   0.777   4.632   3.792
    3OL    H18S16481   0.672   4.550   3.907
    3OL    H18T16482   0.628   4.569   3.733
    1PA    C11616483   3.783   0.114   4.142
    1PA    H16R16484   3.734   0.095   4.237
    1PA    H16S16485   3.786   0.223   4.131
    1PA    H16T16486   3.890   0.093   4.132
    1PA    C11516487   3.707   0.049   4.025
    1PA    H15R16488   3.608   0.093   4.027
    1PA    H15S16489   3.758   0.081   3.934
    1PA    C11416490   3.706  -0.105   4.024
    1PA    H14R16491   3.806  -0.149   4.013
    1PA    H14S16492   3.668  -0.134   4.122
    1PA    C11316493   3.622  -0.173   3.915
    1PA    H13R16494   3.612  -0.280   3.934
    1PA    H13S16495   3.518  -0.137   3.917
    1PA    C11216496   3.683  -0.159   3.775
    1PA    H12R16497   3.707  -0.055   3.752
    1PA    H12S16498   3.772  -0.222   3.772
    1PA    C11116499   3.577  -0.208   3.675
    1PA    H11R16500   3.563  -0.315   3.689
    1PA    H11S16501   3.487  -0.150   3.697
    1PA    C11016502   3.626  -0.197   3.531
    1PA    H10R16503   3.634  -0.092   3.500
    1PA    H10S16504   3.727  -0.240   3.534
    1PA     C1916505   3.526  -0.265   3.436
    1PA     H9R16506   3.532  -0.371   3.460
    1PA     H9S16507   3.424  -0.229   3.449
    1PA     C1816508   3.572  -0.244   3.291
    1PA     H8R16509   3.582  -0.140   3.261
    1PA     H8S16510   3.675  -0.281   3.283
    1PA     C1716511   3.491  -0.324   3.188
    1PA     H7R16512   3.513  -0.431   3.201
    1PA     H7S16513   3.384  -0.329   3.208
    1PA     C1616514   3.517  -0.283   3.042
    1PA     H6R16515   3.624  -0.297   3.025
    1PA     H6S16516   3.458  -0.345   2.975
    1PA     C1516517   3.501  -0.135   3.001
    1PA     H5R16518   3.399  -0.099   3.019
    1PA     H5S16519   3.569  -0.070   3.056
    1PA     C1416520   3.524  -0.126   2.850
    1PA     H4R16521   3.618  -0.178   2.829
    1PA     H4S16522   3.452  -0.183   2.792
    1PA     C1316523   3.540   0.019   2.802
    1PA     H3R16524   3.597   0.076   2.876
    1PA     H3S16525   3.589   0.013   2.705
    1PA     C1216526   3.402   0.081   2.772
    1PA     H2R16527   3.358   0.032   2.686
    1PA     H2S16528   3.328   0.067   2.851
    2PC     C1116529   3.414   0.226   2.733
    2PC     O1216530   3.351   0.315   2.788
    2PC     O1116531   3.495   0.254   2.630
    2PC      C116532   3.494   0.387   2.575
    2PC      HR16533   3.391   0.402   2.540
    2PC      HS16534   3.520   0.461   2.650
    2PC      C216535   3.584   0.398   2.451
    2PC      HX16536   3.592   0.503   2.419
    2PC      C316537   3.529   0.319   2.331
    2PC      HA16538   3.544   0.212   2.347
    2PC      HB16539   3.421   0.329   2.319
    2PC     O3116540   3.602   0.368   2.217
    2PC     P3116541   3.536   0.331   2.076
    2PC     O3216542   3.529   0.172   2.088
    2PC     C3116543   3.652   0.097   2.098
    2PC     H1A16544   3.743   0.153   2.073
    2PC     H1B16545   3.667   0.064   2.201
    2PC     C3216546   3.653  -0.020   1.999
    2PC     H2A16547   3.742  -0.079   2.020
    2PC     H2B16548   3.560  -0.070   2.028
    2PC     N3116549   3.662  -0.001   1.851
    2PC     C3316550   3.640  -0.135   1.787
    2PC     H3A16551   3.534  -0.159   1.791
    2PC     H3B16552   3.670  -0.126   1.683
    2PC     H3C16553   3.705  -0.208   1.837
    2PC     C3416554   3.559   0.092   1.794
    2PC     H4A16555   3.463   0.066   1.838
    2PC     H4B16556   3.586   0.193   1.824
    2PC     H4C16557   3.564   0.084   1.685
    2PC     C3516558   3.799   0.046   1.813
    2PC     H5A16559   3.882  -0.024   1.808
    2PC     H5B16560   3.831   0.130   1.876
    2PC     H5C16561   3.791   0.092   1.715
    2PC     O3316562   3.401   0.391   2.086
    2PC     O3416563   3.599   0.384   1.952
    2PC     O2116564   3.712   0.346   2.488
    2PC     C2116565   3.792   0.422   2.565
    2PC     O2216566   3.764   0.534   2.601
    3OL     C1216567   3.925   0.356   2.589
    3OL     H2R16568   3.990   0.371   2.503
    3OL     H2S16569   3.909   0.248   2.591
    3OL     C1316570   3.997   0.405   2.716
    3OL     H3R16571   3.931   0.368   2.795
    3OL     H3S16572   3.996   0.514   2.725
    3OL     C1416573   4.142   0.354   2.719
    3OL     H4R16574   4.200   0.425   2.659
    3OL     H4S16575   4.158   0.250   2.693
    3OL     C1516576   4.194   0.378   2.861
    3OL     H5R16577   4.125   0.329   2.930
    3OL     H5S16578   4.206   0.482   2.889
    3OL     C1616579   4.339   0.328   2.875
    3OL     H6R16580   4.405   0.390   2.814
    3OL     H6S16581   4.355   0.232   2.826
    3OL     C1716582   4.374   0.319   3.025
    3OL     H7R16583   4.448   0.241   3.042
    3OL     H7S16584   4.286   0.280   3.076
    3OL     C1816585   4.420   0.458   3.072
    3OL     H8R16586   4.354   0.531   3.025
    3OL     H8S16587   4.520   0.482   3.036
    3OL     C1916588   4.406   0.473   3.222
    3OL     H9R16589   4.478   0.421   3.285
    3OL    C11016590   4.304   0.534   3.281
    3OL    H10R16591   4.300   0.549   3.388
    3OL    C11116592   4.187   0.593   3.206
    3OL    H11R16593   4.097   0.578   3.266
    3OL    H11S16594   4.185   0.543   3.109
    3OL    C11216595   4.211   0.745   3.198
    3OL    H12R16596   4.304   0.767   3.145
    3OL    H12S16597   4.209   0.798   3.293
    3OL    C11316598   4.097   0.802   3.111
    3OL    H13R16599   4.000   0.776   3.154
    3OL    H13S16600   4.091   0.770   3.007
    3OL    C11416601   4.094   0.956   3.102
    3OL    H14R16602   4.071   1.002   3.198
    3OL    H14S16603   4.021   0.983   3.026
    3OL    C11516604   4.223   1.026   3.057
    3OL    H15R16605   4.269   0.997   2.962
    3OL    H15S16606   4.300   1.004   3.131
    3OL    C11616607   4.217   1.178   3.078
    3OL    H16R16608   4.312   1.215   3.118
    3OL    H16S16609   4.138   1.212   3.145
    3OL    C11716610   4.191   1.249   2.945
    3OL    H17R16611   4.087   1.224   2.921
    3OL    H17S16612   4.256   1.202   2.870
    3OL    C11816613   4.209   1.399   2.967
    3OL    H18R16614   4.185   1.411   3.073
    3OL    H18S16615   4.144   1.454   2.897
    3OL    H18T16616   4.311   1.436   2.956
    1PA    C11616617   2.606  -0.337   3.817
    1PA    H16R16618   2.688  -0.408   3.835
    1PA    H16S16619   2.531  -0.387   3.755
    1PA    H16T16620   2.562  -0.304   3.911
    1PA    C11516621   2.654  -0.216   3.735
    1PA    H15R16622   2.702  -0.249   3.643
    1PA    H15S16623   2.563  -0.162   3.709
    1PA    C11416624   2.756  -0.129   3.809
    1PA    H14R16625   2.704  -0.088   3.896
    1PA    H14S16626   2.841  -0.188   3.847
    1PA    C11316627   2.828  -0.021   3.728
    1PA    H13R16628   2.754   0.049   3.689
    1PA    H13S16629   2.896   0.032   3.795
    1PA    C11216630   2.895  -0.060   3.595
    1PA    H12R16631   2.865  -0.160   3.562
    1PA    H12S16632   2.868   0.014   3.519
    1PA    C11116633   3.046  -0.072   3.617
    1PA    H11R16634   3.082   0.026   3.650
    1PA    H11S16635   3.061  -0.151   3.691
    1PA    C11016636   3.119  -0.119   3.491
    1PA    H10R16637   3.219  -0.150   3.521
    1PA    H10S16638   3.068  -0.205   3.446
    1PA     C1916639   3.120  -0.005   3.388
    1PA     H9R16640   3.017   0.015   3.359
    1PA     H9S16641   3.163   0.089   3.424
    1PA     C1816642   3.190  -0.057   3.261
    1PA     H8R16643   3.295  -0.081   3.278
    1PA     H8S16644   3.140  -0.147   3.225
    1PA     C1716645   3.173   0.044   3.146
    1PA     H7R16646   3.237   0.127   3.176
    1PA     H7S16647   3.215   0.009   3.052
    1PA     C1616648   3.028   0.084   3.118
    1PA     H6R16649   2.959   0.000   3.114
    1PA     H6S16650   2.988   0.141   3.202
    1PA     C1516651   3.028   0.175   2.994
    1PA     H5R16652   2.939   0.238   3.004
    1PA     H5S16653   3.116   0.240   2.990
    1PA     C1416654   3.007   0.091   2.868
    1PA     H4R16655   3.084   0.013   2.864
    1PA     H4S16656   2.918   0.028   2.867
    1PA     C1316657   3.003   0.183   2.745
    1PA     H3R16658   2.931   0.263   2.761
    1PA     H3S16659   3.107   0.205   2.722
    1PA     C1216660   2.956   0.095   2.628
    1PA     H2R16661   3.024   0.013   2.607
    1PA     H2S16662   2.861   0.056   2.664
    2PC     C1116663   2.939   0.178   2.503
    2PC     O1216664   2.991   0.285   2.478
    2PC     O1116665   2.857   0.113   2.419
    2PC      C116666   2.825   0.169   2.290
    2PC      HR16667   2.893   0.247   2.255
    2PC      HS16668   2.843   0.086   2.221
    2PC      C216669   2.680   0.216   2.273
    2PC      HX16670   2.619   0.131   2.305
    2PC      C316671   2.649   0.253   2.128
    2PC      HA16672   2.651   0.165   2.063
    2PC      HB16673   2.548   0.296   2.132
    2PC     O3116674   2.745   0.353   2.091
    2PC     P3116675   2.727   0.430   1.952
    2PC     O3216676   2.835   0.546   1.972
    2PC     C3116677   2.975   0.515   1.976
    2PC     H1A16678   2.998   0.464   2.070
    2PC     H1B16679   2.994   0.450   1.890
    2PC     C3216680   3.070   0.635   1.962
    2PC     H2A16681   3.066   0.682   2.060
    2PC     H2B16682   3.171   0.597   1.946
    2PC     N3116683   3.035   0.732   1.853
    2PC     C3316684   3.140   0.831   1.815
    2PC     H3A16685   3.163   0.869   1.915
    2PC     H3B16686   3.215   0.772   1.762
    2PC     H3C16687   3.094   0.907   1.751
    2PC     C3416688   2.996   0.650   1.734
    2PC     H4A16689   3.082   0.588   1.707
    2PC     H4B16690   2.911   0.587   1.758
    2PC     H4C16691   2.956   0.727   1.668
    2PC     C3516692   2.913   0.812   1.889
    2PC     H5A16693   2.940   0.887   1.963
    2PC     H5B16694   2.830   0.745   1.913
    2PC     H5C16695   2.872   0.873   1.808
    2PC     O3316696   2.745   0.343   1.833
    2PC     O3416697   2.584   0.467   1.939
    2PC     O2116698   2.672   0.330   2.360
    2PC     C2116699   2.556   0.366   2.418
    2PC     O2216700   2.446   0.316   2.402
    3OL     C1216701   2.572   0.468   2.528
    3OL     H2R16702   2.475   0.492   2.571
    3OL     H2S16703   2.618   0.556   2.484
    3OL     C1316704   2.665   0.412   2.637
    3OL     H3R16705   2.702   0.482   2.712
    3OL     H3S16706   2.755   0.384   2.582
    3OL     C1416707   2.620   0.281   2.702
    3OL     H4R16708   2.694   0.250   2.777
    3OL     H4S16709   2.626   0.188   2.644
    3OL     C1516710   2.482   0.293   2.768
    3OL     H5R16711   2.405   0.314   2.694
    3OL     H5S16712   2.491   0.385   2.826
    3OL     C1616713   2.439   0.171   2.850
    3OL     H6R16714   2.346   0.178   2.907
    3OL     H6S16715   2.508   0.154   2.933
    3OL     C1716716   2.420   0.042   2.770
    3OL     H7R16717   2.409  -0.042   2.838
    3OL     H7S16718   2.505   0.026   2.703
    3OL     C1816719   2.298   0.037   2.676
    3OL     H8R16720   2.303   0.116   2.600
    3OL     H8S16721   2.207   0.052   2.733
    3OL     C1916722   2.284  -0.094   2.602
    3OL     H9R16723   2.367  -0.125   2.539
    3OL    C11016724   2.177  -0.171   2.611
    3OL    H10R16725   2.161  -0.255   2.544
    3OL    C11116726   2.049  -0.146   2.688
    3OL    H11R16727   1.962  -0.164   2.624
    3OL    H11S16728   2.033  -0.043   2.720
    3OL    C11216729   2.034  -0.250   2.800
    3OL    H12R16730   2.129  -0.245   2.854
    3OL    H12S16731   2.034  -0.352   2.760
    3OL    C11316732   1.908  -0.239   2.887
    3OL    H13R16733   1.902  -0.323   2.957
    3OL    H13S16734   1.825  -0.247   2.817
    3OL    C11416735   1.903  -0.109   2.969
    3OL    H14R16736   1.929  -0.027   2.903
    3OL    H14S16737   1.969  -0.108   3.056
    3OL    C11516738   1.760  -0.090   3.021
    3OL    H15R16739   1.683  -0.085   2.944
    3OL    H15S16740   1.765   0.007   3.070
    3OL    C11616741   1.725  -0.200   3.123
    3OL    H16R16742   1.807  -0.207   3.195
    3OL    H16S16743   1.712  -0.299   3.079
    3OL    C11716744   1.603  -0.156   3.206
    3OL    H17R16745   1.563  -0.057   3.180
    3OL    H17S16746   1.620  -0.139   3.312
    3OL    C11816747   1.494  -0.263   3.214
    3OL    H18R16748   1.441  -0.279   3.119
    3OL    H18S16749   1.428  -0.239   3.297
    3OL    H18T16750   1.538  -0.362   3.231
    1PA    C11616751   2.437   2.386   3.539
    1PA    H16R16752   2.475   2.480   3.580
    1PA    H16S16753   2.332   2.369   3.565
    1PA    H16T16754   2.423   2.385   3.430
    1PA    C11516755   2.524   2.269   3.584
    1PA    H15R16756   2.627   2.292   3.556
    1PA    H15S16757   2.525   2.259   3.693
    1PA    C11416758   2.466   2.143   3.518
    1PA    H14R16759   2.375   2.109   3.567
    1PA    H14S16760   2.450   2.165   3.412
    1PA    C11316761   2.570   2.032   3.537
    1PA    H13R16762   2.664   2.066   3.494
    1PA    H13S16763   2.577   2.011   3.644
    1PA    C11216764   2.516   1.906   3.468
    1PA    H12R16765   2.424   1.873   3.517
    1PA    H12S16766   2.502   1.930   3.362
    1PA    C11116767   2.620   1.793   3.468
    1PA    H11R16768   2.709   1.827   3.415
    1PA    H11S16769   2.662   1.776   3.567
    1PA    C11016770   2.571   1.663   3.402
    1PA    H10R16771   2.526   1.695   3.307
    1PA    H10S16772   2.658   1.598   3.389
    1PA     C1916773   2.460   1.586   3.474
    1PA     H9R16774   2.487   1.561   3.577
    1PA     H9S16775   2.372   1.651   3.472
    1PA     C1816776   2.412   1.455   3.412
    1PA     H8R16777   2.481   1.371   3.416
    1PA     H8S16778   2.331   1.414   3.472
    1PA     C1716779   2.355   1.486   3.272
    1PA     H7R16780   2.264   1.544   3.290
    1PA     H7S16781   2.412   1.552   3.207
    1PA     C1616782   2.322   1.352   3.204
    1PA     H6R16783   2.412   1.300   3.170
    1PA     H6S16784   2.261   1.286   3.266
    1PA     C1516785   2.244   1.385   3.075
    1PA     H5R16786   2.162   1.452   3.103
    1PA     H5S16787   2.313   1.432   3.006
    1PA     C1416788   2.194   1.255   3.011
    1PA     H4R16789   2.279   1.195   2.977
    1PA     H4S16790   2.142   1.195   3.086
    1PA     C1316791   2.097   1.277   2.894
    1PA     H3R16792   2.056   1.179   2.868
    1PA     H3S16793   2.019   1.346   2.928
    1PA     C1216794   2.172   1.339   2.775
    1PA     H2R16795   2.199   1.441   2.803
    1PA     H2S16796   2.260   1.277   2.756
    2PC     C1116797   2.089   1.340   2.649
    2PC     O1216798   2.137   1.372   2.542
    2PC     O1116799   1.958   1.311   2.664
    2PC      C116800   1.868   1.306   2.553
    2PC      HR16801   1.769   1.306   2.600
    2PC      HS16802   1.874   1.399   2.496
    2PC      C216803   1.887   1.181   2.466
    2PC      HX16804   1.991   1.169   2.434
    2PC      C316805   1.803   1.198   2.338
    2PC      HA16806   1.694   1.201   2.343
    2PC      HB16807   1.834   1.291   2.289
    2PC     O3116808   1.848   1.094   2.250
    2PC     P3116809   1.793   1.093   2.100
    2PC     O3216810   1.908   1.029   2.010
    2PC     C3116811   2.033   0.999   2.075
    2PC     H1A16812   2.058   1.086   2.135
    2PC     H1B16813   2.021   0.928   2.157
    2PC     C3216814   2.137   0.959   1.969
    2PC     H2A16815   2.135   1.026   1.883
    2PC     H2B16816   2.241   0.971   2.000
    2PC     N3116817   2.124   0.816   1.922
    2PC     C3316818   2.205   0.790   1.798
    2PC     H3A16819   2.158   0.834   1.710
    2PC     H3B16820   2.306   0.828   1.807
    2PC     H3C16821   2.207   0.681   1.789
    2PC     C3416822   2.188   0.739   2.033
    2PC     H4A16823   2.216   0.636   2.008
    2PC     H4B16824   2.284   0.789   2.050
    2PC     H4C16825   2.116   0.750   2.114
    2PC     C3516826   1.981   0.777   1.903
    2PC     H5A16827   1.931   0.790   2.000
    2PC     H5B16828   1.986   0.679   1.856
    2PC     H5C16829   1.953   0.852   1.829
    2PC     O3316830   1.663   1.022   2.099
    2PC     O3416831   1.760   1.233   2.061
    2PC     O2116832   1.852   1.068   2.547
    2PC     C2116833   1.949   0.993   2.601
    2PC     O2216834   2.067   1.020   2.588
    3OL     C1216835   1.904   0.860   2.658
    3OL     H2R16836   1.987   0.824   2.719
    3OL     H2S16837   1.885   0.796   2.572
    3OL     C1316838   1.765   0.872   2.723
    3OL     H3R16839   1.720   0.774   2.739
    3OL     H3S16840   1.696   0.926   2.657
    3OL     C1416841   1.773   0.951   2.855
    3OL     H4R16842   1.673   0.986   2.882
    3OL     H4S16843   1.827   1.046   2.850
    3OL     C1516844   1.823   0.869   2.975
    3OL     H5R16845   1.929   0.848   2.962
    3OL     H5S16846   1.769   0.775   2.964
    3OL     C1616847   1.795   0.919   3.118
    3OL     H6R16848   1.832   0.846   3.189
    3OL     H6S16849   1.686   0.921   3.126
    3OL     C1716850   1.860   1.058   3.132
    3OL     H7R16851   1.828   1.127   3.053
    3OL     H7S16852   1.968   1.058   3.113
    3OL     C1816853   1.838   1.121   3.270
    3OL     H8R16854   1.886   1.054   3.343
    3OL     H8S16855   1.734   1.127   3.302
    3OL     C1916856   1.902   1.257   3.262
    3OL     H9R16857   1.857   1.326   3.191
    3OL    C11016858   1.999   1.303   3.340
    3OL    H10R16859   2.027   1.407   3.323
    3OL    C11116860   2.076   1.221   3.441
    3OL    H11R16861   2.163   1.285   3.461
    3OL    H11S16862   2.107   1.127   3.395
    3OL    C11216863   1.998   1.196   3.571
    3OL    H12R16864   1.911   1.137   3.543
    3OL    H12S16865   1.952   1.284   3.616
    3OL    C11316866   2.061   1.103   3.676
    3OL    H13R16867   2.151   1.147   3.720
    3OL    H13S16868   2.081   1.002   3.640
    3OL    C11416869   1.961   1.096   3.792
    3OL    H14R16870   1.878   1.038   3.750
    3OL    H14S16871   1.929   1.196   3.823
    3OL    C11516872   2.025   1.018   3.907
    3OL    H15R16873   2.124   1.056   3.933
    3OL    H15S16874   2.040   0.914   3.876
    3OL    C11616875   1.941   1.019   4.035
    3OL    H16R16876   1.966   0.927   4.089
    3OL    H16S16877   1.840   0.987   4.008
    3OL    C11716878   1.950   1.140   4.129
    3OL    H17R16879   1.925   1.233   4.079
    3OL    H17S16880   2.052   1.151   4.166
    3OL    C11816881   1.852   1.129   4.247
    3OL    H18R16882   1.748   1.138   4.213
    3OL    H18S16883   1.877   1.215   4.310
    3OL    H18T16884   1.875   1.032   4.292
    1PA    C11616885   4.001   6.387   3.730
    1PA    H16R16886   3.956   6.325   3.652
    1PA    H16S16887   3.970   6.356   3.830
    1PA    H16T16888   4.109   6.380   3.715
    1PA    C11516889   3.959   6.534   3.714
    1PA    H15R16890   3.851   6.537   3.732
    1PA    H15S16891   3.995   6.584   3.805
    1PA    C11416892   4.015   6.605   3.591
    1PA    H14R16893   3.994   6.712   3.595
    1PA    H14S16894   4.123   6.594   3.606
    1PA    C11316895   3.974   6.542   3.457
    1PA    H13R16896   4.020   6.444   3.446
    1PA    H13S16897   3.866   6.527   3.465
    1PA    C11216898   4.010   6.623   3.332
    1PA    H12R16899   3.975   6.726   3.348
    1PA    H12S16900   4.118   6.636   3.324
    1PA    C11116901   3.958   6.573   3.197
    1PA    H11R16902   3.851   6.554   3.195
    1PA    H11S16903   3.967   6.654   3.124
    1PA    C11016904   4.042   6.456   3.141
    1PA    H10R16905   4.146   6.484   3.126
    1PA    H10S16906   4.051   6.381   3.220
    1PA     C1916907   3.983   6.396   3.013
    1PA     H9R16908   4.041   6.306   2.993
    1PA     H9S16909   3.879   6.364   3.027
    1PA     C1816910   3.996   6.487   2.890
    1PA     H8R16911   3.934   6.574   2.912
    1PA     H8S16912   4.098   6.521   2.875
    1PA     C1716913   3.948   6.419   2.760
    1PA     H7R16914   3.855   6.366   2.780
    1PA     H7S16915   3.921   6.497   2.689
    1PA     C1616916   4.047   6.319   2.698
    1PA     H6R16917   4.117   6.388   2.650
    1PA     H6S16918   4.096   6.256   2.771
    1PA     C1516919   3.999   6.229   2.583
    1PA     H5R16920   3.959   6.293   2.504
    1PA     H5S16921   4.095   6.192   2.545
    1PA     C1416922   3.905   6.116   2.624
    1PA     H4R16923   3.948   6.068   2.713
    1PA     H4S16924   3.804   6.146   2.653
    1PA     C1316925   3.880   6.009   2.516
    1PA     H3R16926   3.789   5.952   2.539
    1PA     H3S16927   3.865   6.059   2.421
    1PA     C1216928   3.997   5.912   2.503
    1PA     H2R16929   4.092   5.962   2.486
    1PA     H2S16930   4.000   5.857   2.598
    2PC     C1116931   3.975   5.816   2.389
    2PC     O1216932   3.976   5.844   2.271
    2PC     O1116933   3.961   5.692   2.438
    2PC      C116934   3.932   5.577   2.357
    2PC      HR16935   3.896   5.495   2.419
    2PC      HS16936   3.847   5.602   2.293
    2PC      C216937   4.055   5.526   2.281
    2PC      HX16938   4.138   5.596   2.296
    2PC      C316939   4.018   5.519   2.132
    2PC      HA16940   4.003   5.616   2.086
    2PC      HB16941   4.096   5.462   2.081
    2PC     O3116942   3.899   5.440   2.116
    2PC     P3116943   3.843   5.409   1.969
    2PC     O3216944   3.777   5.548   1.923
    2PC     C3116945   3.637   5.568   1.900
    2PC     H1A16946   3.597   5.472   1.865
    2PC     H1B16947   3.592   5.591   1.997
    2PC     C3216948   3.604   5.678   1.798
    2PC     H2A16949   3.498   5.701   1.802
    2PC     H2B16950   3.658   5.759   1.847
    2PC     N3116951   3.654   5.672   1.656
    2PC     C3316952   3.780   5.754   1.647
    2PC     H3A16953   3.851   5.724   1.725
    2PC     H3B16954   3.823   5.732   1.549
    2PC     H3C16955   3.764   5.860   1.665
    2PC     C3416956   3.692   5.533   1.617
    2PC     H4A16957   3.718   5.532   1.511
    2PC     H4B16958   3.772   5.495   1.681
    2PC     H4C16959   3.609   5.465   1.635
    2PC     C3516960   3.552   5.738   1.569
    2PC     H5A16961   3.535   5.844   1.590
    2PC     H5B16962   3.464   5.674   1.572
    2PC     H5C16963   3.590   5.728   1.467
    2PC     O3316964   3.948   5.366   1.874
    2PC     O3416965   3.752   5.292   1.971
    2PC     O2116966   4.090   5.398   2.338
    2PC     C2116967   4.203   5.337   2.297
    2PC     O2216968   4.294   5.402   2.252
    3OL     C1216969   4.215   5.189   2.327
    3OL     H2R16970   4.272   5.138   2.249
    3OL     H2S16971   4.117   5.142   2.338
    3OL     C1316972   4.283   5.167   2.463
    3OL     H3R16973   4.224   5.218   2.539
    3OL     H3S16974   4.384   5.208   2.457
    3OL     C1416975   4.304   5.019   2.499
    3OL     H4R16976   4.392   4.984   2.445
    3OL     H4S16977   4.217   4.962   2.465
    3OL     C1516978   4.329   4.989   2.648
    3OL     H5R16979   4.410   5.056   2.677
    3OL     H5S16980   4.360   4.889   2.676
    3OL     C1616981   4.195   5.004   2.722
    3OL     H6R16982   4.117   4.950   2.670
    3OL     H6S16983   4.159   5.107   2.730
    3OL     C1716984   4.214   4.955   2.866
    3OL     H7R16985   4.282   5.024   2.917
    3OL     H7S16986   4.260   4.856   2.857
    3OL     C1816987   4.083   4.959   2.946
    3OL     H8R16988   4.024   4.869   2.926
    3OL     H8S16989   4.026   5.043   2.904
    3OL     C1916990   4.091   4.953   3.096
    3OL     H9R16991   4.138   4.857   3.114
    3OL    C11016992   4.059   5.043   3.188
    3OL    H10R16993   4.078   5.035   3.295
    3OL    C11116994   3.996   5.178   3.165
    3OL    H11R16995   3.915   5.194   3.236
    3OL    H11S16996   3.945   5.186   3.068
    3OL    C11216997   4.100   5.287   3.194
    3OL    H12R16998   4.167   5.239   3.265
    3OL    H12S16999   4.060   5.378   3.239
    3OL    C11317000   4.185   5.293   3.067
    3OL    H13R17001   4.125   5.333   2.985
    3OL    H13S17002   4.220   5.198   3.027
    3OL    C11417003   4.313   5.376   3.083
    3OL    H14R17004   4.383   5.315   3.141
    3OL    H14S17005   4.283   5.460   3.144
    3OL    C11517006   4.371   5.420   2.948
    3OL    H15R17007   4.443   5.500   2.968
    3OL    H15S17008   4.293   5.466   2.887
    3OL    C11617009   4.428   5.298   2.874
    3OL    H16R17010   4.358   5.223   2.837
    3OL    H16S17011   4.498   5.244   2.939
    3OL    C11717012   4.506   5.339   2.748
    3OL    H17R17013   4.443   5.406   2.688
    3OL    H17S17014   4.525   5.254   2.683
    3OL    C11817015   4.645   5.393   2.784
    3OL    H18R17016   4.701   5.416   2.693
    3OL    H18S17017   4.710   5.329   2.845
    3OL    H18T17018   4.635   5.489   2.834
    1PA    C11617019   3.511   0.161   3.381
    1PA    H16R17020   3.500   0.140   3.488
    1PA    H16S17021   3.558   0.080   3.326
    1PA    H16T17022   3.415   0.186   3.335
    1PA    C11517023   3.607   0.279   3.359
    1PA    H15R17024   3.564   0.361   3.415
    1PA    H15S17025   3.705   0.255   3.402
    1PA    C11417026   3.618   0.313   3.210
    1PA    H14R17027   3.629   0.230   3.139
    1PA    H14S17028   3.524   0.362   3.183
    1PA    C11317029   3.729   0.418   3.190
    1PA    H13R17030   3.715   0.506   3.254
    1PA    H13S17031   3.824   0.372   3.214
    1PA    C11217032   3.727   0.458   3.042
    1PA    H12R17033   3.824   0.506   3.026
    1PA    H12S17034   3.732   0.379   2.967
    1PA    C11117035   3.613   0.555   3.008
    1PA    H11R17036   3.517   0.502   3.005
    1PA    H11S17037   3.607   0.640   3.077
    1PA    C11017038   3.638   0.599   2.863
    1PA    H10R17039   3.703   0.525   2.815
    1PA    H10S17040   3.540   0.601   2.815
    1PA     C1917041   3.722   0.727   2.868
    1PA     H9R17042   3.805   0.693   2.930
    1PA     H9S17043   3.755   0.753   2.767
    1PA     C1817044   3.651   0.855   2.914
    1PA     H8R17045   3.574   0.878   2.840
    1PA     H8S17046   3.619   0.851   3.018
    1PA     C1717047   3.750   0.973   2.916
    1PA     H7R17048   3.816   0.963   3.003
    1PA     H7S17049   3.812   0.970   2.827
    1PA     C1617050   3.686   1.113   2.918
    1PA     H6R17051   3.612   1.127   2.839
    1PA     H6S17052   3.646   1.128   3.018
    1PA     C1517053   3.793   1.222   2.912
    1PA     H5R17054   3.742   1.319   2.919
    1PA     H5S17055   3.865   1.216   2.995
    1PA     C1417056   3.864   1.226   2.776
    1PA     H4R17057   3.929   1.313   2.767
    1PA     H4S17058   3.935   1.143   2.764
    1PA     C1317059   3.763   1.236   2.661
    1PA     H3R17060   3.716   1.138   2.658
    1PA     H3S17061   3.687   1.311   2.687
    1PA     C1217062   3.834   1.283   2.533
    1PA     H2R17063   3.905   1.365   2.548
    1PA     H2S17064   3.899   1.200   2.504
    2PC     C1117065   3.750   1.328   2.417
    2PC     O1217066   3.783   1.318   2.301
    2PC     O1117067   3.634   1.387   2.452
    2PC      C117068   3.555   1.438   2.343
    2PC      HR17069   3.480   1.503   2.390
    2PC      HS17070   3.620   1.492   2.274
    2PC      C217071   3.486   1.326   2.263
    2PC      HX17072   3.557   1.257   2.217
    2PC      C317073   3.395   1.396   2.161
    2PC      HA17074   3.293   1.412   2.197
    2PC      HB17075   3.432   1.495   2.135
    2PC     O3117076   3.380   1.310   2.046
    2PC     P3117077   3.489   1.271   1.935
    2PC     O3217078   3.545   1.133   1.993
    2PC     C3117079   3.524   1.006   1.929
    2PC     H1A17080   3.416   0.993   1.921
    2PC     H1B17081   3.573   1.001   1.831
    2PC     C3217082   3.586   0.902   2.025
    2PC     H2A17083   3.693   0.924   2.028
    2PC     H2B17084   3.535   0.916   2.120
    2PC     N3117085   3.567   0.758   1.990
    2PC     C3317086   3.425   0.710   2.001
    2PC     H3A17087   3.362   0.777   1.942
    2PC     H3B17088   3.419   0.608   1.964
    2PC     H3C17089   3.394   0.711   2.106
    2PC     C3417090   3.619   0.728   1.852
    2PC     H4A17091   3.623   0.619   1.846
    2PC     H4B17092   3.549   0.759   1.774
    2PC     H4C17093   3.716   0.774   1.836
    2PC     C3517094   3.643   0.680   2.093
    2PC     H5A17095   3.641   0.573   2.072
    2PC     H5B17096   3.610   0.702   2.195
    2PC     H5C17097   3.743   0.716   2.068
    2PC     O3317098   3.438   1.239   1.800
    2PC     O3417099   3.595   1.374   1.921
    2PC     O2117100   3.405   1.266   2.364
    2PC     C2117101   3.451   1.153   2.421
    2PC     O2217102   3.560   1.103   2.402
    3OL     C1217103   3.355   1.082   2.513
    3OL     H2R17104   3.259   1.081   2.462
    3OL     H2S17105   3.342   1.142   2.604
    3OL     C1317106   3.391   0.941   2.561
    3OL     H3R17107   3.492   0.941   2.603
    3OL     H3S17108   3.410   0.879   2.473
    3OL     C1417109   3.283   0.875   2.648
    3OL     H4R17110   3.199   0.857   2.581
    3OL     H4S17111   3.268   0.945   2.732
    3OL     C1517112   3.330   0.738   2.698
    3OL     H5R17113   3.423   0.753   2.753
    3OL     H5S17114   3.366   0.679   2.614
    3OL     C1617115   3.226   0.667   2.786
    3OL     H6R17116   3.172   0.739   2.848
    3OL     H6S17117   3.278   0.598   2.853
    3OL     C1717118   3.113   0.597   2.710
    3OL     H7R17119   3.153   0.508   2.660
    3OL     H7S17120   3.081   0.661   2.627
    3OL     C1817121   2.995   0.550   2.797
    3OL     H8R17122   2.935   0.487   2.731
    3OL     H8S17123   2.929   0.634   2.820
    3OL     C1917124   3.055   0.487   2.920
    3OL     H9R17125   3.159   0.457   2.908
    3OL    C11017126   2.995   0.476   3.037
    3OL    H10R17127   3.055   0.426   3.113
    3OL    C11117128   2.858   0.534   3.060
    3OL    H11R17129   2.795   0.535   2.971
    3OL    H11S17130   2.868   0.636   3.097
    3OL    C11217131   2.779   0.452   3.163
    3OL    H12R17132   2.826   0.447   3.262
    3OL    H12S17133   2.777   0.346   3.134
    3OL    C11317134   2.635   0.504   3.167
    3OL    H13R17135   2.609   0.532   3.064
    3OL    H13S17136   2.643   0.593   3.230
    3OL    C11417137   2.533   0.413   3.236
    3OL    H14R17138   2.529   0.325   3.172
    3OL    H14S17139   2.431   0.454   3.241
    3OL    C11517140   2.582   0.375   3.376
    3OL    H15R17141   2.688   0.350   3.373
    3OL    H15S17142   2.534   0.286   3.415
    3OL    C11617143   2.561   0.490   3.476
    3OL    H16R17144   2.478   0.469   3.544
    3OL    H16S17145   2.534   0.582   3.424
    3OL    C11717146   2.688   0.516   3.558
    3OL    H17R17147   2.768   0.560   3.497
    3OL    H17S17148   2.731   0.422   3.593
    3OL    C11817149   2.645   0.623   3.659
    3OL    H18R17150   2.652   0.726   3.623
    3OL    H18S17151   2.725   0.619   3.733
    3OL    H18T17152   2.551   0.596   3.707
    4SOL     OW17153   6.140   6.446   2.374
    4SOL    HW117154   6.144   6.382   2.445
    4SOL    HW217155   6.217   6.428   2.321
    5SOL     OW17156   4.620   4.132   7.050
    5SOL    HW117157   4.646   4.141   6.958
    5SOL    HW217158   4.703   4.127   7.097
    6SOL     OW17159   0.290   1.536   5.894
    6SOL    HW117160   0.272   1.610   5.836
    6SOL    HW217161   0.205   1.509   5.927
    7SOL     OW17162   1.323   5.855   1.154
    7SOL    HW117163   1.343   5.858   1.248
    7SOL    HW217164   1.342   5.765   1.129
    8SOL     OW17165   0.396   6.076   0.946
    8SOL    HW117166   0.382   6.125   1.027
    8SOL    HW217167   0.316   6.090   0.896
    9SOL     OW17168   0.147   6.092   0.811
    9SOL    HW117169   0.158   6.050   0.726
    9SOL    HW217170   0.094   6.030   0.862
   10SOL     OW17171   6.286   1.487   0.860
   10SOL    HW117172   6.337   1.413   0.827
   10SOL    HW217173   6.244   1.524   0.782
   11SOL     OW17174   6.039   2.022   0.565
   11SOL    HW117175   6.022   2.078   0.489
   11SOL    HW217176   6.132   2.002   0.560
   12SOL     OW17177   6.058   2.048   1.096
   12SOL    HW117178   6.145   2.040   1.135
   12SOL    HW217179   6.026   2.134   1.126
   13SOL     OW17180   4.490   4.730   0.779
   13SOL    HW117181   4.465   4.778   0.858
   13SOL    HW217182   4.447   4.777   0.707
   14SOL     OW17183   5.032   2.325   1.323
   14SOL    HW117184   5.056   2.276   1.244
   14SOL    HW217185   4.967   2.269   1.367
   15SOL     OW17186   1.717   5.893   7.765
   15SOL    HW117187   1.808   5.883   7.737
   15SOL    HW217188   1.685   5.804   7.776
   16SOL     OW17189   0.785   4.628   1.634
   16SOL    HW117190   0.736   4.624   1.716
   16SOL    HW217191   0.737   4.692   1.580
   17SOL     OW17192   0.674   0.781   0.618
   17SOL    HW117193   0.748   0.842   0.623
   17SOL    HW217194   0.713   0.697   0.597
   18SOL     OW17195   4.464   6.426   0.784
   18SOL    HW117196   4.521   6.349   0.780
   18SOL    HW217197   4.463   6.450   0.876
   19SOL     OW17198   0.224   4.166   7.787
   19SOL    HW117199   0.194   4.077   7.771
   19SOL    HW217200   0.173   4.220   7.727
   20SOL     OW17201   2.411   2.944   5.800
   20SOL    HW117202   2.463   2.938   5.720
   20SOL    HW217203   2.366   2.860   5.806
   21SOL     OW17204   5.440   0.554   7.096
   21SOL    HW117205   5.461   0.461   7.099
   21SOL    HW217206   5.523   0.598   7.077
   22SOL     OW17207   5.909   0.955   6.821
   22SOL    HW117208   5.949   0.987   6.902
   22SOL    HW217209   5.820   0.929   6.846
   23SOL     OW17210   0.948   5.838   1.008
   23SOL    HW117211   0.923   5.752   0.973
   23SOL    HW217212   1.011   5.872   0.944
   24SOL     OW17213   5.968   1.645   6.423
   24SOL    HW117214   5.940   1.722   6.373
   24SOL    HW217215   5.888   1.595   6.438
   25SOL     OW17216   2.216   0.920   7.092
   25SOL    HW117217   2.255   0.883   7.013
   25SOL    HW217218   2.168   0.998   7.063
   26SOL     OW17219   5.092   0.381   0.777
   26SOL    HW117220   5.128   0.338   0.700
   26SOL    HW217221   5.168   0.402   0.831
   27SOL     OW17222   0.300   1.140   0.986
   27SOL    HW117223   0.302   1.235   0.979
   27SOL    HW217224   0.214   1.120   1.023
   28SOL     OW17225   4.036   1.149   0.688
   28SOL    HW117226   4.091   1.151   0.610
   28SOL    HW217227   3.978   1.074   0.675
   29SOL     OW17228   5.124   2.032   6.746
   29SOL    HW117229   5.083   2.052   6.830
   29SOL    HW217230   5.214   2.065   6.755
   30SOL     OW17231   4.833   0.193   2.191
   30SOL    HW117232   4.751   0.170   2.147
   30SOL    HW217233   4.835   0.137   2.269
   31SOL     OW17234   1.463   4.642   1.284
   31SOL    HW117235   1.454   4.568   1.224
   31SOL    HW217236   1.406   4.621   1.358
   32SOL     OW17237   1.412   2.549   7.739
   32SOL    HW117238   1.447   2.615   7.679
   32SOL    HW217239   1.429   2.583   7.826
   33SOL     OW17240   5.349   5.174   1.283
   33SOL    HW117241   5.403   5.184   1.205
   33SOL    HW217242   5.339   5.079   1.293
   34SOL     OW17243   3.657   0.646   5.686
   34SOL    HW117244   3.674   0.719   5.745
   34SOL    HW217245   3.562   0.630   5.694
   35SOL     OW17246   2.521   0.471   0.702
   35SOL    HW117247   2.602   0.446   0.658
   35SOL    HW217248   2.470   0.516   0.635
   36SOL     OW17249   3.471   1.104   0.198
   36SOL    HW117250   3.491   1.011   0.188
   36SOL    HW217251   3.464   1.117   0.292
   37SOL     OW17252   2.422   5.689   1.706
   37SOL    HW117253   2.333   5.702   1.673
   37SOL    HW217254   2.412   5.631   1.781
   38SOL     OW17255   0.110   3.809   2.059
   38SOL    HW117256   0.203   3.813   2.078
   38SOL    HW217257   0.090   3.715   2.056
   39SOL     OW17258   2.300   0.952   0.030
   39SOL    HW117259   2.371   0.895   0.002
   39SOL    HW217260   2.290   0.935   0.124
   40SOL     OW17261   2.002   2.690   7.534
   40SOL    HW117262   2.073   2.755   7.535
   40SOL    HW217263   2.044   2.609   7.562
   41SOL     OW17264   6.420   6.397   1.021
   41SOL    HW117265   6.412   6.450   0.942
   41SOL    HW217266   6.424   6.307   0.989
   42SOL     OW17267   4.623   4.770   7.048
   42SOL    HW117268   4.615   4.797   7.140
   42SOL    HW217269   4.536   4.735   7.026
   43SOL     OW17270   3.626   0.452   7.083
   43SOL    HW117271   3.554   0.456   7.019
   43SOL    HW217272   3.598   0.509   7.154
   44SOL     OW17273   1.420   2.099   7.276
   44SOL    HW117274   1.489   2.133   7.333
   44SOL    HW217275   1.459   2.100   7.189
   45SOL     OW17276   4.309   3.082   2.021
   45SOL    HW117277   4.280   3.172   2.037
   45SOL    HW217278   4.236   3.043   1.973
   46SOL     OW17279   1.875   4.254   6.717
   46SOL    HW117280   1.946   4.298   6.763
   46SOL    HW217281   1.821   4.216   6.786
   47SOL     OW17282   0.928   4.043   0.827
   47SOL    HW117283   0.950   4.097   0.903
   47SOL    HW217284   0.969   3.958   0.846
   48SOL     OW17285   5.324   4.287   6.292
   48SOL    HW117286   5.276   4.325   6.219
   48SOL    HW217287   5.343   4.361   6.350
   49SOL     OW17288   3.185   0.251   2.146
   49SOL    HW117289   3.187   0.165   2.104
   49SOL    HW217290   3.265   0.294   2.116
   50SOL     OW17291   3.023   4.917   1.544
   50SOL    HW117292   3.046   4.976   1.616
   50SOL    HW217293   3.043   4.829   1.577
   51SOL     OW17294   3.443   2.031   5.431
   51SOL    HW117295   3.402   2.117   5.445
   51SOL    HW217296   3.487   2.039   5.346
   52SOL     OW17297   3.408   1.119   1.237
   52SOL    HW117298   3.434   1.113   1.329
   52SOL    HW217299   3.373   1.207   1.227
   53SOL     OW17300   0.076   0.621   0.861
   53SOL    HW117301  -0.012   0.660   0.865
   53SOL    HW217302   0.075   0.569   0.781
   54SOL     OW17303   5.788   0.670   6.511
   54SOL    HW117304   5.751   0.750   6.474
   54SOL    HW217305   5.713   0.625   6.551
   55SOL     OW17306   5.580   4.157   6.837
   55SOL    HW117307   5.512   4.135   6.774
   55SOL    HW217308   5.662   4.135   6.793
   56SOL     OW17309   3.476   3.870   7.608
   56SOL    HW117310   3.386   3.898   7.625
   56SOL    HW217311   3.521   3.949   7.578
   57SOL     OW17312   1.546   5.837   0.939
   57SOL    HW117313   1.554   5.904   0.872
   57SOL    HW217314   1.471   5.865   0.993
   58SOL     OW17315   6.338   1.723   6.381
   58SOL    HW117316   6.326   1.790   6.313
   58SOL    HW217317   6.359   1.643   6.332
   59SOL     OW17318   0.371   5.896   6.922
   59SOL    HW117319   0.450   5.914   6.872
   59SOL    HW217320   0.315   5.845   6.862
   60SOL     OW17321   0.254   3.638   1.449
   60SOL    HW117322   0.219   3.594   1.527
   60SOL    HW217323   0.259   3.569   1.383
   61SOL     OW17324   3.961   2.733   1.842
   61SOL    HW117325   3.887   2.701   1.790
   61SOL    HW217326   3.929   2.732   1.932
   62SOL     OW17327   5.539   4.665   5.639
   62SOL    HW117328   5.597   4.664   5.564
   62SOL    HW217329   5.594   4.695   5.712
   63SOL     OW17330   1.784   3.160   1.577
   63SOL    HW117331   1.807   3.099   1.647
   63SOL    HW217332   1.868   3.179   1.534
   64SOL     OW17333   1.810   6.434   7.014
   64SOL    HW117334   1.758   6.360   6.982
   64SOL    HW217335   1.822   6.490   6.938
   65SOL     OW17336   0.342   2.352   1.463
   65SOL    HW117337   0.261   2.403   1.465
   65SOL    HW217338   0.410   2.414   1.487
   66SOL     OW17339   2.381   3.073   0.926
   66SOL    HW117340   2.393   3.167   0.945
   66SOL    HW217341   2.445   3.054   0.858
   67SOL     OW17342   1.473   3.618   0.497
   67SOL    HW117343   1.467   3.582   0.408
   67SOL    HW217344   1.555   3.668   0.496
   68SOL     OW17345   5.694   1.231   0.250
   68SOL    HW117346   5.646   1.229   0.333
   68SOL    HW217347   5.782   1.260   0.274
   69SOL     OW17348   3.883   3.539   7.081
   69SOL    HW117349   3.827   3.465   7.056
   69SOL    HW217350   3.905   3.522   7.172
   70SOL     OW17351   1.652   1.179   1.804
   70SOL    HW117352   1.558   1.196   1.817
   70SOL    HW217353   1.693   1.210   1.885
   71SOL     OW17354   5.904   3.668   1.519
   71SOL    HW117355   5.891   3.723   1.443
   71SOL    HW217356   5.985   3.620   1.501
   72SOL     OW17357   0.492   3.299   7.286
   72SOL    HW117358   0.406   3.258   7.278
   72SOL    HW217359   0.475   3.393   7.282
   73SOL     OW17360   0.252   5.142   0.045
   73SOL    HW117361   0.171   5.168   0.089
   73SOL    HW217362   0.225   5.080  -0.022
   74SOL     OW17363   6.110   5.649   0.738
   74SOL    HW117364   6.118   5.563   0.780
   74SOL    HW217365   6.024   5.647   0.696
   75SOL     OW17366   2.954   6.131   1.280
   75SOL    HW117367   2.962   6.207   1.223
   75SOL    HW217368   2.862   6.105   1.273
   76SOL     OW17369   0.738   6.185   0.918
   76SOL    HW117370   0.725   6.196   1.012
   76SOL    HW217371   0.667   6.126   0.890
   77SOL     OW17372   6.171   5.341   7.067
   77SOL    HW117373   6.176   5.366   7.159
   77SOL    HW217374   6.087   5.378   7.037
   78SOL     OW17375   3.280   3.632   6.674
   78SOL    HW117376   3.254   3.724   6.679
   78SOL    HW217377   3.303   3.619   6.582
   79SOL     OW17378   2.522   1.170   6.899
   79SOL    HW117379   2.525   1.155   6.993
   79SOL    HW217380   2.433   1.204   6.883
   80SOL     OW17381   0.805   2.303   0.237
   80SOL    HW117382   0.767   2.387   0.263
   80SOL    HW217383   0.831   2.316   0.146
   81SOL     OW17384   4.206   4.550   7.417
   81SOL    HW117385   4.169   4.634   7.387
   81SOL    HW217386   4.130   4.501   7.450
   82SOL     OW17387   2.143   1.930   0.452
   82SOL    HW117388   2.236   1.936   0.429
   82SOL    HW217389   2.142   1.942   0.547
   83SOL     OW17390   0.440   2.964   1.121
   83SOL    HW117391   0.520   2.913   1.104
   83SOL    HW217392   0.414   2.995   1.034
   84SOL     OW17393   3.726   4.879   1.558
   84SOL    HW117394   3.754   4.795   1.595
   84SOL    HW217395   3.798   4.904   1.499
   85SOL     OW17396   2.503   5.463   7.821
   85SOL    HW117397   2.460   5.457   7.736
   85SOL    HW217398   2.594   5.484   7.801
   86SOL     OW17399   3.272   3.453   7.315
   86SOL    HW117400   3.223   3.466   7.234
   86SOL    HW217401   3.214   3.484   7.384
   87SOL     OW17402   6.293   6.202   2.432
   87SOL    HW117403   6.358   6.139   2.463
   87SOL    HW217404   6.342   6.262   2.376
   88SOL     OW17405   0.888   2.462   1.548
   88SOL    HW117406   0.899   2.556   1.557
   88SOL    HW217407   0.916   2.427   1.633
   89SOL     OW17408   4.761   2.377   6.230
   89SOL    HW117409   4.774   2.380   6.325
   89SOL    HW217410   4.803   2.457   6.198
   90SOL     OW17411   0.485   5.589   6.831
   90SOL    HW117412   0.467   5.584   6.737
   90SOL    HW217413   0.526   5.675   6.842
   91SOL     OW17414   4.502   5.997   0.822
   91SOL    HW117415   4.450   6.011   0.902
   91SOL    HW217416   4.508   5.902   0.814
   92SOL     OW17417   5.109   5.710   6.914
   92SOL    HW117418   5.090   5.620   6.943
   92SOL    HW217419   5.111   5.761   6.995
   93SOL     OW17420   4.562   2.546   7.656
   93SOL    HW117421   4.539   2.509   7.742
   93SOL    HW217422   4.507   2.497   7.594
   94SOL     OW17423   2.470   1.550   7.015
   94SOL    HW117424   2.399   1.591   6.965
   94SOL    HW217425   2.521   1.624   7.049
   95SOL     OW17426   1.506   3.626   6.719
   95SOL    HW117427   1.537   3.715   6.706
   95SOL    HW217428   1.575   3.583   6.770
   96SOL     OW17429   6.310   6.102   5.799
   96SOL    HW117430   6.250   6.030   5.817
   96SOL    HW217431   6.323   6.145   5.884
   97SOL     OW17432   4.379   0.792   0.759
   97SOL    HW117433   4.287   0.788   0.786
   97SOL    HW217434   4.423   0.725   0.812
   98SOL     OW17435   1.519   4.100   0.209
   98SOL    HW117436   1.551   4.164   0.273
   98SOL    HW217437   1.466   4.040   0.260
   99SOL     OW17438   4.603   3.095   1.130
   99SOL    HW117439   4.609   2.999   1.134
   99SOL    HW217440   4.542   3.112   1.058
  100SOL     OW17441   2.620   5.714   5.947
  100SOL    HW117442   2.714   5.703   5.955
  100SOL    HW217443   2.604   5.806   5.967
  101SOL     OW17444   0.350   4.591   6.619
  101SOL    HW117445   0.365   4.523   6.553
  101SOL    HW217446   0.428   4.588   6.674
  102SOL     OW17447   3.966   6.405   6.370
  102SOL    HW117448   3.982   6.315   6.400
  102SOL    HW217449   3.984   6.402   6.276
  103SOL     OW17450   5.621   3.823   1.944
  103SOL    HW117451   5.677   3.808   1.868
  103SOL    HW217452   5.673   3.793   2.018
  104SOL     OW17453   2.012   0.437   1.933
  104SOL    HW117454   2.108   0.435   1.930
  104SOL    HW217455   1.986   0.468   1.847
  105SOL     OW17456   2.153   5.015   6.638
  105SOL    HW117457   2.181   4.925   6.623
  105SOL    HW217458   2.231   5.059   6.672
  106SOL     OW17459   5.056   2.653   5.737
  106SOL    HW117460   5.095   2.735   5.767
  106SOL    HW217461   4.984   2.636   5.797
  107SOL     OW17462   0.287   4.254   0.645
  107SOL    HW117463   0.276   4.214   0.559
  107SOL    HW217464   0.377   4.285   0.647
  108SOL     OW17465   2.303   1.180   1.306
  108SOL    HW117466   2.387   1.227   1.306
  108SOL    HW217467   2.325   1.094   1.271
  109SOL     OW17468   0.111   6.335   1.936
  109SOL    HW117469   0.180   6.271   1.920
  109SOL    HW217470   0.121   6.359   2.028
  110SOL     OW17471   5.938   5.272   5.701
  110SOL    HW117472   5.950   5.321   5.620
  110SOL    HW217473   5.873   5.205   5.679
  111SOL     OW17474   1.739   1.284   7.232
  111SOL    HW117475   1.722   1.378   7.220
  111SOL    HW217476   1.693   1.243   7.158
  112SOL     OW17477   4.236   5.879   5.973
  112SOL    HW117478   4.157   5.885   6.027
  112SOL    HW217479   4.292   5.951   6.004
  113SOL     OW17480   1.434   0.606   6.739
  113SOL    HW117481   1.427   0.512   6.756
  113SOL    HW217482   1.366   0.624   6.675
  114SOL     OW17483   4.617   0.751   0.485
  114SOL    HW117484   4.527   0.720   0.486
  114SOL    HW217485   4.665   0.685   0.434
  115SOL     OW17486   4.073   2.325   0.534
  115SOL    HW117487   4.151   2.345   0.587
  115SOL    HW217488   4.000   2.333   0.596
  116SOL     OW17489   3.456   5.399   0.909
  116SOL    HW117490   3.456   5.491   0.937
  116SOL    HW217491   3.467   5.403   0.814
  117SOL     OW17492   0.102   0.392   6.738
  117SOL    HW117493   0.194   0.369   6.748
  117SOL    HW217494   0.063   0.315   6.695
  118SOL     OW17495   5.258   4.852   1.715
  118SOL    HW117496   5.183   4.911   1.706
  118SOL    HW217497   5.260   4.831   1.809
  119SOL     OW17498   0.669   3.634   5.403
  119SOL    HW117499   0.607   3.690   5.451
  119SOL    HW217500   0.660   3.663   5.312
  120SOL     OW17501   2.505   6.090   0.443
  120SOL    HW117502   2.539   6.009   0.405
  120SOL    HW217503   2.417   6.099   0.406
  121SOL     OW17504   4.264   5.902   7.382
  121SOL    HW117505   4.222   5.945   7.308
  121SOL    HW217506   4.252   5.808   7.366
  122SOL     OW17507   6.309   4.573   1.118
  122SOL    HW117508   6.220   4.606   1.130
  122SOL    HW217509   6.325   4.580   1.024
  123SOL     OW17510   0.218   2.204   1.681
  123SOL    HW117511   0.195   2.159   1.599
  123SOL    HW217512   0.261   2.284   1.652
  124SOL     OW17513   4.311   1.359   7.176
  124SOL    HW117514   4.261   1.404   7.243
  124SOL    HW217515   4.352   1.429   7.124
  125SOL     OW17516   2.398   4.565   0.849
  125SOL    HW117517   2.480   4.560   0.801
  125SOL    HW217518   2.360   4.478   0.842
  126SOL     OW17519   0.539   5.690   7.111
  126SOL    HW117520   0.517   5.636   7.035
  126SOL    HW217521   0.457   5.696   7.160
  127SOL     OW17522   5.970   0.997   7.485
  127SOL    HW117523   6.012   1.055   7.421
  127SOL    HW217524   5.878   0.993   7.458
  128SOL     OW17525   2.003   3.282   1.051
  128SOL    HW117526   2.017   3.199   1.006
  128SOL    HW217527   1.910   3.301   1.037
  129SOL     OW17528   0.169   2.573   0.930
  129SOL    HW117529   0.224   2.561   1.007
  129SOL    HW217530   0.146   2.666   0.931
  130SOL     OW17531   1.211   6.144   1.678
  130SOL    HW117532   1.305   6.138   1.661
  130SOL    HW217533   1.196   6.086   1.753
  131SOL     OW17534   2.338   6.186   7.688
  131SOL    HW117535   2.339   6.282   7.690
  131SOL    HW217536   2.246   6.163   7.696
  132SOL     OW17537   1.762   4.663   1.600
  132SOL    HW117538   1.684   4.613   1.622
  132SOL    HW217539   1.780   4.716   1.678
  133SOL     OW17540   1.398   3.128   7.431
  133SOL    HW117541   1.329   3.177   7.477
  133SOL    HW217542   1.469   3.122   7.495
  134SOL     OW17543   5.717   3.827   6.763
  134SOL    HW117544   5.766   3.770   6.823
  134SOL    HW217545   5.769   3.907   6.757
  135SOL     OW17546   4.635   3.774   6.973
  135SOL    HW117547   4.649   3.694   6.923
  135SOL    HW217548   4.576   3.826   6.919
  136SOL     OW17549   0.556   6.064   0.322
  136SOL    HW117550   0.480   6.008   0.337
  136SOL    HW217551   0.534   6.115   0.244
  137SOL     OW17552   1.045   4.684   1.570
  137SOL    HW117553   0.951   4.667   1.580
  137SOL    HW217554   1.059   4.766   1.617
  138SOL     OW17555   3.399   0.788   7.034
  138SOL    HW117556   3.339   0.771   7.107
  138SOL    HW217557   3.470   0.839   7.073
  139SOL     OW17558   3.450   6.418   6.724
  139SOL    HW117559   3.359   6.388   6.717
  139SOL    HW217560   3.499   6.358   6.667
  140SOL     OW17561   0.590   3.361   5.470
  140SOL    HW117562   0.678   3.323   5.474
  140SOL    HW217563   0.605   3.453   5.449
  141SOL     OW17564   6.200   5.319   1.506
  141SOL    HW117565   6.122   5.365   1.536
  141SOL    HW217566   6.203   5.336   1.412
  142SOL     OW17567   2.585   5.930   0.873
  142SOL    HW117568   2.677   5.950   0.889
  142SOL    HW217569   2.584   5.836   0.857
  143SOL     OW17570   6.049   5.560   6.711
  143SOL    HW117571   6.045   5.464   6.712
  143SOL    HW217572   5.962   5.587   6.682
  144SOL     OW17573   0.655   5.906   1.532
  144SOL    HW117574   0.614   5.823   1.559
  144SOL    HW217575   0.692   5.941   1.613
  145SOL     OW17576   6.090   1.799   5.877
  145SOL    HW117577   6.079   1.880   5.927
  145SOL    HW217578   6.146   1.744   5.932
  146SOL     OW17579   1.173   6.342   1.036
  146SOL    HW117580   1.210   6.260   1.067
  146SOL    HW217581   1.130   6.320   0.953
  147SOL     OW17582   1.628   1.107   7.048
  147SOL    HW117583   1.690   1.038   7.027
  147SOL    HW217584   1.552   1.062   7.085
  148SOL     OW17585   1.505   3.293   7.709
  148SOL    HW117586   1.564   3.279   7.783
  148SOL    HW217587   1.441   3.221   7.715
  149SOL     OW17588   3.830   5.563   0.589
  149SOL    HW117589   3.913   5.538   0.629
  149SOL    HW217590   3.776   5.484   0.593
  150SOL     OW17591   2.572   3.802   1.080
  150SOL    HW117592   2.655   3.766   1.111
  150SOL    HW217593   2.594   3.848   0.999
  151SOL     OW17594   1.725   4.735   1.303
  151SOL    HW117595   1.639   4.703   1.277
  151SOL    HW217596   1.729   4.720   1.398
  152SOL     OW17597   5.432   6.257   1.037
  152SOL    HW117598   5.444   6.343   0.997
  152SOL    HW217599   5.367   6.214   0.982
  153SOL     OW17600   4.634   2.121   7.381
  153SOL    HW117601   4.597   2.033   7.384
  153SOL    HW217602   4.632   2.145   7.288
  154SOL     OW17603   2.913   0.997   2.322
  154SOL    HW117604   2.825   0.990   2.360
  154SOL    HW217605   2.953   0.911   2.339
  155SOL     OW17606   4.356   2.145   7.731
  155SOL    HW117607   4.263   2.148   7.753
  155SOL    HW217608   4.361   2.094   7.651
  156SOL     OW17609   3.784   2.808   1.588
  156SOL    HW117610   3.751   2.794   1.499
  156SOL    HW217611   3.742   2.740   1.640
  157SOL     OW17612   6.352   0.107   7.512
  157SOL    HW117613   6.422   0.144   7.565
  157SOL    HW217614   6.366   0.012   7.516
  158SOL     OW17615   1.738   5.165   1.198
  158SOL    HW117616   1.689   5.117   1.264
  158SOL    HW217617   1.751   5.252   1.236
  159SOL     OW17618   0.561   1.888   6.018
  159SOL    HW117619   0.494   1.838   6.063
  159SOL    HW217620   0.643   1.863   6.061
  160SOL     OW17621   2.028   2.757   0.585
  160SOL    HW117622   2.005   2.727   0.673
  160SOL    HW217623   2.120   2.781   0.592
  161SOL     OW17624   0.325   3.132   0.138
  161SOL    HW117625   0.383   3.208   0.145
  161SOL    HW217626   0.382   3.056   0.151
  162SOL     OW17627   3.263   4.994   1.416
  162SOL    HW117628   3.172   4.970   1.435
  162SOL    HW217629   3.280   5.069   1.472
  163SOL     OW17630   0.286   2.323   6.630
  163SOL    HW117631   0.214   2.268   6.601
  163SOL    HW217632   0.356   2.261   6.653
  164SOL     OW17633   0.374   1.216   6.735
  164SOL    HW117634   0.410   1.130   6.711
  164SOL    HW217635   0.448   1.263   6.773
  165SOL     OW17636   3.983   5.789   7.501
  165SOL    HW117637   3.941   5.703   7.499
  165SOL    HW217638   4.062   5.776   7.554
  166SOL     OW17639   3.651   1.783   7.794
  166SOL    HW117640   3.670   1.693   7.820
  166SOL    HW217641   3.581   1.811   7.853
  167SOL     OW17642   0.167   5.333   6.042
  167SOL    HW117643   0.078   5.341   6.077
  167SOL    HW217644   0.169   5.245   6.004
  168SOL     OW17645   0.086   3.411   5.474
  168SOL    HW117646   0.173   3.371   5.476
  168SOL    HW217647   0.103   3.504   5.457
  169SOL     OW17648   5.201   1.252   7.422
  169SOL    HW117649   5.256   1.316   7.467
  169SOL    HW217650   5.227   1.168   7.459
  170SOL     OW17651   5.505   3.612   7.476
  170SOL    HW117652   5.479   3.532   7.523
  170SOL    HW217653   5.600   3.613   7.481
  171SOL     OW17654   4.306   6.407   7.748
  171SOL    HW117655   4.216   6.376   7.739
  171SOL    HW217656   4.298   6.495   7.786
  172SOL     OW17657   2.337   2.801   0.841
  172SOL    HW117658   2.387   2.792   0.760
  172SOL    HW217659   2.360   2.888   0.874
  173SOL     OW17660   3.995   4.866   6.072
  173SOL    HW117661   3.985   4.904   5.985
  173SOL    HW217662   3.941   4.787   6.070
  174SOL     OW17663   1.037   2.120   0.875
  174SOL    HW117664   0.956   2.084   0.838
  174SOL    HW217665   1.021   2.122   0.970
  175SOL     OW17666   5.195   5.656   5.914
  175SOL    HW117667   5.162   5.738   5.877
  175SOL    HW217668   5.175   5.590   5.847
  176SOL     OW17669   0.530   0.964   6.076
  176SOL    HW117670   0.451   1.010   6.049
  176SOL    HW217671   0.598   1.031   6.079
  177SOL     OW17672   3.834   1.389   7.107
  177SOL    HW117673   3.872   1.474   7.130
  177SOL    HW217674   3.858   1.376   7.015
  178SOL     OW17675   1.480   6.169   1.327
  178SOL    HW117676   1.532   6.242   1.295
  178SOL    HW217677   1.413   6.156   1.260
  179SOL     OW17678   3.380   3.931   6.357
  179SOL    HW117679   3.352   4.022   6.363
  179SOL    HW217680   3.438   3.929   6.281
  180SOL     OW17681   1.715   2.575   0.894
  180SOL    HW117682   1.638   2.530   0.930
  180SOL    HW217683   1.704   2.569   0.799
  181SOL     OW17684   5.727   0.734   1.933
  181SOL    HW117685   5.654   0.795   1.937
  181SOL    HW217686   5.783   0.769   1.864
  182SOL     OW17687   0.274   5.922   1.293
  182SOL    HW117688   0.286   5.831   1.320
  182SOL    HW217689   0.191   5.922   1.245
  183SOL     OW17690   3.568   1.509   7.044
  183SOL    HW117691   3.523   1.457   6.978
  183SOL    HW217692   3.644   1.456   7.068
  184SOL     OW17693   1.110   1.317   6.896
  184SOL    HW117694   1.124   1.276   6.811
  184SOL    HW217695   1.016   1.336   6.898
  185SOL     OW17696   0.883   0.381   7.202
  185SOL    HW117697   0.962   0.328   7.197
  185SOL    HW217698   0.813   0.319   7.227
  186SOL     OW17699   5.656   4.804   5.893
  186SOL    HW117700   5.606   4.885   5.903
  186SOL    HW217701   5.738   4.832   5.851
  187SOL     OW17702   3.451   0.734   7.808
  187SOL    HW117703   3.497   0.650   7.801
  187SOL    HW217704   3.514   0.792   7.852
  188SOL     OW17705   4.405   3.951   1.113
  188SOL    HW117706   4.345   3.951   1.188
  188SOL    HW217707   4.477   3.895   1.141
  189SOL     OW17708   4.508   1.901   7.412
  189SOL    HW117709   4.506   1.856   7.496
  189SOL    HW217710   4.446   1.853   7.357
  190SOL     OW17711   3.223   1.342   1.250
  190SOL    HW117712   3.266   1.407   1.307
  190SOL    HW217713   3.175   1.395   1.186
  191SOL     OW17714   0.119   5.875   6.467
  191SOL    HW117715   0.051   5.918   6.416
  191SOL    HW217716   0.081   5.864   6.554
  192SOL     OW17717   5.440   2.980   0.396
  192SOL    HW117718   5.534   2.963   0.392
  192SOL    HW217719   5.431   3.074   0.382
  193SOL     OW17720   3.931   2.092   0.816
  193SOL    HW117721   3.923   2.095   0.721
  193SOL    HW217722   4.021   2.062   0.832
  194SOL     OW17723   0.327   2.248   2.432
  194SOL    HW117724   0.323   2.341   2.408
  194SOL    HW217725   0.356   2.204   2.352
  195SOL     OW17726   4.275   4.745   0.965
  195SOL    HW117727   4.239   4.670   0.920
  195SOL    HW217728   4.199   4.794   0.995
  196SOL     OW17729   5.036   2.465   7.559
  196SOL    HW117730   5.001   2.443   7.473
  196SOL    HW217731   5.022   2.559   7.568
  197SOL     OW17732   4.542   6.186   1.615
  197SOL    HW117733   4.630   6.171   1.649
  197SOL    HW217734   4.492   6.218   1.690
  198SOL     OW17735   3.578   2.599   5.875
  198SOL    HW117736   3.554   2.581   5.785
  198SOL    HW217737   3.494   2.598   5.923
  199SOL     OW17738   3.324   0.851   5.524
  199SOL    HW117739   3.401   0.848   5.468
  199SOL    HW217740   3.292   0.942   5.515
  200SOL     OW17741   1.101   0.805   0.027
  200SOL    HW117742   1.186   0.813  -0.018
  200SOL    HW217743   1.117   0.840   0.115
  201SOL     OW17744   4.183   4.782   6.352
  201SOL    HW117745   4.150   4.869   6.332
  201SOL    HW217746   4.161   4.768   6.445
  202SOL     OW17747   1.070   5.385   0.165
  202SOL    HW117748   1.085   5.451   0.233
  202SOL    HW217749   1.145   5.395   0.106
  203SOL     OW17750   2.641   3.813   6.015
  203SOL    HW117751   2.720   3.810   6.068
  203SOL    HW217752   2.672   3.821   5.925
  204SOL     OW17753   2.971   3.817   7.133
  204SOL    HW117754   2.969   3.722   7.145
  204SOL    HW217755   3.062   3.836   7.110
  205SOL     OW17756   5.640   4.424   7.295
  205SOL    HW117757   5.614   4.508   7.259
  205SOL    HW217758   5.705   4.445   7.362
  206SOL     OW17759   3.056   2.556   1.832
  206SOL    HW117760   2.961   2.557   1.840
  206SOL    HW217761   3.084   2.481   1.885
  207SOL     OW17762   5.570   0.523   6.584
  207SOL    HW117763   5.525   0.471   6.518
  207SOL    HW217764   5.500   0.560   6.638
  208SOL     OW17765   1.375   3.566   5.539
  208SOL    HW117766   1.423   3.626   5.482
  208SOL    HW217767   1.442   3.528   5.595
  209SOL     OW17768   1.152   1.141   0.907
  209SOL    HW117769   1.192   1.185   0.832
  209SOL    HW217770   1.058   1.142   0.888
  210SOL     OW17771   2.930   2.990   1.739
  210SOL    HW117772   2.901   2.901   1.720
  210SOL    HW217773   2.967   3.021   1.656
  211SOL     OW17774   2.747   5.923   6.370
  211SOL    HW117775   2.700   5.842   6.349
  211SOL    HW217776   2.689   5.970   6.429
  212SOL     OW17777   3.754   4.544   7.427
  212SOL    HW117778   3.674   4.522   7.474
  212SOL    HW217779   3.816   4.475   7.451
  213SOL     OW17780   2.073   6.110   7.709
  213SOL    HW117781   2.055   6.017   7.723
  213SOL    HW217782   2.032   6.154   7.784
  214SOL     OW17783   4.997   3.853   6.851
  214SOL    HW117784   4.997   3.880   6.943
  214SOL    HW217785   5.077   3.803   6.841
  215SOL     OW17786   3.697   5.218   7.006
  215SOL    HW117787   3.758   5.290   6.987
  215SOL    HW217788   3.627   5.228   6.942
  216SOL     OW17789   4.938   3.795   6.052
  216SOL    HW117790   4.870   3.857   6.076
  216SOL    HW217791   4.963   3.821   5.963
  217SOL     OW17792   2.689   1.713   0.270
  217SOL    HW117793   2.771   1.663   0.263
  217SOL    HW217794   2.694   1.778   0.200
  218SOL     OW17795   3.747   5.293   0.597
  218SOL    HW117796   3.651   5.287   0.600
  218SOL    HW217797   3.777   5.219   0.650
  219SOL     OW17798   0.797   5.353   6.216
  219SOL    HW117799   0.782   5.263   6.242
  219SOL    HW217800   0.886   5.353   6.179
  220SOL     OW17801   1.842   4.244   2.255
  220SOL    HW117802   1.908   4.292   2.307
  220SOL    HW217803   1.791   4.313   2.212
  221SOL     OW17804   5.943   1.860   5.639
  221SOL    HW117805   5.943   1.952   5.667
  221SOL    HW217806   5.998   1.816   5.704
  222SOL     OW17807   4.936   4.358   6.602
  222SOL    HW117808   4.927   4.263   6.609
  222SOL    HW217809   4.919   4.390   6.691
  223SOL     OW17810   6.097   5.405   6.426
  223SOL    HW117811   6.186   5.441   6.424
  223SOL    HW217812   6.104   5.323   6.377
  224SOL     OW17813   4.295   6.384   1.386
  224SOL    HW117814   4.206   6.379   1.351
  224SOL    HW217815   4.283   6.389   1.481
  225SOL     OW17816   0.090   2.317   1.947
  225SOL    HW117817   0.163   2.324   2.009
  225SOL    HW217818   0.013   2.341   1.999
  226SOL     OW17819   5.875   6.406   6.978
  226SOL    HW117820   5.938   6.455   7.029
  226SOL    HW217821   5.830   6.350   7.042
  227SOL     OW17822   4.715   1.722   6.170
  227SOL    HW117823   4.808   1.701   6.174
  227SOL    HW217824   4.709   1.790   6.102
  228SOL     OW17825   0.443   2.016   7.382
  228SOL    HW117826   0.431   1.936   7.433
  228SOL    HW217827   0.367   2.018   7.324
  229SOL     OW17828   2.103   3.628   2.383
  229SOL    HW117829   2.117   3.722   2.382
  229SOL    HW217830   2.070   3.607   2.296
  230SOL     OW17831   5.161   4.090   7.096
  230SOL    HW117832   5.152   3.995   7.099
  230SOL    HW217833   5.165   4.117   7.187
  231SOL     OW17834   3.755   3.155   2.274
  231SOL    HW117835   3.831   3.142   2.218
  231SOL    HW217836   3.774   3.101   2.352
  232SOL     OW17837   2.752   3.230   6.592
  232SOL    HW117838   2.807   3.164   6.634
  232SOL    HW217839   2.678   3.181   6.557
  233SOL     OW17840   2.251   0.481   6.234
  233SOL    HW117841   2.156   0.492   6.223
  233SOL    HW217842   2.289   0.556   6.188
  234SOL     OW17843   5.724   1.189   1.789
  234SOL    HW117844   5.812   1.217   1.763
  234SOL    HW217845   5.695   1.132   1.718
  235SOL     OW17846   0.402   4.408   7.211
  235SOL    HW117847   0.437   4.457   7.286
  235SOL    HW217848   0.461   4.429   7.139
  236SOL     OW17849   3.491   2.993   0.489
  236SOL    HW117850   3.434   2.924   0.456
  236SOL    HW217851   3.554   2.948   0.545
  237SOL     OW17852   2.913   3.248   6.169
  237SOL    HW117853   2.962   3.309   6.225
  237SOL    HW217854   2.980   3.199   6.122
  238SOL     OW17855   3.355   1.850   5.607
  238SOL    HW117856   3.440   1.833   5.648
  238SOL    HW217857   3.372   1.918   5.542
  239SOL     OW17858   3.187   6.265   0.577
  239SOL    HW117859   3.266   6.249   0.525
  239SOL    HW217860   3.220   6.300   0.660
  240SOL     OW17861   5.606   5.413   1.248
  240SOL    HW117862   5.576   5.357   1.176
  240SOL    HW217863   5.554   5.386   1.323
  241SOL     OW17864   0.969   0.394   1.874
  241SOL    HW117865   0.982   0.348   1.957
  241SOL    HW217866   0.919   0.333   1.820
  242SOL     OW17867   5.126   3.555   5.321
  242SOL    HW117868   5.077   3.611   5.382
  242SOL    HW217869   5.189   3.509   5.376
  243SOL     OW17870   3.342   2.103   0.919
  243SOL    HW117871   3.372   2.072   0.834
  243SOL    HW217872   3.330   2.197   0.907
  244SOL     OW17873   2.852   5.482   0.806
  244SOL    HW117874   2.915   5.554   0.803
  244SOL    HW217875   2.838   5.466   0.899
  245SOL     OW17876   1.741   1.660   6.566
  245SOL    HW117877   1.651   1.658   6.598
  245SOL    HW217878   1.750   1.580   6.514
  246SOL     OW17879   0.593   3.410   1.373
  246SOL    HW117880   0.631   3.493   1.401
  246SOL    HW217881   0.499   3.422   1.384
  247SOL     OW17882   0.217   4.577   0.995
  247SOL    HW117883   0.295   4.597   1.047
  247SOL    HW217884   0.167   4.515   1.048
  248SOL     OW17885   1.819   3.419   2.094
  248SOL    HW117886   1.754   3.354   2.120
  248SOL    HW217887   1.777   3.470   2.025
  249SOL     OW17888   3.927   4.568   6.547
  249SOL    HW117889   3.846   4.564   6.497
  249SOL    HW217890   3.974   4.488   6.523
  250SOL     OW17891   3.349   3.173   0.641
  250SOL    HW117892   3.400   3.106   0.594
  250SOL    HW217893   3.407   3.202   0.711
  251SOL     OW17894   0.224   3.566   2.731
  251SOL    HW117895   0.225   3.635   2.665
  251SOL    HW217896   0.230   3.612   2.814
  252SOL     OW17897   4.843   1.336   1.363
  252SOL    HW117898   4.763   1.346   1.416
  252SOL    HW217899   4.893   1.267   1.407
  253SOL     OW17900   0.653   0.250   0.225
  253SOL    HW117901   0.609   0.283   0.146
  253SOL    HW217902   0.739   0.292   0.222
  254SOL     OW17903   3.256   1.220   7.421
  254SOL    HW117904   3.311   1.173   7.484
  254SOL    HW217905   3.173   1.233   7.466
  255SOL     OW17906   0.190   0.916   6.975
  255SOL    HW117907   0.192   0.842   7.036
  255SOL    HW217908   0.266   0.969   7.000
  256SOL     OW17909   5.636   0.244   6.160
  256SOL    HW117910   5.632   0.328   6.113
  256SOL    HW217911   5.548   0.232   6.195
  257SOL     OW17912   2.558   3.031   6.489
  257SOL    HW117913   2.646   3.017   6.456
  257SOL    HW217914   2.503   3.035   6.410
  258SOL     OW17915   1.616   3.879   6.771
  258SOL    HW117916   1.685   3.879   6.837
  258SOL    HW217917   1.640   3.949   6.710
  259SOL     OW17918   2.892   1.839   0.821
  259SOL    HW117919   2.961   1.776   0.798
  259SOL    HW217920   2.937   1.907   0.872
  260SOL     OW17921   4.875   0.542   6.713
  260SOL    HW117922   4.875   0.455   6.672
  260SOL    HW217923   4.784   0.572   6.705
  261SOL     OW17924   2.302   0.130   2.253
  261SOL    HW117925   2.351   0.209   2.275
  261SOL    HW217926   2.221   0.137   2.303
  262SOL     OW17927   1.588   3.105   0.295
  262SOL    HW117928   1.620   3.098   0.205
  262SOL    HW217929   1.604   3.019   0.333
  263SOL     OW17930   5.653   4.127   7.428
  263SOL    HW117931   5.672   4.114   7.335
  263SOL    HW217932   5.624   4.040   7.458
  264SOL     OW17933   6.334   2.089   7.462
  264SOL    HW117934   6.325   2.004   7.418
  264SOL    HW217935   6.291   2.077   7.547
  265SOL     OW17936   1.042   2.265   6.963
  265SOL    HW117937   0.996   2.181   6.969
  265SOL    HW217938   0.997   2.322   7.024
  266SOL     OW17939   0.689   2.045   1.462
  266SOL    HW117940   0.767   2.069   1.512
  266SOL    HW217941   0.617   2.054   1.523
  267SOL     OW17942   4.306   3.091   6.437
  267SOL    HW117943   4.230   3.063   6.386
  267SOL    HW217944   4.372   3.023   6.422
  268SOL     OW17945   5.755   4.718   0.357
  268SOL    HW117946   5.712   4.797   0.325
  268SOL    HW217947   5.690   4.649   0.345
  269SOL     OW17948   2.944   2.090   0.315
  269SOL    HW117949   3.021   2.146   0.328
  269SOL    HW217950   2.976   2.002   0.333
  270SOL     OW17951   1.132   3.000   7.235
  270SOL    HW117952   1.092   2.923   7.277
  270SOL    HW217953   1.201   2.963   7.180
  271SOL     OW17954   4.656   6.220   0.784
  271SOL    HW117955   4.615   6.137   0.807
  271SOL    HW217956   4.709   6.243   0.860
  272SOL     OW17957   4.722   0.245   0.389
  272SOL    HW117958   4.693   0.154   0.382
  272SOL    HW217959   4.693   0.272   0.476
  273SOL     OW17960   0.745   3.281   7.591
  273SOL    HW117961   0.816   3.341   7.614
  273SOL    HW217962   0.728   3.232   7.672
  274SOL     OW17963   3.741   0.654   1.039
  274SOL    HW117964   3.748   0.617   1.127
  274SOL    HW217965   3.677   0.725   1.048
  275SOL     OW17966   0.540   4.506   2.150
  275SOL    HW117967   0.487   4.476   2.076
  275SOL    HW217968   0.571   4.593   2.124
  276SOL     OW17969   1.040   5.186   1.610
  276SOL    HW117970   1.056   5.205   1.702
  276SOL    HW217971   0.946   5.201   1.599
  277SOL     OW17972   5.744   1.967   0.416
  277SOL    HW117973   5.725   2.049   0.461
  277SOL    HW217974   5.722   1.984   0.324
  278SOL     OW17975   5.448   5.133   0.355
  278SOL    HW117976   5.501   5.211   0.374
  278SOL    HW217977   5.486   5.064   0.410
  279SOL     OW17978   0.188   0.422   5.564
  279SOL    HW117979   0.150   0.495   5.517
  279SOL    HW217980   0.176   0.444   5.657
  280SOL     OW17981   5.395   1.585   0.686
  280SOL    HW117982   5.357   1.532   0.756
  280SOL    HW217983   5.414   1.669   0.728
  281SOL     OW17984   4.767   1.965   0.474
  281SOL    HW117985   4.730   1.877   0.474
  281SOL    HW217986   4.705   2.018   0.525
  282SOL     OW17987   4.751   3.112   0.013
  282SOL    HW117988   4.676   3.171   0.005
  282SOL    HW217989   4.796   3.141   0.093
  283SOL     OW17990   4.504   1.723   1.795
  283SOL    HW117991   4.537   1.697   1.881
  283SOL    HW217992   4.409   1.727   1.805
  284SOL     OW17993   5.064   5.882   5.856
  284SOL    HW117994   5.041   5.971   5.883
  284SOL    HW217995   5.013   5.867   5.776
  285SOL     OW17996   1.520   2.663   6.940
  285SOL    HW117997   1.455   2.718   6.895
  285SOL    HW217998   1.468   2.608   6.999
  286SOL     OW17999   0.148   1.536   1.351
  286SOL    HW118000   0.118   1.612   1.302
  286SOL    HW218001   0.128   1.461   1.295
  287SOL     OW18002   3.649   5.836   6.397
  287SOL    HW118003   3.616   5.856   6.309
  287SOL    HW218004   3.660   5.741   6.397
  288SOL     OW18005   1.502   5.518   1.508
  288SOL    HW118006   1.504   5.596   1.564
  288SOL    HW218007   1.417   5.479   1.525
  289SOL     OW18008   1.397   4.822   7.684
  289SOL    HW118009   1.452   4.770   7.743
  289SOL    HW218010   1.357   4.758   7.625
  290SOL     OW18011   3.297   5.855   6.788
  290SOL    HW118012   3.379   5.806   6.784
  290SOL    HW218013   3.286   5.876   6.881
  291SOL     OW18014   0.872   4.476   7.462
  291SOL    HW118015   0.906   4.389   7.482
  291SOL    HW218016   0.872   4.480   7.366
  292SOL     OW18017   1.946   5.520   0.945
  292SOL    HW118018   1.920   5.564   1.025
  292SOL    HW218019   1.865   5.508   0.896
  293SOL     OW18020   3.312   5.992   5.795
  293SOL    HW118021   3.244   6.053   5.822
  293SOL    HW218022   3.358   6.036   5.723
  294SOL     OW18023   5.526   2.496   6.760
  294SOL    HW118024   5.611   2.460   6.783
  294SOL    HW218025   5.542   2.550   6.683
  295SOL     OW18026   0.653   0.073   6.668
  295SOL    HW118027   0.748   0.062   6.670
  295SOL    HW218028   0.620  -0.011   6.635
  296SOL     OW18029   1.407   3.822   6.989
  296SOL    HW118030   1.330   3.793   6.940
  296SOL    HW218031   1.468   3.852   6.921
  297SOL     OW18032   1.766   4.799   7.010
  297SOL    HW118033   1.754   4.886   6.973
  297SOL    HW218034   1.861   4.786   7.011
  298SOL     OW18035   0.426   6.359   6.099
  298SOL    HW118036   0.476   6.357   6.018
  298SOL    HW218037   0.369   6.435   6.090
  299SOL     OW18038   5.444   5.437   6.522
  299SOL    HW118039   5.499   5.437   6.444
  299SOL    HW218040   5.453   5.525   6.558
  300SOL     OW18041   3.226   0.211   1.830
  300SOL    HW118042   3.136   0.225   1.800
  300SOL    HW218043   3.216   0.156   1.908
  301SOL     OW18044   1.640   3.006   1.364
  301SOL    HW118045   1.714   2.956   1.400
  301SOL    HW218046   1.655   3.095   1.396
  302SOL     OW18047   2.340   1.307   0.526
  302SOL    HW118048   2.435   1.299   0.521
  302SOL    HW218049   2.312   1.323   0.436
  303SOL     OW18050   3.342   3.507   1.307
  303SOL    HW118051   3.328   3.602   1.314
  303SOL    HW218052   3.254   3.470   1.303
  304SOL     OW18053   3.137   1.075   1.120
  304SOL    HW118054   3.183   0.994   1.140
  304SOL    HW218055   3.140   1.125   1.201
  305SOL     OW18056   5.192   4.621   0.708
  305SOL    HW118057   5.106   4.660   0.695
  305SOL    HW218058   5.179   4.553   0.773
  306SOL     OW18059   2.977   3.061   0.316
  306SOL    HW118060   3.051   3.074   0.256
  306SOL    HW218061   2.974   3.142   0.368
  307SOL     OW18062   0.193   4.264   5.679
  307SOL    HW118063   0.272   4.271   5.733
  307SOL    HW218064   0.150   4.349   5.688
  308SOL     OW18065   1.245   3.035   1.090
  308SOL    HW118066   1.314   3.006   1.150
  308SOL    HW218067   1.289   3.096   1.030
  309SOL     OW18068   3.937   0.309   5.540
  309SOL    HW118069   3.933   0.215   5.560
  309SOL    HW218070   4.016   0.318   5.486
  310SOL     OW18071   5.262   1.006   1.472
  310SOL    HW118072   5.242   0.913   1.456
  310SOL    HW218073   5.251   1.016   1.567
  311SOL     OW18074   3.528   2.784   2.174
  311SOL    HW118075   3.511   2.795   2.081
  311SOL    HW218076   3.585   2.707   2.180
  312SOL     OW18077   0.832   5.550   6.407
  312SOL    HW118078   0.765   5.608   6.370
  312SOL    HW218079   0.837   5.477   6.346
  313SOL     OW18080   1.641   0.350   7.149
  313SOL    HW118081   1.675   0.424   7.199
  313SOL    HW218082   1.656   0.375   7.057
  314SOL     OW18083   2.396   3.752   0.308
  314SOL    HW118084   2.370   3.733   0.218
  314SOL    HW218085   2.341   3.826   0.334
  315SOL     OW18086   6.403   3.093   1.471
  315SOL    HW118087   6.423   3.012   1.424
  315SOL    HW218088   6.452   3.085   1.553
  316SOL     OW18089   3.017   2.055   0.953
  316SOL    HW118090   3.045   2.021   1.038
  316SOL    HW218091   2.992   2.146   0.971
  317SOL     OW18092   4.925   0.115   7.762
  317SOL    HW118093   5.007   0.071   7.786
  317SOL    HW218094   4.859   0.076   7.818
  318SOL     OW18095   2.340   6.152   6.045
  318SOL    HW118096   2.294   6.232   6.071
  318SOL    HW218097   2.323   6.144   5.951
  319SOL     OW18098   4.880   6.406   6.444
  319SOL    HW118099   4.967   6.370   6.464
  319SOL    HW218100   4.858   6.369   6.359
  320SOL     OW18101   2.510   5.416   0.415
  320SOL    HW118102   2.430   5.368   0.436
  320SOL    HW218103   2.551   5.434   0.499
  321SOL     OW18104   3.489   3.278   7.372
  321SOL    HW118105   3.472   3.212   7.304
  321SOL    HW218106   3.448   3.358   7.339
  322SOL     OW18107   0.901   2.705   6.496
  322SOL    HW118108   0.929   2.795   6.510
  322SOL    HW218109   0.980   2.653   6.507
  323SOL     OW18110   4.406   3.938   7.753
  323SOL    HW118111   4.338   3.920   7.689
  323SOL    HW218112   4.391   3.876   7.824
  324SOL     OW18113   4.001   5.464   6.590
  324SOL    HW118114   4.060   5.424   6.654
  324SOL    HW218115   3.966   5.391   6.540
  325SOL     OW18116   5.777   4.015   7.748
  325SOL    HW118117   5.843   4.084   7.747
  325SOL    HW218118   5.802   3.958   7.675
  326SOL     OW18119   3.098   3.051   1.482
  326SOL    HW118120   3.049   3.118   1.435
  326SOL    HW218121   3.170   3.099   1.524
  327SOL     OW18122   2.205   2.365   0.420
  327SOL    HW118123   2.132   2.427   0.410
  327SOL    HW218124   2.198   2.334   0.510
  328SOL     OW18125   1.408   3.485   1.952
  328SOL    HW118126   1.450   3.406   1.985
  328SOL    HW218127   1.353   3.515   2.024
  329SOL     OW18128   6.080   1.629   7.055
  329SOL    HW118129   6.118   1.632   7.143
  329SOL    HW218130   6.152   1.651   6.997
  330SOL     OW18131   2.385   1.389   0.174
  330SOL    HW118132   2.420   1.468   0.217
  330SOL    HW218133   2.293   1.388   0.198
  331SOL     OW18134   4.010   3.254   1.886
  331SOL    HW118135   4.072   3.181   1.894
  331SOL    HW218136   4.054   3.327   1.930
  332SOL     OW18137   4.834   4.922   0.376
  332SOL    HW118138   4.901   4.922   0.308
  332SOL    HW218139   4.761   4.874   0.338
  333SOL     OW18140   3.497   2.199   7.187
  333SOL    HW118141   3.498   2.194   7.283
  333SOL    HW218142   3.566   2.139   7.160
  334SOL     OW18143   2.185   4.725   1.786
  334SOL    HW118144   2.115   4.706   1.848
  334SOL    HW218145   2.262   4.681   1.821
  335SOL     OW18146   6.023   0.697   6.652
  335SOL    HW118147   5.950   0.685   6.592
  335SOL    HW218148   6.015   0.788   6.681
  336SOL     OW18149   2.181   1.790   1.977
  336SOL    HW118150   2.216   1.703   1.960
  336SOL    HW218151   2.086   1.777   1.984
  337SOL     OW18152   0.764   5.862   7.089
  337SOL    HW118153   0.717   5.778   7.083
  337SOL    HW218154   0.823   5.861   7.014
  338SOL     OW18155   1.702   0.535   6.592
  338SOL    HW118156   1.612   0.515   6.566
  338SOL    HW218157   1.740   0.580   6.516
  339SOL     OW18158   1.687   5.541   1.786
  339SOL    HW118159   1.779   5.531   1.762
  339SOL    HW218160   1.678   5.633   1.811
  340SOL     OW18161   2.777   0.831   6.620
  340SOL    HW118162   2.864   0.838   6.581
  340SOL    HW218163   2.790   0.855   6.712
  341SOL     OW18164   1.340   5.815   7.688
  341SOL    HW118165   1.309   5.887   7.632
  341SOL    HW218166   1.354   5.742   7.628
  342SOL     OW18167   2.452   3.283   1.342
  342SOL    HW118168   2.370   3.320   1.375
  342SOL    HW218169   2.488   3.233   1.415
  343SOL     OW18170   2.599   3.466   7.541
  343SOL    HW118171   2.510   3.452   7.508
  343SOL    HW218172   2.646   3.386   7.518
  344SOL     OW18173   5.638   5.900   0.108
  344SOL    HW118174   5.733   5.904   0.097
  344SOL    HW218175   5.616   5.980   0.155
  345SOL     OW18176   2.119   3.251   2.111
  345SOL    HW118177   2.038   3.289   2.078
  345SOL    HW218178   2.106   3.244   2.206
  346SOL     OW18179   3.572   2.856   2.654
  346SOL    HW118180   3.584   2.778   2.707
  346SOL    HW218181   3.504   2.832   2.590
  347SOL     OW18182   3.430   1.275   7.730
  347SOL    HW118183   3.512   1.251   7.687
  347SOL    HW218184   3.429   1.222   7.810
  348SOL     OW18185   4.668   0.465   0.046
  348SOL    HW118186   4.667   0.445  -0.047
  348SOL    HW218187   4.734   0.406   0.083
  349SOL     OW18188   2.485   3.033   6.137
  349SOL    HW118189   2.542   3.107   6.157
  349SOL    HW218190   2.543   2.957   6.136
  350SOL     OW18191   3.870   5.620   5.965
  350SOL    HW118192   3.905   5.654   6.047
  350SOL    HW218193   3.803   5.557   5.991
  351SOL     OW18194   5.820   2.940   1.329
  351SOL    HW118195   5.915   2.931   1.322
  351SOL    HW218196   5.798   2.900   1.413
  352SOL     OW18197   3.338   5.556   0.690
  352SOL    HW118198   3.286   5.516   0.620
  352SOL    HW218199   3.390   5.623   0.645
  353SOL     OW18200   0.360   0.344   1.685
  353SOL    HW118201   0.432   0.284   1.662
  353SOL    HW218202   0.403   0.429   1.695
  354SOL     OW18203   5.992   0.140   7.207
  354SOL    HW118204   6.002   0.226   7.246
  354SOL    HW218205   6.062   0.135   7.141
  355SOL     OW18206   1.350   3.730   6.140
  355SOL    HW118207   1.291   3.798   6.107
  355SOL    HW218208   1.314   3.649   6.104
  356SOL     OW18209   1.007   4.942   7.258
  356SOL    HW118210   0.938   5.006   7.272
  356SOL    HW218211   1.079   4.992   7.220
  357SOL     OW18212   5.342   3.110   0.086
  357SOL    HW118213   5.313   3.109  -0.006
  357SOL    HW218214   5.322   3.023   0.119
  358SOL     OW18215   1.078   1.194   6.646
  358SOL    HW118216   1.093   1.116   6.593
  358SOL    HW218217   1.081   1.266   6.584
  359SOL     OW18218   1.933   4.663   7.444
  359SOL    HW118219   1.980   4.621   7.515
  359SOL    HW218220   1.998   4.675   7.375
  360SOL     OW18221   0.163   5.166   1.567
  360SOL    HW118222   0.109   5.126   1.635
  360SOL    HW218223   0.194   5.248   1.607
  361SOL     OW18224   0.016   5.180   0.248
  361SOL    HW118225  -0.038   5.161   0.172
  361SOL    HW218226  -0.021   5.261   0.285
  362SOL     OW18227   1.992   6.393   5.589
  362SOL    HW118228   1.987   6.298   5.595
  362SOL    HW218229   1.921   6.424   5.645
  363SOL     OW18230   1.601   5.852   7.411
  363SOL    HW118231   1.597   5.819   7.321
  363SOL    HW218232   1.541   5.797   7.460
  364SOL     OW18233   3.822   5.444   6.935
  364SOL    HW118234   3.801   5.471   6.846
  364SOL    HW218235   3.802   5.521   6.989
  365SOL     OW18236   4.581   3.141   7.113
  365SOL    HW118237   4.540   3.197   7.048
  365SOL    HW218238   4.623   3.201   7.174
  366SOL     OW18239   3.277   5.973   7.799
  366SOL    HW118240   3.260   6.067   7.795
  366SOL    HW218241   3.191   5.933   7.816
  367SOL     OW18242   3.806   2.453   5.857
  367SOL    HW118243   3.831   2.466   5.766
  367SOL    HW218244   3.723   2.500   5.866
  368SOL     OW18245   3.454   5.239   6.822
  368SOL    HW118246   3.382   5.182   6.849
  368SOL    HW218247   3.412   5.313   6.779
  369SOL     OW18248   4.516   6.387   6.624
  369SOL    HW118249   4.489   6.468   6.666
  369SOL    HW218250   4.475   6.318   6.677
  370SOL     OW18251   4.322   0.491   0.956
  370SOL    HW118252   4.307   0.436   1.033
  370SOL    HW218253   4.255   0.559   0.961
  371SOL     OW18254   6.252   5.689   0.530
  371SOL    HW118255   6.337   5.668   0.568
  371SOL    HW218256   6.191   5.681   0.604
  372SOL     OW18257   3.580   2.139   1.835
  372SOL    HW118258   3.648   2.110   1.774
  372SOL    HW218259   3.531   2.059   1.856
  373SOL     OW18260   1.232   5.890   6.243
  373SOL    HW118261   1.153   5.928   6.204
  373SOL    HW218262   1.218   5.796   6.237
  374SOL     OW18263   3.958   4.041   1.471
  374SOL    HW118264   3.946   4.125   1.426
  374SOL    HW218265   4.021   4.059   1.541
  375SOL     OW18266   1.398   5.905   6.508
  375SOL    HW118267   1.309   5.939   6.502
  375SOL    HW218268   1.441   5.936   6.428
  376SOL     OW18269   0.741   1.293   5.850
  376SOL    HW118270   0.756   1.379   5.811
  376SOL    HW218271   0.657   1.302   5.894
  377SOL     OW18272   5.802   2.806   1.559
  377SOL    HW118273   5.884   2.852   1.575
  377SOL    HW218274   5.813   2.721   1.601
  378SOL     OW18275   1.522   4.492   6.731
  378SOL    HW118276   1.560   4.517   6.647
  378SOL    HW218277   1.432   4.467   6.710
  379SOL     OW18278   1.445   5.858   7.134
  379SOL    HW118279   1.395   5.897   7.206
  379SOL    HW218280   1.423   5.911   7.058
  380SOL     OW18281   2.946   2.056   7.458
  380SOL    HW118282   2.965   2.125   7.393
  380SOL    HW218283   3.033   2.030   7.490
  381SOL     OW18284   5.013   3.158   0.963
  381SOL    HW118285   4.981   3.246   0.982
  381SOL    HW218286   4.989   3.107   1.040
  382SOL     OW18287   0.344   0.830   0.708
  382SOL    HW118288   0.343   0.900   0.773
  382SOL    HW218289   0.430   0.837   0.667
  383SOL     OW18290   5.281   5.975   7.383
  383SOL    HW118291   5.280   5.921   7.462
  383SOL    HW218292   5.223   6.049   7.404
  384SOL     OW18293   0.136   0.153   7.678
  384SOL    HW118294   0.143   0.218   7.748
  384SOL    HW218295   0.218   0.160   7.630
  385SOL     OW18296   2.310   5.534   1.110
  385SOL    HW118297   2.256   5.611   1.126
  385SOL    HW218298   2.362   5.524   1.190
  386SOL     OW18299   0.561   0.558   6.770
  386SOL    HW118300   0.579   0.513   6.853
  386SOL    HW218301   0.648   0.577   6.734
  387SOL     OW18302   2.992   3.188   2.113
  387SOL    HW118303   2.900   3.178   2.139
  387SOL    HW218304   3.010   3.281   2.125
  388SOL     OW18305   4.662   2.720   6.321
  388SOL    HW118306   4.682   2.682   6.407
  388SOL    HW218307   4.581   2.678   6.294
  389SOL     OW18308   5.397   4.268   7.302
  389SOL    HW118309   5.458   4.195   7.292
  389SOL    HW218310   5.453   4.346   7.308
  390SOL     OW18311   0.653   1.349   7.347
  390SOL    HW118312   0.745   1.373   7.356
  390SOL    HW218313   0.607   1.433   7.346
  391SOL     OW18314   4.183   6.417   0.241
  391SOL    HW118315   4.165   6.506   0.270
  391SOL    HW218316   4.278   6.411   0.239
  392SOL     OW18317   5.342   3.251   5.971
  392SOL    HW118318   5.282   3.258   6.046
  392SOL    HW218319   5.341   3.159   5.947
  393SOL     OW18320   2.845   3.073   5.841
  393SOL    HW118321   2.781   3.012   5.878
  393SOL    HW218322   2.825   3.075   5.747
  394SOL     OW18323   0.664   5.094   7.060
  394SOL    HW118324   0.604   5.048   7.001
  394SOL    HW218325   0.648   5.187   7.042
  395SOL     OW18326   2.444   5.853   7.082
  395SOL    HW118327   2.362   5.848   7.130
  395SOL    HW218328   2.433   5.793   7.009
  396SOL     OW18329   4.151   4.707   0.423
  396SOL    HW118330   4.099   4.636   0.462
  396SOL    HW218331   4.210   4.662   0.362
  397SOL     OW18332   0.649   4.322   1.021
  397SOL    HW118333   0.566   4.278   1.039
  397SOL    HW218334   0.681   4.281   0.941
  398SOL     OW18335   1.672   3.045   0.041
  398SOL    HW118336   1.732   3.048  -0.033
  398SOL    HW218337   1.600   2.990   0.011
  399SOL     OW18338   0.144   1.020   7.361
  399SOL    HW118339   0.133   1.021   7.456
  399SOL    HW218340   0.181   1.106   7.341
  400SOL     OW18341   5.249   0.931   5.923
  400SOL    HW118342   5.310   0.980   5.867
  400SOL    HW218343   5.231   0.850   5.874
  401SOL     OW18344   3.140   4.355   1.254
  401SOL    HW118345   3.151   4.338   1.348
  401SOL    HW218346   3.212   4.415   1.233
  402SOL     OW18347   3.538   0.607   7.292
  402SOL    HW118348   3.573   0.695   7.279
  402SOL    HW218349   3.496   0.610   7.378
  403SOL     OW18350   3.642   2.052   0.826
  403SOL    HW118351   3.723   2.101   0.812
  403SOL    HW218352   3.662   1.996   0.902
  404SOL     OW18353   4.511   5.697   1.975
  404SOL    HW118354   4.509   5.791   1.990
  404SOL    HW218355   4.577   5.684   1.907
  405SOL     OW18356   2.340   1.136   6.071
  405SOL    HW118357   2.280   1.114   6.000
  405SOL    HW218358   2.421   1.163   6.028
  406SOL     OW18359   6.185   2.828   7.619
  406SOL    HW118360   6.254   2.790   7.673
  406SOL    HW218361   6.120   2.861   7.681
  407SOL     OW18362   0.954   2.934   7.577
  407SOL    HW118363   1.010   3.001   7.538
  407SOL    HW218364   1.006   2.897   7.649
  408SOL     OW18365   4.487   4.352   0.721
  408SOL    HW118366   4.498   4.259   0.743
  408SOL    HW218367   4.539   4.364   0.641
  409SOL     OW18368   4.371   0.609   0.445
  409SOL    HW118369   4.351   0.616   0.351
  409SOL    HW218370   4.300   0.657   0.488
  410SOL     OW18371   0.814   6.220   0.654
  410SOL    HW118372   0.781   6.206   0.743
  410SOL    HW218373   0.867   6.143   0.635
  411SOL     OW18374   3.242   2.667   2.606
  411SOL    HW118375   3.306   2.632   2.669
  411SOL    HW218376   3.295   2.718   2.545
  412SOL     OW18377   0.218   4.082   0.965
  412SOL    HW118378   0.243   4.044   0.881
  412SOL    HW218379   0.127   4.055   0.978
  413SOL     OW18380   1.257   0.078   6.860
  413SOL    HW118381   1.302   0.079   6.776
  413SOL    HW218382   1.204  -0.002   6.858
  414SOL     OW18383   1.115   6.412   1.621
  414SOL    HW118384   1.119   6.441   1.712
  414SOL    HW218385   1.146   6.321   1.624
  415SOL     OW18386   4.859   4.546   0.160
  415SOL    HW118387   4.937   4.518   0.207
  415SOL    HW218388   4.862   4.500   0.076
  416SOL     OW18389   6.202   0.740   5.609
  416SOL    HW118390   6.128   0.706   5.660
  416SOL    HW218391   6.246   0.663   5.575
  417SOL     OW18392   6.012   4.501   5.924
  417SOL    HW118393   6.106   4.501   5.946
  417SOL    HW218394   5.989   4.409   5.917
  418SOL     OW18395   3.474   4.612   5.741
  418SOL    HW118396   3.549   4.561   5.770
  418SOL    HW218397   3.497   4.641   5.653
  419SOL     OW18398   1.807   3.674   0.328
  419SOL    HW118399   1.875   3.643   0.268
  419SOL    HW218400   1.736   3.703   0.270
  420SOL     OW18401   5.988   2.998   7.159
  420SOL    HW118402   6.004   2.998   7.254
  420SOL    HW218403   5.911   2.942   7.148
  421SOL     OW18404   6.301   5.753   7.723
  421SOL    HW118405   6.347   5.792   7.648
  421SOL    HW218406   6.249   5.682   7.685
  422SOL     OW18407   6.385   2.419   6.845
  422SOL    HW118408   6.394   2.325   6.828
  422SOL    HW218409   6.391   2.426   6.940
  423SOL     OW18410   0.455   1.855   7.641
  423SOL    HW118411   0.406   1.774   7.654
  423SOL    HW218412   0.543   1.827   7.616
  424SOL     OW18413   0.379   2.270   2.115
  424SOL    HW118414   0.332   2.326   2.177
  424SOL    HW218415   0.447   2.327   2.079
  425SOL     OW18416   1.627   5.180   7.283
  425SOL    HW118417   1.660   5.156   7.370
  425SOL    HW218418   1.593   5.098   7.247
  426SOL     OW18419   6.248   3.636   2.112
  426SOL    HW118420   6.185   3.669   2.049
  426SOL    HW218421   6.225   3.679   2.195
  427SOL     OW18422   3.560   3.038   6.314
  427SOL    HW118423   3.639   3.005   6.271
  427SOL    HW218424   3.581   3.129   6.336
  428SOL     OW18425   4.124   0.663   1.909
  428SOL    HW118426   4.072   0.585   1.928
  428SOL    HW218427   4.185   0.635   1.842
  429SOL     OW18428   3.254   5.307   1.123
  429SOL    HW118429   3.324   5.344   1.069
  429SOL    HW218430   3.290   5.308   1.212
  430SOL     OW18431   2.662   0.371   6.855
  430SOL    HW118432   2.683   0.409   6.940
  430SOL    HW218433   2.643   0.447   6.799
  431SOL     OW18434   0.654   2.197   6.136
  431SOL    HW118435   0.626   2.115   6.096
  431SOL    HW218436   0.744   2.180   6.165
  432SOL     OW18437   3.381   6.208   0.375
  432SOL    HW118438   3.416   6.254   0.299
  432SOL    HW218439   3.448   6.144   0.398
  433SOL     OW18440   4.224   5.676   1.994
  433SOL    HW118441   4.202   5.596   1.948
  433SOL    HW218442   4.319   5.677   1.996
  434SOL     OW18443   5.446   2.790   7.359
  434SOL    HW118444   5.432   2.884   7.357
  434SOL    HW218445   5.538   2.780   7.387
  435SOL     OW18446   2.082   0.521   6.587
  435SOL    HW118447   2.122   0.603   6.558
  435SOL    HW218448   2.117   0.508   6.675
  436SOL     OW18449   4.140   4.032   7.209
  436SOL    HW118450   4.182   4.038   7.295
  436SOL    HW218451   4.188   4.094   7.154
  437SOL     OW18452   0.617   0.067   6.287
  437SOL    HW118453   0.522   0.059   6.298
  437SOL    HW218454   0.628   0.112   6.203
  438SOL     OW18455   1.112   3.808   6.007
  438SOL    HW118456   1.122   3.833   5.915
  438SOL    HW218457   1.047   3.870   6.041
  439SOL     OW18458   6.419   3.634   5.944
  439SOL    HW118459   6.338   3.600   5.983
  439SOL    HW218460   6.435   3.578   5.868
  440SOL     OW18461   4.027   6.413   1.314
  440SOL    HW118462   3.983   6.497   1.301
  440SOL    HW218463   3.961   6.357   1.356
  441SOL     OW18464   2.494   6.376   2.293
  441SOL    HW118465   2.425   6.438   2.271
  441SOL    HW218466   2.449   6.310   2.346
  442SOL     OW18467   2.393   0.818   6.394
  442SOL    HW118468   2.373   0.830   6.301
  442SOL    HW218469   2.449   0.892   6.417
  443SOL     OW18470   1.752   4.694   0.303
  443SOL    HW118471   1.671   4.675   0.255
  443SOL    HW218472   1.753   4.630   0.374
  444SOL     OW18473   2.374   3.883   1.453
  444SOL    HW118474   2.461   3.849   1.434
  444SOL    HW218475   2.329   3.883   1.368
  445SOL     OW18476   5.775   5.633   1.250
  445SOL    HW118477   5.727   5.682   1.183
  445SOL    HW218478   5.727   5.551   1.259
  446SOL     OW18479   3.299   0.570   5.430
  446SOL    HW118480   3.207   0.544   5.434
  446SOL    HW218481   3.296   0.664   5.411
  447SOL     OW18482   1.384   2.098   0.235
  447SOL    HW118483   1.470   2.115   0.198
  447SOL    HW218484   1.344   2.185   0.242
  448SOL     OW18485   3.794   2.009   1.224
  448SOL    HW118486   3.802   1.921   1.187
  448SOL    HW218487   3.705   2.036   1.203
  449SOL     OW18488   1.360   1.113   1.879
  449SOL    HW118489   1.406   1.150   1.955
  449SOL    HW218490   1.354   1.020   1.898
  450SOL     OW18491   1.104   0.652   6.498
  450SOL    HW118492   1.073   0.575   6.546
  450SOL    HW218493   1.033   0.672   6.438
  451SOL     OW18494   0.295   4.491   1.982
  451SOL    HW118495   0.280   4.583   2.002
  451SOL    HW218496   0.207   4.455   1.967
  452SOL     OW18497   0.858   5.153   2.378
  452SOL    HW118498   0.803   5.076   2.392
  452SOL    HW218499   0.872   5.155   2.283
  453SOL     OW18500   5.093   1.361   7.214
  453SOL    HW118501   5.150   1.434   7.191
  453SOL    HW218502   5.137   1.319   7.288
  454SOL     OW18503   3.659   1.509   0.035
  454SOL    HW118504   3.671   1.451   0.111
  454SOL    HW218505   3.665   1.451  -0.041
  455SOL     OW18506   2.466   5.264   1.244
  455SOL    HW118507   2.400   5.195   1.236
  455SOL    HW218508   2.476   5.278   1.338
  456SOL     OW18509   2.676   1.709   6.255
  456SOL    HW118510   2.723   1.626   6.240
  456SOL    HW218511   2.745   1.774   6.263
  457SOL     OW18512   0.491   2.741   0.754
  457SOL    HW118513   0.471   2.703   0.668
  457SOL    HW218514   0.526   2.668   0.805
  458SOL     OW18515   3.942   0.375   5.940
  458SOL    HW118516   3.978   0.373   6.029
  458SOL    HW218517   3.896   0.458   5.934
  459SOL     OW18518   2.583   3.490   0.005
  459SOL    HW118519   2.611   3.399   0.010
  459SOL    HW218520   2.585   3.511  -0.089
  460SOL     OW18521   5.198   1.340   6.832
  460SOL    HW118522   5.246   1.298   6.761
  460SOL    HW218523   5.256   1.333   6.908
  461SOL     OW18524   5.500   4.975   2.119
  461SOL    HW118525   5.480   5.067   2.138
  461SOL    HW218526   5.416   4.938   2.089
  462SOL     OW18527   4.031   0.937   1.038
  462SOL    HW118528   4.051   0.959   1.129
  462SOL    HW218529   3.939   0.960   1.028
  463SOL     OW18530   0.838   6.169   1.429
  463SOL    HW118531   0.822   6.213   1.345
  463SOL    HW218532   0.860   6.078   1.405
  464SOL     OW18533   1.223   2.214   1.575
  464SOL    HW118534   1.290   2.153   1.542
  464SOL    HW218535   1.212   2.189   1.666
  465SOL     OW18536   1.382   3.232   0.975
  465SOL    HW118537   1.469   3.271   0.983
  465SOL    HW218538   1.375   3.207   0.882
  466SOL     OW18539   0.444   3.370   6.618
  466SOL    HW118540   0.382   3.306   6.583
  466SOL    HW218541   0.509   3.318   6.665
  467SOL     OW18542   3.521   2.462   1.107
  467SOL    HW118543   3.567   2.380   1.126
  467SOL    HW218544   3.589   2.520   1.072
  468SOL     OW18545   4.352   3.759   0.186
  468SOL    HW118546   4.427   3.771   0.245
  468SOL    HW218547   4.302   3.687   0.225
  469SOL     OW18548   3.153   4.580   6.733
  469SOL    HW118549   3.188   4.649   6.677
  469SOL    HW218550   3.075   4.618   6.774
  470SOL     OW18551   1.322   1.766   6.521
  470SOL    HW118552   1.282   1.827   6.459
  470SOL    HW218553   1.256   1.754   6.589
  471SOL     OW18554   4.001   0.065   2.307
  471SOL    HW118555   4.087   0.027   2.325
  471SOL    HW218556   3.948   0.042   2.383
  472SOL     OW18557   0.727   2.960   7.133
  472SOL    HW118558   0.734   2.910   7.214
  472SOL    HW218559   0.768   3.044   7.153
  473SOL     OW18560   4.086   1.019   1.287
  473SOL    HW118561   4.161   0.976   1.328
  473SOL    HW218562   4.093   1.111   1.312
  474SOL     OW18563   0.127   3.660   7.222
  474SOL    HW118564   0.055   3.598   7.221
  474SOL    HW218565   0.128   3.699   7.135
  475SOL     OW18566   4.639   2.851   7.763
  475SOL    HW118567   4.693   2.803   7.700
  475SOL    HW218568   4.672   2.940   7.761
  476SOL     OW18569   4.011   1.977   6.914
  476SOL    HW118570   3.993   1.992   6.821
  476SOL    HW218571   4.105   1.996   6.923
  477SOL     OW18572   1.855   0.291   5.468
  477SOL    HW118573   1.766   0.267   5.493
  477SOL    HW218574   1.904   0.209   5.470
  478SOL     OW18575   5.253   0.036   6.573
  478SOL    HW118576   5.241  -0.019   6.496
  478SOL    HW218577   5.347   0.039   6.586
  479SOL     OW18578   6.418   2.224   0.078
  479SOL    HW118579   6.347   2.255   0.022
  479SOL    HW218580   6.455   2.150   0.031
  480SOL     OW18581   1.365   0.067   6.614
  480SOL    HW118582   1.280   0.027   6.597
  480SOL    HW218583   1.396   0.093   6.527
  481SOL     OW18584   4.969   0.820   2.172
  481SOL    HW118585   5.024   0.894   2.198
  481SOL    HW218586   5.003   0.794   2.086
  482SOL     OW18587   2.579   4.204   7.421
  482SOL    HW118588   2.606   4.250   7.342
  482SOL    HW218589   2.556   4.274   7.483
  483SOL     OW18590   3.853   1.318   7.507
  483SOL    HW118591   3.784   1.379   7.481
  483SOL    HW218592   3.837   1.239   7.456
  484SOL     OW18593   3.349   4.759   0.189
  484SOL    HW118594   3.310   4.805   0.263
  484SOL    HW218595   3.437   4.736   0.218
  485SOL     OW18596   6.151   1.318   1.004
  485SOL    HW118597   6.225   1.272   1.043
  485SOL    HW218598   6.190   1.392   0.958
  486SOL     OW18599   0.765   3.912   7.725
  486SOL    HW118600   0.705   3.919   7.799
  486SOL    HW218601   0.852   3.931   7.761
  487SOL     OW18602   5.837   2.718   1.942
  487SOL    HW118603   5.751   2.687   1.971
  487SOL    HW218604   5.881   2.640   1.910
  488SOL     OW18605   5.621   4.629   1.542
  488SOL    HW118606   5.613   4.688   1.617
  488SOL    HW218607   5.571   4.671   1.473
  489SOL     OW18608   1.854   3.301   2.430
  489SOL    HW118609   1.803   3.268   2.356
  489SOL    HW218610   1.945   3.284   2.407
  490SOL     OW18611   2.489   3.497   0.986
  490SOL    HW118612   2.507   3.587   1.012
  490SOL    HW218613   2.453   3.503   0.898
  491SOL     OW18614   4.758   3.767   0.115
  491SOL    HW118615   4.838   3.741   0.161
  491SOL    HW218616   4.777   3.750   0.023
  492SOL     OW18617   2.281   4.842   5.951
  492SOL    HW118618   2.257   4.925   5.910
  492SOL    HW218619   2.282   4.861   6.045
  493SOL     OW18620   0.761   5.084   7.330
  493SOL    HW118621   0.723   5.101   7.243
  493SOL    HW218622   0.708   5.136   7.390
  494SOL     OW18623   3.341   3.011   1.753
  494SOL    HW118624   3.285   2.936   1.772
  494SOL    HW218625   3.283   3.087   1.764
  495SOL     OW18626   5.007   1.034   5.654
  495SOL    HW118627   5.050   1.116   5.676
  495SOL    HW218628   5.078   0.974   5.633
  496SOL     OW18629   2.836   5.872   1.650
  496SOL    HW118630   2.885   5.929   1.709
  496SOL    HW218631   2.745   5.902   1.658
  497SOL     OW18632   5.398   1.323   7.079
  497SOL    HW118633   5.436   1.236   7.089
  497SOL    HW218634   5.445   1.377   7.143
  498SOL     OW18635   5.811   1.118   0.523
  498SOL    HW118636   5.779   1.208   0.532
  498SOL    HW218637   5.889   1.125   0.469
  499SOL     OW18638   1.392   3.498   7.259
  499SOL    HW118639   1.412   3.487   7.352
  499SOL    HW218640   1.356   3.413   7.233
  500SOL     OW18641   1.875   2.942   7.683
  500SOL    HW118642   1.887   2.991   7.601
  500SOL    HW218643   1.963   2.932   7.718
  501SOL     OW18644   0.659   0.560   7.646
  501SOL    HW118645   0.735   0.559   7.705
  501SOL    HW218646   0.645   0.653   7.628
  502SOL     OW18647   1.036   6.290   7.134
  502SOL    HW118648   0.975   6.347   7.086
  502SOL    HW218649   1.016   6.308   7.226
  503SOL     OW18650   3.653   0.062   5.565
  503SOL    HW118651   3.584   0.113   5.520
  503SOL    HW218652   3.683  -0.001   5.499
  504SOL     OW18653   2.996   2.546   6.279
  504SOL    HW118654   2.970   2.514   6.193
  504SOL    HW218655   3.055   2.479   6.313
  505SOL     OW18656   5.011   1.037   6.320
  505SOL    HW118657   5.071   1.070   6.253
  505SOL    HW218658   4.943   1.105   6.327
  506SOL     OW18659   1.969   4.362   6.476
  506SOL    HW118660   1.933   4.325   6.556
  506SOL    HW218661   1.912   4.330   6.406
  507SOL     OW18662   5.096   1.915   1.155
  507SOL    HW118663   5.093   1.961   1.239
  507SOL    HW218664   5.005   1.913   1.126
  508SOL     OW18665   3.148   3.876   6.736
  508SOL    HW118666   3.196   3.958   6.723
  508SOL    HW218667   3.071   3.901   6.787
  509SOL     OW18668   1.905   1.575   5.650
  509SOL    HW118669   1.875   1.515   5.581
  509SOL    HW218670   1.893   1.526   5.731
  510SOL     OW18671   0.900   3.834   1.686
  510SOL    HW118672   0.830   3.867   1.743
  510SOL    HW218673   0.908   3.741   1.708
  511SOL     OW18674   3.363   2.662   5.301
  511SOL    HW118675   3.376   2.643   5.394
  511SOL    HW218676   3.347   2.577   5.261
  512SOL     OW18677   5.978   0.429   0.017
  512SOL    HW118678   5.911   0.386  -0.037
  512SOL    HW218679   6.061   0.399  -0.020
  513SOL     OW18680   3.484   6.100   7.603
  513SOL    HW118681   3.549   6.030   7.610
  513SOL    HW218682   3.402   6.060   7.630
  514SOL     OW18683   1.915   2.051   5.656
  514SOL    HW118684   1.915   2.098   5.739
  514SOL    HW218685   1.941   1.962   5.679
  515SOL     OW18686   3.290   0.555   0.860
  515SOL    HW118687   3.251   0.599   0.936
  515SOL    HW218688   3.291   0.623   0.791
  516SOL     OW18689   3.644   4.639   5.488
  516SOL    HW118690   3.694   4.604   5.413
  516SOL    HW218691   3.688   4.721   5.509
  517SOL     OW18692   2.103   3.028   0.169
  517SOL    HW118693   2.182   3.081   0.160
  517SOL    HW218694   2.113   2.959   0.104
  518SOL     OW18695   3.104   0.341   0.876
  518SOL    HW118696   3.135   0.268   0.822
  518SOL    HW218697   3.162   0.413   0.852
  519SOL     OW18698   0.105   4.531   0.226
  519SOL    HW118699   0.167   4.458   0.224
  519SOL    HW218700   0.137   4.588   0.296
  520SOL     OW18701   5.314   6.075   6.531
  520SOL    HW118702   5.263   6.155   6.515
  520SOL    HW218703   5.378   6.101   6.597
  521SOL     OW18704   6.032   3.484   2.266
  521SOL    HW118705   6.076   3.546   2.324
  521SOL    HW218706   6.101   3.423   2.240
  522SOL     OW18707   6.021   4.626   5.697
  522SOL    HW118708   5.984   4.712   5.714
  522SOL    HW218709   6.008   4.577   5.778
  523SOL     OW18710   1.126   1.330   2.121
  523SOL    HW118711   1.065   1.330   2.047
  523SOL    HW218712   1.164   1.417   2.120
  524SOL     OW18713   3.225   1.889   1.477
  524SOL    HW118714   3.283   1.940   1.534
  524SOL    HW218715   3.154   1.949   1.455
  525SOL     OW18716   2.760   0.869   0.951
  525SOL    HW118717   2.834   0.830   0.999
  525SOL    HW218718   2.711   0.794   0.918
  526SOL     OW18719   5.915   3.199   1.609
  526SOL    HW118720   5.929   3.285   1.648
  526SOL    HW218721   5.979   3.194   1.538
  527SOL     OW18722   0.398   2.388   7.118
  527SOL    HW118723   0.364   2.366   7.032
  527SOL    HW218724   0.322   2.384   7.176
  528SOL     OW18725   5.175   3.174   1.220
  528SOL    HW118726   5.228   3.150   1.144
  528SOL    HW218727   5.085   3.165   1.191
  529SOL     OW18728   1.463   3.831   5.888
  529SOL    HW118729   1.407   3.771   5.839
  529SOL    HW218730   1.403   3.898   5.921
  530SOL     OW18731   2.678   2.336   7.167
  530SOL    HW118732   2.696   2.290   7.249
  530SOL    HW218733   2.590   2.308   7.143
  531SOL     OW18734   5.138   1.119   6.078
  531SOL    HW118735   5.162   1.050   6.016
  531SOL    HW218736   5.204   1.187   6.063
  532SOL     OW18737   1.364   3.852   0.811
  532SOL    HW118738   1.442   3.799   0.830
  532SOL    HW218739   1.362   3.917   0.881
  533SOL     OW18740   1.725   4.430   7.136
  533SOL    HW118741   1.640   4.470   7.118
  533SOL    HW218742   1.704   4.340   7.163
  534SOL     OW18743   5.606   1.596   1.127
  534SOL    HW118744   5.640   1.573   1.214
  534SOL    HW218745   5.600   1.692   1.128
  535SOL     OW18746   5.606   3.090   7.813
  535SOL    HW118747   5.533   3.090   7.874
  535SOL    HW218748   5.589   3.018   7.753
  536SOL     OW18749   2.256   3.409   1.520
  536SOL    HW118750   2.176   3.362   1.541
  536SOL    HW218751   2.302   3.418   1.604
  537SOL     OW18752   3.821   0.984   2.364
  537SOL    HW118753   3.804   0.894   2.395
  537SOL    HW218754   3.738   1.030   2.376
  538SOL     OW18755   3.910   2.158   1.519
  538SOL    HW118756   3.833   2.115   1.483
  538SOL    HW218757   3.981   2.136   1.459
  539SOL     OW18758   5.749   0.406   7.281
  539SOL    HW118759   5.707   0.483   7.243
  539SOL    HW218760   5.835   0.436   7.308
  540SOL     OW18761   1.924   6.213   0.679
  540SOL    HW118762   1.840   6.183   0.715
  540SOL    HW218763   1.989   6.154   0.717
  541SOL     OW18764   4.269   3.909   1.334
  541SOL    HW118765   4.288   3.905   1.428
  541SOL    HW218766   4.189   3.961   1.328
  542SOL     OW18767   1.096   3.792   0.795
  542SOL    HW118768   1.110   3.739   0.717
  542SOL    HW218769   1.182   3.825   0.818
  543SOL     OW18770   5.374   0.575   6.787
  543SOL    HW118771   5.281   0.577   6.763
  543SOL    HW218772   5.374   0.584   6.882
  544SOL     OW18773   5.738   1.627   1.381
  544SOL    HW118774   5.731   1.575   1.461
  544SOL    HW218775   5.758   1.715   1.412
  545SOL     OW18776   3.182   5.579   7.243
  545SOL    HW118777   3.100   5.620   7.216
  545SOL    HW218778   3.208   5.527   7.167
  546SOL     OW18779   3.878   2.425   7.330
  546SOL    HW118780   3.797   2.469   7.304
  546SOL    HW218781   3.865   2.405   7.423
  547SOL     OW18782   5.514   1.645   6.964
  547SOL    HW118783   5.451   1.576   6.943
  547SOL    HW218784   5.505   1.659   7.058
  548SOL     OW18785   6.198   1.338   1.484
  548SOL    HW118786   6.185   1.324   1.578
  548SOL    HW218787   6.284   1.301   1.466
  549SOL     OW18788   2.780   4.933   6.382
  549SOL    HW118789   2.831   4.950   6.302
  549SOL    HW218790   2.690   4.952   6.357
  550SOL     OW18791   1.457   1.451   6.583
  550SOL    HW118792   1.463   1.525   6.643
  550SOL    HW218793   1.456   1.374   6.640
  551SOL     OW18794   1.617   6.058   7.582
  551SOL    HW118795   1.602   5.999   7.508
  551SOL    HW218796   1.643   6.000   7.653
  552SOL     OW18797   5.135   4.712   1.465
  552SOL    HW118798   5.097   4.664   1.539
  552SOL    HW218799   5.212   4.755   1.502
  553SOL     OW18800   5.499   0.965   2.305
  553SOL    HW118801   5.554   1.039   2.330
  553SOL    HW218802   5.560   0.902   2.266
  554SOL     OW18803   5.936   0.873   1.804
  554SOL    HW118804   5.943   0.929   1.726
  554SOL    HW218805   6.027   0.852   1.825
  555SOL     OW18806   4.631   4.010   1.808
  555SOL    HW118807   4.640   3.919   1.836
  555SOL    HW218808   4.585   4.053   1.881
  556SOL     OW18809   2.038   4.046   7.171
  556SOL    HW118810   2.107   3.982   7.191
  556SOL    HW218811   1.977   4.039   7.244
  557SOL     OW18812   2.480   0.605   0.216
  557SOL    HW118813   2.437   0.538   0.269
  557SOL    HW218814   2.492   0.565   0.130
  558SOL     OW18815   1.412   1.786   1.340
  558SOL    HW118816   1.494   1.796   1.292
  558SOL    HW218817   1.358   1.731   1.285
  559SOL     OW18818   4.061   1.069   1.731
  559SOL    HW118819   4.145   1.037   1.697
  559SOL    HW218820   4.063   1.163   1.712
  560SOL     OW18821   1.857   3.428   0.742
  560SOL    HW118822   1.847   3.506   0.688
  560SOL    HW218823   1.891   3.461   0.825
  561SOL     OW18824   4.223   6.222   0.804
  561SOL    HW118825   4.304   6.257   0.768
  561SOL    HW218826   4.200   6.282   0.875
  562SOL     OW18827   4.443   5.415   7.715
  562SOL    HW118828   4.479   5.342   7.765
  562SOL    HW218829   4.485   5.492   7.753
  563SOL     OW18830   1.864   4.899   6.441
  563SOL    HW118831   1.826   4.879   6.526
  563SOL    HW218832   1.943   4.845   6.436
  564SOL     OW18833   3.523   0.921   0.907
  564SOL    HW118834   3.462   0.915   0.981
  564SOL    HW218835   3.476   0.882   0.834
  565SOL     OW18836   3.615   4.182   0.131
  565SOL    HW118837   3.573   4.198   0.215
  565SOL    HW218838   3.708   4.174   0.150
  566SOL     OW18839   1.758   2.681   6.267
  566SOL    HW118840   1.803   2.605   6.230
  566SOL    HW218841   1.824   2.750   6.268
  567SOL     OW18842   5.232   4.002   7.402
  567SOL    HW118843   5.210   3.978   7.492
  567SOL    HW218844   5.203   4.093   7.393
  568SOL     OW18845   1.718   3.916   7.275
  568SOL    HW118846   1.659   3.862   7.327
  568SOL    HW218847   1.776   3.854   7.231
  569SOL     OW18848   5.414   0.180   1.333
  569SOL    HW118849   5.505   0.164   1.358
  569SOL    HW218850   5.387   0.100   1.288
  570SOL     OW18851   5.128   5.217   0.512
  570SOL    HW118852   5.185   5.250   0.442
  570SOL    HW218853   5.047   5.194   0.467
  571SOL     OW18854   3.200   2.068   1.887
  571SOL    HW118855   3.282   2.020   1.874
  571SOL    HW218856   3.151   2.014   1.949
  572SOL     OW18857   1.833   3.060   2.697
  572SOL    HW118858   1.859   2.992   2.635
  572SOL    HW218859   1.904   3.062   2.761
  573SOL     OW18860   0.353   2.820   1.855
  573SOL    HW118861   0.262   2.824   1.885
  573SOL    HW218862   0.386   2.909   1.867
  574SOL     OW18863   0.893   0.949   7.723
  574SOL    HW118864   0.915   1.039   7.697
  574SOL    HW218865   0.972   0.916   7.768
  575SOL     OW18866   3.004   5.340   6.103
  575SOL    HW118867   3.089   5.337   6.146
  575SOL    HW218868   3.018   5.395   6.026
  576SOL     OW18869   0.079   0.535   0.585
  576SOL    HW118870  -0.009   0.514   0.554
  576SOL    HW218871   0.138   0.486   0.527
  577SOL     OW18872   1.672   0.936   6.539
  577SOL    HW118873   1.667   0.881   6.617
  577SOL    HW218874   1.589   0.985   6.539
  578SOL     OW18875   5.156   5.297   7.812
  578SOL    HW118876   5.093   5.225   7.819
  578SOL    HW218877   5.234   5.265   7.858
  579SOL     OW18878   5.955   1.350   0.329
  579SOL    HW118879   5.945   1.403   0.407
  579SOL    HW218880   6.047   1.324   0.329
  580SOL     OW18881   2.475   2.527   6.591
  580SOL    HW118882   2.467   2.588   6.665
  580SOL    HW218883   2.526   2.575   6.526
  581SOL     OW18884   3.918   5.687   7.191
  581SOL    HW118885   3.875   5.619   7.243
  581SOL    HW218886   3.934   5.758   7.254
  582SOL     OW18887   3.070   1.083   2.116
  582SOL    HW118888   3.020   1.058   2.194
  582SOL    HW218889   3.055   1.177   2.107
  583SOL     OW18890   0.159   4.902   6.458
  583SOL    HW118891   0.072   4.864   6.461
  583SOL    HW218892   0.145   4.997   6.464
  584SOL     OW18893   4.732   5.013   6.986
  584SOL    HW118894   4.704   5.067   6.912
  584SOL    HW218895   4.704   4.924   6.961
  585SOL     OW18896   2.864   3.631   6.648
  585SOL    HW118897   2.871   3.565   6.579
  585SOL    HW218898   2.769   3.641   6.662
  586SOL     OW18899   2.416   5.913   6.355
  586SOL    HW118900   2.334   5.908   6.404
  586SOL    HW218901   2.469   5.976   6.404
  587SOL     OW18902   4.122   1.022   6.580
  587SOL    HW118903   4.170   0.939   6.579
  587SOL    HW218904   4.186   1.087   6.553
  588SOL     OW18905   4.770   5.766   0.335
  588SOL    HW118906   4.819   5.848   0.339
  588SOL    HW218907   4.822   5.710   0.278
  589SOL     OW18908   3.261   1.252   0.937
  589SOL    HW118909   3.356   1.256   0.935
  589SOL    HW218910   3.240   1.210   1.021
  590SOL     OW18911   0.465   4.603   0.791
  590SOL    HW118912   0.417   4.584   0.872
  590SOL    HW218913   0.506   4.520   0.768
  591SOL     OW18914   1.722   6.314   7.767
  591SOL    HW118915   1.707   6.251   7.697
  591SOL    HW218916   1.805   6.288   7.805
  592SOL     OW18917   3.077   4.607   6.302
  592SOL    HW118918   3.112   4.535   6.249
  592SOL    HW218919   3.070   4.680   6.240
  593SOL     OW18920   5.053   3.836   7.101
  593SOL    HW118921   5.128   3.798   7.146
  593SOL    HW218922   4.991   3.763   7.092
  594SOL     OW18923   5.508   1.290   0.756
  594SOL    HW118924   5.480   1.313   0.845
  594SOL    HW218925   5.426   1.282   0.706
  595SOL     OW18926   5.987   5.136   0.896
  595SOL    HW118927   6.033   5.110   0.976
  595SOL    HW218928   6.026   5.083   0.827
  596SOL     OW18929   4.853   4.590   5.913
  596SOL    HW118930   4.826   4.506   5.876
  596SOL    HW218931   4.772   4.631   5.941
  597SOL     OW18932   5.689   6.048   6.469
  597SOL    HW118933   5.618   6.045   6.405
  597SOL    HW218934   5.646   6.075   6.551
  598SOL     OW18935   1.388   5.760   5.235
  598SOL    HW118936   1.443   5.833   5.265
  598SOL    HW218937   1.407   5.752   5.142
  599SOL     OW18938   1.009   4.446   1.368
  599SOL    HW118939   1.005   4.540   1.385
  599SOL    HW218940   0.924   4.424   1.330
  600SOL     OW18941   4.425   0.164   1.160
  600SOL    HW118942   4.347   0.218   1.163
  600SOL    HW218943   4.458   0.164   1.250
  601SOL     OW18944   0.778   0.589   1.580
  601SOL    HW118945   0.861   0.636   1.564
  601SOL    HW218946   0.798   0.498   1.558
  602SOL     OW18947   2.558   3.224   1.600
  602SOL    HW118948   2.592   3.134   1.599
  602SOL    HW218949   2.495   3.225   1.672
  603SOL     OW18950   3.609   5.022   6.715
  603SOL    HW118951   3.595   5.036   6.809
  603SOL    HW218952   3.520   5.012   6.679
  604SOL     OW18953   3.886   3.768   1.407
  604SOL    HW118954   3.910   3.854   1.440
  604SOL    HW218955   3.793   3.758   1.431
  605SOL     OW18956   4.520   3.774   6.531
  605SOL    HW118957   4.599   3.783   6.478
  605SOL    HW218958   4.540   3.823   6.611
  606SOL     OW18959   2.524   4.999   6.290
  606SOL    HW118960   2.550   4.961   6.206
  606SOL    HW218961   2.454   4.941   6.321
  607SOL     OW18962   4.854   3.976   2.138
  607SOL    HW118963   4.836   3.952   2.229
  607SOL    HW218964   4.774   3.954   2.091
  608SOL     OW18965   3.542   4.921   7.285
  608SOL    HW118966   3.606   4.959   7.346
  608SOL    HW218967   3.588   4.916   7.201
  609SOL     OW18968   2.890   4.747   0.206
  609SOL    HW118969   2.817   4.734   0.266
  609SOL    HW218970   2.907   4.660   0.170
  610SOL     OW18971   4.901   1.478   7.029
  610SOL    HW118972   4.977   1.453   7.082
  610SOL    HW218973   4.878   1.398   6.981
  611SOL     OW18974   2.093   5.894   6.008
  611SOL    HW118975   2.170   5.846   5.979
  611SOL    HW218976   2.085   5.967   5.946
  612SOL     OW18977   0.746   6.269   0.246
  612SOL    HW118978   0.702   6.190   0.278
  612SOL    HW218979   0.773   6.247   0.157
  613SOL     OW18980   4.873   1.251   6.874
  613SOL    HW118981   4.925   1.194   6.817
  613SOL    HW218982   4.784   1.215   6.868
  614SOL     OW18983   4.358   3.142   6.716
  614SOL    HW118984   4.335   3.143   6.623
  614SOL    HW218985   4.282   3.102   6.759
  615SOL     OW18986   5.852   3.632   2.065
  615SOL    HW118987   5.887   3.571   2.130
  615SOL    HW218988   5.918   3.700   2.058
  616SOL     OW18989   1.126   3.420   5.529
  616SOL    HW118990   1.061   3.486   5.503
  616SOL    HW218991   1.210   3.464   5.521
  617SOL     OW18992   0.242   5.208   6.820
  617SOL    HW118993   0.162   5.248   6.785
  617SOL    HW218994   0.255   5.250   6.905
  618SOL     OW18995   0.258   1.975   0.196
  618SOL    HW118996   0.269   1.983   0.101
  618SOL    HW218997   0.339   1.933   0.225
  619SOL     OW18998   1.544   0.775   1.108
  619SOL    HW118999   1.457   0.794   1.142
  619SOL    HW219000   1.602   0.786   1.184
  620SOL     OW19001   1.866   4.491   0.477
  620SOL    HW119002   1.946   4.543   0.491
  620SOL    HW219003   1.806   4.521   0.544
  621SOL     OW19004   5.531   4.360   5.377
  621SOL    HW119005   5.602   4.415   5.344
  621SOL    HW219006   5.464   4.422   5.406
  622SOL     OW19007   5.796   4.619   7.486
  622SOL    HW119008   5.777   4.689   7.423
  622SOL    HW219009   5.883   4.641   7.521
  623SOL     OW19010   4.048   1.334   1.725
  623SOL    HW119011   4.043   1.430   1.725
  623SOL    HW219012   3.967   1.306   1.767
  624SOL     OW19013   3.619   5.276   1.349
  624SOL    HW119014   3.529   5.295   1.374
  624SOL    HW219015   3.651   5.358   1.312
  625SOL     OW19016   1.350   0.732   0.317
  625SOL    HW119017   1.385   0.795   0.255
  625SOL    HW219018   1.361   0.647   0.274
  626SOL     OW19019   1.304   0.038   7.332
  626SOL    HW119020   1.382   0.011   7.381
  626SOL    HW219021   1.287  -0.035   7.272
  627SOL     OW19022   3.046   1.361   0.815
  627SOL    HW119023   3.130   1.328   0.846
  627SOL    HW219024   3.017   1.421   0.884
  628SOL     OW19025   3.186   1.964   7.577
  628SOL    HW119026   3.158   1.962   7.668
  628SOL    HW219027   3.268   1.915   7.576
  629SOL     OW19028   0.290   4.161   1.477
  629SOL    HW119029   0.331   4.243   1.449
  629SOL    HW219030   0.304   4.101   1.404
  630SOL     OW19031   4.960   5.408   1.326
  630SOL    HW119032   5.002   5.426   1.241
  630SOL    HW219033   5.032   5.378   1.382
  631SOL     OW19034   0.162   6.276   1.352
  631SOL    HW119035   0.227   6.251   1.286
  631SOL    HW219036   0.175   6.213   1.423
  632SOL     OW19037   6.077   2.667   1.662
  632SOL    HW119038   6.097   2.634   1.750
  632SOL    HW219039   6.162   2.691   1.626
  633SOL     OW19040   4.487   3.927   6.764
  633SOL    HW119041   4.573   3.968   6.764
  633SOL    HW219042   4.437   3.976   6.699
  634SOL     OW19043   0.332   0.604   6.607
  634SOL    HW119044   0.370   0.546   6.673
  634SOL    HW219045   0.320   0.687   6.654
  635SOL     OW19046   5.374   5.947   0.023
  635SOL    HW119047   5.401   5.856   0.009
  635SOL    HW219048   5.453   5.998   0.004
  636SOL     OW19049   3.583   0.946   6.709
  636SOL    HW119050   3.616   0.869   6.757
  636SOL    HW219051   3.504   0.913   6.665
  637SOL     OW19052   6.171   3.016   1.137
  637SOL    HW119053   6.186   3.109   1.120
  637SOL    HW219054   6.135   2.981   1.056
  638SOL     OW19055   5.987   1.511   7.652
  638SOL    HW119056   5.915   1.510   7.715
  638SOL    HW219057   6.032   1.428   7.666
  639SOL     OW19058   1.665   5.617   0.293
  639SOL    HW119059   1.686   5.617   0.200
  639SOL    HW219060   1.582   5.664   0.299
  640SOL     OW19061   5.652   3.688   6.500
  640SOL    HW119062   5.693   3.751   6.442
  640SOL    HW219063   5.648   3.732   6.585
  641SOL     OW19064   4.902   3.254   6.227
  641SOL    HW119065   4.851   3.187   6.272
  641SOL    HW219066   4.990   3.246   6.264
  642SOL     OW19067   2.690   4.039   0.464
  642SOL    HW119068   2.776   3.997   0.457
  642SOL    HW219069   2.667   4.030   0.557
  643SOL     OW19070   0.039   4.773   0.549
  643SOL    HW119071   0.037   4.865   0.523
  643SOL    HW219072  -0.054   4.748   0.556
  644SOL     OW19073   2.970   5.728   0.819
  644SOL    HW119074   2.907   5.798   0.835
  644SOL    HW219075   3.051   5.758   0.861
  645SOL     OW19076   4.819   1.268   0.837
  645SOL    HW119077   4.838   1.254   0.930
  645SOL    HW219078   4.896   1.313   0.803
  646SOL     OW19079   6.106   3.525   0.586
  646SOL    HW119080   6.114   3.574   0.504
  646SOL    HW219081   6.071   3.440   0.560
  647SOL     OW19082   2.441   1.766   0.578
  647SOL    HW119083   2.427   1.811   0.495
  647SOL    HW219084   2.527   1.797   0.608
  648SOL     OW19085   2.244   4.482   0.422
  648SOL    HW119086   2.183   4.530   0.479
  648SOL    HW219087   2.328   4.526   0.436
  649SOL     OW19088   2.871   2.035   2.244
  649SOL    HW119089   2.922   2.017   2.323
  649SOL    HW219090   2.780   2.025   2.271
  650SOL     OW19091   5.994   5.261   0.573
  650SOL    HW119092   5.903   5.282   0.593
  650SOL    HW219093   5.991   5.174   0.533
  651SOL     OW19094   1.869   5.020   0.430
  651SOL    HW119095   1.784   4.977   0.439
  651SOL    HW219096   1.848   5.110   0.406
  652SOL     OW19097   1.311   4.501   6.502
  652SOL    HW119098   1.259   4.456   6.568
  652SOL    HW219099   1.379   4.438   6.477
  653SOL     OW19100   0.864   1.108   0.342
  653SOL    HW119101   0.831   1.131   0.255
  653SOL    HW219102   0.797   1.048   0.377
  654SOL     OW19103   2.921   5.905   1.049
  654SOL    HW119104   2.979   5.871   1.118
  654SOL    HW219105   2.833   5.880   1.078
  655SOL     OW19106   1.717   4.176   0.470
  655SOL    HW119107   1.704   4.264   0.433
  655SOL    HW219108   1.713   4.190   0.564
  656SOL     OW19109   2.995   2.806   0.753
  656SOL    HW119110   3.031   2.773   0.835
  656SOL    HW219111   3.007   2.901   0.758
  657SOL     OW19112   0.027   4.438   1.972
  657SOL    HW119113  -0.028   4.435   2.050
  657SOL    HW219114  -0.035   4.432   1.899
  658SOL     OW19115   2.092   4.095   2.698
  658SOL    HW119116   2.022   4.033   2.719
  658SOL    HW219117   2.122   4.128   2.784
  659SOL     OW19118   2.731   3.919   2.182
  659SOL    HW119119   2.824   3.927   2.201
  659SOL    HW219120   2.693   3.888   2.264
  660SOL     OW19121   5.109   0.663   5.884
  660SOL    HW119122   5.170   0.687   5.814
  660SOL    HW219123   5.119   0.568   5.893
  661SOL     OW19124   0.098   4.838   7.413
  661SOL    HW119125   0.124   4.750   7.387
  661SOL    HW219126   0.066   4.879   7.333
  662SOL     OW19127   1.741   6.410   2.239
  662SOL    HW119128   1.791   6.429   2.318
  662SOL    HW219129   1.774   6.472   2.174
  663SOL     OW19130   5.505   5.425   0.390
  663SOL    HW119131   5.542   5.511   0.368
  663SOL    HW219132   5.445   5.443   0.462
  664SOL     OW19133   2.550   5.750   0.568
  664SOL    HW119134   2.572   5.667   0.609
  664SOL    HW219135   2.624   5.807   0.589
  665SOL     OW19136   1.862   0.333   6.580
  665SOL    HW119137   1.794   0.396   6.557
  665SOL    HW219138   1.932   0.386   6.620
  666SOL     OW19139   5.141   4.999   0.697
  666SOL    HW119140   5.172   5.065   0.635
  666SOL    HW219141   5.106   4.929   0.641
  667SOL     OW19142   3.814   4.687   5.833
  667SOL    HW119143   3.757   4.759   5.805
  667SOL    HW219144   3.794   4.616   5.772
  668SOL     OW19145   5.245   1.252   1.010
  668SOL    HW119146   5.321   1.290   1.054
  668SOL    HW219147   5.221   1.176   1.064
  669SOL     OW19148   0.639   0.060   1.062
  669SOL    HW119149   0.701   0.053   0.989
  669SOL    HW219150   0.606  -0.030   1.074
  670SOL     OW19151   0.932   4.880   5.519
  670SOL    HW119152   0.995   4.934   5.472
  670SOL    HW219153   0.851   4.887   5.468
  671SOL     OW19154   0.757   4.701   7.211
  671SOL    HW119155   0.843   4.659   7.217
  671SOL    HW219156   0.736   4.697   7.117
  672SOL     OW19157   6.032   4.118   7.420
  672SOL    HW119158   5.988   4.126   7.505
  672SOL    HW219159   6.123   4.141   7.437
  673SOL     OW19160   5.374   0.001   5.523
  673SOL    HW119161   5.447  -0.018   5.581
  673SOL    HW219162   5.403   0.074   5.469
  674SOL     OW19163   2.328   0.294   7.734
  674SOL    HW119164   2.251   0.279   7.789
  674SOL    HW219165   2.293   0.336   7.655
  675SOL     OW19166   1.183   3.107   5.858
  675SOL    HW119167   1.104   3.159   5.869
  675SOL    HW219168   1.251   3.170   5.834
  676SOL     OW19169   0.828   2.596   0.163
  676SOL    HW119170   0.786   2.622   0.245
  676SOL    HW219171   0.907   2.651   0.158
  677SOL     OW19172   0.623   5.255   7.507
  677SOL    HW119173   0.660   5.340   7.529
  677SOL    HW219174   0.619   5.207   7.590
  678SOL     OW19175   6.046   1.200   7.294
  678SOL    HW119176   6.109   1.235   7.231
  678SOL    HW219177   5.996   1.276   7.323
  679SOL     OW19178   1.637   1.834   1.207
  679SOL    HW119179   1.685   1.753   1.190
  679SOL    HW219180   1.595   1.855   1.123
  680SOL     OW19181   6.340   2.723   6.837
  680SOL    HW119182   6.307   2.809   6.814
  680SOL    HW219183   6.425   2.717   6.794
  681SOL     OW19184   5.215   1.589   6.967
  681SOL    HW119185   5.215   1.655   6.897
  681SOL    HW219186   5.194   1.507   6.922
  682SOL     OW19187   3.709   2.796   6.964
  682SOL    HW119188   3.614   2.785   6.958
  682SOL    HW219189   3.723   2.891   6.953
  683SOL     OW19190   3.546   2.932   0.833
  683SOL    HW119191   3.552   2.841   0.804
  683SOL    HW219192   3.514   2.926   0.923
  684SOL     OW19193   2.945   1.923   1.782
  684SOL    HW119194   3.007   1.985   1.821
  684SOL    HW219195   2.926   1.861   1.852
  685SOL     OW19196   0.672   0.840   1.547
  685SOL    HW119197   0.703   0.751   1.568
  685SOL    HW219198   0.591   0.826   1.499
  686SOL     OW19199   4.483   6.405   6.333
  686SOL    HW119200   4.565   6.435   6.372
  686SOL    HW219201   4.448   6.343   6.396
  687SOL     OW19202   2.904   0.806   1.450
  687SOL    HW119203   2.821   0.760   1.443
  687SOL    HW219204   2.882   0.890   1.490
  688SOL     OW19205   5.760   2.120   6.843
  688SOL    HW119206   5.675   2.078   6.846
  688SOL    HW219207   5.811   2.078   6.912
  689SOL     OW19208   2.905   1.304   1.467
  689SOL    HW119209   2.888   1.291   1.374
  689SOL    HW219210   2.866   1.228   1.510
  690SOL     OW19211   0.492   4.523   6.302
  690SOL    HW119212   0.414   4.577   6.296
  690SOL    HW219213   0.471   4.457   6.368
  691SOL     OW19214   4.684   4.663   0.580
  691SOL    HW119215   4.604   4.612   0.565
  691SOL    HW219216   4.659   4.729   0.644
  692SOL     OW19217   4.737   1.665   0.565
  692SOL    HW119218   4.732   1.630   0.654
  692SOL    HW219219   4.727   1.588   0.508
  693SOL     OW19220   2.139   1.780   5.424
  693SOL    HW119221   2.105   1.847   5.364
  693SOL    HW219222   2.116   1.812   5.511
  694SOL     OW19223   3.171   4.218   0.714
  694SOL    HW119224   3.241   4.221   0.779
  694SOL    HW219225   3.187   4.294   0.657
  695SOL     OW19226   2.495   1.543   1.480
  695SOL    HW119227   2.426   1.568   1.542
  695SOL    HW219228   2.552   1.620   1.477
  696SOL     OW19229   1.646   2.873   7.066
  696SOL    HW119230   1.672   2.826   7.145
  696SOL    HW219231   1.619   2.803   7.006
  697SOL     OW19232   5.294   0.456   0.957
  697SOL    HW119233   5.277   0.428   1.047
  697SOL    HW219234   5.359   0.526   0.965
  698SOL     OW19235   1.586   5.045   1.364
  698SOL    HW119236   1.517   5.106   1.390
  698SOL    HW219237   1.539   4.971   1.325
  699SOL     OW19238   2.214   6.374   6.879
  699SOL    HW119239   2.226   6.342   6.968
  699SOL    HW219240   2.200   6.469   6.889
  700SOL     OW19241   0.382   3.805   7.315
  700SOL    HW119242   0.293   3.780   7.291
  700SOL    HW219243   0.379   3.814   7.410
  701SOL     OW19244   1.203   3.310   7.537
  701SOL    HW119245   1.194   3.404   7.519
  701SOL    HW219246   1.127   3.270   7.496
  702SOL     OW19247   1.467   1.766   0.031
  702SOL    HW119248   1.452   1.856   0.002
  702SOL    HW219249   1.537   1.734  -0.026
  703SOL     OW19250   5.346   5.733   7.186
  703SOL    HW119251   5.431   5.776   7.200
  703SOL    HW219252   5.282   5.804   7.192
  704SOL     OW19253   0.949   4.272   0.512
  704SOL    HW119254   1.000   4.350   0.533
  704SOL    HW219255   1.011   4.200   0.521
  705SOL     OW19256   2.776   4.860   7.128
  705SOL    HW119257   2.798   4.869   7.220
  705SOL    HW219258   2.778   4.949   7.093
  706SOL     OW19259   0.735   5.091   6.276
  706SOL    HW119260   0.771   5.004   6.294
  706SOL    HW219261   0.644   5.086   6.304
  707SOL     OW19262   2.279   5.433   6.645
  707SOL    HW119263   2.342   5.503   6.662
  707SOL    HW219264   2.194   5.478   6.641
  708SOL     OW19265   1.515   5.121   6.654
  708SOL    HW119266   1.547   5.168   6.731
  708SOL    HW219267   1.468   5.046   6.690
  709SOL     OW19268   5.082   3.345   7.305
  709SOL    HW119269   5.143   3.418   7.320
  709SOL    HW219270   5.097   3.320   7.214
  710SOL     OW19271   2.880   4.837   6.618
  710SOL    HW119272   2.974   4.822   6.611
  710SOL    HW219273   2.856   4.880   6.535
  711SOL     OW19274   5.426   6.189   7.570
  711SOL    HW119275   5.488   6.181   7.642
  711SOL    HW219276   5.345   6.152   7.603
  712SOL     OW19277   5.722   0.191   0.795
  712SOL    HW119278   5.692   0.282   0.798
  712SOL    HW219279   5.808   0.195   0.754
  713SOL     OW19280   2.987   1.321   0.544
  713SOL    HW119281   2.939   1.399   0.515
  713SOL    HW219282   3.007   1.338   0.636
  714SOL     OW19283   6.179   5.964   1.244
  714SOL    HW119284   6.138   5.880   1.224
  714SOL    HW219285   6.114   6.011   1.296
  715SOL     OW19286   3.482   1.771   0.955
  715SOL    HW119287   3.488   1.815   1.039
  715SOL    HW219288   3.423   1.697   0.971
  716SOL     OW19289   1.780   0.142   7.236
  716SOL    HW119290   1.721   0.212   7.210
  716SOL    HW219291   1.801   0.097   7.154
  717SOL     OW19292   1.775   0.556   7.329
  717SOL    HW119293   1.789   0.641   7.287
  717SOL    HW219294   1.697   0.569   7.382
  718SOL     OW19295   1.815   4.024   6.315
  718SOL    HW119296   1.826   3.945   6.262
  718SOL    HW219297   1.881   4.084   6.282
  719SOL     OW19298   3.003   1.495   1.052
  719SOL    HW119299   2.914   1.466   1.073
  719SOL    HW219300   3.013   1.577   1.100
  720SOL     OW19301   3.889   5.997   0.013
  720SOL    HW119302   3.882   6.081   0.059
  720SOL    HW219303   3.974   6.000  -0.031
  721SOL     OW19304   3.912   1.189   0.242
  721SOL    HW119305   3.966   1.198   0.320
  721SOL    HW219306   3.966   1.139   0.180
  722SOL     OW19307   2.571   1.026   6.480
  722SOL    HW119308   2.577   1.110   6.526
  722SOL    HW219309   2.632   0.969   6.526
  723SOL     OW19310   5.996   0.750   0.210
  723SOL    HW119311   6.085   0.714   0.213
  723SOL    HW219312   5.939   0.673   0.208
  724SOL     OW19313   3.149   1.730   0.729
  724SOL    HW119314   3.197   1.669   0.784
  724SOL    HW219315   3.214   1.762   0.666
  725SOL     OW19316   1.142   5.959   2.203
  725SOL    HW119317   1.201   5.981   2.274
  725SOL    HW219318   1.064   6.012   2.219
  726SOL     OW19319   3.506   1.636   5.999
  726SOL    HW119320   3.578   1.699   6.004
  726SOL    HW219321   3.548   1.551   6.012
  727SOL     OW19322   0.033   4.014   0.187
  727SOL    HW119323   0.080   3.997   0.105
  727SOL    HW219324  -0.039   4.072   0.162
  728SOL     OW19325   0.119   4.539   7.344
  728SOL    HW119326   0.031   4.511   7.368
  728SOL    HW219327   0.174   4.516   7.419
  729SOL     OW19328   1.471   1.191   2.108
  729SOL    HW119329   1.544   1.129   2.112
  729SOL    HW219330   1.512   1.277   2.107
  730SOL     OW19331   0.634   0.035   0.615
  730SOL    HW119332   0.614   0.127   0.632
  730SOL    HW219333   0.694   0.036   0.540
  731SOL     OW19334   4.755   0.962   5.599
  731SOL    HW119335   4.707   1.020   5.658
  731SOL    HW219336   4.847   0.976   5.621
  732SOL     OW19337   0.480   2.553   5.785
  732SOL    HW119338   0.505   2.606   5.861
  732SOL    HW219339   0.527   2.470   5.797
  733SOL     OW19340   0.387   1.970   1.102
  733SOL    HW119341   0.421   1.894   1.055
  733SOL    HW219342   0.428   2.045   1.060
  734SOL     OW19343   3.131   4.507   7.645
  734SOL    HW119344   3.107   4.435   7.587
  734SOL    HW219345   3.180   4.568   7.589
  735SOL     OW19346   1.825   2.930   6.458
  735SOL    HW119347   1.887   2.920   6.385
  735SOL    HW219348   1.750   2.876   6.434
  736SOL     OW19349   0.605   2.398   2.048
  736SOL    HW119350   0.666   2.338   2.006
  736SOL    HW219351   0.636   2.485   2.023
  737SOL     OW19352   2.197   1.736   0.064
  737SOL    HW119353   2.282   1.778   0.082
  737SOL    HW219354   2.206   1.700  -0.024
  738SOL     OW19355   1.702   1.843   7.199
  738SOL    HW119356   1.702   1.896   7.119
  738SOL    HW219357   1.733   1.902   7.267
  739SOL     OW19358   1.818   3.001   2.329
  739SOL    HW119359   1.768   2.934   2.375
  739SOL    HW219360   1.751   3.055   2.285
  740SOL     OW19361   0.055   4.060   2.181
  740SOL    HW119362   0.132   4.114   2.164
  740SOL    HW219363   0.052   3.998   2.108
  741SOL     OW19364   0.772   1.682   0.994
  741SOL    HW119365   0.828   1.759   1.003
  741SOL    HW219366   0.815   1.615   1.046
  742SOL     OW19367   4.992   3.348   7.754
  742SOL    HW119368   4.997   3.260   7.718
  742SOL    HW219369   4.922   3.391   7.705
  743SOL     OW19370   0.108   2.499   0.684
  743SOL    HW119371   0.129   2.517   0.776
  743SOL    HW219372   0.113   2.584   0.641
  744SOL     OW19373   0.040   5.901   1.155
  744SOL    HW119374  -0.027   5.968   1.166
  744SOL    HW219375   0.001   5.838   1.094
  745SOL     OW19376   0.489   1.652   6.460
  745SOL    HW119377   0.547   1.652   6.384
  745SOL    HW219378   0.539   1.607   6.528
  746SOL     OW19379   4.094   4.529   6.292
  746SOL    HW119380   4.013   4.547   6.245
  746SOL    HW219381   4.130   4.616   6.313
  747SOL     OW19382   4.552   5.128   7.458
  747SOL    HW119383   4.615   5.117   7.387
  747SOL    HW219384   4.524   5.039   7.480
  748SOL     OW19385   3.119   3.079   0.753
  748SOL    HW119386   3.147   3.151   0.809
  748SOL    HW219387   3.187   3.071   0.686
  749SOL     OW19388   6.189   0.378   6.889
  749SOL    HW119389   6.265   0.392   6.946
  749SOL    HW219390   6.212   0.424   6.808
  750SOL     OW19391   2.176   4.765   7.345
  750SOL    HW119392   2.235   4.708   7.296
  750SOL    HW219393   2.214   4.853   7.336
  751SOL     OW19394   0.113   5.531   7.147
  751SOL    HW119395   0.044   5.596   7.160
  751SOL    HW219396   0.194   5.583   7.149
  752SOL     OW19397   0.577   1.201   7.128
  752SOL    HW119398   0.577   1.110   7.158
  752SOL    HW219399   0.599   1.252   7.206
  753SOL     OW19400   2.588   3.012   0.243
  753SOL    HW119401   2.652   2.942   0.230
  753SOL    HW219402   2.528   3.004   0.169
  754SOL     OW19403   0.312   4.626   6.938
  754SOL    HW119404   0.361   4.708   6.947
  754SOL    HW219405   0.379   4.559   6.929
  755SOL     OW19406   6.008   2.972   6.775
  755SOL    HW119407   6.043   3.056   6.744
  755SOL    HW219408   5.934   2.954   6.716
  756SOL     OW19409   3.967   3.110   2.136
  756SOL    HW119410   3.954   3.128   2.043
  756SOL    HW219411   4.049   3.060   2.139
  757SOL     OW19412   6.002   3.745   6.906
  757SOL    HW119413   6.023   3.655   6.881
  757SOL    HW219414   6.085   3.792   6.899
  758SOL     OW19415   2.009   1.495   6.384
  758SOL    HW119416   2.054   1.413   6.405
  758SOL    HW219417   1.924   1.487   6.426
  759SOL     OW19418   5.705   5.986   0.561
  759SOL    HW119419   5.653   6.052   0.607
  759SOL    HW219420   5.792   6.026   0.551
  760SOL     OW19421   4.206   4.301   0.722
  760SOL    HW119422   4.167   4.370   0.776
  760SOL    HW219423   4.299   4.324   0.719
  761SOL     OW19424   3.684   1.238   7.722
  761SOL    HW119425   3.736   1.161   7.744
  761SOL    HW219426   3.738   1.288   7.661
  762SOL     OW19427   0.594   1.659   0.401
  762SOL    HW119428   0.522   1.645   0.462
  762SOL    HW219429   0.602   1.577   0.353
  763SOL     OW19430   1.358   2.480   7.387
  763SOL    HW119431   1.381   2.485   7.294
  763SOL    HW219432   1.269   2.444   7.388
  764SOL     OW19433   2.528   1.377   4.956
  764SOL    HW119434   2.508   1.356   5.047
  764SOL    HW219435   2.537   1.472   4.954
  765SOL     OW19436   0.376   6.377   2.102
  765SOL    HW119437   0.368   6.332   2.018
  765SOL    HW219438   0.296   6.353   2.150
  766SOL     OW19439   0.039   2.068   1.887
  766SOL    HW119440   0.058   2.157   1.914
  766SOL    HW219441   0.089   2.055   1.806
  767SOL     OW19442   0.570   2.313   5.877
  767SOL    HW119443   0.537   2.235   5.834
  767SOL    HW219444   0.592   2.284   5.966
  768SOL     OW19445   4.950   4.612   7.561
  768SOL    HW119446   4.910   4.532   7.528
  768SOL    HW219447   5.016   4.583   7.624
  769SOL     OW19448   3.536   4.481   7.255
  769SOL    HW119449   3.546   4.392   7.288
  769SOL    HW219450   3.618   4.525   7.276
  770SOL     OW19451   1.139   0.538   0.465
  770SOL    HW119452   1.178   0.611   0.513
  770SOL    HW219453   1.207   0.511   0.402
  771SOL     OW19454   0.240   3.211   7.256
  771SOL    HW119455   0.244   3.130   7.206
  771SOL    HW219456   0.192   3.272   7.199
  772SOL     OW19457   1.422   4.894   6.753
  772SOL    HW119458   1.402   4.846   6.833
  772SOL    HW219459   1.381   4.842   6.683
  773SOL     OW19460   0.898   3.837   1.416
  773SOL    HW119461   0.921   3.834   1.509
  773SOL    HW219462   0.851   3.920   1.406
  774SOL     OW19463   0.024   3.273   1.991
  774SOL    HW119464   0.012   3.178   1.996
  774SOL    HW219465   0.119   3.285   1.983
  775SOL     OW19466   3.512   4.361   0.338
  775SOL    HW119467   3.519   4.444   0.291
  775SOL    HW219468   3.557   4.376   0.421
  776SOL     OW19469   1.635   3.762   1.298
  776SOL    HW119470   1.558   3.767   1.354
  776SOL    HW219471   1.690   3.694   1.337
  777SOL     OW19472   2.507   5.419   7.563
  777SOL    HW119473   2.546   5.337   7.534
  777SOL    HW219474   2.419   5.419   7.526
  778SOL     OW19475   5.633   4.424   6.721
  778SOL    HW119476   5.544   4.442   6.692
  778SOL    HW219477   5.629   4.335   6.757
  779SOL     OW19478   3.064   2.555   0.278
  779SOL    HW119479   3.118   2.592   0.208
  779SOL    HW219480   2.991   2.616   0.286
  780SOL     OW19481   2.421   3.420   6.611
  780SOL    HW119482   2.430   3.402   6.517
  780SOL    HW219483   2.407   3.333   6.650
  781SOL     OW19484   0.692   0.585   0.412
  781SOL    HW119485   0.755   0.518   0.439
  781SOL    HW219486   0.744   0.652   0.368
  782SOL     OW19487   1.546   1.452   1.259
  782SOL    HW119488   1.463   1.488   1.226
  782SOL    HW219489   1.569   1.383   1.197
  783SOL     OW19490   0.940   4.403   1.743
  783SOL    HW119491   0.909   4.463   1.675
  783SOL    HW219492   0.924   4.449   1.825
  784SOL     OW19493   2.741   5.532   6.459
  784SOL    HW119494   2.678   5.460   6.448
  784SOL    HW219495   2.773   5.550   6.371
  785SOL     OW19496   2.577   6.276   2.050
  785SOL    HW119497   2.498   6.273   1.996
  785SOL    HW219498   2.548   6.315   2.133
  786SOL     OW19499   0.983   4.246   7.572
  786SOL    HW119500   0.922   4.229   7.644
  786SOL    HW219501   1.055   4.185   7.587
  787SOL     OW19502   2.522   0.183   1.792
  787SOL    HW119503   2.585   0.251   1.818
  787SOL    HW219504   2.476   0.159   1.872
  788SOL     OW19505   0.524   4.478   7.456
  788SOL    HW119506   0.597   4.500   7.515
  788SOL    HW219507   0.455   4.447   7.514
  789SOL     OW19508   2.713   3.509   6.268
  789SOL    HW119509   2.768   3.505   6.346
  789SOL    HW219510   2.626   3.531   6.301
  790SOL     OW19511   3.196   4.809   0.635
  790SOL    HW119512   3.282   4.784   0.601
  790SOL    HW219513   3.135   4.788   0.564
  791SOL     OW19514   1.117   4.077   0.601
  791SOL    HW119515   1.076   4.061   0.687
  791SOL    HW219516   1.178   4.005   0.590
  792SOL     OW19517   3.200   2.791   1.777
  792SOL    HW119518   3.229   2.785   1.686
  792SOL    HW219519   3.164   2.704   1.796
  793SOL     OW19520   1.873   5.633   6.210
  793SOL    HW119521   1.869   5.727   6.198
  793SOL    HW219522   1.960   5.608   6.178
  794SOL     OW19523   5.240   2.313   1.098
  794SOL    HW119524   5.287   2.349   1.173
  794SOL    HW219525   5.290   2.236   1.072
  795SOL     OW19526   2.228   3.612   1.283
  795SOL    HW119527   2.267   3.552   1.347
  795SOL    HW219528   2.135   3.591   1.284
  796SOL     OW19529   2.956   5.547   7.792
  796SOL    HW119530   3.001   5.472   7.832
  796SOL    HW219531   2.974   5.539   7.699
  797SOL     OW19532   0.430   5.338   5.464
  797SOL    HW119533   0.434   5.406   5.531
  797SOL    HW219534   0.506   5.355   5.408
  798SOL     OW19535   0.188   1.526   0.576
  798SOL    HW119536   0.156   1.573   0.653
  798SOL    HW219537   0.283   1.532   0.582
  799SOL     OW19538   4.343   5.833   7.069
  799SOL    HW119539   4.254   5.867   7.084
  799SOL    HW219540   4.400   5.901   7.104
  800SOL     OW19541   5.662   5.102   1.911
  800SOL    HW119542   5.602   5.059   1.972
  800SOL    HW219543   5.607   5.128   1.838
  801SOL     OW19544   2.557   4.504   1.144
  801SOL    HW119545   2.597   4.558   1.076
  801SOL    HW219546   2.628   4.485   1.205
  802SOL     OW19547   1.627   4.893   7.257
  802SOL    HW119548   1.615   4.810   7.304
  802SOL    HW219549   1.669   4.867   7.175
  803SOL     OW19550   2.897   0.156   7.164
  803SOL    HW119551   2.944   0.218   7.220
  803SOL    HW219552   2.833   0.115   7.223
  804SOL     OW19553   3.992   1.469   0.041
  804SOL    HW119554   3.946   1.543   0.080
  804SOL    HW219555   4.013   1.412   0.116
  805SOL     OW19556   0.119   2.826   0.945
  805SOL    HW119557   0.126   2.917   0.976
  805SOL    HW219558   0.044   2.790   0.993
  806SOL     OW19559   1.480   4.762   6.365
  806SOL    HW119560   1.418   4.772   6.438
  806SOL    HW219561   1.451   4.827   6.301
  807SOL     OW19562   0.785   1.989   0.129
  807SOL    HW119563   0.705   1.940   0.107
  807SOL    HW219564   0.851   1.921   0.146
  808SOL     OW19565   5.414   1.189   6.750
  808SOL    HW119566   5.469   1.267   6.747
  808SOL    HW219567   5.454   1.129   6.688
  809SOL     OW19568   1.345   4.932   7.148
  809SOL    HW119569   1.309   5.020   7.142
  809SOL    HW219570   1.429   4.943   7.192
  810SOL     OW19571   4.748   2.113   2.158
  810SOL    HW119572   4.668   2.126   2.208
  810SOL    HW219573   4.767   2.019   2.166
  811SOL     OW19574   1.024   0.045   6.179
  811SOL    HW119575   0.966   0.095   6.237
  811SOL    HW219576   0.983   0.052   6.093
  812SOL     OW19577   5.878   1.583   0.160
  812SOL    HW119578   5.890   1.496   0.198
  812SOL    HW219579   5.960   1.600   0.114
  813SOL     OW19580   0.861   4.658   5.631
  813SOL    HW119581   0.876   4.733   5.574
  813SOL    HW219582   0.892   4.686   5.717
  814SOL     OW19583   5.861   3.775   6.311
  814SOL    HW119584   5.923   3.767   6.238
  814SOL    HW219585   5.794   3.835   6.278
  815SOL     OW19586   4.276   1.740   5.378
  815SOL    HW119587   4.193   1.735   5.425
  815SOL    HW219588   4.275   1.826   5.336
  816SOL     OW19589   5.165   6.133   1.426
  816SOL    HW119590   5.148   6.077   1.502
  816SOL    HW219591   5.111   6.095   1.357
  817SOL     OW19592   5.743   6.296   1.886
  817SOL    HW119593   5.797   6.258   1.956
  817SOL    HW219594   5.771   6.387   1.880
  818SOL     OW19595   2.921   5.111   6.213
  818SOL    HW119596   2.922   5.184   6.150
  818SOL    HW219597   2.883   5.038   6.164
  819SOL     OW19598   0.657   2.293   1.641
  819SOL    HW119599   0.725   2.301   1.707
  819SOL    HW219600   0.695   2.332   1.562
  820SOL     OW19601   4.500   1.733   1.270
  820SOL    HW119602   4.540   1.714   1.355
  820SOL    HW219603   4.462   1.650   1.242
  821SOL     OW19604   2.793   6.026   7.368
  821SOL    HW119605   2.871   6.080   7.353
  821SOL    HW219606   2.733   6.051   7.297
  822SOL     OW19607   3.015   2.820   7.131
  822SOL    HW119608   3.058   2.802   7.047
  822SOL    HW219609   3.021   2.914   7.141
  823SOL     OW19610   4.041   0.138   0.027
  823SOL    HW119611   4.116   0.152   0.085
  823SOL    HW219612   4.057   0.196  -0.047
  824SOL     OW19613   1.207   2.287   0.749
  824SOL    HW119614   1.182   2.362   0.802
  824SOL    HW219615   1.145   2.218   0.774
  825SOL     OW19616   5.299   5.794   0.474
  825SOL    HW119617   5.261   5.864   0.527
  825SOL    HW219618   5.393   5.813   0.471
  826SOL     OW19619   0.603   3.769   5.115
  826SOL    HW119620   0.583   3.857   5.147
  826SOL    HW219621   0.658   3.784   5.038
  827SOL     OW19622   2.173   4.850   1.106
  827SOL    HW119623   2.145   4.798   1.181
  827SOL    HW219624   2.108   4.921   1.101
  828SOL     OW19625   5.853   0.819   0.903
  828SOL    HW119626   5.898   0.896   0.867
  828SOL    HW219627   5.810   0.779   0.827
  829SOL     OW19628   5.566   4.560   0.300
  829SOL    HW119629   5.613   4.479   0.280
  829SOL    HW219630   5.481   4.531   0.332
  830SOL     OW19631   2.875   3.289   7.244
  830SOL    HW119632   2.865   3.383   7.232
  830SOL    HW219633   2.819   3.268   7.319
  831SOL     OW19634   5.516   6.140   1.949
  831SOL    HW119635   5.455   6.178   2.012
  831SOL    HW219636   5.585   6.205   1.940
  832SOL     OW19637   1.318   6.010   5.896
  832SOL    HW119638   1.252   6.042   5.835
  832SOL    HW219639   1.280   5.930   5.933
  833SOL     OW19640   0.458   2.143   6.860
  833SOL    HW119641   0.506   2.129   6.941
  833SOL    HW219642   0.452   2.055   6.820
  834SOL     OW19643   3.144   2.593   7.266
  834SOL    HW119644   3.120   2.678   7.228
  834SOL    HW219645   3.064   2.542   7.263
  835SOL     OW19646   5.705   5.174   0.042
  835SOL    HW119647   5.795   5.204   0.052
  835SOL    HW219648   5.687   5.180  -0.052
  836SOL     OW19649   1.088   6.053   7.031
  836SOL    HW119650   1.002   6.034   6.994
  836SOL    HW219651   1.087   6.147   7.048
  837SOL     OW19652   0.739   0.187   2.240
  837SOL    HW119653   0.704   0.099   2.234
  837SOL    HW219654   0.765   0.197   2.332
  838SOL     OW19655   0.777   1.691   0.695
  838SOL    HW119656   0.764   1.649   0.780
  838SOL    HW219657   0.702   1.663   0.643
  839SOL     OW19658   3.381   2.081   1.621
  839SOL    HW119659   3.451   2.142   1.602
  839SOL    HW219660   3.381   2.074   1.717
  840SOL     OW19661   2.128   3.541   6.463
  840SOL    HW119662   2.146   3.452   6.432
  840SOL    HW219663   2.117   3.532   6.558
  841SOL     OW19664   6.389   6.257   7.411
  841SOL    HW119665   6.422   6.180   7.457
  841SOL    HW219666   6.302   6.231   7.380
  842SOL     OW19667   1.884   1.288   0.093
  842SOL    HW119668   1.961   1.338   0.065
  842SOL    HW219669   1.908   1.197   0.078
  843SOL     OW19670   0.359   5.724   0.604
  843SOL    HW119671   0.426   5.745   0.669
  843SOL    HW219672   0.342   5.631   0.616
  844SOL     OW19673   2.566   6.168   0.716
  844SOL    HW119674   2.605   6.083   0.736
  844SOL    HW219675   2.535   6.159   0.626
  845SOL     OW19676   2.868   5.880   6.655
  845SOL    HW119677   2.791   5.888   6.710
  845SOL    HW219678   2.836   5.899   6.566
  846SOL     OW19679   0.900   0.404   0.502
  846SOL    HW119680   0.939   0.323   0.535
  846SOL    HW219681   0.973   0.465   0.494
  847SOL     OW19682   6.087   0.555   0.585
  847SOL    HW119683   6.133   0.586   0.662
  847SOL    HW219684   6.154   0.510   0.533
  848SOL     OW19685   0.551   2.553   6.570
  848SOL    HW119686   0.592   2.509   6.645
  848SOL    HW219687   0.510   2.481   6.521
  849SOL     OW19688   3.592   6.043   0.888
  849SOL    HW119689   3.598   5.989   0.809
  849SOL    HW219690   3.657   6.112   0.876
  850SOL     OW19691   0.826   4.249   6.313
  850SOL    HW119692   0.885   4.234   6.388
  850SOL    HW219693   0.805   4.342   6.317
  851SOL     OW19694   2.646   3.471   1.287
  851SOL    HW119695   2.705   3.418   1.233
  851SOL    HW219696   2.566   3.419   1.292
  852SOL     OW19697   4.370   1.540   6.445
  852SOL    HW119698   4.287   1.577   6.414
  852SOL    HW219699   4.432   1.612   6.439
  853SOL     OW19700   1.453   1.540   6.324
  853SOL    HW119701   1.450   1.528   6.419
  853SOL    HW219702   1.375   1.494   6.291
  854SOL     OW19703   5.161   4.979   0.956
  854SOL    HW119704   5.078   5.020   0.979
  854SOL    HW219705   5.163   4.982   0.860
  855SOL     OW19706   1.286   4.534   7.131
  855SOL    HW119707   1.245   4.447   7.135
  855SOL    HW219708   1.373   4.518   7.095
  856SOL     OW19709   1.267   1.132   7.465
  856SOL    HW119710   1.341   1.072   7.468
  856SOL    HW219711   1.299   1.206   7.413
  857SOL     OW19712   0.345   2.119   1.900
  857SOL    HW119713   0.270   2.126   1.841
  857SOL    HW219714   0.338   2.195   1.958
  858SOL     OW19715   2.275   4.097   2.911
  858SOL    HW119716   2.279   4.192   2.895
  858SOL    HW219717   2.345   4.061   2.856
  859SOL     OW19718   6.425   2.150   7.211
  859SOL    HW119719   6.417   2.145   7.306
  859SOL    HW219720   6.519   2.141   7.195
  860SOL     OW19721   1.847   2.513   6.950
  860SOL    HW119722   1.886   2.593   6.916
  860SOL    HW219723   1.921   2.464   6.987
  861SOL     OW19724   4.723   2.514   1.129
  861SOL    HW119725   4.794   2.497   1.068
  861SOL    HW219726   4.765   2.519   1.215
  862SOL     OW19727   3.564   2.286   1.521
  862SOL    HW119728   3.610   2.324   1.596
  862SOL    HW219729   3.622   2.303   1.446
  863SOL     OW19730   3.591   0.450   7.796
  863SOL    HW119731   3.577   0.413   7.709
  863SOL    HW219732   3.607   0.375   7.853
  864SOL     OW19733   2.762   0.326   1.123
  864SOL    HW119734   2.793   0.414   1.099
  864SOL    HW219735   2.694   0.306   1.059
  865SOL     OW19736   2.241   1.698   6.892
  865SOL    HW119737   2.182   1.770   6.913
  865SOL    HW219738   2.241   1.693   6.796
  866SOL     OW19739   4.274   6.139   1.180
  866SOL    HW119740   4.186   6.130   1.144
  866SOL    HW219741   4.287   6.233   1.189
  867SOL     OW19742   5.778   1.324   0.009
  867SOL    HW119743   5.749   1.288   0.093
  867SOL    HW219744   5.807   1.248  -0.041
  868SOL     OW19745   2.292   2.716   5.831
  868SOL    HW119746   2.262   2.677   5.749
  868SOL    HW219747   2.218   2.707   5.891
  869SOL     OW19748   0.045   4.338   1.036
  869SOL    HW119749  -0.049   4.350   1.044
  869SOL    HW219750   0.065   4.267   1.098
  870SOL     OW19751   0.541   1.469   0.887
  870SOL    HW119752   0.519   1.562   0.884
  870SOL    HW219753   0.466   1.428   0.930
  871SOL     OW19754   5.225   5.056   7.521
  871SOL    HW119755   5.133   5.065   7.496
  871SOL    HW219756   5.256   4.980   7.472
  872SOL     OW19757   4.591   0.666   7.433
  872SOL    HW119758   4.636   0.583   7.448
  872SOL    HW219759   4.527   0.647   7.365
  873SOL     OW19760   0.410   1.579   0.115
  873SOL    HW119761   0.495   1.616   0.141
  873SOL    HW219762   0.360   1.574   0.197
  874SOL     OW19763   3.466   5.284   0.575
  874SOL    HW119764   3.388   5.247   0.616
  874SOL    HW219765   3.456   5.267   0.482
  875SOL     OW19766   3.843   5.977   7.229
  875SOL    HW119767   3.766   5.922   7.246
  875SOL    HW219768   3.823   6.061   7.270
  876SOL     OW19769   0.854   2.466   2.219
  876SOL    HW119770   0.789   2.457   2.289
  876SOL    HW219771   0.815   2.529   2.158
  877SOL     OW19772   3.368   4.574   1.258
  877SOL    HW119773   3.384   4.639   1.326
  877SOL    HW219774   3.333   4.624   1.184
  878SOL     OW19775   5.832   3.818   1.739
  878SOL    HW119776   5.839   3.793   1.647
  878SOL    HW219777   5.923   3.828   1.768
  879SOL     OW19778   4.194   4.745   5.943
  879SOL    HW119779   4.128   4.783   6.000
  879SOL    HW219780   4.146   4.680   5.891
  880SOL     OW19781   5.239   3.106   7.635
  880SOL    HW119782   5.149   3.080   7.652
  880SOL    HW219783   5.251   3.094   7.540
  881SOL     OW19784   2.527   4.338   7.160
  881SOL    HW119785   2.453   4.372   7.109
  881SOL    HW219786   2.561   4.266   7.108
  882SOL     OW19787   3.669   1.873   0.400
  882SOL    HW119788   3.674   1.847   0.492
  882SOL    HW219789   3.730   1.814   0.355
  883SOL     OW19790   5.198   5.863   0.749
  883SOL    HW119791   5.113   5.906   0.758
  883SOL    HW219792   5.177   5.770   0.754
  884SOL     OW19793   1.512   1.711   6.703
  884SOL    HW119794   1.440   1.750   6.653
  884SOL    HW219795   1.492   1.733   6.794
  885SOL     OW19796   4.244   5.064   1.234
  885SOL    HW119797   4.243   4.975   1.269
  885SOL    HW219798   4.282   5.116   1.304
  886SOL     OW19799   3.904   4.264   6.384
  886SOL    HW119800   3.811   4.275   6.405
  886SOL    HW219801   3.932   4.189   6.436
  887SOL     OW19802   1.270   5.083   7.663
  887SOL    HW119803   1.180   5.077   7.696
  887SOL    HW219804   1.305   4.995   7.673
  888SOL     OW19805   0.283   3.008   1.525
  888SOL    HW119806   0.221   3.041   1.591
  888SOL    HW219807   0.363   2.990   1.574
  889SOL     OW19808   1.658   4.836   2.298
  889SOL    HW119809   1.585   4.798   2.346
  889SOL    HW219810   1.669   4.923   2.336
  890SOL     OW19811   6.356   2.002   0.790
  890SOL    HW119812   6.422   1.979   0.856
  890SOL    HW219813   6.351   2.097   0.794
  891SOL     OW19814   4.657   2.387   1.963
  891SOL    HW119815   4.655   2.302   2.007
  891SOL    HW219816   4.569   2.423   1.976
  892SOL     OW19817   3.198   1.915   7.100
  892SOL    HW119818   3.222   2.005   7.124
  892SOL    HW219819   3.250   1.860   7.158
  893SOL     OW19820   4.931   1.265   6.039
  893SOL    HW119821   4.998   1.201   6.064
  893SOL    HW219822   4.980   1.337   6.001
  894SOL     OW19823   2.772   0.700   0.619
  894SOL    HW119824   2.801   0.787   0.593
  894SOL    HW219825   2.839   0.669   0.680
  895SOL     OW19826   3.135   4.943   5.487
  895SOL    HW119827   3.112   4.900   5.404
  895SOL    HW219828   3.070   4.910   5.549
  896SOL     OW19829   2.926   4.848   7.386
  896SOL    HW119830   2.989   4.855   7.457
  896SOL    HW219831   2.976   4.871   7.307
  897SOL     OW19832   0.241   5.740   1.003
  897SOL    HW119833   0.313   5.787   0.961
  897SOL    HW219834   0.243   5.772   1.094
  898SOL     OW19835   0.999   6.007   6.168
  898SOL    HW119836   0.941   5.986   6.095
  898SOL    HW219837   0.962   5.959   6.243
  899SOL     OW19838   0.548   4.316   0.698
  899SOL    HW119839   0.588   4.378   0.636
  899SOL    HW219840   0.590   4.232   0.679
  900SOL     OW19841   4.949   5.420   7.682
  900SOL    HW119842   5.021   5.365   7.713
  900SOL    HW219843   4.876   5.359   7.669
  901SOL     OW19844   4.735   3.093   1.850
  901SOL    HW119845   4.786   3.170   1.871
  901SOL    HW219846   4.752   3.032   1.921
  902SOL     OW19847   0.841   0.399   1.093
  902SOL    HW119848   0.860   0.491   1.116
  902SOL    HW219849   0.830   0.356   1.177
  903SOL     OW19850   1.293   6.210   6.515
  903SOL    HW119851   1.220   6.238   6.459
  903SOL    HW219852   1.354   6.167   6.455
  904SOL     OW19853   2.261   0.655   2.327
  904SOL    HW119854   2.316   0.580   2.303
  904SOL    HW219855   2.312   0.731   2.299
  905SOL     OW19856   0.395   2.971   0.445
  905SOL    HW119857   0.405   3.055   0.490
  905SOL    HW219858   0.307   2.942   0.466
  906SOL     OW19859   5.967   4.828   0.819
  906SOL    HW119860   5.883   4.808   0.778
  906SOL    HW219861   5.946   4.835   0.913
  907SOL     OW19862   1.129   2.689   7.729
  907SOL    HW119863   1.089   2.607   7.758
  907SOL    HW219864   1.195   2.661   7.665
  908SOL     OW19865   1.722   6.021   6.949
  908SOL    HW119866   1.704   6.097   7.004
  908SOL    HW219867   1.705   5.946   7.005
  909SOL     OW19868   5.341   3.642   1.099
  909SOL    HW119869   5.290   3.571   1.061
  909SOL    HW219870   5.367   3.609   1.185
  910SOL     OW19871   4.603   0.077   2.037
  910SOL    HW119872   4.509   0.066   2.022
  910SOL    HW219873   4.642  -0.004   2.004
  911SOL     OW19874   0.478   5.521   7.646
  911SOL    HW119875   0.456   5.452   7.710
  911SOL    HW219876   0.393   5.548   7.610
  912SOL     OW19877   6.194   0.822   1.816
  912SOL    HW119878   6.243   0.740   1.820
  912SOL    HW219879   6.262   0.890   1.826
  913SOL     OW19880   2.983   1.754   6.714
  913SOL    HW119881   3.024   1.696   6.649
  913SOL    HW219882   2.925   1.810   6.662
  914SOL     OW19883   1.574   1.484   6.927
  914SOL    HW119884   1.588   1.425   6.852
  914SOL    HW219885   1.486   1.518   6.914
  915SOL     OW19886   3.002   1.608   7.299
  915SOL    HW119887   3.095   1.616   7.276
  915SOL    HW219888   2.960   1.577   7.219
  916SOL     OW19889   6.152   0.097   6.963
  916SOL    HW119890   6.175   0.184   6.931
  916SOL    HW219891   6.178   0.038   6.892
  917SOL     OW19892   2.631   0.514   6.473
  917SOL    HW119893   2.669   0.442   6.423
  917SOL    HW219894   2.537   0.508   6.455
  918SOL     OW19895   0.380   2.301   7.558
  918SOL    HW119896   0.302   2.255   7.528
  918SOL    HW219897   0.348   2.383   7.596
  919SOL     OW19898   4.784   5.795   1.413
  919SOL    HW119899   4.843   5.800   1.488
  919SOL    HW219900   4.764   5.701   1.405
  920SOL     OW19901   1.537   4.903   0.953
  920SOL    HW119902   1.464   4.938   0.903
  920SOL    HW219903   1.605   4.970   0.948
  921SOL     OW19904   5.224   2.804   0.122
  921SOL    HW119905   5.138   2.793   0.080
  921SOL    HW219906   5.278   2.733   0.087
  922SOL     OW19907   4.192   5.332   7.562
  922SOL    HW119908   4.266   5.374   7.607
  922SOL    HW219909   4.148   5.404   7.517
  923SOL     OW19910   3.989   4.937   1.422
  923SOL    HW119911   4.080   4.921   1.397
  923SOL    HW219912   3.963   5.014   1.370
  924SOL     OW19913   2.041   3.376   0.380
  924SOL    HW119914   1.975   3.338   0.322
  924SOL    HW219915   2.021   3.340   0.466
  925SOL     OW19916   0.620   2.416   7.707
  925SOL    HW119917   0.531   2.380   7.699
  925SOL    HW219918   0.670   2.346   7.750
  926SOL     OW19919   4.041   3.931   6.246
  926SOL    HW119920   3.968   3.888   6.291
  926SOL    HW219921   4.000   3.978   6.173
  927SOL     OW19922   1.115   5.631   5.727
  927SOL    HW119923   1.187   5.644   5.664
  927SOL    HW219924   1.136   5.547   5.769
  928SOL     OW19925   1.922   0.025   5.965
  928SOL    HW119926   1.898   0.059   5.878
  928SOL    HW219927   1.880  -0.061   5.968
  929SOL     OW19928   0.684   2.843   1.283
  929SOL    HW119929   0.680   2.930   1.324
  929SOL    HW219930   0.689   2.861   1.189
  930SOL     OW19931   6.016   2.063   7.268
  930SOL    HW119932   5.991   2.154   7.250
  930SOL    HW219933   6.087   2.046   7.206
  931SOL     OW19934   4.244   5.806   0.276
  931SOL    HW119935   4.159   5.837   0.244
  931SOL    HW219936   4.242   5.711   0.263
  932SOL     OW19937   3.219   2.773   1.481
  932SOL    HW119938   3.170   2.854   1.467
  932SOL    HW219939   3.160   2.703   1.452
  933SOL     OW19940   0.779   3.560   0.451
  933SOL    HW119941   0.722   3.515   0.513
  933SOL    HW219942   0.723   3.578   0.376
  934SOL     OW19943   3.845   5.296   7.373
  934SOL    HW119944   3.837   5.363   7.440
  934SOL    HW219945   3.762   5.298   7.326
  935SOL     OW19946   4.368   4.502   1.678
  935SOL    HW119947   4.396   4.566   1.613
  935SOL    HW219948   4.424   4.518   1.753
  936SOL     OW19949   1.226   1.896   0.889
  936SOL    HW119950   1.172   1.974   0.897
  936SOL    HW219951   1.233   1.881   0.795
  937SOL     OW19952   2.061   1.129   0.366
  937SOL    HW119953   2.114   1.112   0.444
  937SOL    HW219954   2.089   1.216   0.337
  938SOL     OW19955   5.652   5.310   6.928
  938SOL    HW119956   5.567   5.354   6.924
  938SOL    HW219957   5.635   5.232   6.982
  939SOL     OW19958   0.254   3.672   6.348
  939SOL    HW119959   0.225   3.662   6.439
  939SOL    HW219960   0.191   3.621   6.298
  940SOL     OW19961   4.347   4.199   7.110
  940SOL    HW119962   4.435   4.161   7.115
  940SOL    HW219963   4.359   4.292   7.126
  941SOL     OW19964   5.694   6.412   6.560
  941SOL    HW119965   5.643   6.459   6.625
  941SOL    HW219966   5.628   6.371   6.503
  942SOL     OW19967   0.534   4.771   0.586
  942SOL    HW119968   0.626   4.752   0.600
  942SOL    HW219969   0.488   4.710   0.644
  943SOL     OW19970   4.191   6.302   7.163
  943SOL    HW119971   4.155   6.391   7.170
  943SOL    HW219972   4.276   6.314   7.120
  944SOL     OW19973   0.700   2.779   7.348
  944SOL    HW119974   0.705   2.696   7.397
  944SOL    HW219975   0.704   2.847   7.416
  945SOL     OW19976   1.859   6.169   1.020
  945SOL    HW119977   1.930   6.139   0.964
  945SOL    HW219978   1.787   6.189   0.960
  946SOL     OW19979   6.308   1.849   7.361
  946SOL    HW119980   6.365   1.783   7.399
  946SOL    HW219981   6.236   1.799   7.323
  947SOL     OW19982   3.555   0.488   0.748
  947SOL    HW119983   3.575   0.407   0.794
  947SOL    HW219984   3.465   0.508   0.773
  948SOL     OW19985   2.911   2.176   0.684
  948SOL    HW119986   2.922   2.114   0.757
  948SOL    HW219987   2.982   2.239   0.696
  949SOL     OW19988   4.801   1.879   1.578
  949SOL    HW119989   4.790   1.821   1.502
  949SOL    HW219990   4.849   1.826   1.641
  950SOL     OW19991   5.235   6.436   5.881
  950SOL    HW119992   5.310   6.489   5.908
  950SOL    HW219993   5.167   6.499   5.860
  951SOL     OW19994   3.406   3.199   0.152
  951SOL    HW119995   3.494   3.233   0.168
  951SOL    HW219996   3.350   3.276   0.145
  952SOL     OW19997   6.163   3.675   0.367
  952SOL    HW119998   6.188   3.614   0.297
  952SOL    HW219999   6.117   3.746   0.321
  953SOL     OW20000   3.258   4.797   6.160
  953SOL    HW120001   3.272   4.753   6.076
  953SOL    HW220002   3.162   4.798   6.170
  954SOL     OW20003   5.127   1.984   1.671
  954SOL    HW120004   5.137   1.912   1.734
  954SOL    HW220005   5.205   2.038   1.683
  955SOL     OW20006   2.869   3.847   6.147
  955SOL    HW120007   2.936   3.779   6.160
  955SOL    HW220008   2.899   3.897   6.071
  956SOL     OW20009   5.523   3.672   0.346
  956SOL    HW120010   5.528   3.767   0.346
  956SOL    HW220011   5.542   3.647   0.436
  957SOL     OW20012   1.484   2.156   7.027
  957SOL    HW120013   1.564   2.110   7.003
  957SOL    HW220014   1.414   2.108   6.982
  958SOL     OW20015   1.106   2.382   2.008
  958SOL    HW120016   1.164   2.456   1.987
  958SOL    HW220017   1.042   2.419   2.069
  959SOL     OW20018   4.239   0.116   6.296
  959SOL    HW120019   4.323   0.070   6.304
  959SOL    HW220020   4.206   0.120   6.386
  960SOL     OW20021   2.678   3.317   5.683
  960SOL    HW120022   2.730   3.250   5.638
  960SOL    HW220023   2.690   3.396   5.631
  961SOL     OW20024   2.412   3.926   6.169
  961SOL    HW120025   2.495   3.880   6.157
  961SOL    HW220026   2.348   3.856   6.185
  962SOL     OW20027   6.253   5.647   0.268
  962SOL    HW120028   6.236   5.697   0.348
  962SOL    HW220029   6.185   5.677   0.207
  963SOL     OW20030   6.435   4.991   0.906
  963SOL    HW120031   6.374   5.008   0.834
  963SOL    HW220032   6.483   4.913   0.878
  964SOL     OW20033   1.542   2.400   1.232
  964SOL    HW120034   1.566   2.314   1.266
  964SOL    HW220035   1.472   2.383   1.170
  965SOL     OW20036   0.188   5.596   7.598
  965SOL    HW120037   0.112   5.621   7.545
  965SOL    HW220038   0.159   5.610   7.688
  966SOL     OW20039   3.981   0.532   0.068
  966SOL    HW120040   4.040   0.482   0.125
  966SOL    HW220041   3.937   0.466   0.014
  967SOL     OW20042   0.150   0.203   0.198
  967SOL    HW120043   0.169   0.269   0.264
  967SOL    HW220044   0.054   0.198   0.197
  968SOL     OW20045   3.505   1.296   6.808
  968SOL    HW120046   3.434   1.286   6.744
  968SOL    HW220047   3.582   1.261   6.764
  969SOL     OW20048   6.287   5.436   1.019
  969SOL    HW120049   6.235   5.407   0.944
  969SOL    HW220050   6.369   5.387   1.012
  970SOL     OW20051   4.117   4.286   6.130
  970SOL    HW120052   4.093   4.377   6.146
  970SOL    HW220053   4.049   4.234   6.174
  971SOL     OW20054   5.014   0.582   0.521
  971SOL    HW120055   5.069   0.549   0.593
  971SOL    HW220056   5.077   0.607   0.453
  972SOL     OW20057   5.581   6.152   6.724
  972SOL    HW120058   5.651   6.195   6.774
  972SOL    HW220059   5.523   6.116   6.791
  973SOL     OW20060   2.343   4.519   6.457
  973SOL    HW120061   2.414   4.554   6.511
  973SOL    HW220062   2.268   4.515   6.516
  974SOL     OW20063   1.972   4.246   0.025
  974SOL    HW120064   1.901   4.303  -0.007
  974SOL    HW220065   1.999   4.285   0.108
  975SOL     OW20066   0.973   0.821   7.238
  975SOL    HW120067   0.967   0.819   7.334
  975SOL    HW220068   1.054   0.869   7.221
  976SOL     OW20069   1.954   3.669   0.047
  976SOL    HW120070   1.969   3.761   0.067
  976SOL    HW220071   1.888   3.669  -0.022
  977SOL     OW20072   2.594   4.169   2.185
  977SOL    HW120073   2.645   4.090   2.170
  977SOL    HW220074   2.647   4.240   2.149
  978SOL     OW20075   6.427   0.890   5.750
  978SOL    HW120076   6.354   0.859   5.696
  978SOL    HW220077   6.438   0.822   5.816
  979SOL     OW20078   0.278   2.673   6.748
  979SOL    HW120079   0.359   2.622   6.756
  979SOL    HW220080   0.245   2.678   6.838
  980SOL     OW20081   2.168   1.349   7.488
  980SOL    HW120082   2.177   1.359   7.394
  980SOL    HW220083   2.231   1.410   7.525
  981SOL     OW20084   0.757   3.702   2.362
  981SOL    HW120085   0.707   3.680   2.283
  981SOL    HW220086   0.757   3.798   2.365
  982SOL     OW20087   1.629   3.990   7.578
  982SOL    HW120088   1.694   3.927   7.548
  982SOL    HW220089   1.660   4.074   7.547
  983SOL     OW20090   0.604   3.523   2.819
  983SOL    HW120091   0.545   3.475   2.761
  983SOL    HW220092   0.690   3.515   2.778
  984SOL     OW20093   2.993   0.411   0.501
  984SOL    HW120094   3.067   0.471   0.491
  984SOL    HW220095   3.034   0.328   0.526
  985SOL     OW20096   5.626   5.107   6.437
  985SOL    HW120097   5.718   5.080   6.433
  985SOL    HW220098   5.586   5.070   6.358
  986SOL     OW20099   5.427   3.134   6.790
  986SOL    HW120100   5.427   3.083   6.871
  986SOL    HW220101   5.434   3.225   6.820
  987SOL     OW20102   1.167   1.732   6.079
  987SOL    HW120103   1.256   1.742   6.115
  987SOL    HW220104   1.119   1.808   6.113
  988SOL     OW20105   1.177   2.776   0.384
  988SOL    HW120106   1.126   2.770   0.304
  988SOL    HW220107   1.115   2.808   0.450
  989SOL     OW20108   0.899   4.908   7.008
  989SOL    HW120109   0.913   4.891   7.102
  989SOL    HW220110   0.954   4.842   6.964
  990SOL     OW20111   0.651   5.172   2.025
  990SOL    HW120112   0.738   5.158   2.062
  990SOL    HW220113   0.596   5.192   2.100
  991SOL     OW20114   5.461   0.145   5.900
  991SOL    HW120115   5.556   0.139   5.902
  991SOL    HW220116   5.442   0.232   5.935
  992SOL     OW20117   3.418   2.430   6.185
  992SOL    HW120118   3.486   2.364   6.174
  992SOL    HW220119   3.352   2.388   6.240
  993SOL     OW20120   0.125   3.293   7.717
  993SOL    HW120121   0.199   3.352   7.704
  993SOL    HW220122   0.161   3.206   7.700
  994SOL     OW20123   3.138   3.606   5.992
  994SOL    HW120124   3.179   3.520   5.995
  994SOL    HW220125   3.052   3.593   6.031
  995SOL     OW20126   4.323   0.745   7.037
  995SOL    HW120127   4.309   0.785   7.123
  995SOL    HW220128   4.259   0.675   7.033
  996SOL     OW20129   2.346   2.588   6.802
  996SOL    HW120130   2.281   2.649   6.766
  996SOL    HW220131   2.297   2.507   6.818
  997SOL     OW20132   5.986   6.121   6.534
  997SOL    HW120133   5.904   6.074   6.521
  997SOL    HW220134   5.959   6.206   6.571
  998SOL     OW20135   4.138   2.616   6.911
  998SOL    HW120136   4.180   2.569   6.840
  998SOL    HW220137   4.132   2.552   6.982
  999SOL     OW20138   5.042   3.461   6.857
  999SOL    HW120139   4.969   3.467   6.919
  999SOL    HW220140   5.041   3.544   6.810
 1000SOL     OW20141   6.114   3.891   2.059
 1000SOL    HW120142   6.195   3.867   2.015
 1000SOL    HW220143   6.078   3.961   2.005
 1001SOL     OW20144   3.197   5.842   1.692
 1001SOL    HW120145   3.150   5.854   1.774
 1001SOL    HW220146   3.182   5.924   1.644
 1002SOL     OW20147   6.425   4.381   6.687
 1002SOL    HW120148   6.336   4.355   6.711
 1002SOL    HW220149   6.427   4.476   6.701
 1003SOL     OW20150   1.392   5.221   1.423
 1003SOL    HW120151   1.323   5.285   1.434
 1003SOL    HW220152   1.390   5.168   1.503
 1004SOL     OW20153   6.034   1.802   1.232
 1004SOL    HW120154   6.009   1.880   1.182
 1004SOL    HW220155   6.007   1.729   1.177
 1005SOL     OW20156   6.184   0.888   6.274
 1005SOL    HW120157   6.245   0.852   6.338
 1005SOL    HW220158   6.171   0.979   6.302
 1006SOL     OW20159   1.771   3.104   7.038
 1006SOL    HW120160   1.717   3.027   7.051
 1006SOL    HW220161   1.780   3.112   6.943
 1007SOL     OW20162   4.172   5.960   0.863
 1007SOL    HW120163   4.181   6.032   0.802
 1007SOL    HW220164   4.082   5.966   0.895
 1008SOL     OW20165   3.903   3.279   6.290
 1008SOL    HW120166   3.980   3.229   6.265
 1008SOL    HW220167   3.914   3.296   6.384
 1009SOL     OW20168   5.305   6.251   7.119
 1009SOL    HW120169   5.343   6.170   7.154
 1009SOL    HW220170   5.268   6.295   7.196
 1010SOL     OW20171   2.949   4.215   7.284
 1010SOL    HW120172   2.921   4.287   7.340
 1010SOL    HW220173   3.035   4.242   7.251
 1011SOL     OW20174   3.505   5.985   0.134
 1011SOL    HW120175   3.444   5.977   0.060
 1011SOL    HW220176   3.542   5.898   0.143
 1012SOL     OW20177   4.378   2.442   5.630
 1012SOL    HW120178   4.299   2.495   5.639
 1012SOL    HW220179   4.448   2.499   5.660
 1013SOL     OW20180   5.526   1.245   6.177
 1013SOL    HW120181   5.589   1.275   6.111
 1013SOL    HW220182   5.441   1.257   6.135
 1014SOL     OW20183   4.527   5.113   1.026
 1014SOL    HW120184   4.472   5.143   0.954
 1014SOL    HW220185   4.503   5.169   1.100
 1015SOL     OW20186   0.691   3.872   0.216
 1015SOL    HW120187   0.599   3.890   0.232
 1015SOL    HW220188   0.738   3.942   0.260
 1016SOL     OW20189   2.954   4.996   6.812
 1016SOL    HW120190   2.907   4.955   6.739
 1016SOL    HW220191   3.011   4.927   6.846
 1017SOL     OW20192   1.701   1.672   2.010
 1017SOL    HW120193   1.627   1.730   1.990
 1017SOL    HW220194   1.660   1.588   2.030
 1018SOL     OW20195   4.364   4.165   6.124
 1018SOL    HW120196   4.414   4.215   6.189
 1018SOL    HW220197   4.279   4.208   6.120
 1019SOL     OW20198   6.106   4.031   6.292
 1019SOL    HW120199   6.123   4.123   6.272
 1019SOL    HW220200   6.047   4.002   6.223
 1020SOL     OW20201   0.943   0.928   1.009
 1020SOL    HW120202   0.914   0.976   1.086
 1020SOL    HW220203   1.036   0.949   1.001
 1021SOL     OW20204   3.084   2.256   1.656
 1021SOL    HW120205   2.997   2.253   1.696
 1021SOL    HW220206   3.141   2.212   1.718
 1022SOL     OW20207   5.624   0.121   0.305
 1022SOL    HW120208   5.555   0.183   0.282
 1022SOL    HW220209   5.578   0.052   0.355
 1023SOL     OW20210   0.374   5.785   6.581
 1023SOL    HW120211   0.427   5.838   6.522
 1023SOL    HW220212   0.292   5.770   6.533
 1024SOL     OW20213   4.090   6.171   7.489
 1024SOL    HW120214   4.182   6.148   7.478
 1024SOL    HW220215   4.048   6.090   7.521
 1025SOL     OW20216   0.635   2.708   6.396
 1025SOL    HW120217   0.731   2.703   6.405
 1025SOL    HW220218   0.602   2.660   6.471
 1026SOL     OW20219   5.136   5.061   1.573
 1026SOL    HW120220   5.107   5.096   1.657
 1026SOL    HW220221   5.163   5.138   1.523
 1027SOL     OW20222   3.737   4.607   0.020
 1027SOL    HW120223   3.795   4.636  -0.050
 1027SOL    HW220224   3.715   4.517  -0.002
 1028SOL     OW20225   3.695   2.596   1.720
 1028SOL    HW120226   3.750   2.518   1.715
 1028SOL    HW220227   3.617   2.567   1.768
 1029SOL     OW20228   3.633   2.743   0.533
 1029SOL    HW120229   3.607   2.719   0.622
 1029SOL    HW220230   3.590   2.679   0.477
 1030SOL     OW20231   4.392   0.241   0.360
 1030SOL    HW120232   4.373   0.170   0.421
 1030SOL    HW220233   4.448   0.301   0.410
 1031SOL     OW20234   4.656   6.284   1.935
 1031SOL    HW120235   4.719   6.248   1.873
 1031SOL    HW220236   4.570   6.259   1.899
 1032SOL     OW20237   0.598   5.574   0.526
 1032SOL    HW120238   0.526   5.539   0.473
 1032SOL    HW220239   0.601   5.516   0.602
 1033SOL     OW20240   1.594   4.153   6.233
 1033SOL    HW120241   1.664   4.113   6.283
 1033SOL    HW220242   1.614   4.132   6.142
 1034SOL     OW20243   2.706   4.660   0.958
 1034SOL    HW120244   2.801   4.649   0.967
 1034SOL    HW220245   2.691   4.752   0.978
 1035SOL     OW20246   1.484   5.456   0.861
 1035SOL    HW120247   1.557   5.494   0.813
 1035SOL    HW220248   1.433   5.410   0.794
 1036SOL     OW20249   3.122   3.241   6.789
 1036SOL    HW120250   3.127   3.278   6.701
 1036SOL    HW220251   3.122   3.146   6.775
 1037SOL     OW20252   0.664   6.129   7.085
 1037SOL    HW120253   0.687   6.041   7.057
 1037SOL    HW220254   0.608   6.116   7.162
 1038SOL     OW20255   2.020   2.885   6.268
 1038SOL    HW120256   2.038   2.960   6.212
 1038SOL    HW220257   2.095   2.827   6.255
 1039SOL     OW20258   5.113   5.985   1.630
 1039SOL    HW120259   5.088   6.007   1.720
 1039SOL    HW220260   5.065   5.905   1.610
 1040SOL     OW20261   0.065   2.682   0.211
 1040SOL    HW120262   0.068   2.586   0.214
 1040SOL    HW220263   0.115   2.705   0.133
 1041SOL     OW20264   4.258   2.234   7.107
 1041SOL    HW120265   4.228   2.194   7.189
 1041SOL    HW220266   4.239   2.168   7.040
 1042SOL     OW20267   4.649   2.299   6.657
 1042SOL    HW120268   4.639   2.226   6.594
 1042SOL    HW220269   4.578   2.285   6.720
 1043SOL     OW20270   1.335   5.140   1.161
 1043SOL    HW120271   1.374   5.173   1.242
 1043SOL    HW220272   1.360   5.048   1.159
 1044SOL     OW20273   1.928   1.608   0.644
 1044SOL    HW120274   2.019   1.619   0.618
 1044SOL    HW220275   1.915   1.513   0.644
 1045SOL     OW20276   2.302   4.206   0.341
 1045SOL    HW120277   2.386   4.192   0.385
 1045SOL    HW220278   2.287   4.300   0.346
 1046SOL     OW20279   0.070   4.535   7.081
 1046SOL    HW120280   0.133   4.580   7.026
 1046SOL    HW220281   0.096   4.556   7.171
 1047SOL     OW20282   1.089   2.891   5.988
 1047SOL    HW120283   1.119   2.809   5.949
 1047SOL    HW220284   1.137   2.959   5.941
 1048SOL     OW20285   5.669   3.504   1.596
 1048SOL    HW120286   5.750   3.523   1.549
 1048SOL    HW220287   5.693   3.509   1.689
 1049SOL     OW20288   5.843   4.111   6.172
 1049SOL    HW120289   5.793   4.105   6.253
 1049SOL    HW220290   5.826   4.028   6.127
 1050SOL     OW20291   4.509   3.053   1.408
 1050SOL    HW120292   4.419   3.059   1.440
 1050SOL    HW220293   4.506   3.096   1.322
 1051SOL     OW20294   1.247   4.013   1.446
 1051SOL    HW120295   1.197   4.056   1.515
 1051SOL    HW220296   1.182   3.990   1.380
 1052SOL     OW20297   2.073   3.890   2.355
 1052SOL    HW120298   2.030   3.931   2.279
 1052SOL    HW220299   2.154   3.940   2.365
 1053SOL     OW20300   4.702   2.714   7.237
 1053SOL    HW120301   4.660   2.649   7.293
 1053SOL    HW220302   4.633   2.747   7.181
 1054SOL     OW20303   1.701   0.269   1.526
 1054SOL    HW120304   1.607   0.282   1.525
 1054SOL    HW220305   1.734   0.325   1.455
 1055SOL     OW20306   1.203   1.762   1.912
 1055SOL    HW120307   1.228   1.771   2.004
 1055SOL    HW220308   1.138   1.831   1.898
 1056SOL     OW20309   1.300   4.278   0.913
 1056SOL    HW120310   1.335   4.316   0.832
 1056SOL    HW220311   1.334   4.334   0.983
 1057SOL     OW20312   1.261   3.919   0.321
 1057SOL    HW120313   1.296   3.897   0.407
 1057SOL    HW220314   1.195   3.851   0.304
 1058SOL     OW20315   4.254   3.539   1.394
 1058SOL    HW120316   4.308   3.614   1.417
 1058SOL    HW220317   4.317   3.469   1.375
 1059SOL     OW20318   3.290   0.769   7.281
 1059SOL    HW120319   3.309   0.732   7.367
 1059SOL    HW220320   3.198   0.794   7.285
 1060SOL     OW20321   4.492   5.115   7.737
 1060SOL    HW120322   4.403   5.111   7.770
 1060SOL    HW220323   4.494   5.051   7.666
 1061SOL     OW20324   1.271   2.298   7.755
 1061SOL    HW120325   1.342   2.240   7.725
 1061SOL    HW220326   1.307   2.386   7.745
 1062SOL     OW20327   3.062   0.892   7.030
 1062SOL    HW120328   3.050   0.905   7.124
 1062SOL    HW220329   3.044   0.799   7.016
 1063SOL     OW20330   2.503   0.572   1.168
 1063SOL    HW120331   2.508   0.503   1.233
 1063SOL    HW220332   2.440   0.541   1.104
 1064SOL     OW20333   3.872   0.861   6.533
 1064SOL    HW120334   3.828   0.922   6.593
 1064SOL    HW220335   3.921   0.802   6.591
 1065SOL     OW20336   4.674   4.327   0.055
 1065SOL    HW120337   4.683   4.398   0.118
 1065SOL    HW220338   4.619   4.262   0.100
 1066SOL     OW20339   3.262   0.598   1.406
 1066SOL    HW120340   3.184   0.565   1.360
 1066SOL    HW220341   3.237   0.686   1.435
 1067SOL     OW20342   3.875   4.034   7.281
 1067SOL    HW120343   3.824   4.068   7.208
 1067SOL    HW220344   3.965   4.036   7.250
 1068SOL     OW20345   4.329   0.940   1.738
 1068SOL    HW120346   4.404   0.963   1.792
 1068SOL    HW220347   4.358   0.863   1.688
 1069SOL     OW20348   5.126   0.756   1.542
 1069SOL    HW120349   5.058   0.796   1.597
 1069SOL    HW220350   5.185   0.714   1.605
 1070SOL     OW20351   5.831   3.740   5.597
 1070SOL    HW120352   5.875   3.729   5.681
 1070SOL    HW220353   5.766   3.808   5.612
 1071SOL     OW20354   3.390   2.234   6.387
 1071SOL    HW120355   3.480   2.267   6.391
 1071SOL    HW220356   3.397   2.142   6.410
 1072SOL     OW20357   2.141   5.319   1.062
 1072SOL    HW120358   2.074   5.358   1.006
 1072SOL    HW220359   2.203   5.390   1.077
 1073SOL     OW20360   1.625   5.079   6.377
 1073SOL    HW120361   1.683   5.003   6.383
 1073SOL    HW220362   1.584   5.084   6.464
 1074SOL     OW20363   2.266   0.507   0.510
 1074SOL    HW120364   2.175   0.522   0.534
 1074SOL    HW220365   2.264   0.491   0.416
 1075SOL     OW20366   2.328   4.737   6.880
 1075SOL    HW120367   2.360   4.675   6.815
 1075SOL    HW220368   2.406   4.783   6.911
 1076SOL     OW20369   3.612   3.588   0.283
 1076SOL    HW120370   3.599   3.683   0.284
 1076SOL    HW220371   3.559   3.555   0.355
 1077SOL     OW20372   3.779   6.233   0.877
 1077SOL    HW120373   3.773   6.328   0.866
 1077SOL    HW220374   3.840   6.205   0.808
 1078SOL     OW20375   4.330   4.570   0.262
 1078SOL    HW120376   4.307   4.502   0.199
 1078SOL    HW220377   4.424   4.583   0.251
 1079SOL     OW20378   2.836   5.931   7.662
 1079SOL    HW120379   2.751   5.899   7.693
 1079SOL    HW220380   2.817   5.975   7.580
 1080SOL     OW20381   0.101   1.616   0.832
 1080SOL    HW120382   0.013   1.620   0.871
 1080SOL    HW220383   0.137   1.703   0.846
 1081SOL     OW20384   0.032   5.342   6.699
 1081SOL    HW120385  -0.028   5.292   6.753
 1081SOL    HW220386   0.018   5.433   6.724
 1082SOL     OW20387   2.076   2.642   1.499
 1082SOL    HW120388   2.120   2.617   1.417
 1082SOL    HW220389   2.024   2.566   1.523
 1083SOL     OW20390   4.894   3.582   5.752
 1083SOL    HW120391   4.931   3.582   5.840
 1083SOL    HW220392   4.802   3.556   5.765
 1084SOL     OW20393   0.063   4.917   6.177
 1084SOL    HW120394   0.114   4.876   6.247
 1084SOL    HW220395   0.127   4.932   6.107
 1085SOL     OW20396   5.129   5.815   6.664
 1085SOL    HW120397   5.126   5.787   6.756
 1085SOL    HW220398   5.133   5.733   6.615
 1086SOL     OW20399   1.060   4.556   0.551
 1086SOL    HW120400   1.113   4.612   0.607
 1086SOL    HW220401   1.043   4.609   0.473
 1087SOL     OW20402   3.306   1.648   6.219
 1087SOL    HW120403   3.337   1.597   6.294
 1087SOL    HW220404   3.377   1.641   6.155
 1088SOL     OW20405   3.341   2.938   6.157
 1088SOL    HW120406   3.364   2.985   6.238
 1088SOL    HW220407   3.246   2.944   6.152
 1089SOL     OW20408   1.748   5.576   6.444
 1089SOL    HW120409   1.659   5.591   6.413
 1089SOL    HW220410   1.802   5.584   6.365
 1090SOL     OW20411   5.201   3.268   6.222
 1090SOL    HW120412   5.199   3.174   6.206
 1090SOL    HW220413   5.245   3.277   6.307
 1091SOL     OW20414   5.397   1.046   7.768
 1091SOL    HW120415   5.485   1.015   7.744
 1091SOL    HW220416   5.359   0.973   7.817
 1092SOL     OW20417   3.667   5.580   6.267
 1092SOL    HW120418   3.634   5.603   6.180
 1092SOL    HW220419   3.714   5.497   6.253
 1093SOL     OW20420   3.697   3.568   1.884
 1093SOL    HW120421   3.708   3.647   1.937
 1093SOL    HW220422   3.635   3.593   1.815
 1094SOL     OW20423   5.975   1.790   7.591
 1094SOL    HW120424   6.008   1.701   7.601
 1094SOL    HW220425   5.955   1.798   7.498
 1095SOL     OW20426   0.534   5.967   6.453
 1095SOL    HW120427   0.598   5.946   6.385
 1095SOL    HW220428   0.505   6.056   6.431
 1096SOL     OW20429   2.554   0.767   1.880
 1096SOL    HW120430   2.539   0.680   1.918
 1096SOL    HW220431   2.621   0.807   1.937
 1097SOL     OW20432   2.950   0.602   6.866
 1097SOL    HW120433   2.873   0.552   6.839
 1097SOL    HW220434   3.020   0.572   6.808
 1098SOL     OW20435   4.910   2.345   7.781
 1098SOL    HW120436   4.860   2.272   7.744
 1098SOL    HW220437   4.955   2.384   7.705
 1099SOL     OW20438   3.829   0.366   1.469
 1099SOL    HW120439   3.815   0.378   1.563
 1099SOL    HW220440   3.871   0.447   1.441
 1100SOL     OW20441   3.721   1.612   1.850
 1100SOL    HW120442   3.662   1.552   1.895
 1100SOL    HW220443   3.694   1.699   1.878
 1101SOL     OW20444   5.443   3.621   0.839
 1101SOL    HW120445   5.450   3.526   0.842
 1101SOL    HW220446   5.439   3.648   0.931
 1102SOL     OW20447   5.373   2.090   1.740
 1102SOL    HW120448   5.415   2.097   1.825
 1102SOL    HW220449   5.440   2.116   1.678
 1103SOL     OW20450   6.293   5.854   6.366
 1103SOL    HW120451   6.212   5.804   6.371
 1103SOL    HW220452   6.320   5.847   6.274
 1104SOL     OW20453   6.125   6.161   7.640
 1104SOL    HW120454   6.121   6.142   7.547
 1104SOL    HW220455   6.197   6.224   7.649
 1105SOL     OW20456   0.879   3.228   5.841
 1105SOL    HW120457   0.786   3.228   5.816
 1105SOL    HW220458   0.880   3.256   5.933
 1106SOL     OW20459   6.422   4.673   2.183
 1106SOL    HW120460   6.387   4.693   2.270
 1106SOL    HW220461   6.380   4.591   2.159
 1107SOL     OW20462   0.199   2.769   1.300
 1107SOL    HW120463   0.235   2.850   1.334
 1107SOL    HW220464   0.140   2.796   1.230
 1108SOL     OW20465   5.216   2.249   1.486
 1108SOL    HW120466   5.189   2.281   1.572
 1108SOL    HW220467   5.145   2.277   1.428
 1109SOL     OW20468   5.519   5.904   0.393
 1109SOL    HW120469   5.473   5.982   0.363
 1109SOL    HW220470   5.587   5.937   0.451
 1110SOL     OW20471   4.633   5.382   0.108
 1110SOL    HW120472   4.609   5.307   0.163
 1110SOL    HW220473   4.674   5.443   0.168
 1111SOL     OW20474   4.058   3.379   0.513
 1111SOL    HW120475   3.974   3.339   0.537
 1111SOL    HW220476   4.123   3.313   0.538
 1112SOL     OW20477   4.064   2.683   7.672
 1112SOL    HW120478   4.099   2.666   7.760
 1112SOL    HW220479   4.056   2.779   7.669
 1113SOL     OW20480   3.924   0.919   0.601
 1113SOL    HW120481   3.859   0.903   0.532
 1113SOL    HW220482   3.918   0.843   0.658
 1114SOL     OW20483   0.285   3.500   7.407
 1114SOL    HW120484   0.279   3.585   7.363
 1114SOL    HW220485   0.222   3.445   7.361
 1115SOL     OW20486   4.934   3.960   7.388
 1115SOL    HW120487   4.911   3.870   7.363
 1115SOL    HW220488   5.030   3.959   7.393
 1116SOL     OW20489   2.878   2.574   1.545
 1116SOL    HW120490   2.959   2.527   1.527
 1116SOL    HW220491   2.820   2.508   1.583
 1117SOL     OW20492   2.207   0.010   7.654
 1117SOL    HW120493   2.228   0.026   7.562
 1117SOL    HW220494   2.121   0.049   7.666
 1118SOL     OW20495   4.038   2.203   7.657
 1118SOL    HW120496   3.945   2.185   7.649
 1118SOL    HW220497   4.046   2.298   7.642
 1119SOL     OW20498   1.979   0.697   0.834
 1119SOL    HW120499   1.912   0.636   0.802
 1119SOL    HW220500   2.018   0.652   0.909
 1120SOL     OW20501   1.337   3.227   6.675
 1120SOL    HW120502   1.333   3.322   6.661
 1120SOL    HW220503   1.280   3.211   6.750
 1121SOL     OW20504   5.467   6.316   0.407
 1121SOL    HW120505   5.392   6.259   0.421
 1121SOL    HW220506   5.474   6.368   0.487
 1122SOL     OW20507   2.062   2.669   6.046
 1122SOL    HW120508   2.048   2.763   6.041
 1122SOL    HW220509   1.998   2.632   5.984
 1123SOL     OW20510   0.248   3.568   7.693
 1123SOL    HW120511   0.334   3.603   7.671
 1123SOL    HW220512   0.220   3.522   7.614
 1124SOL     OW20513   2.796   1.319   7.708
 1124SOL    HW120514   2.749   1.400   7.726
 1124SOL    HW220515   2.752   1.281   7.632
 1125SOL     OW20516   1.196   4.087   7.647
 1125SOL    HW120517   1.282   4.046   7.655
 1125SOL    HW220518   1.137   4.028   7.694
 1126SOL     OW20519   0.800   1.964   0.791
 1126SOL    HW120520   0.795   1.874   0.758
 1126SOL    HW220521   0.714   2.002   0.772
 1127SOL     OW20522   4.653   1.187   0.465
 1127SOL    HW120523   4.574   1.145   0.499
 1127SOL    HW220524   4.693   1.121   0.408
 1128SOL     OW20525   3.935   4.692   7.677
 1128SOL    HW120526   3.968   4.709   7.588
 1128SOL    HW220527   3.975   4.608   7.701
 1129SOL     OW20528   1.068   3.407   5.787
 1129SOL    HW120529   1.089   3.403   5.694
 1129SOL    HW220530   0.998   3.343   5.799
 1130SOL     OW20531   4.657   5.336   5.899
 1130SOL    HW120532   4.561   5.342   5.903
 1130SOL    HW220533   4.679   5.262   5.955
 1131SOL     OW20534   0.473   0.784   1.367
 1131SOL    HW120535   0.432   0.861   1.327
 1131SOL    HW220536   0.475   0.719   1.297
 1132SOL     OW20537   2.270   1.092   1.708
 1132SOL    HW120538   2.258   1.186   1.692
 1132SOL    HW220539   2.187   1.052   1.683
 1133SOL     OW20540   2.714   6.281   6.940
 1133SOL    HW120541   2.803   6.248   6.924
 1133SOL    HW220542   2.692   6.251   7.028
 1134SOL     OW20543   3.043   0.495   1.307
 1134SOL    HW120544   3.027   0.440   1.384
 1134SOL    HW220545   3.012   0.442   1.233
 1135SOL     OW20546   1.063   0.320   5.916
 1135SOL    HW120547   1.055   0.240   5.866
 1135SOL    HW220548   1.016   0.386   5.864
 1136SOL     OW20549   2.867   0.027   0.456
 1136SOL    HW120550   2.861  -0.067   0.440
 1136SOL    HW220551   2.780   0.052   0.485
 1137SOL     OW20552   6.400   5.588   6.827
 1137SOL    HW120553   6.308   5.583   6.853
 1137SOL    HW220554   6.435   5.662   6.876
 1138SOL     OW20555   6.109   0.322   2.348
 1138SOL    HW120556   6.018   0.352   2.352
 1138SOL    HW220557   6.104   0.227   2.363
 1139SOL     OW20558   3.750   1.573   0.735
 1139SOL    HW120559   3.785   1.526   0.660
 1139SOL    HW220560   3.816   1.639   0.755
 1140SOL     OW20561   5.652   0.914   7.755
 1140SOL    HW120562   5.624   0.916   7.846
 1140SOL    HW220563   5.723   0.978   7.750
 1141SOL     OW20564   1.146   5.583   7.050
 1141SOL    HW120565   1.112   5.631   7.126
 1141SOL    HW220566   1.099   5.500   7.051
 1142SOL     OW20567   5.585   6.198   7.796
 1142SOL    HW120568   5.675   6.185   7.766
 1142SOL    HW220569   5.595   6.229   7.886
 1143SOL     OW20570   2.234   3.702   1.812
 1143SOL    HW120571   2.321   3.696   1.773
 1143SOL    HW220572   2.176   3.656   1.751
 1144SOL     OW20573   2.273   4.009   0.622
 1144SOL    HW120574   2.276   4.103   0.608
 1144SOL    HW220575   2.201   3.978   0.568
 1145SOL     OW20576   4.850   5.345   0.707
 1145SOL    HW120577   4.817   5.271   0.657
 1145SOL    HW220578   4.819   5.329   0.796
 1146SOL     OW20579   4.902   1.422   0.222
 1146SOL    HW120580   4.952   1.497   0.254
 1146SOL    HW220581   4.961   1.377   0.162
 1147SOL     OW20582   1.096   2.197   6.489
 1147SOL    HW120583   1.073   2.287   6.467
 1147SOL    HW220584   1.054   2.181   6.574
 1148SOL     OW20585   4.019   5.713   6.182
 1148SOL    HW120586   4.044   5.701   6.274
 1148SOL    HW220587   4.032   5.807   6.166
 1149SOL     OW20588   4.630   5.517   5.702
 1149SOL    HW120589   4.650   5.462   5.778
 1149SOL    HW220590   4.711   5.566   5.686
 1150SOL     OW20591   0.201   5.300   7.501
 1150SOL    HW120592   0.211   5.395   7.516
 1150SOL    HW220593   0.246   5.284   7.418
 1151SOL     OW20594   0.324   6.367   1.642
 1151SOL    HW120595   0.348   6.307   1.571
 1151SOL    HW220596   0.238   6.401   1.617
 1152SOL     OW20597   5.704   4.401   0.534
 1152SOL    HW120598   5.732   4.401   0.442
 1152SOL    HW220599   5.768   4.346   0.578
 1153SOL     OW20600   1.090   1.100   2.252
 1153SOL    HW120601   1.108   1.180   2.204
 1153SOL    HW220602   0.994   1.091   2.249
 1154SOL     OW20603   6.223   1.313   7.129
 1154SOL    HW120604   6.175   1.352   7.056
 1154SOL    HW220605   6.298   1.269   7.088
 1155SOL     OW20606   2.387   1.453   6.480
 1155SOL    HW120607   2.449   1.461   6.407
 1155SOL    HW220608   2.328   1.383   6.453
 1156SOL     OW20609   1.690   0.762   6.776
 1156SOL    HW120610   1.598   0.736   6.787
 1156SOL    HW220611   1.734   0.683   6.745
 1157SOL     OW20612   3.221   1.098   0.718
 1157SOL    HW120613   3.253   1.135   0.800
 1157SOL    HW220614   3.136   1.060   0.742
 1158SOL     OW20615   4.672   1.490   1.100
 1158SOL    HW120616   4.752   1.458   1.140
 1158SOL    HW220617   4.608   1.489   1.171
 1159SOL     OW20618   4.504   4.891   1.263
 1159SOL    HW120619   4.547   4.811   1.234
 1159SOL    HW220620   4.511   4.950   1.188
 1160SOL     OW20621   5.213   2.269   0.478
 1160SOL    HW120622   5.168   2.349   0.452
 1160SOL    HW220623   5.154   2.228   0.541
 1161SOL     OW20624   6.221   2.962   0.542
 1161SOL    HW120625   6.159   2.999   0.605
 1161SOL    HW220626   6.229   3.029   0.474
 1162SOL     OW20627   5.415   3.239   0.415
 1162SOL    HW120628   5.460   3.281   0.488
 1162SOL    HW220629   5.375   3.311   0.367
 1163SOL     OW20630   1.707   1.479   7.586
 1163SOL    HW120631   1.724   1.503   7.677
 1163SOL    HW220632   1.656   1.552   7.550
 1164SOL     OW20633   6.308   4.699   1.835
 1164SOL    HW120634   6.292   4.605   1.843
 1164SOL    HW220635   6.239   4.730   1.777
 1165SOL     OW20636   4.652   2.995   6.042
 1165SOL    HW120637   4.726   2.977   6.100
 1165SOL    HW220638   4.657   3.089   6.024
 1166SOL     OW20639   6.123   3.345   0.287
 1166SOL    HW120640   6.079   3.333   0.371
 1166SOL    HW220641   6.082   3.281   0.229
 1167SOL     OW20642   1.494   1.322   7.365
 1167SOL    HW120643   1.462   1.393   7.311
 1167SOL    HW220644   1.583   1.305   7.335
 1168SOL     OW20645   0.908   6.324   2.343
 1168SOL    HW120646   0.890   6.337   2.250
 1168SOL    HW220647   0.918   6.229   2.352
 1169SOL     OW20648   4.252   0.458   7.805
 1169SOL    HW120649   4.187   0.524   7.782
 1169SOL    HW220650   4.293   0.435   7.721
 1170SOL     OW20651   5.033   1.702   0.025
 1170SOL    HW120652   5.113   1.665  -0.013
 1170SOL    HW220653   5.059   1.728   0.114
 1171SOL     OW20654   5.946   0.610   5.752
 1171SOL    HW120655   5.863   0.658   5.751
 1171SOL    HW220656   5.937   0.548   5.824
 1172SOL     OW20657   4.597   2.078   0.649
 1172SOL    HW120658   4.531   2.082   0.580
 1172SOL    HW220659   4.547   2.085   0.731
 1173SOL     OW20660   5.131   5.296   0.774
 1173SOL    HW120661   5.114   5.249   0.692
 1173SOL    HW220662   5.078   5.375   0.768
 1174SOL     OW20663   1.159   3.322   0.538
 1174SOL    HW120664   1.242   3.274   0.537
 1174SOL    HW220665   1.113   3.292   0.460
 1175SOL     OW20666   1.390   0.328   7.277
 1175SOL    HW120667   1.460   0.314   7.213
 1175SOL    HW220668   1.358   0.240   7.297
 1176SOL     OW20669   5.908   5.194   7.455
 1176SOL    HW120670   5.994   5.199   7.414
 1176SOL    HW220671   5.848   5.231   7.389
 1177SOL     OW20672   1.892   2.636   1.092
 1177SOL    HW120673   1.834   2.610   1.021
 1177SOL    HW220674   1.833   2.668   1.161
 1178SOL     OW20675   3.975   3.713   7.501
 1178SOL    HW120676   3.960   3.640   7.561
 1178SOL    HW220677   3.986   3.671   7.415
 1179SOL     OW20678   6.027   5.299   6.694
 1179SOL    HW120679   5.951   5.242   6.687
 1179SOL    HW220680   6.041   5.331   6.605
 1180SOL     OW20681   2.883   4.217   1.309
 1180SOL    HW120682   2.851   4.131   1.281
 1180SOL    HW220683   2.978   4.211   1.300
 1181SOL     OW20684   2.424   4.142   5.606
 1181SOL    HW120685   2.330   4.146   5.587
 1181SOL    HW220686   2.459   4.223   5.568
 1182SOL     OW20687   4.343   3.530   7.791
 1182SOL    HW120688   4.431   3.552   7.762
 1182SOL    HW220689   4.333   3.574   7.875
 1183SOL     OW20690   1.223   0.154   1.423
 1183SOL    HW120691   1.174   0.088   1.472
 1183SOL    HW220692   1.174   0.166   1.342
 1184SOL     OW20693   5.746   2.619   0.527
 1184SOL    HW120694   5.817   2.677   0.498
 1184SOL    HW220695   5.668   2.674   0.524
 1185SOL     OW20696   4.237   1.578   5.790
 1185SOL    HW120697   4.211   1.486   5.784
 1185SOL    HW220698   4.154   1.626   5.788
 1186SOL     OW20699   0.152   3.418   6.684
 1186SOL    HW120700   0.201   3.391   6.607
 1186SOL    HW220701   0.064   3.383   6.670
 1187SOL     OW20702   0.686   0.589   7.007
 1187SOL    HW120703   0.709   0.680   7.024
 1187SOL    HW220704   0.687   0.548   7.093
 1188SOL     OW20705   5.823   5.706   2.118
 1188SOL    HW120706   5.845   5.736   2.029
 1188SOL    HW220707   5.734   5.737   2.132
 1189SOL     OW20708   5.144   3.555   1.889
 1189SOL    HW120709   5.145   3.511   1.974
 1189SOL    HW220710   5.231   3.594   1.881
 1190SOL     OW20711   5.188   5.358   6.604
 1190SOL    HW120712   5.253   5.391   6.543
 1190SOL    HW220713   5.233   5.353   6.688
 1191SOL     OW20714   4.144   4.560   1.318
 1191SOL    HW120715   4.194   4.563   1.236
 1191SOL    HW220716   4.157   4.647   1.356
 1192SOL     OW20717   2.533   1.075   1.659
 1192SOL    HW120718   2.442   1.045   1.654
 1192SOL    HW220719   2.528   1.170   1.653
 1193SOL     OW20720   2.704   1.872   0.033
 1193SOL    HW120721   2.702   1.962   0.067
 1193SOL    HW220722   2.720   1.882  -0.061
 1194SOL     OW20723   1.669   5.737   7.151
 1194SOL    HW120724   1.590   5.791   7.143
 1194SOL    HW220725   1.683   5.702   7.063
 1195SOL     OW20726   5.993   1.150   0.831
 1195SOL    HW120727   6.041   1.207   0.891
 1195SOL    HW220728   5.906   1.189   0.825
 1196SOL     OW20729   0.594   0.741   6.235
 1196SOL    HW120730   0.561   0.816   6.187
 1196SOL    HW220731   0.592   0.768   6.327
 1197SOL     OW20732   5.836   0.039   6.163
 1197SOL    HW120733   5.849   0.073   6.252
 1197SOL    HW220734   5.753   0.077   6.135
 1198SOL     OW20735   5.645   0.903   6.441
 1198SOL    HW120736   5.573   0.967   6.441
 1198SOL    HW220737   5.719   0.951   6.402
 1199SOL     OW20738   2.921   4.982   1.902
 1199SOL    HW120739   2.978   5.041   1.853
 1199SOL    HW220740   2.975   4.904   1.919
 1200SOL     OW20741   3.510   0.555   1.620
 1200SOL    HW120742   3.467   0.633   1.585
 1200SOL    HW220743   3.443   0.511   1.672
 1201SOL     OW20744   4.836   2.149   1.663
 1201SOL    HW120745   4.828   2.183   1.574
 1201SOL    HW220746   4.805   2.059   1.657
 1202SOL     OW20747   2.598   0.767   7.206
 1202SOL    HW120748   2.517   0.792   7.252
 1202SOL    HW220749   2.613   0.837   7.143
 1203SOL     OW20750   3.523   5.002   0.359
 1203SOL    HW120751   3.458   5.072   0.358
 1203SOL    HW220752   3.603   5.043   0.325
 1204SOL     OW20753   3.839   0.624   1.393
 1204SOL    HW120754   3.902   0.650   1.460
 1204SOL    HW220755   3.775   0.695   1.391
 1205SOL     OW20756   1.468   4.375   7.788
 1205SOL    HW120757   1.475   4.417   7.703
 1205SOL    HW220758   1.400   4.309   7.777
 1206SOL     OW20759   6.238   0.607   1.561
 1206SOL    HW120760   6.168   0.553   1.598
 1206SOL    HW220761   6.309   0.602   1.625
 1207SOL     OW20762   1.668   1.507   0.394
 1207SOL    HW120763   1.720   1.428   0.379
 1207SOL    HW220764   1.728   1.579   0.372
 1208SOL     OW20765   1.627   5.302   1.658
 1208SOL    HW120766   1.605   5.352   1.579
 1208SOL    HW220767   1.654   5.368   1.721
 1209SOL     OW20768   0.739   4.408   5.808
 1209SOL    HW120769   0.695   4.412   5.723
 1209SOL    HW220770   0.679   4.452   5.868
 1210SOL     OW20771   0.679   0.822   0.155
 1210SOL    HW120772   0.604   0.765   0.136
 1210SOL    HW220773   0.659   0.860   0.241
 1211SOL     OW20774   3.301   4.814   6.874
 1211SOL    HW120775   3.330   4.778   6.789
 1211SOL    HW220776   3.364   4.778   6.937
 1212SOL     OW20777   5.461   2.875   1.196
 1212SOL    HW120778   5.535   2.837   1.243
 1212SOL    HW220779   5.425   2.803   1.144
 1213SOL     OW20780   5.178   3.690   0.474
 1213SOL    HW120781   5.246   3.677   0.541
 1213SOL    HW220782   5.114   3.622   0.492
 1214SOL     OW20783   6.125   3.808   6.482
 1214SOL    HW120784   6.087   3.859   6.411
 1214SOL    HW220785   6.051   3.759   6.519
 1215SOL     OW20786   1.670   4.502   5.461
 1215SOL    HW120787   1.623   4.579   5.428
 1215SOL    HW220788   1.634   4.487   5.548
 1216SOL     OW20789   3.722   0.821   7.242
 1216SOL    HW120790   3.653   0.884   7.224
 1216SOL    HW220791   3.785   0.867   7.297
 1217SOL     OW20792   3.918   6.246   1.517
 1217SOL    HW120793   3.939   6.165   1.562
 1217SOL    HW220794   3.984   6.309   1.548
 1218SOL     OW20795   0.546   5.059   1.405
 1218SOL    HW120796   0.548   5.011   1.322
 1218SOL    HW220797   0.495   5.138   1.385
 1219SOL     OW20798   1.721   2.635   0.239
 1219SOL    HW120799   1.712   2.581   0.160
 1219SOL    HW220800   1.753   2.574   0.306
 1220SOL     OW20801   4.100   3.357   0.831
 1220SOL    HW120802   4.058   3.289   0.779
 1220SOL    HW220803   4.080   3.335   0.922
 1221SOL     OW20804   4.456   1.005   0.509
 1221SOL    HW120805   4.406   0.970   0.583
 1221SOL    HW220806   4.529   0.944   0.499
 1222SOL     OW20807   5.065   1.044   0.632
 1222SOL    HW120808   5.140   0.984   0.635
 1222SOL    HW220809   4.990   0.987   0.611
 1223SOL     OW20810   2.475   3.654   7.205
 1223SOL    HW120811   2.460   3.668   7.298
 1223SOL    HW220812   2.410   3.588   7.180
 1224SOL     OW20813   2.628   6.329   0.345
 1224SOL    HW120814   2.607   6.249   0.392
 1224SOL    HW220815   2.708   6.309   0.297
 1225SOL     OW20816   5.459   1.540   6.124
 1225SOL    HW120817   5.533   1.595   6.150
 1225SOL    HW220818   5.466   1.533   6.028
 1226SOL     OW20819   3.210   5.349   6.298
 1226SOL    HW120820   3.303   5.359   6.322
 1226SOL    HW220821   3.167   5.325   6.380
 1227SOL     OW20822   1.616   6.429   1.661
 1227SOL    HW120823   1.593   6.447   1.753
 1227SOL    HW220824   1.643   6.514   1.626
 1228SOL     OW20825   2.047   3.763   5.560
 1228SOL    HW120826   2.011   3.742   5.474
 1228SOL    HW220827   2.099   3.686   5.584
 1229SOL     OW20828   3.024   0.243   6.053
 1229SOL    HW120829   3.053   0.314   6.110
 1229SOL    HW220830   2.934   0.267   6.028
 1230SOL     OW20831   4.359   1.780   6.171
 1230SOL    HW120832   4.415   1.769   6.247
 1230SOL    HW220833   4.395   1.856   6.126
 1231SOL     OW20834   3.532   4.199   7.333
 1231SOL    HW120835   3.555   4.192   7.426
 1231SOL    HW220836   3.441   4.170   7.329
 1232SOL     OW20837   3.320   2.439   0.143
 1232SOL    HW120838   3.353   2.496   0.074
 1232SOL    HW220839   3.329   2.351   0.107
 1233SOL     OW20840   3.878   4.579   0.948
 1233SOL    HW120841   3.876   4.669   0.980
 1233SOL    HW220842   3.809   4.535   0.999
 1234SOL     OW20843   4.791   4.110   6.501
 1234SOL    HW120844   4.826   4.132   6.415
 1234SOL    HW220845   4.842   4.034   6.530
 1235SOL     OW20846   4.312   2.863   6.936
 1235SOL    HW120847   4.262   2.939   6.907
 1235SOL    HW220848   4.250   2.790   6.930
 1236SOL     OW20849   5.219   2.270   7.203
 1236SOL    HW120850   5.216   2.239   7.112
 1236SOL    HW220851   5.283   2.340   7.203
 1237SOL     OW20852   1.381   6.230   6.768
 1237SOL    HW120853   1.467   6.271   6.759
 1237SOL    HW220854   1.348   6.224   6.679
 1238SOL     OW20855   4.187   4.564   1.879
 1238SOL    HW120856   4.129   4.627   1.835
 1238SOL    HW220857   4.222   4.510   1.809
 1239SOL     OW20858   1.856   2.115   7.744
 1239SOL    HW120859   1.923   2.100   7.811
 1239SOL    HW220860   1.822   2.202   7.764
 1240SOL     OW20861   3.956   5.952   0.319
 1240SOL    HW120862   3.899   5.934   0.394
 1240SOL    HW220863   3.896   5.970   0.247
 1241SOL     OW20864   4.250   6.339   6.077
 1241SOL    HW120865   4.161   6.367   6.100
 1241SOL    HW220866   4.306   6.405   6.117
 1242SOL     OW20867   3.234   4.544   0.944
 1242SOL    HW120868   3.264   4.623   0.988
 1242SOL    HW220869   3.178   4.575   0.873
 1243SOL     OW20870   2.262   5.108   7.696
 1243SOL    HW120871   2.279   5.191   7.741
 1243SOL    HW220872   2.180   5.077   7.735
 1244SOL     OW20873   2.754   4.460   1.304
 1244SOL    HW120874   2.821   4.501   1.248
 1244SOL    HW220875   2.789   4.373   1.322
 1245SOL     OW20876   0.560   4.168   6.365
 1245SOL    HW120877   0.560   4.075   6.386
 1245SOL    HW220878   0.649   4.186   6.333
 1246SOL     OW20879   5.415   0.395   6.388
 1246SOL    HW120880   5.378   0.363   6.306
 1246SOL    HW220881   5.339   0.426   6.438
 1247SOL     OW20882   3.888   4.405   5.429
 1247SOL    HW120883   3.970   4.430   5.473
 1247SOL    HW220884   3.882   4.466   5.355
 1248SOL     OW20885   4.513   3.279   5.730
 1248SOL    HW120886   4.522   3.290   5.635
 1248SOL    HW220887   4.444   3.341   5.754
 1249SOL     OW20888   3.697   3.127   0.356
 1249SOL    HW120889   3.633   3.085   0.413
 1249SOL    HW220890   3.703   3.068   0.281
 1250SOL     OW20891   2.892   4.039   6.773
 1250SOL    HW120892   2.895   4.065   6.866
 1250SOL    HW220893   2.808   3.994   6.764
 1251SOL     OW20894   5.596   4.208   6.389
 1251SOL    HW120895   5.675   4.240   6.431
 1251SOL    HW220896   5.574   4.276   6.325
 1252SOL     OW20897   5.220   2.617   1.076
 1252SOL    HW120898   5.230   2.615   1.171
 1252SOL    HW220899   5.236   2.528   1.047
 1253SOL     OW20900   1.944   0.109   6.287
 1253SOL    HW120901   2.037   0.097   6.272
 1253SOL    HW220902   1.936   0.199   6.319
 1254SOL     OW20903   4.858   5.435   0.287
 1254SOL    HW120904   4.912   5.483   0.224
 1254SOL    HW220905   4.877   5.343   0.270
 1255SOL     OW20906   1.354   5.602   1.053
 1255SOL    HW120907   1.273   5.556   1.075
 1255SOL    HW220908   1.389   5.553   0.978
 1256SOL     OW20909   0.832   1.038   0.632
 1256SOL    HW120910   0.823   1.095   0.555
 1256SOL    HW220911   0.781   1.082   0.700
 1257SOL     OW20912   1.419   4.010   7.768
 1257SOL    HW120913   1.472   4.028   7.846
 1257SOL    HW220914   1.482   3.998   7.697
 1258SOL     OW20915   0.357   1.498   1.539
 1258SOL    HW120916   0.351   1.410   1.578
 1258SOL    HW220917   0.276   1.507   1.489
 1259SOL     OW20918   3.410   0.723   5.733
 1259SOL    HW120919   3.377   0.768   5.810
 1259SOL    HW220920   3.362   0.762   5.660
 1260SOL     OW20921   2.959   2.809   6.260
 1260SOL    HW120922   3.011   2.838   6.334
 1260SOL    HW220923   2.957   2.714   6.266
 1261SOL     OW20924   5.370   1.979   0.042
 1261SOL    HW120925   5.362   2.037   0.118
 1261SOL    HW220926   5.287   1.987  -0.004
 1262SOL     OW20927   3.340   4.740   7.234
 1262SOL    HW120928   3.384   4.655   7.224
 1262SOL    HW220929   3.408   4.797   7.270
 1263SOL     OW20930   5.380   3.047   0.676
 1263SOL    HW120931   5.394   3.013   0.588
 1263SOL    HW220932   5.374   2.968   0.731
 1264SOL     OW20933   6.078   4.417   0.046
 1264SOL    HW120934   6.142   4.487   0.033
 1264SOL    HW220935   5.993   4.458   0.030
 1265SOL     OW20936   1.069   6.122   5.774
 1265SOL    HW120937   1.003   6.153   5.836
 1265SOL    HW220938   1.021   6.060   5.719
 1266SOL     OW20939   0.448   4.605   0.283
 1266SOL    HW120940   0.473   4.696   0.271
 1266SOL    HW220941   0.381   4.607   0.351
 1267SOL     OW20942   0.862   3.084   1.348
 1267SOL    HW120943   0.926   3.116   1.286
 1267SOL    HW220944   0.776   3.106   1.308
 1268SOL     OW20945   5.026   0.786   6.462
 1268SOL    HW120946   4.936   0.753   6.466
 1268SOL    HW220947   5.017   0.877   6.436
 1269SOL     OW20948   3.763   2.087   5.856
 1269SOL    HW120949   3.706   2.117   5.786
 1269SOL    HW220950   3.797   2.003   5.825
 1270SOL     OW20951   2.352   6.223   0.164
 1270SOL    HW120952   2.436   6.192   0.128
 1270SOL    HW220953   2.357   6.318   0.156
 1271SOL     OW20954   4.872   4.640   6.970
 1271SOL    HW120955   4.786   4.683   6.978
 1271SOL    HW220956   4.932   4.712   6.953
 1272SOL     OW20957   4.714   1.044   0.707
 1272SOL    HW120958   4.742   1.010   0.622
 1272SOL    HW220959   4.753   1.131   0.712
 1273SOL     OW20960   2.378   5.899   5.747
 1273SOL    HW120961   2.473   5.907   5.745
 1273SOL    HW220962   2.347   5.989   5.737
 1274SOL     OW20963   5.975   3.286   0.993
 1274SOL    HW120964   5.929   3.204   1.014
 1274SOL    HW220965   5.953   3.344   1.066
 1275SOL     OW20966   3.085   6.039   6.688
 1275SOL    HW120967   3.024   5.974   6.653
 1275SOL    HW220968   3.161   5.988   6.717
 1276SOL     OW20969   4.979   5.112   6.748
 1276SOL    HW120970   4.900   5.159   6.775
 1276SOL    HW220971   5.022   5.170   6.685
 1277SOL     OW20972   0.916   3.761   1.137
 1277SOL    HW120973   0.924   3.799   1.224
 1277SOL    HW220974   0.993   3.703   1.129
 1278SOL     OW20975   3.950   0.935   7.410
 1278SOL    HW120976   3.875   0.962   7.462
 1278SOL    HW220977   4.021   0.924   7.474
 1279SOL     OW20978   5.708   2.240   0.393
 1279SOL    HW120979   5.682   2.255   0.302
 1279SOL    HW220980   5.656   2.303   0.443
 1280SOL     OW20981   6.039   6.335   5.739
 1280SOL    HW120982   6.020   6.406   5.678
 1280SOL    HW220983   6.051   6.378   5.823
 1281SOL     OW20984   1.985   1.532   6.785
 1281SOL    HW120985   2.025   1.546   6.699
 1281SOL    HW220986   1.940   1.615   6.803
 1282SOL     OW20987   5.574   1.337   1.578
 1282SOL    HW120988   5.563   1.284   1.657
 1282SOL    HW220989   5.645   1.397   1.599
 1283SOL     OW20990   2.049   1.804   5.701
 1283SOL    HW120991   2.089   1.794   5.788
 1283SOL    HW220992   2.020   1.716   5.678
 1284SOL     OW20993   4.590   5.025   1.529
 1284SOL    HW120994   4.668   4.979   1.559
 1284SOL    HW220995   4.564   4.979   1.450
 1285SOL     OW20996   1.469   4.657   0.953
 1285SOL    HW120997   1.522   4.737   0.954
 1285SOL    HW220998   1.533   4.587   0.939
 1286SOL     OW20999   4.871   6.004   0.328
 1286SOL    HW121000   4.806   6.058   0.371
 1286SOL    HW221001   4.928   6.066   0.282
 1287SOL     OW21002   5.260   6.109   0.515
 1287SOL    HW121003   5.191   6.068   0.463
 1287SOL    HW221004   5.216   6.139   0.594
 1288SOL     OW21005   1.563   3.731   7.389
 1288SOL    HW121006   1.491   3.792   7.377
 1288SOL    HW221007   1.521   3.646   7.402
 1289SOL     OW21008   4.134   4.576   0.799
 1289SOL    HW121009   4.124   4.573   0.704
 1289SOL    HW221010   4.050   4.609   0.831
 1290SOL     OW21011   4.551   0.453   0.817
 1290SOL    HW121012   4.473   0.483   0.864
 1290SOL    HW221013   4.585   0.381   0.871
 1291SOL     OW21014   1.476   1.790   1.867
 1291SOL    HW121015   1.480   1.758   1.777
 1291SOL    HW221016   1.383   1.799   1.885
 1292SOL     OW21017   6.296   4.639   0.248
 1292SOL    HW121018   6.379   4.591   0.256
 1292SOL    HW221019   6.230   4.579   0.281
 1293SOL     OW21020   3.258   3.260   1.553
 1293SOL    HW121021   3.322   3.330   1.565
 1293SOL    HW221022   3.173   3.304   1.554
 1294SOL     OW21023   4.874   2.398   0.560
 1294SOL    HW121024   4.957   2.437   0.531
 1294SOL    HW221025   4.849   2.339   0.489
 1295SOL     OW21026   0.538   1.062   1.204
 1295SOL    HW121027   0.494   1.128   1.258
 1295SOL    HW221028   0.467   1.003   1.177
 1296SOL     OW21029   6.013   5.074   0.023
 1296SOL    HW121030   6.009   5.021   0.102
 1296SOL    HW221031   6.039   5.013  -0.046
 1297SOL     OW21032   0.341   5.253   6.414
 1297SOL    HW121033   0.255   5.295   6.412
 1297SOL    HW221034   0.369   5.260   6.506
 1298SOL     OW21035   4.246   4.805   1.355
 1298SOL    HW121036   4.244   4.815   1.451
 1298SOL    HW221037   4.337   4.823   1.331
 1299SOL     OW21038   4.964   3.161   6.688
 1299SOL    HW121039   4.901   3.132   6.621
 1299SOL    HW221040   4.912   3.168   6.768
 1300SOL     OW21041   1.981   4.046   7.467
 1300SOL    HW121042   1.931   4.101   7.527
 1300SOL    HW221043   2.028   4.108   7.412
 1301SOL     OW21044   3.281   1.594   5.834
 1301SOL    HW121045   3.339   1.520   5.818
 1301SOL    HW221046   3.337   1.662   5.871
 1302SOL     OW21047   5.442   0.924   1.991
 1302SOL    HW121048   5.372   0.920   2.056
 1302SOL    HW221049   5.404   0.884   1.912
 1303SOL     OW21050   6.064   1.786   1.689
 1303SOL    HW121051   6.075   1.732   1.611
 1303SOL    HW221052   5.969   1.785   1.705
 1304SOL     OW21053   2.641   0.090   6.434
 1304SOL    HW121054   2.662   0.166   6.380
 1304SOL    HW221055   2.576   0.123   6.496
 1305SOL     OW21056   1.643   6.244   7.140
 1305SOL    HW121057   1.685   6.330   7.146
 1305SOL    HW221058   1.671   6.199   7.220
 1306SOL     OW21059   3.034   2.453   2.455
 1306SOL    HW121060   3.070   2.481   2.539
 1306SOL    HW221061   3.087   2.377   2.430
 1307SOL     OW21062   4.646   3.892   5.907
 1307SOL    HW121063   4.613   3.982   5.902
 1307SOL    HW221064   4.708   3.894   5.980
 1308SOL     OW21065   0.117   3.842   6.995
 1308SOL    HW121066   0.110   3.922   6.944
 1308SOL    HW221067   0.079   3.774   6.939
 1309SOL     OW21068   5.591   4.166   0.076
 1309SOL    HW121069   5.519   4.193   0.018
 1309SOL    HW221070   5.639   4.100   0.026
 1310SOL     OW21071   1.775   3.071   1.108
 1310SOL    HW121072   1.723   3.114   1.177
 1310SOL    HW221073   1.716   3.064   1.034
 1311SOL     OW21074   4.168   3.966   5.842
 1311SOL    HW121075   4.200   4.054   5.823
 1311SOL    HW221076   4.090   3.956   5.788
 1312SOL     OW21077   3.870   0.630   6.228
 1312SOL    HW121078   3.896   0.556   6.282
 1312SOL    HW221079   3.937   0.696   6.244
 1313SOL     OW21080   2.224   5.043   7.421
 1313SOL    HW121081   2.282   5.089   7.482
 1313SOL    HW221082   2.141   5.034   7.468
 1314SOL     OW21083   0.967   4.168   6.555
 1314SOL    HW121084   0.943   4.076   6.559
 1314SOL    HW221085   1.060   4.168   6.531
 1315SOL     OW21086   3.584   4.612   0.242
 1315SOL    HW121087   3.647   4.603   0.171
 1315SOL    HW221088   3.628   4.667   0.307
 1316SOL     OW21089   1.208   0.384   6.697
 1316SOL    HW121090   1.120   0.375   6.733
 1316SOL    HW221091   1.199   0.360   6.605
 1317SOL     OW21092   1.461   3.493   7.516
 1317SOL    HW121093   1.490   3.413   7.560
 1317SOL    HW221094   1.418   3.544   7.585
 1318SOL     OW21095   0.929   5.926   1.294
 1318SOL    HW121096   1.000   5.877   1.336
 1318SOL    HW221097   0.931   5.898   1.203
 1319SOL     OW21098   2.033   0.651   7.456
 1319SOL    HW121099   2.000   0.698   7.532
 1319SOL    HW221100   1.957   0.604   7.421
 1320SOL     OW21101   2.059   3.608   1.638
 1320SOL    HW121102   2.069   3.519   1.674
 1320SOL    HW221103   1.965   3.622   1.635
 1321SOL     OW21104   0.093   4.561   6.393
 1321SOL    HW121105   0.123   4.641   6.436
 1321SOL    HW221106   0.074   4.501   6.464
 1322SOL     OW21107   2.528   5.004   0.097
 1322SOL    HW121108   2.561   5.089   0.068
 1322SOL    HW221109   2.494   4.963   0.018
 1323SOL     OW21110   0.877   1.365   6.092
 1323SOL    HW121111   0.845   1.363   6.002
 1323SOL    HW221112   0.943   1.296   6.096
 1324SOL     OW21113   3.897   0.178   0.268
 1324SOL    HW121114   3.850   0.095   0.268
 1324SOL    HW221115   3.934   0.185   0.180
 1325SOL     OW21116   0.602   6.390   2.267
 1325SOL    HW121117   0.530   6.399   2.203
 1325SOL    HW221118   0.558   6.377   2.351
 1326SOL     OW21119   2.895   5.629   1.781
 1326SOL    HW121120   2.960   5.647   1.849
 1326SOL    HW221121   2.893   5.708   1.727
 1327SOL     OW21122   6.153   3.296   7.522
 1327SOL    HW121123   6.234   3.325   7.563
 1327SOL    HW221124   6.169   3.205   7.497
 1328SOL     OW21125   2.208   2.965   2.590
 1328SOL    HW121126   2.277   3.030   2.576
 1328SOL    HW221127   2.157   2.967   2.509
 1329SOL     OW21128   0.751   2.532   7.500
 1329SOL    HW121129   0.724   2.480   7.425
 1329SOL    HW221130   0.727   2.479   7.576
 1330SOL     OW21131   1.687   2.320   6.558
 1330SOL    HW121132   1.628   2.368   6.617
 1330SOL    HW221133   1.774   2.357   6.576
 1331SOL     OW21134   4.330   4.264   2.109
 1331SOL    HW121135   4.366   4.343   2.149
 1331SOL    HW221136   4.407   4.217   2.075
 1332SOL     OW21137   2.805   0.362   0.048
 1332SOL    HW121138   2.863   0.404   0.111
 1332SOL    HW221139   2.858   0.291   0.010
 1333SOL     OW21140   3.110   0.055   5.877
 1333SOL    HW121141   3.087   0.095   5.961
 1333SOL    HW221142   3.145   0.127   5.825
 1334SOL     OW21143   1.602   4.474   7.569
 1334SOL    HW121144   1.654   4.542   7.526
 1334SOL    HW221145   1.513   4.508   7.568
 1335SOL     OW21146   2.086   5.141   6.917
 1335SOL    HW121147   2.119   5.115   7.003
 1335SOL    HW221148   2.159   5.124   6.857
 1336SOL     OW21149   2.551   0.792   0.027
 1336SOL    HW121150   2.642   0.807   0.054
 1336SOL    HW221151   2.512   0.745   0.101
 1337SOL     OW21152   4.084   1.021   0.116
 1337SOL    HW121153   4.150   1.055   0.176
 1337SOL    HW221154   4.083   0.927   0.133
 1338SOL     OW21155   0.041   3.800   1.486
 1338SOL    HW121156   0.115   3.742   1.470
 1338SOL    HW221157   0.064   3.848   1.566
 1339SOL     OW21158   5.997   1.009   6.566
 1339SOL    HW121159   6.066   0.961   6.611
 1339SOL    HW221160   5.920   0.999   6.621
 1340SOL     OW21161   5.977   5.450   1.586
 1340SOL    HW121162   5.948   5.529   1.540
 1340SOL    HW221163   5.914   5.441   1.658
 1341SOL     OW21164   1.964   5.014   2.245
 1341SOL    HW121165   1.893   5.059   2.290
 1341SOL    HW221166   1.921   4.965   2.175
 1342SOL     OW21167   2.230   6.293   1.068
 1342SOL    HW121168   2.300   6.305   1.003
 1342SOL    HW221169   2.163   6.243   1.022
 1343SOL     OW21170   4.204   4.294   6.853
 1343SOL    HW121171   4.256   4.353   6.799
 1343SOL    HW221172   4.268   4.240   6.900
 1344SOL     OW21173   1.372   1.818   7.191
 1344SOL    HW121174   1.377   1.831   7.285
 1344SOL    HW221175   1.409   1.731   7.176
 1345SOL     OW21176   4.871   1.623   6.757
 1345SOL    HW121177   4.925   1.552   6.722
 1345SOL    HW221178   4.919   1.655   6.833
 1346SOL     OW21179   0.934   0.367   6.706
 1346SOL    HW121180   0.922   0.360   6.612
 1346SOL    HW221181   0.869   0.432   6.734
 1347SOL     OW21182   0.016   3.466   1.124
 1347SOL    HW121183   0.015   3.427   1.211
 1347SOL    HW221184   0.109   3.476   1.103
 1348SOL     OW21185   0.625   0.936   0.397
 1348SOL    HW121186   0.640   0.899   0.484
 1348SOL    HW221187   0.530   0.950   0.392
 1349SOL     OW21188   2.992   4.766   6.106
 1349SOL    HW121189   2.911   4.816   6.114
 1349SOL    HW221190   2.985   4.720   6.022
 1350SOL     OW21191   3.980   2.973   1.633
 1350SOL    HW121192   3.901   2.921   1.618
 1350SOL    HW221193   3.952   3.064   1.624
 1351SOL     OW21194   1.439   4.515   0.297
 1351SOL    HW121195   1.453   4.561   0.380
 1351SOL    HW221196   1.351   4.542   0.269
 1352SOL     OW21197   1.812   3.583   2.810
 1352SOL    HW121198   1.846   3.571   2.899
 1352SOL    HW221199   1.767   3.501   2.790
 1353SOL     OW21200   4.556   3.862   1.589
 1353SOL    HW121201   4.463   3.874   1.607
 1353SOL    HW221202   4.600   3.919   1.653
 1354SOL     OW21203   2.402   6.157   1.604
 1354SOL    HW121204   2.397   6.129   1.695
 1354SOL    HW221205   2.390   6.252   1.607
 1355SOL     OW21206   1.270   4.529   1.510
 1355SOL    HW121207   1.185   4.571   1.518
 1355SOL    HW221208   1.256   4.455   1.452
 1356SOL     OW21209   2.894   5.248   6.767
 1356SOL    HW121210   2.917   5.158   6.791
 1356SOL    HW221211   2.821   5.238   6.707
 1357SOL     OW21212   4.457   4.832   1.776
 1357SOL    HW121213   4.502   4.753   1.804
 1357SOL    HW221214   4.505   4.863   1.700
 1358SOL     OW21215   5.232   0.399   7.518
 1358SOL    HW121216   5.225   0.471   7.455
 1358SOL    HW221217   5.319   0.363   7.504
 1359SOL     OW21218   1.584   6.193   1.859
 1359SOL    HW121219   1.554   6.274   1.900
 1359SOL    HW221220   1.542   6.192   1.773
 1360SOL     OW21221   6.056   4.254   1.229
 1360SOL    HW121222   6.091   4.264   1.141
 1360SOL    HW221223   5.977   4.307   1.230
 1361SOL     OW21224   5.016   6.065   6.253
 1361SOL    HW121225   4.950   6.065   6.183
 1361SOL    HW221226   5.079   5.999   6.226
 1362SOL     OW21227   6.315   3.719   1.228
 1362SOL    HW121228   6.252   3.703   1.158
 1362SOL    HW221229   6.387   3.658   1.210
 1363SOL     OW21230   0.302   3.039   7.553
 1363SOL    HW121231   0.360   3.027   7.628
 1363SOL    HW221232   0.338   3.115   7.507
 1364SOL     OW21233   6.433   5.920   6.714
 1364SOL    HW121234   6.399   5.893   6.800
 1364SOL    HW221235   6.375   5.990   6.686
 1365SOL     OW21236   0.423   3.858   6.906
 1365SOL    HW121237   0.377   3.775   6.915
 1365SOL    HW221238   0.370   3.909   6.844
 1366SOL     OW21239   4.604   3.314   2.313
 1366SOL    HW121240   4.697   3.300   2.329
 1366SOL    HW221241   4.579   3.243   2.255
 1367SOL     OW21242   0.097   1.760   1.181
 1367SOL    HW121243   0.020   1.762   1.124
 1367SOL    HW221244   0.131   1.849   1.178
 1368SOL     OW21245   4.972   2.573   7.183
 1368SOL    HW121246   4.888   2.609   7.156
 1368SOL    HW221247   4.951   2.487   7.219
 1369SOL     OW21248   0.079   3.012   7.803
 1369SOL    HW121249   0.149   2.984   7.744
 1369SOL    HW221250   0.125   3.038   7.883
 1370SOL     OW21251   0.052   0.224   0.525
 1370SOL    HW121252   0.136   0.235   0.570
 1370SOL    HW221253   0.058   0.137   0.484
 1371SOL     OW21254   3.251   5.616   1.814
 1371SOL    HW121255   3.190   5.623   1.887
 1371SOL    HW221256   3.250   5.702   1.772
 1372SOL     OW21257   2.169   1.791   1.543
 1372SOL    HW121258   2.216   1.712   1.572
 1372SOL    HW221259   2.118   1.818   1.619
 1373SOL     OW21260   2.144   4.136   5.569
 1373SOL    HW121261   2.083   4.192   5.520
 1373SOL    HW221262   2.088   4.069   5.609
 1374SOL     OW21263   3.019   2.620   6.649
 1374SOL    HW121264   3.007   2.527   6.632
 1374SOL    HW221265   2.930   2.656   6.651
 1375SOL     OW21266   4.125   0.754   0.475
 1375SOL    HW121267   4.103   0.789   0.388
 1375SOL    HW221268   4.065   0.798   0.534
 1376SOL     OW21269   3.421   6.339   5.660
 1376SOL    HW121270   3.402   6.417   5.607
 1376SOL    HW221271   3.387   6.266   5.608
 1377SOL     OW21272   3.933   4.303   1.385
 1377SOL    HW121273   4.021   4.336   1.364
 1377SOL    HW221274   3.884   4.381   1.411
 1378SOL     OW21275   2.506   4.491   2.409
 1378SOL    HW121276   2.482   4.583   2.402
 1378SOL    HW221277   2.550   4.483   2.493
 1379SOL     OW21278   3.369   0.386   7.586
 1379SOL    HW121279   3.322   0.401   7.668
 1379SOL    HW221280   3.427   0.312   7.605
 1380SOL     OW21281   5.856   1.425   0.575
 1380SOL    HW121282   5.783   1.483   0.555
 1380SOL    HW221283   5.839   1.394   0.663
 1381SOL     OW21284   1.414   0.495   5.901
 1381SOL    HW121285   1.348   0.562   5.880
 1381SOL    HW221286   1.463   0.483   5.820
 1382SOL     OW21287   4.810   2.553   6.935
 1382SOL    HW121288   4.836   2.640   6.906
 1382SOL    HW221289   4.889   2.500   6.922
 1383SOL     OW21290   2.388   1.099   7.562
 1383SOL    HW121291   2.302   1.061   7.579
 1383SOL    HW221292   2.387   1.183   7.607
 1384SOL     OW21293   1.266   3.699   5.736
 1384SOL    HW121294   1.293   3.655   5.656
 1384SOL    HW221295   1.220   3.778   5.707
 1385SOL     OW21296   5.165   5.947   0.230
 1385SOL    HW121297   5.247   5.918   0.190
 1385SOL    HW221298   5.115   5.867   0.244
 1386SOL     OW21299   5.304   0.882   6.700
 1386SOL    HW121300   5.367   0.914   6.764
 1386SOL    HW221301   5.287   0.791   6.727
 1387SOL     OW21302   2.094   2.970   2.834
 1387SOL    HW121303   2.169   2.982   2.893
 1387SOL    HW221304   2.133   2.943   2.751
 1388SOL     OW21305   4.271   5.599   7.440
 1388SOL    HW121306   4.352   5.548   7.436
 1388SOL    HW221307   4.278   5.647   7.523
 1389SOL     OW21308   1.594   3.818   6.190
 1389SOL    HW121309   1.502   3.796   6.175
 1389SOL    HW221310   1.642   3.774   6.120
 1390SOL     OW21311   5.475   4.704   6.094
 1390SOL    HW121312   5.493   4.735   6.005
 1390SOL    HW221313   5.390   4.743   6.117
 1391SOL     OW21314   3.089   4.850   7.172
 1391SOL    HW121315   3.169   4.801   7.152
 1391SOL    HW221316   3.102   4.936   7.132
 1392SOL     OW21317   1.464   0.027   1.294
 1392SOL    HW121318   1.450   0.082   1.217
 1392SOL    HW221319   1.393   0.051   1.353
 1393SOL     OW21320   6.270   5.992   5.268
 1393SOL    HW121321   6.288   6.011   5.360
 1393SOL    HW221322   6.293   6.073   5.222
 1394SOL     OW21323   5.528   1.301   0.461
 1394SOL    HW121324   5.529   1.323   0.554
 1394SOL    HW221325   5.505   1.383   0.416
 1395SOL     OW21326   4.530   6.124   6.341
 1395SOL    HW121327   4.438   6.135   6.364
 1395SOL    HW221328   4.534   6.141   6.247
 1396SOL     OW21329   4.294   1.655   0.867
 1396SOL    HW121330   4.380   1.668   0.827
 1396SOL    HW221331   4.260   1.744   0.880
 1397SOL     OW21332   4.798   6.056   6.417
 1397SOL    HW121333   4.860   6.085   6.350
 1397SOL    HW221334   4.712   6.083   6.384
 1398SOL     OW21335   6.052   1.739   0.949
 1398SOL    HW121336   6.047   1.645   0.966
 1398SOL    HW221337   6.040   1.747   0.855
 1399SOL     OW21338   1.123   0.224   7.108
 1399SOL    HW121339   1.169   0.165   7.049
 1399SOL    HW221340   1.192   0.264   7.161
 1400SOL     OW21341   1.638   6.411   0.594
 1400SOL    HW121342   1.604   6.379   0.511
 1400SOL    HW221343   1.730   6.428   0.578
 1401SOL     OW21344   5.488   6.310   6.423
 1401SOL    HW121345   5.465   6.374   6.356
 1401SOL    HW221346   5.463   6.226   6.385
 1402SOL     OW21347   3.908   2.694   0.457
 1402SOL    HW121348   3.922   2.687   0.552
 1402SOL    HW221349   3.813   2.688   0.447
 1403SOL     OW21350   3.059   1.130   1.854
 1403SOL    HW121351   2.986   1.192   1.862
 1403SOL    HW221352   3.089   1.118   1.944
 1404SOL     OW21353   5.395   2.442   1.830
 1404SOL    HW121354   5.345   2.523   1.840
 1404SOL    HW221355   5.331   2.372   1.843
 1405SOL     OW21356   2.641   4.150   1.462
 1405SOL    HW121357   2.711   4.215   1.461
 1405SOL    HW221358   2.680   4.072   1.501
 1406SOL     OW21359   2.999   3.831   0.478
 1406SOL    HW121360   3.016   3.862   0.389
 1406SOL    HW221361   3.032   3.742   0.479
 1407SOL     OW21362   2.074   0.152   1.897
 1407SOL    HW121363   2.094   0.133   1.805
 1407SOL    HW221364   2.025   0.234   1.894
 1408SOL     OW21365   0.521   5.475   6.268
 1408SOL    HW121366   0.451   5.451   6.328
 1408SOL    HW221367   0.590   5.410   6.285
 1409SOL     OW21368   4.698   0.127   0.688
 1409SOL    HW121369   4.623   0.069   0.698
 1409SOL    HW221370   4.676   0.204   0.741
 1410SOL     OW21371   3.693   0.899   7.538
 1410SOL    HW121372   3.730   0.940   7.617
 1410SOL    HW221373   3.724   0.809   7.541
 1411SOL     OW21374   4.167   4.323   6.474
 1411SOL    HW121375   4.085   4.277   6.457
 1411SOL    HW221376   4.175   4.385   6.402
 1412SOL     OW21377   0.385   2.642   0.495
 1412SOL    HW121378   0.323   2.715   0.484
 1412SOL    HW221379   0.337   2.565   0.463
 1413SOL     OW21380   1.237   1.110   7.764
 1413SOL    HW121381   1.285   1.117   7.681
 1413SOL    HW221382   1.149   1.142   7.744
 1414SOL     OW21383   6.375   3.483   7.641
 1414SOL    HW121384   6.445   3.433   7.683
 1414SOL    HW221385   6.309   3.494   7.709
 1415SOL     OW21386   3.705   5.019   1.306
 1415SOL    HW121387   3.788   5.036   1.261
 1415SOL    HW221388   3.666   5.105   1.318
 1416SOL     OW21389   5.795   3.449   0.601
 1416SOL    HW121390   5.865   3.384   0.612
 1416SOL    HW221391   5.785   3.457   0.506
 1417SOL     OW21392   3.423   6.054   1.489
 1417SOL    HW121393   3.498   6.106   1.460
 1417SOL    HW221394   3.448   6.024   1.576
 1418SOL     OW21395   3.892   5.173   0.900
 1418SOL    HW121396   3.920   5.250   0.850
 1418SOL    HW221397   3.861   5.112   0.833
 1419SOL     OW21398   6.404   1.571   6.612
 1419SOL    HW121399   6.482   1.520   6.593
 1419SOL    HW221400   6.397   1.633   6.539
 1420SOL     OW21401   5.440   4.113   0.916
 1420SOL    HW121402   5.522   4.094   0.962
 1420SOL    HW221403   5.377   4.052   0.955
 1421SOL     OW21404   4.922   5.179   0.280
 1421SOL    HW121405   4.964   5.134   0.207
 1421SOL    HW221406   4.865   5.112   0.319
 1422SOL     OW21407   0.692   0.212   7.288
 1422SOL    HW121408   0.674   0.119   7.269
 1422SOL    HW221409   0.702   0.215   7.383
 1423SOL     OW21410   5.003   3.951   5.793
 1423SOL    HW121411   5.011   4.043   5.767
 1423SOL    HW221412   5.085   3.911   5.765
 1424SOL     OW21413   4.243   1.292   1.160
 1424SOL    HW121414   4.241   1.255   1.072
 1424SOL    HW221415   4.266   1.218   1.217
 1425SOL     OW21416   1.813   6.156   7.370
 1425SOL    HW121417   1.881   6.223   7.375
 1425SOL    HW221418   1.836   6.093   7.438
 1426SOL     OW21419   5.206   3.408   0.959
 1426SOL    HW121420   5.214   3.354   0.880
 1426SOL    HW221421   5.195   3.345   1.030
 1427SOL     OW21422   3.943   1.275   0.926
 1427SOL    HW121423   3.958   1.324   0.845
 1427SOL    HW221424   4.028   1.235   0.945
 1428SOL     OW21425   3.208   2.181   7.046
 1428SOL    HW121426   3.272   2.231   7.097
 1428SOL    HW221427   3.253   2.163   6.963
 1429SOL     OW21428   1.973   0.994   5.952
 1429SOL    HW121429   2.061   1.029   5.933
 1429SOL    HW221430   1.956   0.932   5.880
 1430SOL     OW21431   0.453   3.619   6.148
 1430SOL    HW121432   0.387   3.644   6.213
 1430SOL    HW221433   0.402   3.583   6.075
 1431SOL     OW21434   5.667   0.464   0.774
 1431SOL    HW121435   5.643   0.508   0.856
 1431SOL    HW221436   5.675   0.535   0.710
 1432SOL     OW21437   0.415   4.445   2.753
 1432SOL    HW121438   0.398   4.453   2.659
 1432SOL    HW221439   0.482   4.511   2.770
 1433SOL     OW21440   3.531   3.229   5.628
 1433SOL    HW121441   3.454   3.173   5.622
 1433SOL    HW221442   3.499   3.309   5.670
 1434SOL     OW21443   5.786   1.933   7.174
 1434SOL    HW121444   5.862   1.981   7.208
 1434SOL    HW221445   5.713   1.994   7.183
 1435SOL     OW21446   0.235   0.304   1.145
 1435SOL    HW121447   0.197   0.230   1.192
 1435SOL    HW221448   0.196   0.299   1.058
 1436SOL     OW21449   2.605   2.788   0.987
 1436SOL    HW121450   2.626   2.877   1.014
 1436SOL    HW221451   2.632   2.734   1.061
 1437SOL     OW21452   1.888   3.211   0.228
 1437SOL    HW121453   1.803   3.184   0.192
 1437SOL    HW221454   1.952   3.161   0.178
 1438SOL     OW21455   2.630   4.577   0.718
 1438SOL    HW121456   2.661   4.631   0.790
 1438SOL    HW221457   2.687   4.501   0.718
 1439SOL     OW21458   1.308   1.783   2.158
 1439SOL    HW121459   1.302   1.708   2.217
 1439SOL    HW221460   1.379   1.836   2.194
 1440SOL     OW21461   6.388   5.581   5.287
 1440SOL    HW121462   6.434   5.659   5.255
 1440SOL    HW221463   6.306   5.614   5.322
 1441SOL     OW21464   0.215   4.198   0.385
 1441SOL    HW121465   0.235   4.231   0.297
 1441SOL    HW221466   0.234   4.105   0.381
 1442SOL     OW21467   3.975   3.893   1.154
 1442SOL    HW121468   3.961   3.842   1.234
 1442SOL    HW221469   3.954   3.832   1.083
 1443SOL     OW21470   3.464   1.884   0.209
 1443SOL    HW121471   3.441   1.792   0.224
 1443SOL    HW221472   3.522   1.906   0.282
 1444SOL     OW21473   2.548   3.148   0.473
 1444SOL    HW121474   2.565   3.097   0.394
 1444SOL    HW221475   2.462   3.189   0.457
 1445SOL     OW21476   1.121   1.704   6.719
 1445SOL    HW121477   1.112   1.777   6.779
 1445SOL    HW221478   1.032   1.672   6.705
 1446SOL     OW21479   6.216   3.622   6.128
 1446SOL    HW121480   6.184   3.531   6.123
 1446SOL    HW221481   6.138   3.674   6.147
 1447SOL     OW21482   4.792   5.923   0.972
 1447SOL    HW121483   4.698   5.941   0.976
 1447SOL    HW221484   4.831   5.985   1.033
 1448SOL     OW21485   5.396   5.958   6.881
 1448SOL    HW121486   5.367   5.872   6.850
 1448SOL    HW221487   5.320   6.015   6.867
 1449SOL     OW21488   3.826   3.938   7.555
 1449SOL    HW121489   3.859   3.850   7.570
 1449SOL    HW221490   3.857   3.960   7.467
 1450SOL     OW21491   5.745   6.221   1.317
 1450SOL    HW121492   5.750   6.309   1.279
 1450SOL    HW221493   5.721   6.237   1.408
 1451SOL     OW21494   5.673   5.809   1.073
 1451SOL    HW121495   5.658   5.902   1.093
 1451SOL    HW221496   5.684   5.806   0.978
 1452SOL     OW21497   3.984   2.827   6.862
 1452SOL    HW121498   4.050   2.759   6.873
 1452SOL    HW221499   3.901   2.784   6.885
 1453SOL     OW21500   2.603   4.973   1.141
 1453SOL    HW121501   2.636   5.027   1.069
 1453SOL    HW221502   2.521   4.937   1.109
 1454SOL     OW21503   1.732   2.564   7.196
 1454SOL    HW121504   1.763   2.550   7.106
 1454SOL    HW221505   1.648   2.519   7.200
 1455SOL     OW21506   1.557   4.436   5.703
 1455SOL    HW121507   1.567   4.373   5.774
 1455SOL    HW221508   1.540   4.519   5.747
 1456SOL     OW21509   1.257   2.485   6.979
 1456SOL    HW121510   1.180   2.542   6.977
 1456SOL    HW221511   1.222   2.398   6.957
 1457SOL     OW21512   6.154   6.250   0.625
 1457SOL    HW121513   6.173   6.342   0.605
 1457SOL    HW221514   6.240   6.210   0.639
 1458SOL     OW21515   1.819   0.073   6.562
 1458SOL    HW121516   1.853   0.061   6.474
 1458SOL    HW221517   1.828   0.167   6.579
 1459SOL     OW21518   4.255   1.613   1.655
 1459SOL    HW121519   4.160   1.621   1.644
 1459SOL    HW221520   4.272   1.645   1.744
 1460SOL     OW21521   3.063   0.820   7.806
 1460SOL    HW121522   3.056   0.786   7.717
 1460SOL    HW221523   3.147   0.866   7.808
 1461SOL     OW21524   2.427   4.500   1.630
 1461SOL    HW121525   2.424   4.575   1.571
 1461SOL    HW221526   2.435   4.539   1.718
 1462SOL     OW21527   0.076   0.947   5.467
 1462SOL    HW121528  -0.007   0.971   5.426
 1462SOL    HW221529   0.055   0.936   5.560
 1463SOL     OW21530   4.863   6.205   0.606
 1463SOL    HW121531   4.812   6.214   0.526
 1463SOL    HW221532   4.804   6.235   0.676
 1464SOL     OW21533   5.976   6.057   1.440
 1464SOL    HW121534   5.973   6.086   1.531
 1464SOL    HW221535   5.898   6.096   1.400
 1465SOL     OW21536   5.721   4.968   0.217
 1465SOL    HW121537   5.745   4.927   0.133
 1465SOL    HW221538   5.702   5.059   0.194
 1466SOL     OW21539   2.852   2.259   1.867
 1466SOL    HW121540   2.894   2.266   1.953
 1466SOL    HW221541   2.764   2.292   1.881
 1467SOL     OW21542   5.424   1.037   7.181
 1467SOL    HW121543   5.445   1.085   7.261
 1467SOL    HW221544   5.349   0.983   7.205
 1468SOL     OW21545   6.206   2.266   0.820
 1468SOL    HW121546   6.146   2.191   0.815
 1468SOL    HW221547   6.215   2.295   0.729
 1469SOL     OW21548   3.620   6.219   5.777
 1469SOL    HW121549   3.687   6.284   5.797
 1469SOL    HW221550   3.554   6.268   5.729
 1470SOL     OW21551   2.267   5.330   0.054
 1470SOL    HW121552   2.189   5.385   0.042
 1470SOL    HW221553   2.339   5.393   0.063
 1471SOL     OW21554   5.472   2.337   5.815
 1471SOL    HW121555   5.395   2.367   5.767
 1471SOL    HW221556   5.535   2.312   5.747
 1472SOL     OW21557   5.159   4.006   0.594
 1472SOL    HW121558   5.207   3.924   0.608
 1472SOL    HW221559   5.173   4.055   0.675
 1473SOL     OW21560   5.530   5.682   6.606
 1473SOL    HW121561   5.486   5.744   6.548
 1473SOL    HW221562   5.493   5.699   6.692
 1474SOL     OW21563   2.016   0.246   0.571
 1474SOL    HW121564   2.009   0.333   0.534
 1474SOL    HW221565   1.943   0.240   0.632
 1475SOL     OW21566   1.904   1.884   6.517
 1475SOL    HW121567   1.837   1.816   6.523
 1475SOL    HW221568   1.968   1.861   6.585
 1476SOL     OW21569   1.710   2.035   6.930
 1476SOL    HW121570   1.676   2.018   6.842
 1476SOL    HW221571   1.798   2.069   6.915
 1477SOL     OW21572   4.922   0.923   7.632
 1477SOL    HW121573   4.963   0.872   7.562
 1477SOL    HW221574   4.830   0.931   7.604
 1478SOL     OW21575   0.086   6.383   6.791
 1478SOL    HW121576   0.021   6.324   6.830
 1478SOL    HW221577   0.161   6.326   6.772
 1479SOL     OW21578   0.915   0.946   5.879
 1479SOL    HW121579   1.007   0.969   5.864
 1479SOL    HW221580   0.914   0.850   5.877
 1480SOL     OW21581   2.178   5.235   0.299
 1480SOL    HW121582   2.223   5.235   0.214
 1480SOL    HW221583   2.101   5.291   0.285
 1481SOL     OW21584   2.520   3.982   7.268
 1481SOL    HW121585   2.538   4.068   7.306
 1481SOL    HW221586   2.596   3.929   7.291
 1482SOL     OW21587   1.660   1.987   0.525
 1482SOL    HW121588   1.631   2.042   0.598
 1482SOL    HW221589   1.592   1.920   0.516
 1483SOL     OW21590   6.416   6.350   0.063
 1483SOL    HW121591   6.412   6.446   0.061
 1483SOL    HW221592   6.339   6.325   0.113
 1484SOL     OW21593   4.697   5.297   2.379
 1484SOL    HW121594   4.635   5.343   2.322
 1484SOL    HW221595   4.671   5.205   2.372
 1485SOL     OW21596   2.634   2.870   5.945
 1485SOL    HW121597   2.564   2.926   5.912
 1485SOL    HW221598   2.615   2.784   5.907
 1486SOL     OW21599   0.753   0.151   1.925
 1486SOL    HW121600   0.797   0.127   2.007
 1486SOL    HW221601   0.691   0.080   1.909
 1487SOL     OW21602   5.168   0.725   0.804
 1487SOL    HW121603   5.207   0.778   0.874
 1487SOL    HW221604   5.244   0.688   0.758
 1488SOL     OW21605   5.026   2.832   6.514
 1488SOL    HW121606   4.975   2.860   6.438
 1488SOL    HW221607   5.077   2.908   6.539
 1489SOL     OW21608   2.026   4.665   6.413
 1489SOL    HW121609   2.079   4.621   6.347
 1489SOL    HW221610   1.947   4.611   6.422
 1490SOL     OW21611   0.141   0.529   7.624
 1490SOL    HW121612   0.131   0.624   7.622
 1490SOL    HW221613   0.222   0.512   7.576
 1491SOL     OW21614   1.321   3.671   7.654
 1491SOL    HW121615   1.329   3.669   7.750
 1491SOL    HW221616   1.245   3.726   7.638
 1492SOL     OW21617   0.335   2.313   6.114
 1492SOL    HW121618   0.280   2.238   6.139
 1492SOL    HW221619   0.354   2.299   6.021
 1493SOL     OW21620   3.255   4.096   7.265
 1493SOL    HW121621   3.188   4.146   7.312
 1493SOL    HW221622   3.231   4.004   7.280
 1494SOL     OW21623   5.706   0.770   2.201
 1494SOL    HW121624   5.729   0.722   2.121
 1494SOL    HW221625   5.790   0.801   2.235
 1495SOL     OW21626   3.520   5.191   7.532
 1495SOL    HW121627   3.542   5.233   7.449
 1495SOL    HW221628   3.568   5.108   7.530
 1496SOL     OW21629   3.468   5.743   0.551
 1496SOL    HW121630   3.429   5.826   0.522
 1496SOL    HW221631   3.472   5.689   0.472
 1497SOL     OW21632   5.213   4.974   0.009
 1497SOL    HW121633   5.290   5.018   0.045
 1497SOL    HW221634   5.194   5.021  -0.072
 1498SOL     OW21635   1.022   1.757   7.763
 1498SOL    HW121636   1.038   1.801   7.846
 1498SOL    HW221637   0.966   1.682   7.785
 1499SOL     OW21638   0.242   6.075   1.520
 1499SOL    HW121639   0.247   6.020   1.442
 1499SOL    HW221640   0.241   6.013   1.593
 1500SOL     OW21641   5.309   1.269   0.086
 1500SOL    HW121642   5.346   1.200   0.032
 1500SOL    HW221643   5.384   1.325   0.107
 1501SOL     OW21644   3.246   6.243   1.170
 1501SOL    HW121645   3.197   6.313   1.212
 1501SOL    HW221646   3.331   6.281   1.151
 1502SOL     OW21647   0.794   6.265   5.880
 1502SOL    HW121648   0.776   6.178   5.914
 1502SOL    HW221649   0.710   6.310   5.881
 1503SOL     OW21650   2.184   4.022   6.558
 1503SOL    HW121651   2.225   4.108   6.551
 1503SOL    HW221652   2.142   4.022   6.644
 1504SOL     OW21653   0.701   2.538   0.438
 1504SOL    HW121654   0.640   2.492   0.495
 1504SOL    HW221655   0.646   2.602   0.392
 1505SOL     OW21656   2.464   0.591   6.024
 1505SOL    HW121657   2.493   0.504   5.995
 1505SOL    HW221658   2.450   0.640   5.943
 1506SOL     OW21659   0.823   3.490   2.538
 1506SOL    HW121660   0.792   3.407   2.500
 1506SOL    HW221661   0.804   3.555   2.471
 1507SOL     OW21662   5.486   4.751   6.864
 1507SOL    HW121663   5.412   4.783   6.917
 1507SOL    HW221664   5.489   4.809   6.789
 1508SOL     OW21665   2.580   1.125   0.044
 1508SOL    HW121666   2.541   1.062  -0.017
 1508SOL    HW221667   2.659   1.081   0.076
 1509SOL     OW21668   4.375   5.241   0.821
 1509SOL    HW121669   4.434   5.231   0.746
 1509SOL    HW221670   4.354   5.334   0.823
 1510SOL     OW21671   1.655   2.140   2.304
 1510SOL    HW121672   1.658   2.214   2.364
 1510SOL    HW221673   1.674   2.179   2.218
 1511SOL     OW21674   1.048   1.413   0.087
 1511SOL    HW121675   1.038   1.402   0.182
 1511SOL    HW221676   1.095   1.496   0.078
 1512SOL     OW21677   1.302   4.962   0.806
 1512SOL    HW121678   1.287   4.999   0.719
 1512SOL    HW221679   1.257   4.878   0.805
 1513SOL     OW21680   0.247   0.454   0.334
 1513SOL    HW121681   0.297   0.512   0.392
 1513SOL    HW221682   0.265   0.487   0.246
 1514SOL     OW21683   4.025   1.375   6.867
 1514SOL    HW121684   4.012   1.295   6.816
 1514SOL    HW221685   4.114   1.367   6.902
 1515SOL     OW21686   0.772   4.675   2.002
 1515SOL    HW121687   0.723   4.671   1.919
 1515SOL    HW221688   0.814   4.761   2.001
 1516SOL     OW21689   4.383   6.083   7.694
 1516SOL    HW121690   4.418   6.172   7.691
 1516SOL    HW221691   4.424   6.038   7.620
 1517SOL     OW21692   2.356   0.887   5.843
 1517SOL    HW121693   2.343   0.826   5.770
 1517SOL    HW221694   2.294   0.959   5.827
 1518SOL     OW21695   5.830   0.572   6.848
 1518SOL    HW121696   5.826   0.500   6.785
 1518SOL    HW221697   5.917   0.610   6.835
 1519SOL     OW21698   0.367   0.535   0.776
 1519SOL    HW121699   0.419   0.529   0.856
 1519SOL    HW221700   0.325   0.621   0.781
 1520SOL     OW21701   5.035   0.786   1.922
 1520SOL    HW121702   5.027   0.876   1.889
 1520SOL    HW221703   5.123   0.759   1.896
 1521SOL     OW21704   3.753   0.005   2.432
 1521SOL    HW121705   3.688   0.074   2.445
 1521SOL    HW221706   3.712  -0.073   2.472
 1522SOL     OW21707   0.054   1.769   0.280
 1522SOL    HW121708   0.084   1.851   0.241
 1522SOL    HW221709  -0.029   1.792   0.321
 1523SOL     OW21710   0.735   5.156   7.785
 1523SOL    HW121711   0.718   5.202   7.868
 1523SOL    HW221712   0.827   5.174   7.766
 1524SOL     OW21713   1.850   5.158   0.090
 1524SOL    HW121714   1.772   5.110   0.063
 1524SOL    HW221715   1.817   5.222   0.153
 1525SOL     OW21716   3.959   0.511   6.476
 1525SOL    HW121717   3.962   0.564   6.555
 1525SOL    HW221718   3.931   0.424   6.506
 1526SOL     OW21719   0.541   1.039   2.258
 1526SOL    HW121720   0.446   1.030   2.264
 1526SOL    HW221721   0.557   1.078   2.172
 1527SOL     OW21722   5.341   4.527   6.420
 1527SOL    HW121723   5.335   4.501   6.512
 1527SOL    HW221724   5.361   4.620   6.422
 1528SOL     OW21725   1.726   4.236   7.507
 1528SOL    HW121726   1.815   4.268   7.518
 1528SOL    HW221727   1.670   4.310   7.530
 1529SOL     OW21728   2.708   3.888   0.059
 1529SOL    HW121729   2.653   3.923  -0.011
 1529SOL    HW221730   2.663   3.912   0.140
 1530SOL     OW21731   5.457   4.365   1.246
 1530SOL    HW121732   5.367   4.385   1.274
 1530SOL    HW221733   5.507   4.362   1.328
 1531SOL     OW21734   3.552   2.627   7.318
 1531SOL    HW121735   3.611   2.600   7.248
 1531SOL    HW221736   3.537   2.720   7.302
 1532SOL     OW21737   4.035   5.621   0.196
 1532SOL    HW121738   3.978   5.668   0.256
 1532SOL    HW221739   4.048   5.536   0.236
 1533SOL     OW21740   5.238   5.369   0.267
 1533SOL    HW121741   5.245   5.413   0.182
 1533SOL    HW221742   5.325   5.334   0.283
 1534SOL     OW21743   3.247   0.554   0.423
 1534SOL    HW121744   3.236   0.578   0.331
 1534SOL    HW221745   3.225   0.633   0.472
 1535SOL     OW21746   3.504   3.765   0.043
 1535SOL    HW121747   3.518   3.823   0.118
 1535SOL    HW221748   3.495   3.825  -0.032
 1536SOL     OW21749   5.928   5.370   6.949
 1536SOL    HW121750   5.978   5.356   6.868
 1536SOL    HW221751   5.839   5.343   6.926
 1537SOL     OW21752   2.301   2.697   2.238
 1537SOL    HW121753   2.340   2.674   2.322
 1537SOL    HW221754   2.295   2.793   2.239
 1538SOL     OW21755   1.978   2.088   6.894
 1538SOL    HW121756   2.027   2.017   6.935
 1538SOL    HW221757   1.999   2.081   6.801
 1539SOL     OW21758   0.988   4.930   0.693
 1539SOL    HW121759   0.969   4.839   0.668
 1539SOL    HW221760   0.920   4.952   0.756
 1540SOL     OW21761   3.716   2.891   1.945
 1540SOL    HW121762   3.741   2.836   2.019
 1540SOL    HW221763   3.630   2.858   1.919
 1541SOL     OW21764   0.764   2.636   1.999
 1541SOL    HW121765   0.714   2.696   2.053
 1541SOL    HW221766   0.824   2.692   1.950
 1542SOL     OW21767   5.721   4.087   1.461
 1542SOL    HW121768   5.815   4.074   1.449
 1542SOL    HW221769   5.715   4.154   1.530
 1543SOL     OW21770   0.349   4.008   1.276
 1543SOL    HW121771   0.327   4.066   1.203
 1543SOL    HW221772   0.390   3.932   1.234
 1544SOL     OW21773   1.490   1.792   0.341
 1544SOL    HW121774   1.437   1.870   0.324
 1544SOL    HW221775   1.508   1.756   0.254
 1545SOL     OW21776   0.415   5.812   0.323
 1545SOL    HW121777   0.364   5.750   0.270
 1545SOL    HW221778   0.409   5.778   0.412
 1546SOL     OW21779   5.721   6.442   5.595
 1546SOL    HW121780   5.731   6.379   5.666
 1546SOL    HW221781   5.810   6.473   5.577
 1547SOL     OW21782   1.732   5.829   1.423
 1547SOL    HW121783   1.659   5.798   1.369
 1547SOL    HW221784   1.734   5.924   1.408
 1548SOL     OW21785   4.013   5.413   0.721
 1548SOL    HW121786   4.041   5.398   0.812
 1548SOL    HW221787   4.094   5.422   0.672
 1549SOL     OW21788   2.034   0.632   7.006
 1549SOL    HW121789   2.070   0.702   7.061
 1549SOL    HW221790   1.941   0.652   7.000
 1550SOL     OW21791   6.426   4.866   7.174
 1550SOL    HW121792   6.343   4.820   7.177
 1550SOL    HW221793   6.441   4.882   7.080
 1551SOL     OW21794   4.956   4.730   1.062
 1551SOL    HW121795   5.007   4.679   0.999
 1551SOL    HW221796   4.915   4.664   1.118
 1552SOL     OW21797   3.615   0.423   1.300
 1552SOL    HW121798   3.600   0.336   1.264
 1552SOL    HW221799   3.680   0.411   1.369
 1553SOL     OW21800   1.208   5.395   1.524
 1553SOL    HW121801   1.154   5.473   1.511
 1553SOL    HW221802   1.147   5.322   1.518
 1554SOL     OW21803   0.797   2.040   6.934
 1554SOL    HW121804   0.734   2.084   6.991
 1554SOL    HW221805   0.742   1.992   6.871
 1555SOL     OW21806   6.157   0.415   0.218
 1555SOL    HW121807   6.201   0.496   0.191
 1555SOL    HW221808   6.085   0.404   0.155
 1556SOL     OW21809   1.804   2.435   0.409
 1556SOL    HW121810   1.777   2.373   0.341
 1556SOL    HW221811   1.853   2.382   0.472
 1557SOL     OW21812   2.911   5.175   7.573
 1557SOL    HW121813   2.954   5.240   7.518
 1557SOL    HW221814   2.965   5.097   7.567
 1558SOL     OW21815   2.184   0.809   6.808
 1558SOL    HW121816   2.117   0.877   6.814
 1558SOL    HW221817   2.178   0.777   6.718
 1559SOL     OW21818   0.212   1.321   0.147
 1559SOL    HW121819   0.217   1.398   0.203
 1559SOL    HW221820   0.303   1.301   0.125
 1560SOL     OW21821   1.097   0.999   1.346
 1560SOL    HW121822   1.007   0.990   1.313
 1560SOL    HW221823   1.100   1.087   1.384
 1561SOL     OW21824   5.401   2.257   6.068
 1561SOL    HW121825   5.311   2.230   6.051
 1561SOL    HW221826   5.442   2.260   5.982
 1562SOL     OW21827   3.748   2.397   1.352
 1562SOL    HW121828   3.716   2.487   1.350
 1562SOL    HW221829   3.833   2.402   1.395
 1563SOL     OW21830   0.585   0.592   1.015
 1563SOL    HW121831   0.574   0.531   1.089
 1563SOL    HW221832   0.676   0.622   1.022
 1564SOL     OW21833   1.802   0.084   1.166
 1564SOL    HW121834   1.881   0.138   1.164
 1564SOL    HW221835   1.829   0.005   1.214
 1565SOL     OW21836   3.098   1.804   5.604
 1565SOL    HW121837   3.097   1.835   5.514
 1565SOL    HW221838   3.188   1.775   5.619
 1566SOL     OW21839   4.433   6.080   0.227
 1566SOL    HW121840   4.363   6.026   0.264
 1566SOL    HW221841   4.479   6.023   0.166
 1567SOL     OW21842   3.203   1.081   1.587
 1567SOL    HW121843   3.165   1.106   1.671
 1567SOL    HW221844   3.272   1.145   1.572
 1568SOL     OW21845   5.319   0.417   1.235
 1568SOL    HW121846   5.357   0.334   1.265
 1568SOL    HW221847   5.377   0.484   1.271
 1569SOL     OW21848   3.833   3.241   1.673
 1569SOL    HW121849   3.878   3.312   1.628
 1569SOL    HW221850   3.862   3.246   1.763
 1570SOL     OW21851   1.279   0.545   1.145
 1570SOL    HW121852   1.220   0.596   1.089
 1570SOL    HW221853   1.363   0.547   1.099
 1571SOL     OW21854   6.359   5.085   0.024
 1571SOL    HW121855   6.298   5.034   0.078
 1571SOL    HW221856   6.394   5.021  -0.039
 1572SOL     OW21857   2.722   0.910   7.461
 1572SOL    HW121858   2.709   0.913   7.366
 1572SOL    HW221859   2.635   0.889   7.496
 1573SOL     OW21860   0.461   4.494   0.018
 1573SOL    HW121861   0.551   4.494  -0.014
 1573SOL    HW221862   0.468   4.502   0.113
 1574SOL     OW21863   5.837   3.201   6.494
 1574SOL    HW121864   5.797   3.287   6.507
 1574SOL    HW221865   5.931   3.220   6.486
 1575SOL     OW21866   1.577   3.480   5.683
 1575SOL    HW121867   1.660   3.517   5.714
 1575SOL    HW221868   1.599   3.393   5.653
 1576SOL     OW21869   2.521   2.595   1.434
 1576SOL    HW121870   2.469   2.529   1.389
 1576SOL    HW221871   2.557   2.550   1.510
 1577SOL     OW21872   0.178   3.079   1.747
 1577SOL    HW121873   0.233   3.132   1.804
 1577SOL    HW221874   0.098   3.065   1.798
 1578SOL     OW21875   0.891   3.469   6.936
 1578SOL    HW121876   0.806   3.515   6.936
 1578SOL    HW221877   0.919   3.471   7.028
 1579SOL     OW21878   5.141   6.229   0.746
 1579SOL    HW121879   5.193   6.310   0.741
 1579SOL    HW221880   5.053   6.255   0.718
 1580SOL     OW21881   1.612   6.442   2.644
 1580SOL    HW121882   1.563   6.434   2.562
 1580SOL    HW221883   1.547   6.430   2.712
 1581SOL     OW21884   2.215   2.986   5.465
 1581SOL    HW121885   2.125   3.008   5.440
 1581SOL    HW221886   2.259   2.967   5.382
 1582SOL     OW21887   6.023   2.203   0.337
 1582SOL    HW121888   5.931   2.222   0.353
 1582SOL    HW221889   6.069   2.280   0.371
 1583SOL     OW21890   3.055   3.202   1.133
 1583SOL    HW121891   3.108   3.238   1.061
 1583SOL    HW221892   3.073   3.108   1.132
 1584SOL     OW21893   3.969   3.474   0.180
 1584SOL    HW121894   3.937   3.521   0.257
 1584SOL    HW221895   3.891   3.436   0.140
 1585SOL     OW21896   6.148   5.962   0.038
 1585SOL    HW121897   6.208   5.892   0.014
 1585SOL    HW221898   6.131   6.008  -0.044
 1586SOL     OW21899   3.692   3.153   0.777
 1586SOL    HW121900   3.648   3.217   0.833
 1586SOL    HW221901   3.643   3.071   0.790
 1587SOL     OW21902   5.192   4.219   6.534
 1587SOL    HW121903   5.213   4.224   6.441
 1587SOL    HW221904   5.111   4.271   6.543
 1588SOL     OW21905   6.090   3.086   0.750
 1588SOL    HW121906   6.069   3.007   0.801
 1588SOL    HW221907   6.113   3.152   0.815
 1589SOL     OW21908   0.869   3.945   6.079
 1589SOL    HW121909   0.810   3.873   6.103
 1589SOL    HW221910   0.812   4.006   6.032
 1590SOL     OW21911   3.310   0.935   7.716
 1590SOL    HW121912   3.369   0.980   7.656
 1590SOL    HW221913   3.353   0.851   7.733
 1591SOL     OW21914   1.987   4.547   7.688
 1591SOL    HW121915   1.912   4.598   7.719
 1591SOL    HW221916   2.044   4.540   7.764
 1592SOL     OW21917   4.668   1.319   5.400
 1592SOL    HW121918   4.620   1.381   5.344
 1592SOL    HW221919   4.626   1.234   5.383
 1593SOL     OW21920   1.403   2.092   1.427
 1593SOL    HW121921   1.374   2.016   1.378
 1593SOL    HW221922   1.462   2.139   1.367
 1594SOL     OW21923   2.339   0.674   6.980
 1594SOL    HW121924   2.283   0.726   6.922
 1594SOL    HW221925   2.426   0.681   6.942
 1595SOL     OW21926   2.030   3.786   7.427
 1595SOL    HW121927   2.006   3.877   7.446
 1595SOL    HW221928   2.124   3.789   7.411
 1596SOL     OW21929   2.510   0.776   0.411
 1596SOL    HW121930   2.439   0.836   0.386
 1596SOL    HW221931   2.517   0.715   0.337
 1597SOL     OW21932   0.087   1.110   0.261
 1597SOL    HW121933   0.039   1.165   0.323
 1597SOL    HW221934   0.134   1.173   0.205
 1598SOL     OW21935   6.139   3.328   1.453
 1598SOL    HW121936   6.166   3.412   1.489
 1598SOL    HW221937   6.185   3.263   1.507
 1599SOL     OW21938   1.972   3.986   5.747
 1599SOL    HW121939   1.877   3.991   5.747
 1599SOL    HW221940   1.991   3.893   5.734
 1600SOL     OW21941   4.834   1.185   6.559
 1600SOL    HW121942   4.834   1.230   6.475
 1600SOL    HW221943   4.793   1.101   6.542
 1601SOL     OW21944   3.007   3.957   1.749
 1601SOL    HW121945   2.977   4.045   1.773
 1601SOL    HW221946   2.967   3.900   1.814
 1602SOL     OW21947   0.919   2.114   1.625
 1602SOL    HW121948   1.005   2.152   1.644
 1602SOL    HW221949   0.876   2.107   1.710
 1603SOL     OW21950   2.434   5.648   1.408
 1603SOL    HW121951   2.372   5.628   1.477
 1603SOL    HW221952   2.518   5.614   1.440
 1604SOL     OW21953   3.011   0.532   7.190
 1604SOL    HW121954   2.965   0.523   7.106
 1604SOL    HW221955   2.947   0.502   7.255
 1605SOL     OW21956   5.258   0.889   2.187
 1605SOL    HW121957   5.224   0.977   2.207
 1605SOL    HW221958   5.341   0.884   2.235
 1606SOL     OW21959   4.521   2.512   0.769
 1606SOL    HW121960   4.503   2.601   0.740
 1606SOL    HW221961   4.504   2.513   0.863
 1607SOL     OW21962   4.353   4.698   6.988
 1607SOL    HW121963   4.366   4.707   6.893
 1607SOL    HW221964   4.288   4.765   7.009
 1608SOL     OW21965   5.673   3.208   7.172
 1608SOL    HW121966   5.606   3.242   7.232
 1608SOL    HW221967   5.623   3.167   7.101
 1609SOL     OW21968   5.887   3.676   7.320
 1609SOL    HW121969   5.814   3.628   7.358
 1609SOL    HW221970   5.965   3.639   7.362
 1610SOL     OW21971   1.488   4.199   1.669
 1610SOL    HW121972   1.568   4.224   1.714
 1610SOL    HW221973   1.452   4.128   1.723
 1611SOL     OW21974   3.702   0.227   7.390
 1611SOL    HW121975   3.791   0.201   7.413
 1611SOL    HW221976   3.690   0.195   7.300
 1612SOL     OW21977   1.156   3.558   7.416
 1612SOL    HW121978   1.122   3.645   7.436
 1612SOL    HW221979   1.240   3.574   7.372
 1613SOL     OW21980   3.445   0.091   0.395
 1613SOL    HW121981   3.448   0.085   0.299
 1613SOL    HW221982   3.450   0.184   0.414
 1614SOL     OW21983   3.962   1.920   7.295
 1614SOL    HW121984   3.920   1.946   7.213
 1614SOL    HW221985   3.889   1.895   7.352
 1615SOL     OW21986   0.036   1.885   2.198
 1615SOL    HW121987   0.053   1.798   2.163
 1615SOL    HW221988   0.113   1.937   2.175
 1616SOL     OW21989   6.268   3.912   0.762
 1616SOL    HW121990   6.180   3.948   0.766
 1616SOL    HW221991   6.324   3.978   0.803
 1617SOL     OW21992   0.010   4.871   6.907
 1617SOL    HW121993   0.088   4.914   6.871
 1617SOL    HW221994  -0.063   4.907   6.856
 1618SOL     OW21995   2.223   1.417   7.235
 1618SOL    HW121996   2.290   1.485   7.226
 1618SOL    HW221997   2.151   1.447   7.180
 1619SOL     OW21998   4.899   4.094   1.897
 1619SOL    HW121999   4.812   4.092   1.856
 1619SOL    HW222000   4.883   4.065   1.987
 1620SOL     OW22001   2.129   3.867   1.580
 1620SOL    HW122002   2.130   3.773   1.599
 1620SOL    HW222003   2.206   3.882   1.526
 1621SOL     OW22004   5.412   3.008   6.392
 1621SOL    HW122005   5.329   3.024   6.438
 1621SOL    HW222006   5.390   3.019   6.299
 1622SOL     OW22007   2.491   0.782   2.595
 1622SOL    HW122008   2.426   0.740   2.540
 1622SOL    HW222009   2.468   0.875   2.595
 1623SOL     OW22010   3.754   5.722   6.982
 1623SOL    HW122011   3.828   5.741   7.039
 1623SOL    HW222012   3.750   5.797   6.923
 1624SOL     OW22013   4.735   0.980   0.321
 1624SOL    HW122014   4.733   0.886   0.300
 1624SOL    HW222015   4.824   0.996   0.351
 1625SOL     OW22016   4.819   2.629   0.678
 1625SOL    HW122017   4.811   2.605   0.771
 1625SOL    HW222018   4.816   2.545   0.632
 1626SOL     OW22019   3.972   6.120   0.705
 1626SOL    HW122020   4.054   6.169   0.707
 1626SOL    HW222021   3.947   6.118   0.613
 1627SOL     OW22022   4.075   2.991   1.884
 1627SOL    HW122023   4.040   2.990   1.795
 1627SOL    HW222024   4.073   2.899   1.911
 1628SOL     OW22025   3.311   2.666   0.818
 1628SOL    HW122026   3.403   2.649   0.797
 1628SOL    HW222027   3.266   2.662   0.733
 1629SOL     OW22028   0.291   1.649   7.671
 1629SOL    HW122029   0.320   1.611   7.754
 1629SOL    HW222030   0.301   1.577   7.608
 1630SOL     OW22031   2.172   6.394   6.072
 1630SOL    HW122032   2.079   6.407   6.051
 1630SOL    HW222033   2.198   6.475   6.115
 1631SOL     OW22034   5.446   1.019   5.763
 1631SOL    HW122035   5.540   1.037   5.766
 1631SOL    HW222036   5.435   0.962   5.686
 1632SOL     OW22037   6.310   0.663   7.194
 1632SOL    HW122038   6.279   0.615   7.271
 1632SOL    HW222039   6.329   0.596   7.129
 1633SOL     OW22040   1.017   6.050   0.565
 1633SOL    HW122041   1.003   5.964   0.605
 1633SOL    HW222042   1.107   6.072   0.587
 1634SOL     OW22043   0.506   4.913   0.845
 1634SOL    HW122044   0.483   4.826   0.812
 1634SOL    HW222045   0.431   4.968   0.821
 1635SOL     OW22046   4.550   4.144   5.924
 1635SOL    HW122047   4.474   4.141   5.983
 1635SOL    HW222048   4.528   4.213   5.861
 1636SOL     OW22049   5.186   1.329   0.398
 1636SOL    HW122050   5.117   1.271   0.365
 1636SOL    HW222051   5.179   1.408   0.345
 1637SOL     OW22052   6.406   5.428   0.352
 1637SOL    HW122053   6.360   5.501   0.310
 1637SOL    HW222054   6.430   5.462   0.438
 1638SOL     OW22055   5.111   2.502   0.454
 1638SOL    HW122056   5.182   2.567   0.460
 1638SOL    HW222057   5.049   2.541   0.393
 1639SOL     OW22058   3.126   4.420   6.132
 1639SOL    HW122059   3.105   4.447   6.043
 1639SOL    HW222060   3.083   4.336   6.142
 1640SOL     OW22061   3.046   1.348   2.077
 1640SOL    HW122062   3.118   1.391   2.123
 1640SOL    HW222063   3.001   1.418   2.030
 1641SOL     OW22064   5.865   2.544   6.253
 1641SOL    HW122065   5.941   2.568   6.200
 1641SOL    HW222066   5.869   2.603   6.329
 1642SOL     OW22067   4.550   5.470   2.213
 1642SOL    HW122068   4.458   5.444   2.202
 1642SOL    HW222069   4.549   5.565   2.206
 1643SOL     OW22070   5.366   0.010   6.216
 1643SOL    HW122071   5.338   0.100   6.204
 1643SOL    HW222072   5.292  -0.043   6.186
 1644SOL     OW22073   1.713   2.549   0.633
 1644SOL    HW122074   1.718   2.642   0.611
 1644SOL    HW222075   1.732   2.504   0.550
 1645SOL     OW22076   4.427   3.416   6.334
 1645SOL    HW122077   4.338   3.397   6.304
 1645SOL    HW222078   4.447   3.503   6.300
 1646SOL     OW22079   0.777   4.102   1.387
 1646SOL    HW122080   0.753   4.108   1.479
 1646SOL    HW222081   0.756   4.189   1.351
 1647SOL     OW22082   2.614   5.485   0.670
 1647SOL    HW122083   2.560   5.429   0.725
 1647SOL    HW222084   2.696   5.494   0.717
 1648SOL     OW22085   2.493   0.223   6.628
 1648SOL    HW122086   2.471   0.315   6.612
 1648SOL    HW222087   2.574   0.227   6.679
 1649SOL     OW22088   3.332   2.276   2.229
 1649SOL    HW122089   3.415   2.320   2.209
 1649SOL    HW222090   3.274   2.299   2.157
 1650SOL     OW22091   1.725   4.251   1.800
 1650SOL    HW122092   1.692   4.208   1.879
 1650SOL    HW222093   1.785   4.318   1.833
 1651SOL     OW22094   0.044   2.784   6.566
 1651SOL    HW122095   0.099   2.806   6.490
 1651SOL    HW222096   0.060   2.691   6.581
 1652SOL     OW22097   3.103   4.162   0.075
 1652SOL    HW122098   3.172   4.215   0.115
 1652SOL    HW222099   3.042   4.226   0.039
 1653SOL     OW22100   4.139   4.726   6.629
 1653SOL    HW122101   4.124   4.753   6.719
 1653SOL    HW222102   4.065   4.670   6.607
 1654SOL     OW22103   4.636   1.961   1.853
 1654SOL    HW122104   4.654   1.953   1.946
 1654SOL    HW222105   4.614   1.872   1.825
 1655SOL     OW22106   3.072   5.749   1.259
 1655SOL    HW122107   3.070   5.726   1.352
 1655SOL    HW222108   3.150   5.804   1.249
 1656SOL     OW22109   0.604   3.600   6.599
 1656SOL    HW122110   0.529   3.541   6.611
 1656SOL    HW222111   0.677   3.553   6.639
 1657SOL     OW22112   5.627   1.702   7.541
 1657SOL    HW122113   5.572   1.778   7.561
 1657SOL    HW222114   5.596   1.634   7.600
 1658SOL     OW22115   4.085   5.090   0.294
 1658SOL    HW122116   4.084   5.034   0.371
 1658SOL    HW222117   4.167   5.139   0.301
 1659SOL     OW22118   1.781   2.109   0.768
 1659SOL    HW122119   1.799   2.015   0.773
 1659SOL    HW222120   1.801   2.133   0.678
 1660SOL     OW22121   4.512   4.634   1.473
 1660SOL    HW122122   4.584   4.690   1.503
 1660SOL    HW222123   4.505   4.652   1.379
 1661SOL     OW22124   0.868   6.395   0.465
 1661SOL    HW122125   0.803   6.377   0.396
 1661SOL    HW222126   0.849   6.328   0.532
 1662SOL     OW22127   0.641   2.145   0.371
 1662SOL    HW122128   0.669   2.163   0.461
 1662SOL    HW222129   0.713   2.176   0.316
 1663SOL     OW22130   2.042   3.575   2.107
 1663SOL    HW122131   1.976   3.508   2.090
 1663SOL    HW222132   2.034   3.635   2.033
 1664SOL     OW22133   1.652   4.095   2.384
 1664SOL    HW122134   1.717   4.055   2.441
 1664SOL    HW222135   1.702   4.157   2.330
 1665SOL     OW22136   1.515   2.256   7.522
 1665SOL    HW122137   1.562   2.336   7.543
 1665SOL    HW222138   1.430   2.285   7.490
 1666SOL     OW22139   4.988   4.803   0.568
 1666SOL    HW122140   4.915   4.751   0.603
 1666SOL    HW222141   4.954   4.843   0.488
 1667SOL     OW22142   4.328   1.631   0.083
 1667SOL    HW122143   4.332   1.640  -0.012
 1667SOL    HW222144   4.319   1.537   0.098
 1668SOL     OW22145   3.002   4.422   0.325
 1668SOL    HW122146   3.068   4.354   0.338
 1668SOL    HW222147   3.003   4.438   0.230
 1669SOL     OW22148   0.672   1.380   0.360
 1669SOL    HW122149   0.761   1.401   0.389
 1669SOL    HW222150   0.638   1.321   0.428
 1670SOL     OW22151   6.410   5.707   7.453
 1670SOL    HW122152   6.419   5.791   7.409
 1670SOL    HW222153   6.347   5.659   7.400
 1671SOL     OW22154   4.970   0.137   0.408
 1671SOL    HW122155   4.963   0.075   0.480
 1671SOL    HW222156   4.884   0.179   0.403
 1672SOL     OW22157   0.358   4.503   5.835
 1672SOL    HW122158   0.296   4.564   5.873
 1672SOL    HW222159   0.397   4.458   5.911
 1673SOL     OW22160   4.455   0.332   7.053
 1673SOL    HW122161   4.486   0.327   7.143
 1673SOL    HW222162   4.371   0.287   7.053
 1674SOL     OW22163   3.133   6.105   0.252
 1674SOL    HW122164   3.200   6.116   0.320
 1674SOL    HW222165   3.179   6.123   0.170
 1675SOL     OW22166   6.091   3.558   7.453
 1675SOL    HW122167   6.176   3.597   7.472
 1675SOL    HW222168   6.101   3.466   7.476
 1676SOL     OW22169   4.453   0.914   6.273
 1676SOL    HW122170   4.479   1.001   6.305
 1676SOL    HW222171   4.413   0.932   6.187
 1677SOL     OW22172   6.199   3.388   7.064
 1677SOL    HW122173   6.207   3.422   6.975
 1677SOL    HW222174   6.138   3.315   7.056
 1678SOL     OW22175   1.253   2.055   7.589
 1678SOL    HW122176   1.252   2.080   7.681
 1678SOL    HW222177   1.313   2.118   7.548
 1679SOL     OW22178   5.760   6.402   7.577
 1679SOL    HW122179   5.734   6.315   7.609
 1679SOL    HW222180   5.680   6.454   7.579
 1680SOL     OW22181   4.694   1.597   7.107
 1680SOL    HW122182   4.764   1.558   7.055
 1680SOL    HW222183   4.717   1.579   7.198
 1681SOL     OW22184   5.754   3.486   7.475
 1681SOL    HW122185   5.766   3.392   7.460
 1681SOL    HW222186   5.758   3.496   7.570
 1682SOL     OW22187   0.201   3.247   6.476
 1682SOL    HW122188   0.244   3.250   6.391
 1682SOL    HW222189   0.113   3.215   6.458
 1683SOL     OW22190   4.069   1.719   7.464
 1683SOL    HW122191   4.092   1.627   7.450
 1683SOL    HW222192   4.037   1.748   7.379
 1684SOL     OW22193   4.223   0.703   1.148
 1684SOL    HW122194   4.316   0.723   1.140
 1684SOL    HW222195   4.182   0.752   1.077
 1685SOL     OW22196   4.756   6.030   1.289
 1685SOL    HW122197   4.755   6.099   1.356
 1685SOL    HW222198   4.746   5.949   1.339
 1686SOL     OW22199   4.197   4.242   1.879
 1686SOL    HW122200   4.232   4.240   1.968
 1686SOL    HW222201   4.229   4.324   1.842
 1687SOL     OW22202   6.338   1.141   6.574
 1687SOL    HW122203   6.313   1.059   6.615
 1687SOL    HW222204   6.403   1.179   6.633
 1688SOL     OW22205   3.826   5.986   6.524
 1688SOL    HW122206   3.760   5.942   6.471
 1688SOL    HW222207   3.891   5.919   6.544
 1689SOL     OW22208   2.391   6.416   1.700
 1689SOL    HW122209   2.385   6.376   1.787
 1689SOL    HW222210   2.450   6.490   1.711
 1690SOL     OW22211   4.644   2.785   1.080
 1690SOL    HW122212   4.665   2.792   0.987
 1690SOL    HW222213   4.696   2.710   1.111
 1691SOL     OW22214   3.468   6.398   1.498
 1691SOL    HW122215   3.504   6.315   1.469
 1691SOL    HW222216   3.414   6.376   1.574
 1692SOL     OW22217   0.899   6.116   0.072
 1692SOL    HW122218   0.978   6.067   0.094
 1692SOL    HW222219   0.852   6.061   0.009
 1693SOL     OW22220   3.119   5.349   6.846
 1693SOL    HW122221   3.110   5.441   6.818
 1693SOL    HW222222   3.045   5.304   6.804
 1694SOL     OW22223   1.767   1.532   0.077
 1694SOL    HW122224   1.832   1.602   0.077
 1694SOL    HW222225   1.817   1.451   0.085
 1695SOL     OW22226   1.206   6.041   1.955
 1695SOL    HW122227   1.186   6.010   2.044
 1695SOL    HW222228   1.221   6.135   1.966
 1696SOL     OW22229   6.170   0.954   0.953
 1696SOL    HW122230   6.115   1.016   0.905
 1696SOL    HW222231   6.136   0.954   1.042
 1697SOL     OW22232   1.321   5.981   6.923
 1697SOL    HW122233   1.330   6.038   6.847
 1697SOL    HW222234   1.240   6.009   6.965
 1698SOL     OW22235   3.934   4.138   1.910
 1698SOL    HW122236   4.010   4.191   1.934
 1698SOL    HW222237   3.874   4.148   1.983
 1699SOL     OW22238   4.597   4.560   0.263
 1699SOL    HW122239   4.690   4.560   0.238
 1699SOL    HW222240   4.597   4.531   0.354
 1700SOL     OW22241   2.088   4.671   0.558
 1700SOL    HW122242   2.073   4.745   0.498
 1700SOL    HW222243   2.096   4.712   0.644
 1701SOL     OW22244   5.143   0.393   5.879
 1701SOL    HW122245   5.138   0.338   5.801
 1701SOL    HW222246   5.237   0.398   5.898
 1702SOL     OW22247   2.257   5.456   7.017
 1702SOL    HW122248   2.231   5.475   7.107
 1702SOL    HW222249   2.186   5.403   6.982
 1703SOL     OW22250   6.182   4.995   5.380
 1703SOL    HW122251   6.144   4.914   5.346
 1703SOL    HW222252   6.252   4.966   5.438
 1704SOL     OW22253   0.616   3.192   5.754
 1704SOL    HW122254   0.579   3.104   5.746
 1704SOL    HW222255   0.610   3.228   5.666
 1705SOL     OW22256   2.692   4.712   1.781
 1705SOL    HW122257   2.664   4.790   1.733
 1705SOL    HW222258   2.728   4.654   1.715
 1706SOL     OW22259   2.972   1.622   0.492
 1706SOL    HW122260   2.923   1.704   0.487
 1706SOL    HW222261   3.038   1.639   0.560
 1707SOL     OW22262   5.403   4.953   6.654
 1707SOL    HW122263   5.359   4.999   6.583
 1707SOL    HW222264   5.461   5.018   6.693
 1708SOL     OW22265   4.820   6.161   1.762
 1708SOL    HW122266   4.883   6.170   1.691
 1708SOL    HW222267   4.829   6.070   1.791
 1709SOL     OW22268   3.491   2.759   0.149
 1709SOL    HW122269   3.404   2.746   0.112
 1709SOL    HW222270   3.532   2.673   0.144
 1710SOL     OW22271   1.602   2.086   6.680
 1710SOL    HW122272   1.632   2.160   6.628
 1710SOL    HW222273   1.506   2.094   6.681
 1711SOL     OW22274   4.522   2.702   5.621
 1711SOL    HW122275   4.516   2.740   5.533
 1711SOL    HW222276   4.612   2.670   5.627
 1712SOL     OW22277   1.877   1.835   6.248
 1712SOL    HW122278   1.940   1.774   6.208
 1712SOL    HW222279   1.896   1.830   6.342
 1713SOL     OW22280   5.305   4.504   1.581
 1713SOL    HW122281   5.350   4.565   1.522
 1713SOL    HW222282   5.376   4.464   1.632
 1714SOL     OW22283   4.377   2.552   1.246
 1714SOL    HW122284   4.403   2.624   1.188
 1714SOL    HW222285   4.396   2.583   1.334
 1715SOL     OW22286   0.204   2.189   0.822
 1715SOL    HW122287   0.164   2.275   0.808
 1715SOL    HW222288   0.275   2.185   0.757
 1716SOL     OW22289   2.983   4.223   7.601
 1716SOL    HW122290   2.990   4.136   7.563
 1716SOL    HW222291   2.899   4.224   7.646
 1717SOL     OW22292   2.093   0.149   1.438
 1717SOL    HW122293   2.070   0.196   1.358
 1717SOL    HW222294   2.181   0.115   1.422
 1718SOL     OW22295   1.909   1.799   0.370
 1718SOL    HW122296   1.984   1.848   0.405
 1718SOL    HW222297   1.833   1.835   0.417
 1719SOL     OW22298   0.201   2.390   7.279
 1719SOL    HW122299   0.204   2.301   7.316
 1719SOL    HW222300   0.132   2.434   7.328
 1720SOL     OW22301   0.517   3.612   0.789
 1720SOL    HW122302   0.605   3.642   0.813
 1720SOL    HW222303   0.458   3.666   0.841
 1721SOL     OW22304   4.646   4.181   0.987
 1721SOL    HW122305   4.568   4.232   1.006
 1721SOL    HW222306   4.638   4.157   0.894
 1722SOL     OW22307   0.636   2.482   7.192
 1722SOL    HW122308   0.550   2.443   7.173
 1722SOL    HW222309   0.640   2.559   7.135
 1723SOL     OW22310   4.088   2.202   5.353
 1723SOL    HW122311   4.031   2.230   5.425
 1723SOL    HW222312   4.177   2.216   5.385
 1724SOL     OW22313   0.433   0.662   2.502
 1724SOL    HW122314   0.452   0.573   2.532
 1724SOL    HW222315   0.338   0.662   2.485
 1725SOL     OW22316   0.722   1.772   7.294
 1725SOL    HW122317   0.698   1.806   7.380
 1725SOL    HW222318   0.812   1.803   7.280
 1726SOL     OW22319   5.558   5.471   1.844
 1726SOL    HW122320   5.583   5.563   1.836
 1726SOL    HW222321   5.463   5.474   1.859
 1727SOL     OW22322   3.467   4.801   1.388
 1727SOL    HW122323   3.553   4.821   1.426
 1727SOL    HW222324   3.417   4.882   1.399
 1728SOL     OW22325   3.486   6.148   6.142
 1728SOL    HW122326   3.510   6.061   6.110
 1728SOL    HW222327   3.433   6.186   6.072
 1729SOL     OW22328   4.018   4.986   5.828
 1729SOL    HW122329   3.998   5.031   5.746
 1729SOL    HW222330   4.112   5.003   5.842
 1730SOL     OW22331   0.581   4.520   6.055
 1730SOL    HW122332   0.611   4.608   6.032
 1730SOL    HW222333   0.565   4.523   6.149
 1731SOL     OW22334   6.079   2.884   1.364
 1731SOL    HW122335   6.111   2.918   1.281
 1731SOL    HW222336   6.147   2.907   1.427
 1732SOL     OW22337   4.664   2.825   0.816
 1732SOL    HW122338   4.700   2.913   0.807
 1732SOL    HW222339   4.709   2.774   0.749
 1733SOL     OW22340   2.558   5.929   7.536
 1733SOL    HW122341   2.638   5.954   7.490
 1733SOL    HW222342   2.567   5.835   7.551
 1734SOL     OW22343   6.125   5.175   5.897
 1734SOL    HW122344   6.037   5.211   5.901
 1734SOL    HW222345   6.117   5.095   5.845
 1735SOL     OW22346   1.137   2.946   6.284
 1735SOL    HW122347   1.131   2.915   6.194
 1735SOL    HW222348   1.179   2.875   6.332
 1736SOL     OW22349   0.495   0.604   0.205
 1736SOL    HW122350   0.502   0.533   0.141
 1736SOL    HW222351   0.575   0.596   0.257
 1737SOL     OW22352   5.625   2.827   6.323
 1737SOL    HW122353   5.565   2.896   6.351
 1737SOL    HW222354   5.680   2.869   6.256
 1738SOL     OW22355   2.946   0.512   6.435
 1738SOL    HW122356   2.865   0.544   6.475
 1738SOL    HW222357   2.993   0.469   6.506
 1739SOL     OW22358   2.955   5.656   7.096
 1739SOL    HW122359   2.928   5.738   7.055
 1739SOL    HW222360   2.938   5.589   7.029
 1740SOL     OW22361   0.179   1.384   6.632
 1740SOL    HW122362   0.119   1.339   6.692
 1740SOL    HW222363   0.261   1.337   6.642
 1741SOL     OW22364   1.625   2.228   0.987
 1741SOL    HW122365   1.667   2.204   0.905
 1741SOL    HW222366   1.546   2.275   0.961
 1742SOL     OW22367   4.625   2.445   7.391
 1742SOL    HW122368   4.532   2.469   7.389
 1742SOL    HW222369   4.631   2.378   7.458
 1743SOL     OW22370   4.886   0.321   0.125
 1743SOL    HW122371   4.947   0.295   0.194
 1743SOL    HW222372   4.910   0.266   0.050
 1744SOL     OW22373   1.867   6.194   6.615
 1744SOL    HW122374   1.838   6.231   6.532
 1744SOL    HW222375   1.826   6.107   6.618
 1745SOL     OW22376   3.425   0.352   0.434
 1745SOL    HW122377   3.429   0.353   0.530
 1745SOL    HW222378   3.362   0.421   0.412
 1746SOL     OW22379   0.708   0.731   5.313
 1746SOL    HW122380   0.722   0.647   5.356
 1746SOL    HW222381   0.770   0.730   5.239
 1747SOL     OW22382   3.649   6.191   1.395
 1747SOL    HW122383   3.727   6.218   1.444
 1747SOL    HW222384   3.679   6.186   1.304
 1748SOL     OW22385   4.379   5.869   1.152
 1748SOL    HW122386   4.314   5.937   1.171
 1748SOL    HW222387   4.462   5.916   1.146
 1749SOL     OW22388   5.203   5.195   6.931
 1749SOL    HW122389   5.236   5.132   6.996
 1749SOL    HW222390   5.136   5.146   6.882
 1750SOL     OW22391   2.783   0.031   0.800
 1750SOL    HW122392   2.865  -0.016   0.786
 1750SOL    HW222393   2.747  -0.008   0.880
 1751SOL     OW22394   1.602   5.077   6.071
 1751SOL    HW122395   1.596   5.011   6.002
 1751SOL    HW222396   1.572   5.032   6.150
 1752SOL     OW22397   4.196   5.043   5.538
 1752SOL    HW122398   4.103   5.033   5.557
 1752SOL    HW222399   4.224   4.956   5.510
 1753SOL     OW22400   3.394   2.485   6.626
 1753SOL    HW122401   3.353   2.498   6.712
 1753SOL    HW222402   3.366   2.560   6.574
 1754SOL     OW22403   2.328   4.377   6.958
 1754SOL    HW122404   2.253   4.346   6.907
 1754SOL    HW222405   2.391   4.405   6.892
 1755SOL     OW22406   5.016   1.658   6.230
 1755SOL    HW122407   5.093   1.602   6.227
 1755SOL    HW222408   4.972   1.634   6.312
 1756SOL     OW22409   2.117   5.411   0.561
 1756SOL    HW122410   2.100   5.330   0.608
 1756SOL    HW222411   2.105   5.388   0.469
 1757SOL     OW22412   1.833   1.471   6.160
 1757SOL    HW122413   1.893   1.446   6.090
 1757SOL    HW222414   1.889   1.478   6.238
 1758SOL     OW22415   5.254   0.755   5.659
 1758SOL    HW122416   5.201   0.708   5.595
 1758SOL    HW222417   5.318   0.803   5.607
 1759SOL     OW22418   3.584   0.840   0.215
 1759SOL    HW122419   3.563   0.752   0.246
 1759SOL    HW222420   3.661   0.866   0.266
 1760SOL     OW22421   0.049   2.083   0.351
 1760SOL    HW122422   0.007   2.112   0.270
 1760SOL    HW222423   0.142   2.081   0.331
 1761SOL     OW22424   6.326   4.460   7.453
 1761SOL    HW122425   6.303   4.371   7.427
 1761SOL    HW222426   6.255   4.514   7.419
 1762SOL     OW22427   3.179   1.141   0.097
 1762SOL    HW122428   3.267   1.132   0.133
 1762SOL    HW222429   3.183   1.096   0.012
 1763SOL     OW22430   2.653   2.002   7.177
 1763SOL    HW122431   2.611   1.916   7.180
 1763SOL    HW222432   2.736   1.990   7.224
 1764SOL     OW22433   5.056   1.539   1.733
 1764SOL    HW122434   5.123   1.523   1.799
 1764SOL    HW222435   4.975   1.502   1.770
 1765SOL     OW22436   1.185   5.933   5.421
 1765SOL    HW122437   1.202   5.858   5.478
 1765SOL    HW222438   1.155   5.894   5.338
 1766SOL     OW22439   3.793   3.161   6.901
 1766SOL    HW122440   3.735   3.132   6.831
 1766SOL    HW222441   3.841   3.235   6.864
 1767SOL     OW22442   3.021   1.314   7.518
 1767SOL    HW122443   3.024   1.397   7.469
 1767SOL    HW222444   2.950   1.327   7.581
 1768SOL     OW22445   3.778   0.036   7.768
 1768SOL    HW122446   3.751  -0.046   7.727
 1768SOL    HW222447   3.874   0.037   7.759
 1769SOL     OW22448   0.558   6.059   7.363
 1769SOL    HW122449   0.603   6.090   7.441
 1769SOL    HW222450   0.485   6.120   7.351
 1770SOL     OW22451   4.338   0.929   6.023
 1770SOL    HW122452   4.396   0.880   5.965
 1770SOL    HW222453   4.322   1.012   5.978
 1771SOL     OW22454   6.277   1.670   7.708
 1771SOL    HW122455   6.347   1.678   7.773
 1771SOL    HW222456   6.197   1.662   7.760
 1772SOL     OW22457   0.797   1.806   6.148
 1772SOL    HW122458   0.884   1.844   6.134
 1772SOL    HW222459   0.770   1.838   6.234
 1773SOL     OW22460   5.191   0.092   6.926
 1773SOL    HW122461   5.201   0.179   6.887
 1773SOL    HW222462   5.142   0.042   6.861
 1774SOL     OW22463   5.191   5.460   5.718
 1774SOL    HW122464   5.131   5.406   5.666
 1774SOL    HW222465   5.262   5.482   5.657
 1775SOL     OW22466   0.241   2.921   6.099
 1775SOL    HW122467   0.197   2.986   6.044
 1775SOL    HW222468   0.320   2.897   6.051
 1776SOL     OW22469   5.466   1.549   0.321
 1776SOL    HW122470   5.509   1.591   0.247
 1776SOL    HW222471   5.383   1.596   0.331
 1777SOL     OW22472   3.790   0.044   1.074
 1777SOL    HW122473   3.828   0.113   1.020
 1777SOL    HW222474   3.780   0.085   1.161
 1778SOL     OW22475   1.111   0.107   5.762
 1778SOL    HW122476   1.151   0.022   5.741
 1778SOL    HW222477   1.099   0.149   5.677
 1779SOL     OW22478   2.483   3.190   5.446
 1779SOL    HW122479   2.575   3.191   5.472
 1779SOL    HW222480   2.458   3.283   5.444
 1780SOL     OW22481   4.457   0.882   7.551
 1780SOL    HW122482   4.505   0.896   7.632
 1780SOL    HW222483   4.505   0.813   7.506
 1781SOL     OW22484   3.263   4.726   5.892
 1781SOL    HW122485   3.325   4.671   5.844
 1781SOL    HW222486   3.180   4.714   5.846
 1782SOL     OW22487   2.258   1.209   2.372
 1782SOL    HW122488   2.201   1.240   2.302
 1782SOL    HW222489   2.251   1.275   2.441
 1783SOL     OW22490   5.256   1.037   1.755
 1783SOL    HW122491   5.248   0.945   1.782
 1783SOL    HW222492   5.171   1.075   1.776
 1784SOL     OW22493   5.311   0.271   6.141
 1784SOL    HW122494   5.220   0.292   6.162
 1784SOL    HW222495   5.336   0.337   6.077
 1785SOL     OW22496   5.064   1.046   6.720
 1785SOL    HW122497   5.065   1.065   6.626
 1785SOL    HW222498   5.147   1.000   6.735
 1786SOL     OW22499   1.667   4.589   6.495
 1786SOL    HW122500   1.723   4.663   6.519
 1786SOL    HW222501   1.599   4.627   6.439
 1787SOL     OW22502   2.621   1.070   0.591
 1787SOL    HW122503   2.594   1.100   0.504
 1787SOL    HW222504   2.635   0.976   0.580
 1788SOL     OW22505   1.518   3.852   6.452
 1788SOL    HW122506   1.559   3.845   6.366
 1788SOL    HW222507   1.579   3.906   6.504
 1789SOL     OW22508   2.179   1.654   6.233
 1789SOL    HW122509   2.235   1.589   6.191
 1789SOL    HW222510   2.133   1.605   6.301
 1790SOL     OW22511   0.622   0.305   0.614
 1790SOL    HW122512   0.657   0.361   0.544
 1790SOL    HW222513   0.658   0.342   0.694
 1791SOL     OW22514   4.536   1.041   5.814
 1791SOL    HW122515   4.520   0.947   5.818
 1791SOL    HW222516   4.449   1.080   5.825
 1792SOL     OW22517   5.743   0.457   1.778
 1792SOL    HW122518   5.771   0.394   1.844
 1792SOL    HW222519   5.689   0.520   1.825
 1793SOL     OW22520   3.320   5.177   7.712
 1793SOL    HW122521   3.384   5.178   7.641
 1793SOL    HW222522   3.314   5.085   7.739
 1794SOL     OW22523   4.686   2.162   0.296
 1794SOL    HW122524   4.745   2.231   0.265
 1794SOL    HW222525   4.742   2.103   0.346
 1795SOL     OW22526   0.528   0.113   1.630
 1795SOL    HW122527   0.599   0.052   1.616
 1795SOL    HW222528   0.458   0.060   1.668
 1796SOL     OW22529   4.249   4.180   5.714
 1796SOL    HW122530   4.201   4.192   5.631
 1796SOL    HW222531   4.282   4.267   5.735
 1797SOL     OW22532   1.461   1.739   1.602
 1797SOL    HW122533   1.411   1.659   1.616
 1797SOL    HW222534   1.443   1.763   1.510
 1798SOL     OW22535   5.019   0.408   7.217
 1798SOL    HW122536   4.992   0.411   7.125
 1798SOL    HW222537   5.080   0.335   7.222
 1799SOL     OW22538   6.160   4.930   5.760
 1799SOL    HW122539   6.206   4.931   5.676
 1799SOL    HW222540   6.219   4.884   5.819
 1800SOL     OW22541   4.672   1.073   1.355
 1800SOL    HW122542   4.761   1.087   1.388
 1800SOL    HW222543   4.616   1.114   1.421
 1801SOL     OW22544   2.129   6.127   6.774
 1801SOL    HW122545   2.048   6.156   6.733
 1801SOL    HW222546   2.154   6.200   6.831
 1802SOL     OW22547   4.285   0.531   6.149
 1802SOL    HW122548   4.326   0.559   6.067
 1802SOL    HW222549   4.197   0.570   6.146
 1803SOL     OW22550   1.672   0.280   0.459
 1803SOL    HW122551   1.631   0.289   0.545
 1803SOL    HW222552   1.707   0.367   0.440
 1804SOL     OW22553   4.945   4.121   1.098
 1804SOL    HW122554   4.922   4.086   1.012
 1804SOL    HW222555   4.907   4.209   1.100
 1805SOL     OW22556   1.003   5.103   7.752
 1805SOL    HW122557   0.986   5.015   7.718
 1805SOL    HW222558   0.990   5.095   7.847
 1806SOL     OW22559   5.361   5.649   0.132
 1806SOL    HW122560   5.289   5.653   0.195
 1806SOL    HW222561   5.321   5.619   0.050
 1807SOL     OW22562   1.448   5.919   1.942
 1807SOL    HW122563   1.507   5.990   1.968
 1807SOL    HW222564   1.361   5.960   1.938
 1808SOL     OW22565   6.228   4.172   6.967
 1808SOL    HW122566   6.262   4.260   6.953
 1808SOL    HW222567   6.169   4.180   7.042
 1809SOL     OW22568   5.893   3.718   0.181
 1809SOL    HW122569   5.861   3.648   0.237
 1809SOL    HW222570   5.817   3.774   0.165
 1810SOL     OW22571   0.393   1.740   6.161
 1810SOL    HW122572   0.430   1.675   6.221
 1810SOL    HW222573   0.304   1.709   6.143
 1811SOL     OW22574   4.553   5.745   7.283
 1811SOL    HW122575   4.508   5.687   7.221
 1811SOL    HW222576   4.626   5.781   7.232
 1812SOL     OW22577   3.996   4.139   0.590
 1812SOL    HW122578   4.049   4.184   0.656
 1812SOL    HW222579   3.908   4.134   0.629
 1813SOL     OW22580   2.370   2.979   2.184
 1813SOL    HW122581   2.465   2.982   2.184
 1813SOL    HW222582   2.344   3.012   2.270
 1814SOL     OW22583   4.767   1.881   1.102
 1814SOL    HW122584   4.720   1.887   1.018
 1814SOL    HW222585   4.765   1.788   1.124
 1815SOL     OW22586   0.205   4.478   2.506
 1815SOL    HW122587   0.131   4.440   2.460
 1815SOL    HW222588   0.166   4.531   2.576
 1816SOL     OW22589   5.196   3.263   7.016
 1816SOL    HW122590   5.143   3.321   6.961
 1816SOL    HW222591   5.282   3.264   6.975
 1817SOL     OW22592   0.078   4.404   0.765
 1817SOL    HW122593   0.073   4.382   0.858
 1817SOL    HW222594   0.160   4.364   0.736
 1818SOL     OW22595   2.342   0.974   1.118
 1818SOL    HW122596   2.335   1.052   1.062
 1818SOL    HW222597   2.261   0.925   1.102
 1819SOL     OW22598   0.643   4.584   1.375
 1819SOL    HW122599   0.615   4.642   1.446
 1819SOL    HW222600   0.702   4.638   1.322
 1820SOL     OW22601   5.462   1.010   1.265
 1820SOL    HW122602   5.404   1.065   1.317
 1820SOL    HW222603   5.409   0.933   1.243
 1821SOL     OW22604   1.840   4.236   1.528
 1821SOL    HW122605   1.812   4.245   1.620
 1821SOL    HW222606   1.933   4.215   1.533
 1822SOL     OW22607   3.753   4.513   6.788
 1822SOL    HW122608   3.798   4.435   6.823
 1822SOL    HW222609   3.807   4.540   6.714
 1823SOL     OW22610   2.303   5.738   5.932
 1823SOL    HW122611   2.323   5.780   5.848
 1823SOL    HW222612   2.364   5.779   5.993
 1824SOL     OW22613   2.553   5.819   0.304
 1824SOL    HW122614   2.531   5.800   0.396
 1824SOL    HW222615   2.506   5.751   0.255
 1825SOL     OW22616   2.721   4.209   7.751
 1825SOL    HW122617   2.725   4.127   7.700
 1825SOL    HW222618   2.691   4.181   7.837
 1826SOL     OW22619   0.430   2.141   1.322
 1826SOL    HW122620   0.354   2.130   1.266
 1826SOL    HW222621   0.419   2.228   1.362
 1827SOL     OW22622   1.334   3.624   6.393
 1827SOL    HW122623   1.238   3.627   6.386
 1827SOL    HW222624   1.365   3.643   6.304
 1828SOL     OW22625   0.785   0.129   1.288
 1828SOL    HW122626   0.865   0.076   1.298
 1828SOL    HW222627   0.764   0.122   1.195
 1829SOL     OW22628   2.078   5.399   1.367
 1829SOL    HW122629   1.985   5.384   1.379
 1829SOL    HW222630   2.094   5.386   1.273
 1830SOL     OW22631   1.100   6.234   0.789
 1830SOL    HW122632   1.144   6.153   0.764
 1830SOL    HW222633   1.016   6.230   0.744
 1831SOL     OW22634   1.311   1.565   6.905
 1831SOL    HW122635   1.225   1.540   6.871
 1831SOL    HW222636   1.315   1.660   6.892
 1832SOL     OW22637   2.245   5.078   7.146
 1832SOL    HW122638   2.327   5.062   7.099
 1832SOL    HW222639   2.269   5.076   7.239
 1833SOL     OW22640   4.693   5.080   7.238
 1833SOL    HW122641   4.692   5.035   7.154
 1833SOL    HW222642   4.745   5.159   7.223
 1834SOL     OW22643   1.014   1.158   7.395
 1834SOL    HW122644   1.044   1.124   7.310
 1834SOL    HW222645   1.092   1.156   7.450
 1835SOL     OW22646   1.079   2.989   2.150
 1835SOL    HW122647   1.128   2.907   2.159
 1835SOL    HW222648   1.119   3.048   2.214
 1836SOL     OW22649   2.654   1.192   7.518
 1836SOL    HW122650   2.568   1.156   7.536
 1836SOL    HW222651   2.715   1.120   7.540
 1837SOL     OW22652   6.020   0.421   1.631
 1837SOL    HW122653   6.025   0.347   1.569
 1837SOL    HW222654   5.943   0.403   1.684
 1838SOL     OW22655   3.302   3.065   5.631
 1838SOL    HW122656   3.230   3.115   5.593
 1838SOL    HW222657   3.258   2.990   5.673
 1839SOL     OW22658   3.072   0.843   6.486
 1839SOL    HW122659   3.124   0.849   6.406
 1839SOL    HW222660   3.116   0.778   6.540
 1840SOL     OW22661   0.358   4.289   1.059
 1840SOL    HW122662   0.314   4.205   1.047
 1840SOL    HW222663   0.334   4.340   0.981
 1841SOL     OW22664   3.623   4.910   0.011
 1841SOL    HW122665   3.648   5.002   0.009
 1841SOL    HW222666   3.663   4.876   0.092
 1842SOL     OW22667   3.263   4.334   0.268
 1842SOL    HW122668   3.253   4.420   0.226
 1842SOL    HW222669   3.354   4.331   0.295
 1843SOL     OW22670   5.893   4.882   5.760
 1843SOL    HW122671   5.985   4.906   5.758
 1843SOL    HW222672   5.846   4.965   5.747
 1844SOL     OW22673   0.883   3.860   2.010
 1844SOL    HW122674   0.956   3.798   2.009
 1844SOL    HW222675   0.812   3.815   1.963
 1845SOL     OW22676   6.041   2.438   0.951
 1845SOL    HW122677   6.022   2.373   1.018
 1845SOL    HW222678   6.101   2.395   0.891
 1846SOL     OW22679   3.680   2.948   0.125
 1846SOL    HW122680   3.611   2.884   0.137
 1846SOL    HW222681   3.666   2.983   0.036
 1847SOL     OW22682   3.610   4.415   6.463
 1847SOL    HW122683   3.536   4.475   6.451
 1847SOL    HW222684   3.576   4.346   6.520
 1848SOL     OW22685   2.290   2.653   0.049
 1848SOL    HW122686   2.280   2.558   0.036
 1848SOL    HW222687   2.329   2.661   0.136
 1849SOL     OW22688   0.371   1.922   6.707
 1849SOL    HW122689   0.431   1.979   6.658
 1849SOL    HW222690   0.301   1.902   6.646
 1850SOL     OW22691   3.421   3.577   0.780
 1850SOL    HW122692   3.437   3.625   0.861
 1850SOL    HW222693   3.325   3.570   0.775
 1851SOL     OW22694   2.744   3.554   7.183
 1851SOL    HW122695   2.772   3.563   7.092
 1851SOL    HW222696   2.651   3.576   7.182
 1852SOL     OW22697   3.669   0.223   0.131
 1852SOL    HW122698   3.719   0.250   0.208
 1852SOL    HW222699   3.731   0.172   0.079
 1853SOL     OW22700   4.033   3.778   0.361
 1853SOL    HW122701   4.090   3.761   0.436
 1853SOL    HW222702   3.967   3.709   0.365
 1854SOL     OW22703   6.342   1.149   2.054
 1854SOL    HW122704   6.247   1.144   2.062
 1854SOL    HW222705   6.361   1.110   1.969
 1855SOL     OW22706   0.251   0.938   1.242
 1855SOL    HW122707   0.227   0.893   1.161
 1855SOL    HW222708   0.172   0.987   1.266
 1856SOL     OW22709   5.632   5.534   0.761
 1856SOL    HW122710   5.645   5.443   0.789
 1856SOL    HW222711   5.719   5.564   0.736
 1857SOL     OW22712   3.181   4.132   5.933
 1857SOL    HW122713   3.253   4.070   5.929
 1857SOL    HW222714   3.206   4.202   5.873
 1858SOL     OW22715   3.682   1.474   7.359
 1858SOL    HW122716   3.710   1.445   7.272
 1858SOL    HW222717   3.691   1.569   7.356
 1859SOL     OW22718   0.324   3.285   6.248
 1859SOL    HW122719   0.310   3.372   6.210
 1859SOL    HW222720   0.337   3.228   6.172
 1860SOL     OW22721   4.364   2.864   7.777
 1860SOL    HW122722   4.353   2.786   7.831
 1860SOL    HW222723   4.453   2.857   7.742
 1861SOL     OW22724   5.988   4.605   7.047
 1861SOL    HW122725   5.896   4.587   7.027
 1861SOL    HW222726   6.023   4.646   6.968
 1862SOL     OW22727   4.607   3.555   0.056
 1862SOL    HW122728   4.688   3.532   0.011
 1862SOL    HW222729   4.622   3.643   0.090
 1863SOL     OW22730   5.790   5.649   6.726
 1863SOL    HW122731   5.744   5.623   6.807
 1863SOL    HW222732   5.721   5.652   6.660
 1864SOL     OW22733   4.898   5.827   7.688
 1864SOL    HW122734   4.834   5.894   7.665
 1864SOL    HW222735   4.976   5.876   7.714
 1865SOL     OW22736   5.480   2.014   6.402
 1865SOL    HW122737   5.426   1.979   6.331
 1865SOL    HW222738   5.476   2.109   6.391
 1866SOL     OW22739   4.775   6.410   1.222
 1866SOL    HW122740   4.840   6.465   1.264
 1866SOL    HW222741   4.712   6.389   1.291
 1867SOL     OW22742   1.795   2.675   7.718
 1867SOL    HW122743   1.785   2.758   7.765
 1867SOL    HW222744   1.860   2.693   7.650
 1868SOL     OW22745   2.371   2.241   0.257
 1868SOL    HW122746   2.307   2.289   0.308
 1868SOL    HW222747   2.422   2.192   0.321
 1869SOL     OW22748   1.335   2.384   0.253
 1869SOL    HW122749   1.314   2.404   0.344
 1869SOL    HW222750   1.265   2.424   0.202
 1870SOL     OW22751   1.699   3.724   5.943
 1870SOL    HW122752   1.612   3.755   5.917
 1870SOL    HW222753   1.722   3.659   5.876
 1871SOL     OW22754   0.714   0.787   6.488
 1871SOL    HW122755   0.760   0.732   6.425
 1871SOL    HW222756   0.721   0.740   6.571
 1872SOL     OW22757   2.435   1.315   7.737
 1872SOL    HW122758   2.412   1.370   7.812
 1872SOL    HW222759   2.513   1.267   7.767
 1873SOL     OW22760   3.708   0.732   2.428
 1873SOL    HW122761   3.764   0.690   2.363
 1873SOL    HW222762   3.718   0.680   2.507
 1874SOL     OW22763   4.501   0.223   1.428
 1874SOL    HW122764   4.571   0.286   1.443
 1874SOL    HW222765   4.521   0.150   1.487
 1875SOL     OW22766   2.919   2.292   2.119
 1875SOL    HW122767   2.876   2.357   2.175
 1875SOL    HW222768   2.909   2.210   2.167
 1876SOL     OW22769   1.833   0.536   5.310
 1876SOL    HW122770   1.865   0.462   5.361
 1876SOL    HW222771   1.789   0.592   5.374
 1877SOL     OW22772   1.167   5.350   6.557
 1877SOL    HW122773   1.208   5.420   6.608
 1877SOL    HW222774   1.186   5.270   6.607
 1878SOL     OW22775   0.661   3.471   1.762
 1878SOL    HW122776   0.664   3.377   1.744
 1878SOL    HW222777   0.741   3.506   1.722
 1879SOL     OW22778   1.391   5.724   0.314
 1879SOL    HW122779   1.393   5.784   0.239
 1879SOL    HW222780   1.319   5.757   0.369
 1880SOL     OW22781   0.299   4.492   7.601
 1880SOL    HW122782   0.308   4.587   7.588
 1880SOL    HW222783   0.359   4.473   7.674
 1881SOL     OW22784   4.944   2.577   0.267
 1881SOL    HW122785   4.878   2.509   0.258
 1881SOL    HW222786   4.899   2.658   0.244
 1882SOL     OW22787   2.782   3.497   1.945
 1882SOL    HW122788   2.771   3.410   1.907
 1882SOL    HW222789   2.838   3.483   2.021
 1883SOL     OW22790   2.029   0.258   1.117
 1883SOL    HW122791   2.113   0.293   1.148
 1883SOL    HW222792   2.052   0.198   1.046
 1884SOL     OW22793   4.019   3.983   2.432
 1884SOL    HW122794   4.092   4.031   2.393
 1884SOL    HW222795   4.053   3.894   2.444
 1885SOL     OW22796   4.496   3.581   0.607
 1885SOL    HW122797   4.442   3.612   0.679
 1885SOL    HW222798   4.477   3.487   0.602
 1886SOL     OW22799   1.674   3.732   0.769
 1886SOL    HW122800   1.759   3.705   0.732
 1886SOL    HW222801   1.649   3.809   0.718
 1887SOL     OW22802   3.693   4.739   0.632
 1887SOL    HW122803   3.774   4.748   0.584
 1887SOL    HW222804   3.709   4.783   0.716
 1888SOL     OW22805   6.264   5.246   6.838
 1888SOL    HW122806   6.256   5.279   6.928
 1888SOL    HW222807   6.186   5.280   6.794
 1889SOL     OW22808   2.033   3.973   7.774
 1889SOL    HW122809   2.009   4.057   7.812
 1889SOL    HW222810   2.030   3.988   7.680
 1890SOL     OW22811   6.156   4.792   7.156
 1890SOL    HW122812   6.140   4.862   7.093
 1890SOL    HW222813   6.088   4.727   7.139
 1891SOL     OW22814   1.973   0.106   0.874
 1891SOL    HW122815   1.906   0.159   0.830
 1891SOL    HW222816   1.923   0.035   0.916
 1892SOL     OW22817   0.952   6.141   6.529
 1892SOL    HW122818   0.974   6.049   6.514
 1892SOL    HW222819   0.984   6.186   6.451
 1893SOL     OW22820   6.425   1.277   6.802
 1893SOL    HW122821   6.330   1.272   6.811
 1893SOL    HW222822   6.459   1.229   6.877
 1894SOL     OW22823   2.868   0.002   0.089
 1894SOL    HW122824   2.874  -0.006   0.184
 1894SOL    HW222825   2.914   0.084   0.069
 1895SOL     OW22826   0.352   2.900   6.596
 1895SOL    HW122827   0.308   2.819   6.621
 1895SOL    HW222828   0.291   2.945   6.538
 1896SOL     OW22829   6.216   4.662   7.786
 1896SOL    HW122830   6.237   4.692   7.875
 1896SOL    HW222831   6.277   4.711   7.730
 1897SOL     OW22832   5.770   2.056   0.700
 1897SOL    HW122833   5.849   2.061   0.646
 1897SOL    HW222834   5.765   1.965   0.727
 1898SOL     OW22835   1.985   4.410   7.058
 1898SOL    HW122836   2.044   4.455   7.118
 1898SOL    HW222837   1.900   4.450   7.074
 1899SOL     OW22838   0.022   5.091   1.795
 1899SOL    HW122839   0.039   5.081   1.889
 1899SOL    HW222840  -0.062   5.049   1.780
 1900SOL     OW22841   4.209   6.101   6.730
 1900SOL    HW122842   4.194   6.192   6.703
 1900SOL    HW222843   4.255   6.109   6.814
 1901SOL     OW22844   1.683   0.118   0.237
 1901SOL    HW122845   1.653   0.167   0.160
 1901SOL    HW222846   1.679   0.181   0.309
 1902SOL     OW22847   1.391   4.686   0.529
 1902SOL    HW122848   1.344   4.618   0.578
 1902SOL    HW222849   1.321   4.740   0.491
 1903SOL     OW22850   1.999   3.007   7.136
 1903SOL    HW122851   1.912   3.043   7.118
 1903SOL    HW222852   1.990   2.913   7.119
 1904SOL     OW22853   3.257   4.533   0.079
 1904SOL    HW122854   3.218   4.538  -0.008
 1904SOL    HW222855   3.290   4.622   0.096
 1905SOL     OW22856   3.005   5.464   1.061
 1905SOL    HW122857   3.052   5.540   1.095
 1905SOL    HW222858   3.069   5.392   1.068
 1906SOL     OW22859   4.055   3.005   1.337
 1906SOL    HW122860   4.073   3.044   1.252
 1906SOL    HW222861   3.962   3.021   1.353
 1907SOL     OW22862   2.398   5.583   0.226
 1907SOL    HW122863   2.446   5.537   0.295
 1907SOL    HW222864   2.446   5.564   0.146
 1908SOL     OW22865   0.349   6.220   6.770
 1908SOL    HW122866   0.347   6.220   6.866
 1908SOL    HW222867   0.415   6.154   6.748
 1909SOL     OW22868   1.942   3.945   6.714
 1909SOL    HW122869   1.940   3.862   6.668
 1909SOL    HW222870   1.878   4.000   6.668
 1910SOL     OW22871   3.280   0.122   7.036
 1910SOL    HW122872   3.340   0.049   7.047
 1910SOL    HW222873   3.227   0.098   6.959
 1911SOL     OW22874   4.040   6.341   7.675
 1911SOL    HW122875   4.056   6.277   7.605
 1911SOL    HW222876   4.006   6.288   7.748
 1912SOL     OW22877   5.470   2.407   7.143
 1912SOL    HW122878   5.560   2.431   7.121
 1912SOL    HW222879   5.421   2.489   7.141
 1913SOL     OW22880   5.034   1.116   0.234
 1913SOL    HW122881   5.041   1.185   0.168
 1913SOL    HW222882   5.024   1.036   0.183
 1914SOL     OW22883   1.467   3.977   1.818
 1914SOL    HW122884   1.385   3.932   1.795
 1914SOL    HW222885   1.471   3.971   1.914
 1915SOL     OW22886   2.410   3.155   6.708
 1915SOL    HW122887   2.443   3.145   6.797
 1915SOL    HW222888   2.463   3.095   6.656
 1916SOL     OW22889   3.455   1.588   0.219
 1916SOL    HW122890   3.534   1.561   0.173
 1916SOL    HW222891   3.447   1.525   0.291
 1917SOL     OW22892   5.175   2.231   7.505
 1917SOL    HW122893   5.125   2.302   7.545
 1917SOL    HW222894   5.186   2.258   7.414
 1918SOL     OW22895   4.778   2.265   0.816
 1918SOL    HW122896   4.695   2.310   0.797
 1918SOL    HW222897   4.841   2.302   0.755
 1919SOL     OW22898   3.915   0.867   1.978
 1919SOL    HW122899   3.968   0.788   1.967
 1919SOL    HW222900   3.891   0.893   1.889
 1920SOL     OW22901   1.684   3.287   1.858
 1920SOL    HW122902   1.776   3.262   1.869
 1920SOL    HW222903   1.644   3.270   1.943
 1921SOL     OW22904   3.531   3.017   7.689
 1921SOL    HW122905   3.526   3.112   7.682
 1921SOL    HW222906   3.443   2.990   7.714
 1922SOL     OW22907   5.555   5.961   7.102
 1922SOL    HW122908   5.516   5.949   7.015
 1922SOL    HW222909   5.645   5.989   7.084
 1923SOL     OW22910   0.819   0.023   0.874
 1923SOL    HW122911   0.846  -0.069   0.874
 1923SOL    HW222912   0.782   0.038   0.787
 1924SOL     OW22913   2.534   1.377   6.259
 1924SOL    HW122914   2.602   1.444   6.251
 1924SOL    HW222915   2.549   1.320   6.183
 1925SOL     OW22916   2.532   5.539   6.785
 1925SOL    HW122917   2.458   5.591   6.818
 1925SOL    HW222918   2.556   5.581   6.703
 1926SOL     OW22919   4.454   4.736   7.344
 1926SOL    HW122920   4.448   4.641   7.355
 1926SOL    HW222921   4.547   4.755   7.355
 1927SOL     OW22922   2.047   6.101   5.806
 1927SOL    HW122923   2.136   6.136   5.809
 1927SOL    HW222924   2.017   6.121   5.717
 1928SOL     OW22925   4.378   1.871   1.082
 1928SOL    HW122926   4.413   1.809   1.146
 1928SOL    HW222927   4.416   1.955   1.108
 1929SOL     OW22928   1.984   1.459   7.091
 1929SOL    HW122929   1.997   1.496   7.004
 1929SOL    HW222930   1.890   1.465   7.106
 1930SOL     OW22931   2.960   0.791   7.530
 1930SOL    HW122932   2.879   0.842   7.531
 1930SOL    HW222933   2.939   0.712   7.579
 1931SOL     OW22934   2.839   6.115   0.814
 1931SOL    HW122935   2.918   6.103   0.867
 1931SOL    HW222936   2.868   6.169   0.741
 1932SOL     OW22937   0.967   3.267   1.658
 1932SOL    HW122938   0.984   3.174   1.643
 1932SOL    HW222939   0.881   3.282   1.618
 1933SOL     OW22940   1.981   4.537   1.493
 1933SOL    HW122941   1.973   4.473   1.422
 1933SOL    HW222942   1.891   4.552   1.522
 1934SOL     OW22943   3.970   6.240   0.138
 1934SOL    HW122944   3.904   6.286   0.190
 1934SOL    HW222945   4.054   6.275   0.168
 1935SOL     OW22946   1.617   3.225   5.666
 1935SOL    HW122947   1.704   3.191   5.688
 1935SOL    HW222948   1.557   3.152   5.685
 1936SOL     OW22949   0.616   4.597   6.760
 1936SOL    HW122950   0.616   4.647   6.841
 1936SOL    HW222951   0.708   4.583   6.740
 1937SOL     OW22952   5.512   5.960   1.755
 1937SOL    HW122953   5.470   6.025   1.699
 1937SOL    HW222954   5.521   6.004   1.840
 1938SOL     OW22955   3.156   4.414   7.253
 1938SOL    HW122956   3.231   4.474   7.255
 1938SOL    HW222957   3.081   4.470   7.235
 1939SOL     OW22958   1.852   1.314   0.602
 1939SOL    HW122959   1.836   1.293   0.510
 1939SOL    HW222960   1.945   1.295   0.616
 1940SOL     OW22961   3.235   1.912   1.117
 1940SOL    HW122962   3.234   1.982   1.052
 1940SOL    HW222963   3.303   1.938   1.179
 1941SOL     OW22964   2.585   3.635   6.669
 1941SOL    HW122965   2.573   3.730   6.677
 1941SOL    HW222966   2.503   3.605   6.629
 1942SOL     OW22967   1.617   1.332   6.219
 1942SOL    HW122968   1.696   1.381   6.196
 1942SOL    HW222969   1.558   1.397   6.258
 1943SOL     OW22970   5.323   3.900   1.009
 1943SOL    HW122971   5.372   3.825   1.044
 1943SOL    HW222972   5.232   3.883   1.036
 1944SOL     OW22973   2.108   2.204   0.763
 1944SOL    HW122974   2.178   2.190   0.827
 1944SOL    HW222975   2.101   2.120   0.717
 1945SOL     OW22976   1.054   5.854   1.724
 1945SOL    HW122977   1.002   5.934   1.712
 1945SOL    HW222978   1.110   5.874   1.799
 1946SOL     OW22979   3.778   5.071   6.197
 1946SOL    HW122980   3.761   5.163   6.177
 1946SOL    HW222981   3.731   5.022   6.130
 1947SOL     OW22982   0.855   5.007   1.248
 1947SOL    HW122983   0.941   5.013   1.206
 1947SOL    HW222984   0.795   5.050   1.186
 1948SOL     OW22985   2.362   2.132   0.925
 1948SOL    HW122986   2.402   2.107   0.841
 1948SOL    HW222987   2.409   2.079   0.990
 1949SOL     OW22988   1.384   2.883   6.521
 1949SOL    HW122989   1.364   2.819   6.453
 1949SOL    HW222990   1.382   2.968   6.477
 1950SOL     OW22991   1.619   4.949   7.772
 1950SOL    HW122992   1.530   4.935   7.741
 1950SOL    HW222993   1.609   4.979   7.863
 1951SOL     OW22994   4.936   3.660   7.407
 1951SOL    HW122995   4.875   3.602   7.453
 1951SOL    HW222996   4.969   3.607   7.334
 1952SOL     OW22997   4.529   2.085   6.513
 1952SOL    HW122998   4.511   2.072   6.419
 1952SOL    HW222999   4.451   2.051   6.557
 1953SOL     OW23000   2.418   4.397   7.583
 1953SOL    HW123001   2.386   4.341   7.653
 1953SOL    HW223002   2.391   4.485   7.608
 1954SOL     OW23003   4.377   5.294   1.413
 1954SOL    HW123004   4.338   5.236   1.478
 1954SOL    HW223005   4.464   5.258   1.396
 1955SOL     OW23006   4.048   0.790   6.350
 1955SOL    HW123007   3.990   0.815   6.422
 1955SOL    HW223008   4.136   0.796   6.387
 1956SOL     OW23009   5.896   6.147   2.076
 1956SOL    HW123010   5.935   6.076   2.025
 1956SOL    HW223011   5.951   6.152   2.155
 1957SOL     OW23012   4.223   0.712   6.765
 1957SOL    HW123013   4.238   0.718   6.671
 1957SOL    HW223014   4.299   0.755   6.805
 1958SOL     OW23015   6.107   5.725   6.967
 1958SOL    HW123016   6.071   5.810   6.940
 1958SOL    HW223017   6.094   5.669   6.890
 1959SOL     OW23018   5.755   6.315   1.605
 1959SOL    HW123019   5.797   6.398   1.579
 1959SOL    HW223020   5.708   6.335   1.685
 1960SOL     OW23021   3.141   4.763   1.729
 1960SOL    HW123022   3.109   4.683   1.770
 1960SOL    HW223023   3.185   4.811   1.799
 1961SOL     OW23024   5.569   5.032   7.372
 1961SOL    HW123025   5.654   4.992   7.353
 1961SOL    HW223026   5.505   4.963   7.355
 1962SOL     OW23027   0.415   2.348   0.701
 1962SOL    HW123028   0.469   2.414   0.743
 1962SOL    HW223029   0.339   2.396   0.667
 1963SOL     OW23030   0.940   2.225   6.713
 1963SOL    HW123031   0.856   2.272   6.712
 1963SOL    HW223032   0.972   2.234   6.803
 1964SOL     OW23033   1.339   5.284   0.665
 1964SOL    HW123034   1.317   5.359   0.609
 1964SOL    HW223035   1.308   5.208   0.616
 1965SOL     OW23036   1.180   3.380   1.588
 1965SOL    HW123037   1.115   3.313   1.609
 1965SOL    HW223038   1.132   3.445   1.537
 1966SOL     OW23039   0.255   5.651   1.386
 1966SOL    HW123040   0.261   5.680   1.477
 1966SOL    HW223041   0.184   5.588   1.386
 1967SOL     OW23042   3.295   4.118   6.734
 1967SOL    HW123043   3.266   4.142   6.822
 1967SOL    HW223044   3.241   4.171   6.675
 1968SOL     OW23045   3.047   6.370   0.859
 1968SOL    HW123046   3.076   6.292   0.907
 1968SOL    HW223047   3.125   6.427   0.858
 1969SOL     OW23048   2.526   1.345   1.684
 1969SOL    HW123049   2.430   1.336   1.683
 1969SOL    HW223050   2.545   1.402   1.610
 1970SOL     OW23051   4.751   0.461   1.189
 1970SOL    HW123052   4.846   0.466   1.185
 1970SOL    HW223053   4.720   0.537   1.140
 1971SOL     OW23054   3.619   6.196   7.357
 1971SOL    HW123055   3.576   6.143   7.424
 1971SOL    HW223056   3.554   6.262   7.332
 1972SOL     OW23057   1.352   2.594   6.114
 1972SOL    HW123058   1.431   2.549   6.085
 1972SOL    HW223059   1.314   2.630   6.034
 1973SOL     OW23060   1.295   3.249   7.203
 1973SOL    HW123061   1.201   3.240   7.187
 1973SOL    HW223062   1.313   3.194   7.279
 1974SOL     OW23063   3.721   0.615   0.573
 1974SOL    HW123064   3.655   0.571   0.627
 1974SOL    HW223065   3.694   0.599   0.483
 1975SOL     OW23066   2.903   1.917   6.227
 1975SOL    HW123067   2.901   1.872   6.142
 1975SOL    HW223068   2.975   1.874   6.274
 1976SOL     OW23069   1.124   1.435   6.476
 1976SOL    HW123070   1.085   1.486   6.405
 1976SOL    HW223071   1.191   1.493   6.512
 1977SOL     OW23072   5.715   3.192   1.318
 1977SOL    HW123073   5.636   3.164   1.364
 1977SOL    HW223074   5.756   3.110   1.288
 1978SOL     OW23075   4.620   4.364   7.220
 1978SOL    HW123076   4.543   4.421   7.214
 1978SOL    HW223077   4.618   4.312   7.139
 1979SOL     OW23078   2.442   6.224   1.257
 1979SOL    HW123079   2.401   6.145   1.291
 1979SOL    HW223080   2.390   6.248   1.181
 1980SOL     OW23081   4.272   1.980   6.990
 1980SOL    HW123082   4.281   1.901   7.043
 1980SOL    HW223083   4.313   1.958   6.906
 1981SOL     OW23084   4.938   5.978   0.744
 1981SOL    HW123085   4.892   6.050   0.700
 1981SOL    HW223086   4.881   5.957   0.818
 1982SOL     OW23087   4.734   2.749   0.212
 1982SOL    HW123088   4.712   2.824   0.158
 1982SOL    HW223089   4.694   2.674   0.167
 1983SOL     OW23090   2.272   4.246   7.807
 1983SOL    HW123091   2.305   4.244   7.897
 1983SOL    HW223092   2.181   4.275   7.815
 1984SOL     OW23093   6.070   2.609   1.373
 1984SOL    HW123094   6.064   2.703   1.387
 1984SOL    HW223095   6.161   2.594   1.347
 1985SOL     OW23096   2.393   0.170   7.158
 1985SOL    HW123097   2.396   0.265   7.159
 1985SOL    HW223098   2.461   0.145   7.094
 1986SOL     OW23099   1.202   4.610   0.166
 1986SOL    HW123100   1.178   4.529   0.121
 1986SOL    HW223101   1.138   4.675   0.134
 1987SOL     OW23102   2.421   0.459   7.127
 1987SOL    HW123103   2.374   0.533   7.087
 1987SOL    HW223104   2.513   0.478   7.112
 1988SOL     OW23105   4.035   3.631   0.713
 1988SOL    HW123106   4.036   3.536   0.714
 1988SOL    HW223107   4.127   3.656   0.699
 1989SOL     OW23108   2.111   6.409   6.602
 1989SOL    HW123109   2.022   6.393   6.633
 1989SOL    HW223110   2.129   6.500   6.627
 1990SOL     OW23111   0.002   0.301   6.330
 1990SOL    HW123112   0.024   0.278   6.240
 1990SOL    HW223113   0.085   0.297   6.377
 1991SOL     OW23114   5.254   1.285   6.386
 1991SOL    HW123115   5.194   1.212   6.400
 1991SOL    HW223116   5.341   1.246   6.389
 1992SOL     OW23117   0.456   4.006   0.305
 1992SOL    HW123118   0.496   4.083   0.348
 1992SOL    HW223119   0.429   3.950   0.378
 1993SOL     OW23120   3.653   6.335   6.276
 1993SOL    HW123121   3.740   6.326   6.237
 1993SOL    HW223122   3.600   6.269   6.230
 1994SOL     OW23123   2.627   3.356   6.907
 1994SOL    HW123124   2.649   3.432   6.852
 1994SOL    HW223125   2.711   3.326   6.940
 1995SOL     OW23126   4.280   2.389   0.697
 1995SOL    HW123127   4.316   2.305   0.726
 1995SOL    HW223128   4.357   2.439   0.669
 1996SOL     OW23129   4.488   0.804   1.960
 1996SOL    HW123130   4.535   0.778   2.039
 1996SOL    HW223131   4.396   0.783   1.979
 1997SOL     OW23132   2.244   3.064   7.316
 1997SOL    HW123133   2.179   3.049   7.248
 1997SOL    HW223134   2.328   3.064   7.270
 1998SOL     OW23135   3.205   3.844   7.022
 1998SOL    HW123136   3.217   3.840   6.927
 1998SOL    HW223137   3.280   3.893   7.054
 1999SOL     OW23138   1.999   6.327   1.198
 1999SOL    HW123139   2.079   6.332   1.147
 1999SOL    HW223140   1.955   6.248   1.167
 2000SOL     OW23141   3.614   3.733   7.250
 2000SOL    HW123142   3.622   3.672   7.324
 2000SOL    HW223143   3.592   3.677   7.176
 2001SOL     OW23144   1.720   3.389   6.085
 2001SOL    HW123145   1.777   3.462   6.109
 2001SOL    HW223146   1.716   3.392   5.990
 2002SOL     OW23147   2.846   0.940   6.862
 2002SOL    HW123148   2.897   0.942   6.943
 2002SOL    HW223149   2.825   1.031   6.844
 2003SOL     OW23150   0.768   3.678   7.283
 2003SOL    HW123151   0.680   3.688   7.247
 2003SOL    HW223152   0.773   3.740   7.355
 2004SOL     OW23153   5.013   1.107   7.068
 2004SOL    HW123154   4.926   1.144   7.053
 2004SOL    HW223155   5.072   1.183   7.067
 2005SOL     OW23156   6.224   3.485   6.792
 2005SOL    HW123157   6.234   3.406   6.739
 2005SOL    HW223158   6.132   3.511   6.780
 2006SOL     OW23159   5.090   1.401   0.845
 2006SOL    HW123160   5.129   1.374   0.762
 2006SOL    HW223161   5.123   1.339   0.909
 2007SOL     OW23162   1.718   2.820   6.722
 2007SOL    HW123163   1.749   2.899   6.679
 2007SOL    HW223164   1.623   2.824   6.714
 2008SOL     OW23165   4.263   5.102   0.040
 2008SOL    HW123166   4.288   5.116   0.132
 2008SOL    HW223167   4.169   5.083   0.044
 2009SOL     OW23168   0.129   3.478   0.804
 2009SOL    HW123169   0.045   3.523   0.807
 2009SOL    HW223170   0.173   3.513   0.726
 2010SOL     OW23171   3.611   4.913   0.848
 2010SOL    HW123172   3.626   4.887   0.939
 2010SOL    HW223173   3.516   4.918   0.839
 2011SOL     OW23174   5.513   6.149   7.317
 2011SOL    HW123175   5.482   6.123   7.403
 2011SOL    HW223176   5.504   6.071   7.263
 2012SOL     OW23177   1.536   6.191   5.245
 2012SOL    HW123178   1.522   6.279   5.211
 2012SOL    HW223179   1.620   6.196   5.292
 2013SOL     OW23180   4.396   4.747   6.174
 2013SOL    HW123181   4.356   4.746   6.087
 2013SOL    HW223182   4.323   4.763   6.234
 2014SOL     OW23183   3.057   5.035   6.445
 2014SOL    HW123184   3.019   5.034   6.357
 2014SOL    HW223185   3.053   5.127   6.472
 2015SOL     OW23186   4.167   0.458   0.331
 2015SOL    HW123187   4.258   0.457   0.362
 2015SOL    HW223188   4.120   0.404   0.394
 2016SOL     OW23189   5.309   1.326   6.019
 2016SOL    HW123190   5.361   1.357   5.944
 2016SOL    HW223191   5.289   1.405   6.069
 2017SOL     OW23192   0.901   3.842   7.124
 2017SOL    HW123193   0.857   3.761   7.149
 2017SOL    HW223194   0.855   3.910   7.172
 2018SOL     OW23195   0.365   4.333   6.461
 2018SOL    HW123196   0.280   4.294   6.482
 2018SOL    HW223197   0.425   4.259   6.457
 2019SOL     OW23198   6.043   1.650   1.470
 2019SOL    HW123199   6.009   1.561   1.460
 2019SOL    HW223200   6.024   1.693   1.387
 2020SOL     OW23201   4.973   3.028   7.694
 2020SOL    HW123202   4.960   3.078   7.614
 2020SOL    HW223203   4.897   3.050   7.749
 2021SOL     OW23204   2.406   5.967   1.413
 2021SOL    HW123205   2.431   6.020   1.489
 2021SOL    HW223206   2.372   5.886   1.451
 2022SOL     OW23207   2.659   2.651   6.890
 2022SOL    HW123208   2.574   2.626   6.854
 2022SOL    HW223209   2.715   2.575   6.874
 2023SOL     OW23210   5.907   4.228   0.559
 2023SOL    HW123211   5.923   4.151   0.613
 2023SOL    HW223212   5.896   4.193   0.470
 2024SOL     OW23213   1.367   5.032   1.623
 2024SOL    HW123214   1.379   4.978   1.700
 2024SOL    HW223215   1.273   5.028   1.605
 2025SOL     OW23216   6.069   0.960   7.065
 2025SOL    HW123217   6.152   0.971   7.020
 2025SOL    HW223218   6.080   1.009   7.147
 2026SOL     OW23219   3.444   0.027   0.651
 2026SOL    HW123220   3.438   0.039   0.556
 2026SOL    HW223221   3.539   0.026   0.668
 2027SOL     OW23222   4.851   0.847   1.612
 2027SOL    HW123223   4.795   0.825   1.537
 2027SOL    HW223224   4.790   0.881   1.678
 2028SOL     OW23225   4.741   6.074   7.634
 2028SOL    HW123226   4.687   6.050   7.559
 2028SOL    HW223227   4.776   6.160   7.613
 2029SOL     OW23228   0.685   2.771   6.799
 2029SOL    HW123229   0.615   2.718   6.836
 2029SOL    HW223230   0.735   2.710   6.745
 2030SOL     OW23231   3.088   6.295   7.080
 2030SOL    HW123232   3.059   6.386   7.070
 2030SOL    HW223233   3.036   6.246   7.016
 2031SOL     OW23234   2.800   1.560   5.896
 2031SOL    HW123235   2.879   1.571   5.842
 2031SOL    HW223236   2.807   1.471   5.930
 2032SOL     OW23237   0.018   1.619   1.596
 2032SOL    HW123238   0.035   1.564   1.520
 2032SOL    HW223239   0.005   1.556   1.668
 2033SOL     OW23240   5.128   6.308   1.141
 2033SOL    HW123241   5.134   6.212   1.136
 2033SOL    HW223242   5.201   6.340   1.088
 2034SOL     OW23243   4.184   0.372   5.437
 2034SOL    HW123244   4.226   0.286   5.444
 2034SOL    HW223245   4.221   0.410   5.357
 2035SOL     OW23246   6.167   6.225   1.848
 2035SOL    HW123247   6.101   6.163   1.878
 2035SOL    HW223248   6.242   6.210   1.906
 2036SOL     OW23249   4.091   2.538   5.621
 2036SOL    HW123250   3.995   2.534   5.624
 2036SOL    HW223251   4.113   2.502   5.534
 2037SOL     OW23252   0.775   5.245   0.653
 2037SOL    HW123253   0.779   5.158   0.694
 2037SOL    HW223254   0.696   5.284   0.688
 2038SOL     OW23255   2.968   4.879   5.680
 2038SOL    HW123256   2.980   4.806   5.741
 2038SOL    HW223257   2.876   4.874   5.654
 2039SOL     OW23258   0.195   6.298   7.595
 2039SOL    HW123259   0.113   6.253   7.570
 2039SOL    HW223260   0.203   6.282   7.689
 2040SOL     OW23261   4.313   2.535   0.190
 2040SOL    HW123262   4.357   2.585   0.259
 2040SOL    HW223263   4.234   2.586   0.171
 2041SOL     OW23264   5.831   0.112   5.876
 2041SOL    HW123265   5.787   0.032   5.846
 2041SOL    HW223266   5.892   0.082   5.943
 2042SOL     OW23267   4.848   5.690   7.207
 2042SOL    HW123268   4.926   5.676   7.260
 2042SOL    HW223269   4.779   5.639   7.250
 2043SOL     OW23270   5.511   5.428   1.494
 2043SOL    HW123271   5.567   5.486   1.545
 2043SOL    HW223272   5.425   5.435   1.535
 2044SOL     OW23273   3.091   2.816   6.494
 2044SOL    HW123274   3.060   2.736   6.536
 2044SOL    HW223275   3.177   2.794   6.458
 2045SOL     OW23276   2.081   4.125   1.552
 2045SOL    HW123277   2.170   4.154   1.572
 2045SOL    HW223278   2.087   4.030   1.546
 2046SOL     OW23279   1.122   2.482   0.508
 2046SOL    HW123280   1.123   2.577   0.503
 2046SOL    HW223281   1.172   2.461   0.586
 2047SOL     OW23282   3.003   3.400   1.578
 2047SOL    HW123283   2.964   3.314   1.591
 2047SOL    HW223284   2.999   3.442   1.664
 2048SOL     OW23285   0.630   0.733   2.012
 2048SOL    HW123286   0.603   0.769   2.096
 2048SOL    HW223287   0.644   0.640   2.028
 2049SOL     OW23288   5.114   3.221   0.234
 2049SOL    HW123289   5.202   3.219   0.197
 2049SOL    HW223290   5.087   3.312   0.227
 2050SOL     OW23291   4.070   5.056   6.453
 2050SOL    HW123292   4.036   5.145   6.462
 2050SOL    HW223293   4.128   5.045   6.528
 2051SOL     OW23294   1.591   2.317   5.629
 2051SOL    HW123295   1.593   2.360   5.543
 2051SOL    HW223296   1.576   2.388   5.691
 2052SOL     OW23297   3.183   6.431   0.296
 2052SOL    HW123298   3.127   6.380   0.355
 2052SOL    HW223299   3.257   6.457   0.350
 2053SOL     OW23300   3.085   3.079   7.235
 2053SOL    HW123301   3.023   3.150   7.215
 2053SOL    HW223302   3.045   3.033   7.309
 2054SOL     OW23303   4.910   1.458   7.647
 2054SOL    HW123304   4.848   1.449   7.575
 2054SOL    HW223305   4.863   1.509   7.713
 2055SOL     OW23306   5.916   1.233   6.977
 2055SOL    HW123307   5.856   1.168   7.013
 2055SOL    HW223308   5.866   1.314   6.975
 2056SOL     OW23309   0.962   4.132   1.162
 2056SOL    HW123310   0.981   4.225   1.174
 2056SOL    HW223311   0.910   4.108   1.240
 2057SOL     OW23312   3.328   0.855   0.420
 2057SOL    HW123313   3.375   0.808   0.351
 2057SOL    HW223314   3.253   0.895   0.375
 2058SOL     OW23315   0.957   1.219   7.711
 2058SOL    HW123316   0.976   1.301   7.758
 2058SOL    HW223317   0.926   1.248   7.625
 2059SOL     OW23318   4.384   1.086   2.144
 2059SOL    HW123319   4.294   1.087   2.176
 2059SOL    HW223320   4.390   1.007   2.090
 2060SOL     OW23321   2.729   5.149   7.807
 2060SOL    HW123322   2.743   5.228   7.859
 2060SOL    HW223323   2.739   5.178   7.716
 2061SOL     OW23324   0.071   0.801   0.594
 2061SOL    HW123325   0.084   0.707   0.584
 2061SOL    HW223326   0.148   0.831   0.642
 2062SOL     OW23327   2.413   1.891   0.060
 2062SOL    HW123328   2.403   1.949  -0.016
 2062SOL    HW223329   2.507   1.888   0.076
 2063SOL     OW23330   6.355   3.368   6.537
 2063SOL    HW123331   6.338   3.442   6.479
 2063SOL    HW223332   6.344   3.291   6.482
 2064SOL     OW23333   3.488   3.941   1.687
 2064SOL    HW123334   3.543   4.004   1.734
 2064SOL    HW223335   3.403   3.984   1.678
 2065SOL     OW23336   3.831   2.393   1.627
 2065SOL    HW123337   3.867   2.305   1.613
 2065SOL    HW223338   3.894   2.452   1.585
 2066SOL     OW23339   1.541   6.103   6.030
 2066SOL    HW123340   1.475   6.072   5.967
 2066SOL    HW223341   1.612   6.137   5.975
 2067SOL     OW23342   2.711   1.740   1.175
 2067SOL    HW123343   2.764   1.683   1.231
 2067SOL    HW223344   2.738   1.829   1.199
 2068SOL     OW23345   4.444   2.439   7.057
 2068SOL    HW123346   4.471   2.476   7.141
 2068SOL    HW223347   4.374   2.378   7.079
 2069SOL     OW23348   3.318   0.450   6.423
 2069SOL    HW123349   3.368   0.406   6.492
 2069SOL    HW223350   3.384   0.476   6.359
 2070SOL     OW23351   3.884   2.338   6.440
 2070SOL    HW123352   3.968   2.384   6.430
 2070SOL    HW223353   3.821   2.391   6.392
 2071SOL     OW23354   4.315   0.033   0.540
 2071SOL    HW123355   4.342  -0.016   0.618
 2071SOL    HW223356   4.224   0.058   0.558
 2072SOL     OW23357   1.369   1.511   7.165
 2072SOL    HW123358   1.355   1.527   7.072
 2072SOL    HW223359   1.299   1.561   7.209
 2073SOL     OW23360   6.374   6.074   5.515
 2073SOL    HW123361   6.375   5.984   5.548
 2073SOL    HW223362   6.361   6.128   5.593
 2074SOL     OW23363   5.619   3.019   5.870
 2074SOL    HW123364   5.645   2.995   5.781
 2074SOL    HW223365   5.526   3.038   5.864
 2075SOL     OW23366   3.770   5.744   7.765
 2075SOL    HW123367   3.694   5.763   7.710
 2075SOL    HW223368   3.816   5.828   7.772
 2076SOL     OW23369   1.266   2.203   5.720
 2076SOL    HW123370   1.204   2.215   5.649
 2076SOL    HW223371   1.269   2.287   5.765
 2077SOL     OW23372   2.153   4.684   1.317
 2077SOL    HW123373   2.106   4.646   1.391
 2077SOL    HW223374   2.204   4.612   1.281
 2078SOL     OW23375   0.623   2.149   7.108
 2078SOL    HW123376   0.585   2.235   7.127
 2078SOL    HW223377   0.625   2.104   7.192
 2079SOL     OW23378   0.481   4.138   6.952
 2079SOL    HW123379   0.572   4.108   6.953
 2079SOL    HW223380   0.431   4.064   6.988
 2080SOL     OW23381   6.412   2.777   0.597
 2080SOL    HW123382   6.362   2.852   0.565
 2080SOL    HW223383   6.364   2.748   0.675
 2081SOL     OW23384   3.464   6.369   7.738
 2081SOL    HW123385   3.492   6.297   7.681
 2081SOL    HW223386   3.417   6.428   7.679
 2082SOL     OW23387   3.376   1.552   7.642
 2082SOL    HW123388   3.401   1.501   7.565
 2082SOL    HW223389   3.379   1.488   7.714
 2083SOL     OW23390   0.362   2.666   0.135
 2083SOL    HW123391   0.364   2.642   0.227
 2083SOL    HW223392   0.426   2.737   0.127
 2084SOL     OW23393   5.989   5.700   0.111
 2084SOL    HW123394   5.987   5.773   0.048
 2084SOL    HW223395   5.952   5.737   0.191
 2085SOL     OW23396   3.573   3.871   0.283
 2085SOL    HW123397   3.521   3.951   0.294
 2085SOL    HW223398   3.650   3.885   0.338
 2086SOL     OW23399   1.920   2.321   0.624
 2086SOL    HW123400   1.874   2.378   0.686
 2086SOL    HW223401   1.991   2.283   0.676
 2087SOL     OW23402   6.133   2.387   7.411
 2087SOL    HW123403   6.092   2.372   7.496
 2087SOL    HW223404   6.174   2.303   7.389
 2088SOL     OW23405   0.646   1.385   1.227
 2088SOL    HW123406   0.576   1.366   1.290
 2088SOL    HW223407   0.671   1.475   1.246
 2089SOL     OW23408   4.159   2.755   0.570
 2089SOL    HW123409   4.110   2.739   0.490
 2089SOL    HW223410   4.115   2.701   0.636
 2090SOL     OW23411   0.590   1.183   2.034
 2090SOL    HW123412   0.651   1.220   1.971
 2090SOL    HW223413   0.508   1.231   2.018
 2091SOL     OW23414   2.645   5.136   0.903
 2091SOL    HW123415   2.722   5.087   0.874
 2091SOL    HW223416   2.572   5.099   0.851
 2092SOL     OW23417   5.093   1.632   1.186
 2092SOL    HW123418   5.015   1.605   1.137
 2092SOL    HW223419   5.104   1.725   1.165
 2093SOL     OW23420   4.465   1.737   7.612
 2093SOL    HW123421   4.487   1.660   7.559
 2093SOL    HW223422   4.547   1.761   7.655
 2094SOL     OW23423   1.064   5.235   1.204
 2094SOL    HW123424   1.110   5.221   1.121
 2094SOL    HW223425   1.118   5.189   1.268
 2095SOL     OW23426   6.137   1.309   7.753
 2095SOL    HW123427   6.140   1.214   7.767
 2095SOL    HW223428   6.200   1.344   7.815
 2096SOL     OW23429   3.732   0.985   0.402
 2096SOL    HW123430   3.794   1.045   0.360
 2096SOL    HW223431   3.667   1.043   0.442
 2097SOL     OW23432   3.384   0.638   7.513
 2097SOL    HW123433   3.366   0.688   7.593
 2097SOL    HW223434   3.372   0.547   7.539
 2098SOL     OW23435   5.184   2.462   6.213
 2098SOL    HW123436   5.153   2.442   6.125
 2098SOL    HW223437   5.104   2.468   6.266
 2099SOL     OW23438   2.116   6.244   6.343
 2099SOL    HW123439   2.150   6.265   6.256
 2099SOL    HW223440   2.116   6.328   6.390
 2100SOL     OW23441   5.438   1.223   1.825
 2100SOL    HW123442   5.371   1.155   1.839
 2100SOL    HW223443   5.521   1.179   1.845
 2101SOL     OW23444   3.283   3.555   1.651
 2101SOL    HW123445   3.201   3.529   1.693
 2101SOL    HW223446   3.260   3.630   1.597
 2102SOL     OW23447   4.480   1.719   0.640
 2102SOL    HW123448   4.452   1.676   0.559
 2102SOL    HW223449   4.576   1.719   0.635
 2103SOL     OW23450   2.600   1.771   0.897
 2103SOL    HW123451   2.683   1.795   0.856
 2103SOL    HW223452   2.597   1.822   0.978
 2104SOL     OW23453   6.189   5.764   7.237
 2104SOL    HW123454   6.198   5.680   7.282
 2104SOL    HW223455   6.167   5.741   7.147
 2105SOL     OW23456   0.498   0.555   7.307
 2105SOL    HW123457   0.582   0.591   7.337
 2105SOL    HW223458   0.437   0.628   7.314
 2106SOL     OW23459   0.247   1.894   7.186
 2106SOL    HW123460   0.195   1.822   7.152
 2106SOL    HW223461   0.229   1.967   7.127
 2107SOL     OW23462   5.442   0.309   0.725
 2107SOL    HW123463   5.395   0.333   0.805
 2107SOL    HW223464   5.528   0.350   0.735
 2108SOL     OW23465   3.826   0.361   0.949
 2108SOL    HW123466   3.847   0.429   1.012
 2108SOL    HW223467   3.731   0.363   0.941
 2109SOL     OW23468   2.908   1.590   0.167
 2109SOL    HW123469   2.988   1.619   0.211
 2109SOL    HW223470   2.933   1.508   0.124
 2110SOL     OW23471   1.550   4.565   6.989
 2110SOL    HW123472   1.527   4.557   6.897
 2110SOL    HW223473   1.628   4.622   6.989
 2111SOL     OW23474   5.140   3.489   1.272
 2111SOL    HW123475   5.194   3.410   1.281
 2111SOL    HW223476   5.063   3.471   1.326
 2112SOL     OW23477   1.871   0.791   0.537
 2112SOL    HW123478   1.901   0.862   0.595
 2112SOL    HW223479   1.913   0.809   0.454
 2113SOL     OW23480   1.962   5.587   7.125
 2113SOL    HW123481   1.921   5.512   7.169
 2113SOL    HW223482   1.916   5.593   7.041
 2114SOL     OW23483   5.514   1.223   7.379
 2114SOL    HW123484   5.498   1.268   7.462
 2114SOL    HW223485   5.559   1.289   7.325
 2115SOL     OW23486   1.227   0.694   5.867
 2115SOL    HW123487   1.156   0.638   5.837
 2115SOL    HW223488   1.190   0.783   5.867
 2116SOL     OW23489   5.783   4.828   1.093
 2116SOL    HW123490   5.828   4.761   1.145
 2116SOL    HW223491   5.690   4.804   1.098
 2117SOL     OW23492   0.290   4.683   6.220
 2117SOL    HW123493   0.259   4.691   6.130
 2117SOL    HW223494   0.214   4.653   6.269
 2118SOL     OW23495   6.344   6.347   1.420
 2118SOL    HW123496   6.427   6.317   1.382
 2118SOL    HW223497   6.368   6.380   1.506
 2119SOL     OW23498   6.412   4.165   1.209
 2119SOL    HW123499   6.319   4.158   1.190
 2119SOL    HW223500   6.443   4.074   1.211
 2120SOL     OW23501   0.638   2.206   0.674
 2120SOL    HW123502   0.559   2.247   0.709
 2120SOL    HW223503   0.708   2.237   0.731
 2121SOL     OW23504   1.593   4.200   1.393
 2121SOL    HW123505   1.531   4.232   1.458
 2121SOL    HW223506   1.679   4.210   1.436
 2122SOL     OW23507   1.540   2.100   7.775
 2122SOL    HW123508   1.602   2.165   7.808
 2122SOL    HW223509   1.527   2.123   7.683
 2123SOL     OW23510   0.779   5.175   1.595
 2123SOL    HW123511   0.701   5.148   1.643
 2123SOL    HW223512   0.781   5.118   1.518
 2124SOL     OW23513   3.115   0.269   7.321
 2124SOL    HW123514   3.142   0.349   7.276
 2124SOL    HW223515   3.123   0.201   7.254
 2125SOL     OW23516   4.008   4.372   0.266
 2125SOL    HW123517   4.079   4.418   0.220
 2125SOL    HW223518   4.010   4.407   0.355
 2126SOL     OW23519   5.803   5.322   1.812
 2126SOL    HW123520   5.722   5.373   1.805
 2126SOL    HW223521   5.776   5.243   1.859
 2127SOL     OW23522   5.494   0.594   7.486
 2127SOL    HW123523   5.540   0.510   7.491
 2127SOL    HW223524   5.410   0.578   7.527
 2128SOL     OW23525   4.561   0.090   7.697
 2128SOL    HW123526   4.627   0.044   7.749
 2128SOL    HW223527   4.478   0.064   7.735
 2129SOL     OW23528   5.091   5.442   7.014
 2129SOL    HW123529   5.014   5.406   7.058
 2129SOL    HW223530   5.133   5.366   6.974
 2130SOL     OW23531   5.904   5.691   1.469
 2130SOL    HW123532   5.864   5.768   1.510
 2130SOL    HW223533   5.861   5.685   1.383
 2131SOL     OW23534   4.698   0.035   7.093
 2131SOL    HW123535   4.711   0.124   7.060
 2131SOL    HW223536   4.777  -0.012   7.066
 2132SOL     OW23537   2.086   3.056   0.875
 2132SOL    HW123538   2.176   3.069   0.905
 2132SOL    HW223539   2.075   2.961   0.871
 2133SOL     OW23540   0.746   1.295   0.776
 2133SOL    HW123541   0.753   1.253   0.862
 2133SOL    HW223542   0.662   1.340   0.778
 2134SOL     OW23543   6.445   1.415   1.782
 2134SOL    HW123544   6.510   1.356   1.744
 2134SOL    HW223545   6.365   1.362   1.788
 2135SOL     OW23546   2.288   0.885   1.469
 2135SOL    HW123547   2.288   0.981   1.461
 2135SOL    HW223548   2.197   0.860   1.455
 2136SOL     OW23549   1.336   0.773   6.553
 2136SOL    HW123550   1.260   0.726   6.520
 2136SOL    HW223551   1.411   0.727   6.515
 2137SOL     OW23552   0.326   3.860   0.549
 2137SOL    HW123553   0.240   3.901   0.541
 2137SOL    HW223554   0.370   3.908   0.619
 2138SOL     OW23555   5.156   6.439   0.045
 2138SOL    HW123556   5.250   6.444   0.066
 2138SOL    HW223557   5.151   6.380  -0.029
 2139SOL     OW23558   1.713   3.374   0.064
 2139SOL    HW123559   1.720   3.396  -0.029
 2139SOL    HW223560   1.799   3.393   0.100
 2140SOL     OW23561   4.635   2.798   1.431
 2140SOL    HW123562   4.595   2.881   1.403
 2140SOL    HW223563   4.561   2.737   1.437
 2141SOL     OW23564   4.880   2.849   1.319
 2141SOL    HW123565   4.891   2.760   1.286
 2141SOL    HW223566   4.814   2.841   1.387
 2142SOL     OW23567   5.789   4.313   7.553
 2142SOL    HW123568   5.734   4.241   7.522
 2142SOL    HW223569   5.735   4.358   7.619
 2143SOL     OW23570   0.531   5.852   5.821
 2143SOL    HW123571   0.483   5.922   5.865
 2143SOL    HW223572   0.464   5.800   5.778
 2144SOL     OW23573   2.343   2.721   2.525
 2144SOL    HW123574   2.414   2.738   2.586
 2144SOL    HW223575   2.276   2.787   2.546
 2145SOL     OW23576   3.386   3.542   0.477
 2145SOL    HW123577   3.316   3.479   0.493
 2145SOL    HW223578   3.447   3.529   0.549
 2146SOL     OW23579   0.849   1.326   1.546
 2146SOL    HW123580   0.867   1.297   1.456
 2146SOL    HW223581   0.769   1.279   1.571
 2147SOL     OW23582   1.720   2.756   1.775
 2147SOL    HW123583   1.725   2.758   1.679
 2147SOL    HW223584   1.635   2.716   1.793
 2148SOL     OW23585   2.797   1.361   7.314
 2148SOL    HW123586   2.725   1.312   7.354
 2148SOL    HW223587   2.773   1.453   7.325
 2149SOL     OW23588   0.496   2.914   7.814
 2149SOL    HW123589   0.589   2.893   7.823
 2149SOL    HW223590   0.466   2.861   7.740
 2150SOL     OW23591   2.164   3.209   6.796
 2150SOL    HW123592   2.167   3.215   6.892
 2150SOL    HW223593   2.253   3.188   6.770
 2151SOL     OW23594   2.465   2.800   6.326
 2151SOL    HW123595   2.383   2.757   6.349
 2151SOL    HW223596   2.533   2.741   6.357
 2152SOL     OW23597   5.903   6.192   0.337
 2152SOL    HW123598   5.884   6.194   0.431
 2152SOL    HW223599   5.989   6.235   0.330
 2153SOL     OW23600   3.974   5.106   1.174
 2153SOL    HW123601   3.944   5.128   1.086
 2153SOL    HW223602   4.060   5.147   1.181
 2154SOL     OW23603   0.635   2.302   6.710
 2154SOL    HW123604   0.617   2.243   6.637
 2154SOL    HW223605   0.569   2.279   6.776
 2155SOL     OW23606   5.685   1.043   5.994
 2155SOL    HW123607   5.683   1.137   6.013
 2155SOL    HW223608   5.688   1.038   5.899
 2156SOL     OW23609   0.781   0.435   6.050
 2156SOL    HW123610   0.802   0.342   6.055
 2156SOL    HW223611   0.817   0.464   5.967
 2157SOL     OW23612   0.733   5.593   1.219
 2157SOL    HW123613   0.716   5.584   1.312
 2157SOL    HW223614   0.676   5.665   1.190
 2158SOL     OW23615   2.806   5.900   0.645
 2158SOL    HW123616   2.809   5.965   0.716
 2158SOL    HW223617   2.895   5.898   0.611
 2159SOL     OW23618   3.871   3.478   1.498
 2159SOL    HW123619   3.786   3.518   1.483
 2159SOL    HW223620   3.899   3.512   1.584
 2160SOL     OW23621   4.327   4.206   0.991
 2160SOL    HW123622   4.257   4.198   0.926
 2160SOL    HW223623   4.355   4.116   1.008
 2161SOL     OW23624   4.346   5.130   6.962
 2161SOL    HW123625   4.323   5.217   6.994
 2161SOL    HW223626   4.322   5.071   7.033
 2162SOL     OW23627   5.807   5.522   7.712
 2162SOL    HW123628   5.813   5.486   7.623
 2162SOL    HW223629   5.888   5.496   7.755
 2163SOL     OW23630   2.292   6.155   7.412
 2163SOL    HW123631   2.301   6.061   7.400
 2163SOL    HW223632   2.332   6.172   7.498
 2164SOL     OW23633   3.399   4.212   6.424
 2164SOL    HW123634   3.481   4.165   6.440
 2164SOL    HW223635   3.375   4.247   6.510
 2165SOL     OW23636   5.191   3.817   5.662
 2165SOL    HW123637   5.148   3.747   5.613
 2165SOL    HW223638   5.284   3.809   5.637
 2166SOL     OW23639   2.423   3.198   7.687
 2166SOL    HW123640   2.384   3.192   7.774
 2166SOL    HW223641   2.356   3.239   7.632
 2167SOL     OW23642   0.795   2.136   6.421
 2167SOL    HW123643   0.877   2.103   6.459
 2167SOL    HW223644   0.820   2.164   6.333
 2168SOL     OW23645   0.834   0.645   0.022
 2168SOL    HW123646   0.809   0.707   0.091
 2168SOL    HW223647   0.918   0.680  -0.012
 2169SOL     OW23648   4.718   0.056   0.116
 2169SOL    HW123649   4.696   0.146   0.139
 2169SOL    HW223650   4.679   0.003   0.186
 2170SOL     OW23651   4.746   2.410   0.174
 2170SOL    HW123652   4.791   2.400   0.090
 2170SOL    HW223653   4.658   2.377   0.157
 2171SOL     OW23654   0.674   6.235   7.572
 2171SOL    HW123655   0.768   6.225   7.584
 2171SOL    HW223656   0.654   6.320   7.611
 2172SOL     OW23657   4.113   1.370   7.626
 2172SOL    HW123658   4.083   1.388   7.715
 2172SOL    HW223659   4.033   1.367   7.574
 2173SOL     OW23660   2.487   3.599   2.490
 2173SOL    HW123661   2.400   3.566   2.470
 2173SOL    HW223662   2.483   3.622   2.583
 2174SOL     OW23663   4.460   3.349   1.360
 2174SOL    HW123664   4.552   3.375   1.354
 2174SOL    HW223665   4.458   3.285   1.431
 2175SOL     OW23666   0.453   1.487   7.064
 2175SOL    HW123667   0.407   1.555   7.015
 2175SOL    HW223668   0.508   1.443   7.000
 2176SOL     OW23669   0.731   0.427   0.855
 2176SOL    HW123670   0.657   0.474   0.893
 2176SOL    HW223671   0.777   0.389   0.929
 2177SOL     OW23672   5.426   3.615   6.970
 2177SOL    HW123673   5.501   3.608   7.030
 2177SOL    HW223674   5.440   3.698   6.924
 2178SOL     OW23675   4.283   4.972   1.927
 2178SOL    HW123676   4.194   4.954   1.896
 2178SOL    HW223677   4.338   4.909   1.880
 2179SOL     OW23678   3.700   1.196   6.664
 2179SOL    HW123679   3.672   1.105   6.671
 2179SOL    HW223680   3.786   1.198   6.706
 2180SOL     OW23681   0.898   6.098   1.724
 2180SOL    HW123682   0.816   6.073   1.769
 2180SOL    HW223683   0.869   6.145   1.646
 2181SOL     OW23684   5.632   2.256   0.061
 2181SOL    HW123685   5.588   2.316   0.000
 2181SOL    HW223686   5.721   2.248   0.025
 2182SOL     OW23687   2.527   1.336   5.212
 2182SOL    HW123688   2.455   1.280   5.184
 2182SOL    HW223689   2.591   1.277   5.250
 2183SOL     OW23690   4.323   0.208   0.095
 2183SOL    HW123691   4.304   0.301   0.079
 2183SOL    HW223692   4.360   0.206   0.183
 2184SOL     OW23693   4.556   2.827   6.777
 2184SOL    HW123694   4.554   2.734   6.798
 2184SOL    HW223695   4.476   2.862   6.816
 2185SOL     OW23696   4.011   3.895   0.116
 2185SOL    HW123697   4.018   3.870   0.208
 2185SOL    HW223698   4.006   3.812   0.069
 2186SOL     OW23699   2.774   3.006   1.321
 2186SOL    HW123700   2.805   2.999   1.231
 2186SOL    HW223701   2.701   2.944   1.327
 2187SOL     OW23702   4.128   2.118   7.350
 2187SOL    HW123703   4.070   2.050   7.316
 2187SOL    HW223704   4.092   2.139   7.436
 2188SOL     OW23705   2.615   1.793   1.463
 2188SOL    HW123706   2.710   1.796   1.454
 2188SOL    HW223707   2.586   1.881   1.439
 2189SOL     OW23708   5.261   1.270   0.651
 2189SOL    HW123709   5.229   1.186   0.682
 2189SOL    HW223710   5.208   1.289   0.573
 2190SOL     OW23711   4.994   0.178   0.982
 2190SOL    HW123712   5.015   0.232   0.906
 2190SOL    HW223713   4.920   0.124   0.954
 2191SOL     OW23714   1.169   5.753   6.828
 2191SOL    HW123715   1.236   5.815   6.857
 2191SOL    HW223716   1.167   5.686   6.897
 2192SOL     OW23717   5.962   1.601   5.565
 2192SOL    HW123718   5.949   1.694   5.587
 2192SOL    HW223719   5.916   1.590   5.482
 2193SOL     OW23720   3.113   3.362   6.314
 2193SOL    HW123721   3.160   3.445   6.314
 2193SOL    HW223722   3.167   3.304   6.259
 2194SOL     OW23723   6.067   5.755   6.460
 2194SOL    HW123724   6.054   5.683   6.521
 2194SOL    HW223725   5.981   5.769   6.421
 2195SOL     OW23726   0.624   3.837   6.135
 2195SOL    HW123727   0.596   3.870   6.221
 2195SOL    HW223728   0.577   3.754   6.125
 2196SOL     OW23729   5.352   3.419   6.466
 2196SOL    HW123730   5.309   3.373   6.538
 2196SOL    HW223731   5.307   3.503   6.462
 2197SOL     OW23732   3.683   4.697   6.292
 2197SOL    HW123733   3.746   4.750   6.341
 2197SOL    HW223734   3.736   4.650   6.228
 2198SOL     OW23735   5.863   1.030   6.322
 2198SOL    HW123736   5.899   1.102   6.269
 2198SOL    HW223737   5.929   1.015   6.390
 2199SOL     OW23738   4.982   2.023   6.974
 2199SOL    HW123739   4.988   2.012   7.069
 2199SOL    HW223740   4.909   2.084   6.961
 2200SOL     OW23741   1.667   4.035   0.899
 2200SOL    HW123742   1.758   4.058   0.920
 2200SOL    HW223743   1.628   4.012   0.983
 2201SOL     OW23744   4.617   3.025   5.681
 2201SOL    HW123745   4.599   3.010   5.589
 2201SOL    HW223746   4.573   3.107   5.701
 2202SOL     OW23747   3.785   5.579   0.855
 2202SOL    HW123748   3.825   5.559   0.770
 2202SOL    HW223749   3.772   5.674   0.854
 2203SOL     OW23750   3.379   2.399   1.357
 2203SOL    HW123751   3.438   2.360   1.421
 2203SOL    HW223752   3.433   2.418   1.281
 2204SOL     OW23753   3.874   4.605   6.082
 2204SOL    HW123754   3.854   4.642   5.997
 2204SOL    HW223755   3.831   4.519   6.082
 2205SOL     OW23756   3.357   5.718   7.611
 2205SOL    HW123757   3.272   5.761   7.602
 2205SOL    HW223758   3.345   5.654   7.681
 2206SOL     OW23759   5.829   4.442   1.214
 2206SOL    HW123760   5.764   4.389   1.262
 2206SOL    HW223761   5.789   4.459   1.129
 2207SOL     OW23762   2.695   3.457   1.576
 2207SOL    HW123763   2.662   3.371   1.601
 2207SOL    HW223764   2.691   3.457   1.480
 2208SOL     OW23765   1.217   1.087   0.463
 2208SOL    HW123766   1.243   1.130   0.381
 2208SOL    HW223767   1.187   1.159   0.519
 2209SOL     OW23768   4.070   5.181   2.045
 2209SOL    HW123769   4.022   5.242   1.989
 2209SOL    HW223770   4.112   5.120   1.985
 2210SOL     OW23771   0.363   6.310   1.160
 2210SOL    HW123772   0.309   6.351   1.093
 2210SOL    HW223773   0.383   6.381   1.221
 2211SOL     OW23774   1.067   6.238   0.244
 2211SOL    HW123775   1.018   6.240   0.326
 2211SOL    HW223776   1.003   6.215   0.177
 2212SOL     OW23777   0.761   4.372   1.259
 2212SOL    HW123778   0.726   4.372   1.170
 2212SOL    HW223779   0.703   4.430   1.308
 2213SOL     OW23780   2.495   5.250   1.866
 2213SOL    HW123781   2.555   5.178   1.845
 2213SOL    HW223782   2.470   5.234   1.957
 2214SOL     OW23783   5.825   0.872   7.160
 2214SOL    HW123784   5.904   0.918   7.134
 2214SOL    HW223785   5.800   0.912   7.244
 2215SOL     OW23786   3.389   5.430   1.691
 2215SOL    HW123787   3.345   5.345   1.693
 2215SOL    HW223788   3.336   5.486   1.748
 2216SOL     OW23789   4.360   5.520   0.217
 2216SOL    HW123790   4.415   5.553   0.289
 2216SOL    HW223791   4.400   5.555   0.138
 2217SOL     OW23792   0.909   0.077   6.712
 2217SOL    HW123793   0.927   0.055   6.804
 2217SOL    HW223794   0.915   0.173   6.710
 2218SOL     OW23795   4.174   6.372   6.663
 2218SOL    HW123796   4.110   6.440   6.644
 2218SOL    HW223797   4.213   6.398   6.747
 2219SOL     OW23798   1.086   4.549   7.682
 2219SOL    HW123799   1.111   4.483   7.746
 2219SOL    HW223800   1.038   4.501   7.615
 2220SOL     OW23801   0.886   5.728   6.017
 2220SOL    HW123802   0.972   5.689   6.033
 2220SOL    HW223803   0.845   5.735   6.103
 2221SOL     OW23804   0.915   0.039   5.935
 2221SOL    HW123805   0.870  -0.037   5.899
 2221SOL    HW223806   0.996   0.045   5.884
 2222SOL     OW23807   3.198   5.485   0.465
 2222SOL    HW123808   3.186   5.405   0.414
 2222SOL    HW223809   3.273   5.529   0.425
 2223SOL     OW23810   2.895   5.178   5.660
 2223SOL    HW123811   2.963   5.245   5.669
 2223SOL    HW223812   2.924   5.107   5.717
 2224SOL     OW23813   0.308   3.140   1.286
 2224SOL    HW123814   0.345   3.072   1.230
 2224SOL    HW223815   0.306   3.101   1.374
 2225SOL     OW23816   1.261   0.181   0.792
 2225SOL    HW123817   1.236   0.157   0.703
 2225SOL    HW223818   1.178   0.183   0.840
 2226SOL     OW23819   2.711   3.248   7.453
 2226SOL    HW123820   2.651   3.174   7.441
 2226SOL    HW223821   2.788   3.209   7.496
 2227SOL     OW23822   2.489   0.525   7.446
 2227SOL    HW123823   2.531   0.521   7.360
 2227SOL    HW223824   2.520   0.607   7.484
 2228SOL     OW23825   1.594   0.938   1.511
 2228SOL    HW123826   1.539   0.870   1.551
 2228SOL    HW223827   1.539   0.977   1.443
 2229SOL     OW23828   2.224   0.191   0.937
 2229SOL    HW123829   2.152   0.137   0.902
 2229SOL    HW223830   2.253   0.243   0.862
 2230SOL     OW23831   4.176   1.365   6.527
 2230SOL    HW123832   4.096   1.409   6.499
 2230SOL    HW223833   4.243   1.433   6.523
 2231SOL     OW23834   5.213   5.907   6.139
 2231SOL    HW123835   5.174   5.931   6.055
 2231SOL    HW223836   5.303   5.882   6.117
 2232SOL     OW23837   5.673   0.666   7.059
 2232SOL    HW123838   5.736   0.627   6.998
 2232SOL    HW223839   5.721   0.736   7.103
 2233SOL     OW23840   5.994   5.407   5.468
 2233SOL    HW123841   6.041   5.490   5.466
 2233SOL    HW223842   6.030   5.357   5.395
 2234SOL     OW23843   5.444   4.314   0.453
 2234SOL    HW123844   5.435   4.219   0.443
 2234SOL    HW223845   5.537   4.328   0.472
 2235SOL     OW23846   5.924   0.245   6.833
 2235SOL    HW123847   5.925   0.169   6.891
 2235SOL    HW223848   6.001   0.296   6.859
 2236SOL     OW23849   4.283   3.145   0.542
 2236SOL    HW123850   4.353   3.080   0.544
 2236SOL    HW223851   4.311   3.210   0.478
 2237SOL     OW23852   3.606   5.329   7.248
 2237SOL    HW123853   3.546   5.402   7.235
 2237SOL    HW223854   3.611   5.287   7.162
 2238SOL     OW23855   4.301   0.097   2.018
 2238SOL    HW123856   4.271   0.025   1.962
 2238SOL    HW223857   4.328   0.165   1.956
 2239SOL     OW23858   5.314   2.290   6.844
 2239SOL    HW123859   5.362   2.207   6.839
 2239SOL    HW223860   5.381   2.357   6.829
 2240SOL     OW23861   3.938   2.140   6.677
 2240SOL    HW123862   3.851   2.103   6.688
 2240SOL    HW223863   3.924   2.223   6.631
 2241SOL     OW23864   6.292   1.452   7.524
 2241SOL    HW123865   6.282   1.367   7.567
 2241SOL    HW223866   6.272   1.515   7.593
 2242SOL     OW23867   4.443   2.247   6.843
 2242SOL    HW123868   4.349   2.233   6.846
 2242SOL    HW223869   4.462   2.300   6.921
 2243SOL     OW23870   0.551   6.177   1.574
 2243SOL    HW123871   0.556   6.121   1.651
 2243SOL    HW223872   0.516   6.120   1.505
 2244SOL     OW23873   3.459   2.772   1.332
 2244SOL    HW123874   3.461   2.843   1.396
 2244SOL    HW223875   3.378   2.724   1.351
 2245SOL     OW23876   2.947   4.390   0.038
 2245SOL    HW123877   3.014   4.387  -0.029
 2245SOL    HW223878   2.865   4.376  -0.009
 2246SOL     OW23879   5.482   1.339   1.323
 2246SOL    HW123880   5.387   1.344   1.335
 2246SOL    HW223881   5.517   1.323   1.411
 2247SOL     OW23882   1.152   0.282   1.163
 2247SOL    HW123883   1.196   0.359   1.125
 2247SOL    HW223884   1.093   0.252   1.093
 2248SOL     OW23885   4.001   0.325   0.496
 2248SOL    HW123886   3.949   0.266   0.441
 2248SOL    HW223887   3.953   0.408   0.494
 2249SOL     OW23888   2.544   1.087   0.959
 2249SOL    HW123889   2.638   1.095   0.975
 2249SOL    HW223890   2.532   0.997   0.927
 2250SOL     OW23891   3.438   4.785   6.617
 2250SOL    HW123892   3.521   4.816   6.580
 2250SOL    HW223893   3.381   4.774   6.540
 2251SOL     OW23894   2.145   5.721   0.265
 2251SOL    HW123895   2.140   5.816   0.251
 2251SOL    HW223896   2.236   5.699   0.243
 2252SOL     OW23897   2.704   5.796   1.165
 2252SOL    HW123898   2.705   5.743   1.245
 2252SOL    HW223899   2.662   5.740   1.100
 2253SOL     OW23900   5.939   2.094   5.759
 2253SOL    HW123901   5.935   2.142   5.842
 2253SOL    HW223902   6.018   2.127   5.716
 2254SOL     OW23903   1.196   2.735   2.107
 2254SOL    HW123904   1.242   2.684   2.040
 2254SOL    HW223905   1.174   2.672   2.175
 2255SOL     OW23906   3.275   4.775   1.050
 2255SOL    HW123907   3.210   4.825   1.099
 2255SOL    HW223908   3.302   4.835   0.980
 2256SOL     OW23909   0.685   3.249   6.698
 2256SOL    HW123910   0.669   3.156   6.687
 2256SOL    HW223911   0.694   3.262   6.792
 2257SOL     OW23912   1.236   4.618   1.092
 2257SOL    HW123913   1.326   4.629   1.062
 2257SOL    HW223914   1.224   4.688   1.157
 2258SOL     OW23915   2.001   2.940   5.989
 2258SOL    HW123916   2.019   2.929   5.896
 2258SOL    HW223917   1.982   3.033   5.999
 2259SOL     OW23918   5.702   5.592   1.611
 2259SOL    HW123919   5.761   5.616   1.540
 2259SOL    HW223920   5.712   5.662   1.675
 2260SOL     OW23921   5.487   2.365   0.506
 2260SOL    HW123922   5.397   2.336   0.492
 2260SOL    HW223923   5.493   2.449   0.460
 2261SOL     OW23924   5.583   1.511   7.748
 2261SOL    HW123925   5.642   1.440   7.771
 2261SOL    HW223926   5.582   1.568   7.825
 2262SOL     OW23927   0.625   3.609   7.646
 2262SOL    HW123928   0.632   3.516   7.666
 2262SOL    HW223929   0.714   3.642   7.658
 2263SOL     OW23930   2.946   6.137   6.905
 2263SOL    HW123931   2.908   6.052   6.930
 2263SOL    HW223932   2.990   6.120   6.822
 2264SOL     OW23933   0.857   0.666   6.290
 2264SOL    HW123934   0.777   0.714   6.264
 2264SOL    HW223935   0.921   0.687   6.222
 2265SOL     OW23936   0.741   2.818   0.658
 2265SOL    HW123937   0.711   2.759   0.589
 2265SOL    HW223938   0.685   2.800   0.732
 2266SOL     OW23939   5.868   2.488   0.057
 2266SOL    HW123940   5.886   2.452   0.144
 2266SOL    HW223941   5.929   2.561   0.048
 2267SOL     OW23942   2.020   1.912   1.752
 2267SOL    HW123943   1.974   1.991   1.724
 2267SOL    HW223944   1.990   1.896   1.841
 2268SOL     OW23945   6.231   0.895   6.681
 2268SOL    HW123946   6.311   0.868   6.636
 2268SOL    HW223947   6.227   0.838   6.759
 2269SOL     OW23948   3.406   0.246   6.594
 2269SOL    HW123949   3.473   0.192   6.635
 2269SOL    HW223950   3.339   0.184   6.564
 2270SOL     OW23951   0.560   0.708   2.281
 2270SOL    HW123952   0.645   0.732   2.317
 2270SOL    HW223953   0.502   0.704   2.357
 2271SOL     OW23954   3.931   1.476   1.454
 2271SOL    HW123955   3.976   1.417   1.514
 2271SOL    HW223956   3.853   1.504   1.502
 2272SOL     OW23957   4.619   5.902   0.090
 2272SOL    HW123958   4.688   5.947   0.042
 2272SOL    HW223959   4.659   5.881   0.175
 2273SOL     OW23960   4.775   0.568   0.331
 2273SOL    HW123961   4.835   0.562   0.404
 2273SOL    HW223962   4.756   0.477   0.308
 2274SOL     OW23963   6.164   3.657   7.171
 2274SOL    HW123964   6.162   3.663   7.266
 2274SOL    HW223965   6.178   3.564   7.153
 2275SOL     OW23966   1.735   0.761   1.309
 2275SOL    HW123967   1.816   0.805   1.282
 2275SOL    HW223968   1.720   0.791   1.399
 2276SOL     OW23969   3.814   1.765   1.124
 2276SOL    HW123970   3.796   1.675   1.096
 2276SOL    HW223971   3.907   1.777   1.106
 2277SOL     OW23972   4.741   3.999   0.257
 2277SOL    HW123973   4.830   4.028   0.238
 2277SOL    HW223974   4.730   3.920   0.204
 2278SOL     OW23975   5.828   1.531   5.339
 2278SOL    HW123976   5.870   1.455   5.297
 2278SOL    HW223977   5.749   1.547   5.287
 2279SOL     OW23978   3.434   4.946   6.289
 2279SOL    HW123979   3.369   4.887   6.250
 2279SOL    HW223980   3.503   4.953   6.223
 2280SOL     OW23981   2.720   2.136   0.193
 2280SOL    HW123982   2.804   2.116   0.232
 2280SOL    HW223983   2.701   2.226   0.221
 2281SOL     OW23984   6.330   4.156   1.928
 2281SOL    HW123985   6.391   4.230   1.920
 2281SOL    HW223986   6.243   4.197   1.931
 2282SOL     OW23987   2.705   6.352   7.565
 2282SOL    HW123988   2.731   6.280   7.623
 2282SOL    HW223989   2.624   6.385   7.603
 2283SOL     OW23990   3.828   2.040   0.004
 2283SOL    HW123991   3.752   2.086  -0.031
 2283SOL    HW223992   3.794   1.958   0.038
 2284SOL     OW23993   6.383   4.430   1.353
 2284SOL    HW123994   6.406   4.353   1.301
 2284SOL    HW223995   6.355   4.495   1.289
 2285SOL     OW23996   3.068   3.599   0.388
 2285SOL    HW123997   3.126   3.624   0.315
 2285SOL    HW223998   3.114   3.528   0.432
 2286SOL     OW23999   0.522   1.899   0.241
 2286SOL    HW124000   0.551   1.980   0.283
 2286SOL    HW224001   0.557   1.829   0.295
 2287SOL     OW24002   4.034   3.216   1.148
 2287SOL    HW124003   3.991   3.298   1.172
 2287SOL    HW224004   4.127   3.234   1.158
 2288SOL     OW24005   4.849   2.910   6.237
 2288SOL    HW124006   4.793   2.834   6.254
 2288SOL    HW224007   4.930   2.872   6.201
 2289SOL     OW24008   2.697   3.646   0.192
 2289SOL    HW124009   2.713   3.727   0.144
 2289SOL    HW224010   2.659   3.586   0.128
 2290SOL     OW24011   6.342   6.201   2.098
 2290SOL    HW124012   6.436   6.183   2.103
 2290SOL    HW224013   6.328   6.268   2.166
 2291SOL     OW24014   2.441   4.206   2.502
 2291SOL    HW124015   2.360   4.233   2.545
 2291SOL    HW224016   2.478   4.287   2.467
 2292SOL     OW24017   3.874   0.482   7.437
 2292SOL    HW124018   3.872   0.568   7.478
 2292SOL    HW224019   3.794   0.439   7.466
 2293SOL     OW24020   0.077   4.693   0.028
 2293SOL    HW124021   0.162   4.705   0.072
 2293SOL    HW224022   0.031   4.630   0.084
 2294SOL     OW24023   3.896   4.083   6.627
 2294SOL    HW124024   3.934   3.996   6.636
 2294SOL    HW224025   3.864   4.105   6.715
 2295SOL     OW24026   5.521   1.662   7.245
 2295SOL    HW124027   5.557   1.706   7.322
 2295SOL    HW224028   5.430   1.643   7.267
 2296SOL     OW24029   3.558   0.242   0.919
 2296SOL    HW124030   3.560   0.147   0.933
 2296SOL    HW224031   3.499   0.275   0.986
 2297SOL     OW24032   3.580   5.865   7.609
 2297SOL    HW124033   3.591   5.861   7.514
 2297SOL    HW224034   3.494   5.827   7.625
 2298SOL     OW24035   5.734   5.840   0.813
 2298SOL    HW124036   5.744   5.902   0.742
 2298SOL    HW224037   5.749   5.754   0.773
 2299SOL     OW24038   1.176   2.000   0.388
 2299SOL    HW124039   1.245   2.026   0.327
 2299SOL    HW224040   1.120   2.077   0.396
 2300SOL     OW24041   5.146   5.765   6.394
 2300SOL    HW124042   5.176   5.813   6.316
 2300SOL    HW224043   5.164   5.824   6.467
 2301SOL     OW24044   0.949   2.435   1.075
 2301SOL    HW124045   1.032   2.451   1.121
 2301SOL    HW224046   0.889   2.404   1.142
 2302SOL     OW24047   6.406   5.324   7.284
 2302SOL    HW124048   6.455   5.402   7.256
 2302SOL    HW224049   6.454   5.251   7.245
 2303SOL     OW24050   5.028   4.865   6.935
 2303SOL    HW124051   5.011   4.879   6.842
 2303SOL    HW224052   4.984   4.937   6.979
 2304SOL     OW24053   1.173   5.504   1.870
 2304SOL    HW124054   1.140   5.417   1.892
 2304SOL    HW224055   1.158   5.556   1.949
 2305SOL     OW24056   0.613   1.884   6.819
 2305SOL    HW124057   0.529   1.882   6.771
 2305SOL    HW224058   0.596   1.834   6.898
 2306SOL     OW24059   1.112   3.122   7.748
 2306SOL    HW124060   1.100   3.186   7.678
 2306SOL    HW224061   1.206   3.101   7.746
 2307SOL     OW24062   4.309   3.442   5.754
 2307SOL    HW124063   4.267   3.528   5.758
 2307SOL    HW224064   4.237   3.380   5.767
 2308SOL     OW24065   0.429   2.635   6.235
 2308SOL    HW124066   0.474   2.643   6.151
 2308SOL    HW224067   0.498   2.647   6.300
 2309SOL     OW24068   5.309   4.021   0.212
 2309SOL    HW124069   5.285   4.100   0.163
 2309SOL    HW224070   5.368   4.053   0.280
 2310SOL     OW24071   5.623   1.567   0.546
 2310SOL    HW124072   5.581   1.607   0.470
 2310SOL    HW224073   5.553   1.558   0.610
 2311SOL     OW24074   0.846   1.035   1.226
 2311SOL    HW124075   0.757   1.014   1.253
 2311SOL    HW224076   0.836   1.105   1.162
 2312SOL     OW24077   3.167   6.226   7.774
 2312SOL    HW124078   3.072   6.211   7.772
 2312SOL    HW224079   3.176   6.321   7.767
 2313SOL     OW24080   1.323   1.579   2.349
 2313SOL    HW124081   1.371   1.499   2.326
 2313SOL    HW224082   1.231   1.555   2.344
 2314SOL     OW24083   1.026   4.699   6.881
 2314SOL    HW124084   1.118   4.722   6.873
 2314SOL    HW224085   0.997   4.680   6.792
 2315SOL     OW24086   1.968   0.263   1.640
 2315SOL    HW124087   1.878   0.263   1.608
 2315SOL    HW224088   2.017   0.211   1.576
 2316SOL     OW24089   3.888   3.182   6.563
 2316SOL    HW124090   3.981   3.202   6.555
 2316SOL    HW224091   3.853   3.251   6.620
 2317SOL     OW24092   5.856   2.539   1.636
 2317SOL    HW124093   5.868   2.532   1.730
 2317SOL    HW224094   5.938   2.576   1.604
 2318SOL     OW24095   0.035   2.408   0.267
 2318SOL    HW124096  -0.043   2.462   0.273
 2318SOL    HW224097   0.011   2.337   0.208
 2319SOL     OW24098   1.010   2.829   0.584
 2319SOL    HW124099   1.059   2.874   0.652
 2319SOL    HW224100   0.919   2.836   0.612
 2320SOL     OW24101   4.664   0.552   7.138
 2320SOL    HW124102   4.694   0.640   7.118
 2320SOL    HW224103   4.568   0.558   7.137
 2321SOL     OW24104   2.867   6.160   6.413
 2321SOL    HW124105   2.832   6.080   6.375
 2321SOL    HW224106   2.849   6.152   6.507
 2322SOL     OW24107   5.563   0.913   0.203
 2322SOL    HW124108   5.548   0.821   0.226
 2322SOL    HW224109   5.488   0.960   0.241
 2323SOL     OW24110   0.256   1.406   0.979
 2323SOL    HW124111   0.196   1.371   1.045
 2323SOL    HW224112   0.205   1.471   0.931
 2324SOL     OW24113   2.265   1.063   0.588
 2324SOL    HW124114   2.309   1.011   0.656
 2324SOL    HW224115   2.322   1.139   0.576
 2325SOL     OW24116   1.967   4.794   0.184
 2325SOL    HW124117   1.883   4.770   0.222
 2325SOL    HW224118   2.027   4.726   0.214
 2326SOL     OW24119   0.107   5.368   6.424
 2326SOL    HW124120   0.024   5.413   6.408
 2326SOL    HW224121   0.123   5.379   6.518
 2327SOL     OW24122   0.715   4.731   1.058
 2327SOL    HW124123   0.731   4.680   0.979
 2327SOL    HW224124   0.790   4.712   1.115
 2328SOL     OW24125   2.458   3.929   1.726
 2328SOL    HW124126   2.467   3.843   1.685
 2328SOL    HW224127   2.424   3.985   1.657
 2329SOL     OW24128   5.358   4.014   6.285
 2329SOL    HW124129   5.353   4.109   6.272
 2329SOL    HW224130   5.343   3.977   6.198
 2330SOL     OW24131   1.862   3.143   2.017
 2330SOL    HW124132   1.819   3.173   2.097
 2330SOL    HW224133   1.913   3.067   2.045
 2331SOL     OW24134   3.595   5.339   7.756
 2331SOL    HW124135   3.681   5.378   7.742
 2331SOL    HW224136   3.576   5.293   7.674
 2332SOL     OW24137   3.867   0.900   1.684
 2332SOL    HW124138   3.904   0.835   1.624
 2332SOL    HW224139   3.937   0.966   1.694
 2333SOL     OW24140   6.076   2.691   1.092
 2333SOL    HW124141   6.029   2.675   1.174
 2333SOL    HW224142   6.067   2.609   1.043
 2334SOL     OW24143   2.777   0.832   2.511
 2334SOL    HW124144   2.692   0.823   2.555
 2334SOL    HW224145   2.830   0.762   2.547
 2335SOL     OW24146   2.979   6.039   1.843
 2335SOL    HW124147   3.033   6.118   1.855
 2335SOL    HW224148   3.030   5.969   1.885
 2336SOL     OW24149   1.372   3.022   1.328
 2336SOL    HW124150   1.341   3.104   1.367
 2336SOL    HW224151   1.468   3.030   1.327
 2337SOL     OW24152   3.955   4.290   5.842
 2337SOL    HW124153   4.019   4.253   5.902
 2337SOL    HW224154   3.908   4.215   5.806
 2338SOL     OW24155   1.611   3.257   0.810
 2338SOL    HW124156   1.695   3.288   0.777
 2338SOL    HW224157   1.546   3.307   0.760
 2339SOL     OW24158   0.690   0.304   7.578
 2339SOL    HW124159   0.780   0.308   7.610
 2339SOL    HW224160   0.665   0.395   7.567
 2340SOL     OW24161   1.572   4.549   6.116
 2340SOL    HW124162   1.574   4.643   6.104
 2340SOL    HW224163   1.481   4.524   6.098
 2341SOL     OW24164   1.242   6.124   1.149
 2341SOL    HW124165   1.218   6.144   1.240
 2341SOL    HW224166   1.250   6.028   1.147
 2342SOL     OW24167   1.301   2.989   0.164
 2342SOL    HW124168   1.295   3.068   0.218
 2342SOL    HW224169   1.237   2.929   0.202
 2343SOL     OW24170   1.794   4.689   7.798
 2343SOL    HW124171   1.826   4.764   7.848
 2343SOL    HW224172   1.707   4.714   7.768
 2344SOL     OW24173   2.058   3.468   6.706
 2344SOL    HW124174   2.111   3.519   6.768
 2344SOL    HW224175   2.091   3.379   6.714
 2345SOL     OW24176   5.055   5.660   7.401
 2345SOL    HW124177   5.015   5.654   7.488
 2345SOL    HW224178   5.138   5.705   7.415
 2346SOL     OW24179   4.695   3.438   1.271
 2346SOL    HW124180   4.729   3.405   1.188
 2346SOL    HW224181   4.649   3.519   1.249
 2347SOL     OW24182   0.285   0.557   6.181
 2347SOL    HW124183   0.237   0.533   6.260
 2347SOL    HW224184   0.371   0.515   6.192
 2348SOL     OW24185   5.132   3.966   6.439
 2348SOL    HW124186   5.217   3.999   6.411
 2348SOL    HW224187   5.074   3.979   6.363
 2349SOL     OW24188   5.774   1.300   0.837
 2349SOL    HW124189   5.768   1.393   0.857
 2349SOL    HW224190   5.687   1.276   0.805
 2350SOL     OW24191   0.261   4.973   1.079
 2350SOL    HW124192   0.218   4.888   1.063
 2350SOL    HW224193   0.230   4.999   1.166
 2351SOL     OW24194   0.380   0.865   1.975
 2351SOL    HW124195   0.389   0.953   1.937
 2351SOL    HW224196   0.468   0.829   1.973
 2352SOL     OW24197   4.377   4.073   6.563
 2352SOL    HW124198   4.334   4.156   6.544
 2352SOL    HW224199   4.389   4.031   6.478
 2353SOL     OW24200   5.029   4.378   0.306
 2353SOL    HW124201   5.038   4.286   0.281
 2353SOL    HW224202   5.102   4.394   0.366
 2354SOL     OW24203   0.760   4.140   6.891
 2354SOL    HW124204   0.737   4.125   6.800
 2354SOL    HW224205   0.855   4.122   6.895
 2355SOL     OW24206   6.226   0.504   6.669
 2355SOL    HW124207   6.303   0.556   6.646
 2355SOL    HW224208   6.153   0.567   6.668
 2356SOL     OW24209   1.308   4.659   5.814
 2356SOL    HW124210   1.273   4.640   5.726
 2356SOL    HW224211   1.403   4.662   5.802
 2357SOL     OW24212   0.995   6.413   1.300
 2357SOL    HW124213   1.014   6.389   1.209
 2357SOL    HW224214   1.036   6.344   1.352
 2358SOL     OW24215   0.052   5.662   0.828
 2358SOL    HW124216   0.115   5.694   0.892
 2358SOL    HW224217  -0.032   5.662   0.873
 2359SOL     OW24218   2.469   1.890   1.102
 2359SOL    HW124219   2.493   1.803   1.135
 2359SOL    HW224220   2.385   1.909   1.145
 2360SOL     OW24221   1.863   5.510   7.574
 2360SOL    HW124222   1.936   5.568   7.550
 2360SOL    HW224223   1.899   5.422   7.565
 2361SOL     OW24224   0.006   2.139   6.823
 2361SOL    HW124225   0.066   2.151   6.749
 2361SOL    HW224226  -0.047   2.063   6.799
 2362SOL     OW24227   5.045   1.486   5.931
 2362SOL    HW124228   5.121   1.518   5.883
 2362SOL    HW224229   4.983   1.559   5.929
 2363SOL     OW24230   2.004   1.016   6.737
 2363SOL    HW124231   1.979   0.966   6.659
 2363SOL    HW224232   2.012   1.106   6.706
 2364SOL     OW24233   1.515   4.651   0.050
 2364SOL    HW124234   1.544   4.560   0.064
 2364SOL    HW224235   1.433   4.657   0.099
 2365SOL     OW24236   2.231   0.157   7.392
 2365SOL    HW124237   2.200   0.246   7.406
 2365SOL    HW224238   2.280   0.161   7.310
 2366SOL     OW24239   3.528   1.411   1.408
 2366SOL    HW124240   3.521   1.334   1.465
 2366SOL    HW224241   3.602   1.461   1.444
 2367SOL     OW24242   3.458   2.791   1.911
 2367SOL    HW124243   3.420   2.712   1.870
 2367SOL    HW224244   3.452   2.857   1.842
 2368SOL     OW24245   3.339   4.939   0.833
 2368SOL    HW124246   3.285   4.893   0.768
 2368SOL    HW224247   3.310   5.030   0.828
 2369SOL     OW24248   3.818   1.510   1.062
 2369SOL    HW124249   3.788   1.502   0.971
 2369SOL    HW224250   3.894   1.453   1.068
 2370SOL     OW24251   4.830   6.314   6.214
 2370SOL    HW124252   4.840   6.225   6.182
 2370SOL    HW224253   4.769   6.355   6.152
 2371SOL     OW24254   5.133   4.925   7.278
 2371SOL    HW124255   5.066   4.857   7.285
 2371SOL    HW224256   5.089   4.998   7.235
 2372SOL     OW24257   0.462   4.850   6.427
 2372SOL    HW124258   0.443   4.930   6.378
 2372SOL    HW224259   0.377   4.806   6.434
 2373SOL     OW24260   3.464   1.191   1.563
 2373SOL    HW124261   3.513   1.109   1.556
 2373SOL    HW224262   3.458   1.207   1.657
 2374SOL     OW24263   1.244   3.335   1.158
 2374SOL    HW124264   1.297   3.291   1.092
 2374SOL    HW224265   1.304   3.350   1.231
 2375SOL     OW24266   2.382   3.506   6.893
 2375SOL    HW124267   2.412   3.597   6.903
 2375SOL    HW224268   2.402   3.484   6.802
 2376SOL     OW24269   1.606   1.103   0.371
 2376SOL    HW124270   1.620   1.043   0.444
 2376SOL    HW224271   1.516   1.133   0.382
 2377SOL     OW24272   3.702   1.798   6.016
 2377SOL    HW124273   3.734   1.878   6.060
 2377SOL    HW224274   3.766   1.783   5.946
 2378SOL     OW24275   3.011   5.686   0.542
 2378SOL    HW124276   3.074   5.622   0.509
 2378SOL    HW224277   2.988   5.654   0.629
 2379SOL     OW24278   2.470   4.740   1.497
 2379SOL    HW124279   2.504   4.828   1.482
 2379SOL    HW224280   2.424   4.718   1.416
 2380SOL     OW24281   1.819   1.917   7.468
 2380SOL    HW124282   1.913   1.902   7.462
 2380SOL    HW224283   1.798   1.906   7.561
 2381SOL     OW24284   4.156   0.348   6.835
 2381SOL    HW124285   4.168   0.378   6.745
 2381SOL    HW224286   4.093   0.277   6.828
 2382SOL     OW24287   0.595   2.990   6.695
 2382SOL    HW124288   0.636   2.907   6.722
 2382SOL    HW224289   0.502   2.969   6.685
 2383SOL     OW24290   5.744   3.480   1.861
 2383SOL    HW124291   5.798   3.522   1.928
 2383SOL    HW224292   5.657   3.477   1.898
 2384SOL     OW24293   1.408   0.542   0.705
 2384SOL    HW124294   1.381   0.627   0.668
 2384SOL    HW224295   1.441   0.563   0.792
 2385SOL     OW24296   2.159   3.798   6.291
 2385SOL    HW124297   2.172   3.711   6.328
 2385SOL    HW224298   2.082   3.832   6.337
 2386SOL     OW24299   5.157   2.505   6.667
 2386SOL    HW124300   5.207   2.587   6.665
 2386SOL    HW224301   5.206   2.448   6.725
 2387SOL     OW24302   2.072   2.993   2.365
 2387SOL    HW124303   1.977   2.997   2.369
 2387SOL    HW224304   2.101   3.083   2.380
 2388SOL     OW24305   0.314   5.216   1.894
 2388SOL    HW124306   0.286   5.272   1.821
 2388SOL    HW224307   0.400   5.183   1.868
 2389SOL     OW24308   6.203   1.739   0.384
 2389SOL    HW124309   6.109   1.749   0.397
 2389SOL    HW224310   6.243   1.809   0.435
 2390SOL     OW24311   2.979   6.328   7.512
 2390SOL    HW124312   2.888   6.360   7.516
 2390SOL    HW224313   2.987   6.271   7.588
 2391SOL     OW24314   4.525   2.450   6.121
 2391SOL    HW124315   4.482   2.471   6.204
 2391SOL    HW224316   4.606   2.406   6.147
 2392SOL     OW24317   6.119   3.017   7.424
 2392SOL    HW124318   6.191   2.993   7.366
 2392SOL    HW224319   6.118   2.949   7.491
 2393SOL     OW24320   5.996   2.120   7.526
 2393SOL    HW124321   5.979   2.089   7.436
 2393SOL    HW224322   6.067   2.064   7.557
 2394SOL     OW24323   2.830   2.802   6.725
 2394SOL    HW124324   2.826   2.893   6.756
 2394SOL    HW224325   2.777   2.753   6.787
 2395SOL     OW24326   5.444   2.374   1.296
 2395SOL    HW124327   5.522   2.393   1.347
 2395SOL    HW224328   5.371   2.385   1.357
 2396SOL     OW24329   0.026   3.337   1.366
 2396SOL    HW124330   0.079   3.348   1.445
 2396SOL    HW224331  -0.014   3.251   1.375
 2397SOL     OW24332   5.762   1.887   7.726
 2397SOL    HW124333   5.677   1.857   7.695
 2397SOL    HW224334   5.825   1.836   7.675
 2398SOL     OW24335   1.191   1.603   0.907
 2398SOL    HW124336   1.206   1.697   0.897
 2398SOL    HW224337   1.131   1.580   0.836
 2399SOL     OW24338   5.863   0.413   2.324
 2399SOL    HW124339   5.799   0.446   2.387
 2399SOL    HW224340   5.863   0.477   2.253
 2400SOL     OW24341   5.984   4.041   1.418
 2400SOL    HW124342   5.999   4.101   1.345
 2400SOL    HW224343   6.062   3.986   1.420
 2401SOL     OW24344   2.571   1.049   1.265
 2401SOL    HW124345   2.632   1.113   1.229
 2401SOL    HW224346   2.514   1.026   1.191
 2402SOL     OW24347   1.161   3.948   1.203
 2402SOL    HW124348   1.076   3.983   1.176
 2402SOL    HW224349   1.222   3.975   1.134
 2403SOL     OW24350   4.307   1.258   6.918
 2403SOL    HW124351   4.335   1.287   7.005
 2403SOL    HW224352   4.243   1.190   6.936
 2404SOL     OW24353   0.163   3.837   5.919
 2404SOL    HW124354   0.086   3.785   5.942
 2404SOL    HW224355   0.237   3.786   5.952
 2405SOL     OW24356   1.505   4.343   6.425
 2405SOL    HW124357   1.526   4.302   6.341
 2405SOL    HW224358   1.572   4.410   6.436
 2406SOL     OW24359   4.948   1.833   7.593
 2406SOL    HW124360   4.869   1.875   7.625
 2406SOL    HW224361   4.977   1.777   7.665
 2407SOL     OW24362   2.357   2.044   7.206
 2407SOL    HW124363   2.449   2.046   7.229
 2407SOL    HW224364   2.315   2.000   7.280
 2408SOL     OW24365   6.035   3.177   6.984
 2408SOL    HW124366   6.102   3.138   6.928
 2408SOL    HW224367   6.016   3.109   7.049
 2409SOL     OW24368   1.791   3.453   7.634
 2409SOL    HW124369   1.751   3.402   7.563
 2409SOL    HW224370   1.875   3.481   7.598
 2410SOL     OW24371   5.697   1.994   0.164
 2410SOL    HW124372   5.759   1.975   0.093
 2410SOL    HW224373   5.641   2.064   0.129
 2411SOL     OW24374   2.787   5.934   0.201
 2411SOL    HW124375   2.692   5.938   0.189
 2411SOL    HW224376   2.805   5.843   0.223
 2412SOL     OW24377   6.424   3.991   5.408
 2412SOL    HW124378   6.452   3.937   5.334
 2412SOL    HW224379   6.497   4.050   5.424
 2413SOL     OW24380   2.354   2.738   7.318
 2413SOL    HW124381   2.348   2.735   7.222
 2413SOL    HW224382   2.437   2.696   7.338
 2414SOL     OW24383   5.087   2.375   0.877
 2414SOL    HW124384   5.130   2.308   0.823
 2414SOL    HW224385   5.135   2.372   0.960
 2415SOL     OW24386   3.228   0.784   6.271
 2415SOL    HW124387   3.317   0.814   6.253
 2415SOL    HW224388   3.189   0.773   6.184
 2416SOL     OW24389   2.103   4.282   6.863
 2416SOL    HW124390   2.120   4.188   6.870
 2416SOL    HW224391   2.063   4.306   6.946
 2417SOL     OW24392   5.955   3.562   1.092
 2417SOL    HW124393   6.032   3.611   1.064
 2417SOL    HW224394   5.981   3.523   1.176
 2418SOL     OW24395   2.340   0.575   1.421
 2418SOL    HW124396   2.407   0.534   1.475
 2418SOL    HW224397   2.290   0.630   1.481
 2419SOL     OW24398   1.007   5.388   0.749
 2419SOL    HW124399   1.089   5.340   0.760
 2419SOL    HW224400   0.950   5.328   0.701
 2420SOL     OW24401   5.669   1.604   6.548
 2420SOL    HW124402   5.658   1.534   6.483
 2420SOL    HW224403   5.722   1.565   6.617
 2421SOL     OW24404   6.428   0.451   7.022
 2421SOL    HW124405   6.453   0.390   7.092
 2421SOL    HW224406   6.485   0.428   6.949
 2422SOL     OW24407   1.604   1.448   2.376
 2422SOL    HW124408   1.573   1.360   2.401
 2422SOL    HW224409   1.557   1.507   2.434
 2423SOL     OW24410   2.930   1.543   6.995
 2423SOL    HW124411   2.896   1.633   6.993
 2423SOL    HW224412   2.851   1.488   6.999
 2424SOL     OW24413   6.031   1.214   1.228
 2424SOL    HW124414   6.047   1.269   1.305
 2424SOL    HW224415   6.051   1.270   1.154
 2425SOL     OW24416   2.542   5.076   6.619
 2425SOL    HW124417   2.619   5.122   6.584
 2425SOL    HW224418   2.539   4.994   6.569
 2426SOL     OW24419   3.238   2.363   0.853
 2426SOL    HW124420   3.256   2.456   0.845
 2426SOL    HW224421   3.192   2.354   0.937
 2427SOL     OW24422   1.221   1.328   1.806
 2427SOL    HW124423   1.270   1.252   1.839
 2427SOL    HW224424   1.139   1.326   1.854
 2428SOL     OW24425   5.606   2.148   7.203
 2428SOL    HW124426   5.554   2.078   7.241
 2428SOL    HW224427   5.541   2.212   7.172
 2429SOL     OW24428   0.855   5.564   0.434
 2429SOL    HW124429   0.767   5.585   0.467
 2429SOL    HW224430   0.885   5.645   0.392
 2430SOL     OW24431   4.569   2.377   1.423
 2430SOL    HW124432   4.561   2.392   1.518
 2430SOL    HW224433   4.498   2.429   1.385
 2431SOL     OW24434   5.915   4.477   6.747
 2431SOL    HW124435   5.890   4.494   6.838
 2431SOL    HW224436   5.832   4.478   6.698
 2432SOL     OW24437   0.407   1.261   1.354
 2432SOL    HW124438   0.376   1.269   1.445
 2432SOL    HW224439   0.353   1.322   1.305
 2433SOL     OW24440   5.687   2.805   0.259
 2433SOL    HW124441   5.761   2.761   0.301
 2433SOL    HW224442   5.650   2.738   0.202
 2434SOL     OW24443   2.752   3.349   5.932
 2434SOL    HW124444   2.722   3.322   5.845
 2434SOL    HW224445   2.806   3.276   5.962
 2435SOL     OW24446   3.343   5.317   1.393
 2435SOL    HW124447   3.353   5.396   1.446
 2435SOL    HW224448   3.295   5.257   1.450
 2436SOL     OW24449   4.260   3.845   6.102
 2436SOL    HW124450   4.251   3.895   6.022
 2436SOL    HW224451   4.188   3.874   6.157
 2437SOL     OW24452   0.501   5.674   1.648
 2437SOL    HW124453   0.421   5.621   1.652
 2437SOL    HW224454   0.503   5.722   1.731
 2438SOL     OW24455   4.768   3.655   5.364
 2438SOL    HW124456   4.681   3.619   5.382
 2438SOL    HW224457   4.770   3.668   5.270
 2439SOL     OW24458   4.945   2.575   0.961
 2439SOL    HW124459   4.983   2.490   0.940
 2439SOL    HW224460   5.020   2.631   0.982
 2440SOL     OW24461   5.062   4.000   1.302
 2440SOL    HW124462   5.041   4.062   1.232
 2440SOL    HW224463   5.069   3.915   1.258
 2441SOL     OW24464   4.925   4.319   7.777
 2441SOL    HW124465   4.935   4.274   7.693
 2441SOL    HW224466   4.833   4.311   7.798
 2442SOL     OW24467   6.065   2.668   7.402
 2442SOL    HW124468   6.108   2.589   7.371
 2442SOL    HW224469   6.098   2.682   7.490
 2443SOL     OW24470   0.653   6.342   1.870
 2443SOL    HW124471   0.661   6.329   1.775
 2443SOL    HW224472   0.585   6.281   1.897
 2444SOL     OW24473   0.158   0.740   5.994
 2444SOL    HW124474   0.074   0.695   5.999
 2444SOL    HW224475   0.219   0.682   6.041
 2445SOL     OW24476   5.794   1.859   1.496
 2445SOL    HW124477   5.791   1.839   1.590
 2445SOL    HW224478   5.875   1.909   1.485
 2446SOL     OW24479   0.840   0.661   6.693
 2446SOL    HW124480   0.800   0.688   6.776
 2446SOL    HW224481   0.935   0.664   6.711
 2447SOL     OW24482   3.643   5.288   6.578
 2447SOL    HW124483   3.645   5.278   6.673
 2447SOL    HW224484   3.595   5.211   6.548
 2448SOL     OW24485   2.645   3.233   6.200
 2448SOL    HW124486   2.709   3.231   6.129
 2448SOL    HW224487   2.667   3.311   6.251
 2449SOL     OW24488   0.208   1.885   0.832
 2449SOL    HW124489   0.245   1.874   0.744
 2449SOL    HW224490   0.218   1.978   0.851
 2450SOL     OW24491   2.078   1.565   1.328
 2450SOL    HW124492   2.060   1.487   1.380
 2450SOL    HW224493   2.123   1.533   1.251
 2451SOL     OW24494   4.523   6.041   7.156
 2451SOL    HW124495   4.508   6.038   7.250
 2451SOL    HW224496   4.614   6.014   7.145
 2452SOL     OW24497   5.393   4.787   7.334
 2452SOL    HW124498   5.304   4.816   7.315
 2452SOL    HW224499   5.382   4.714   7.396
 2453SOL     OW24500   0.613   4.864   0.095
 2453SOL    HW124501   0.695   4.848   0.049
 2453SOL    HW224502   0.551   4.890   0.027
 2454SOL     OW24503   2.694   4.421   1.883
 2454SOL    HW124504   2.684   4.516   1.883
 2454SOL    HW224505   2.737   4.402   1.967
 2455SOL     OW24506   0.251   0.116   6.971
 2455SOL    HW124507   0.210   0.168   6.902
 2455SOL    HW224508   0.233   0.026   6.947
 2456SOL     OW24509   4.523   0.359   6.527
 2456SOL    HW124510   4.491   0.356   6.617
 2456SOL    HW224511   4.555   0.270   6.510
 2457SOL     OW24512   2.693   5.067   1.810
 2457SOL    HW124513   2.708   5.023   1.727
 2457SOL    HW224514   2.775   5.058   1.858
 2458SOL     OW24515   0.300   5.345   7.055
 2458SOL    HW124516   0.237   5.417   7.052
 2458SOL    HW224517   0.327   5.339   7.147
 2459SOL     OW24518   3.913   0.632   2.283
 2459SOL    HW124519   3.929   0.579   2.204
 2459SOL    HW224520   3.992   0.685   2.293
 2460SOL     OW24521   1.711   4.047   6.575
 2460SOL    HW124522   1.757   4.041   6.492
 2460SOL    HW224523   1.696   4.141   6.588
 2461SOL     OW24524   6.316   6.138   1.071
 2461SOL    HW124525   6.306   6.230   1.094
 2461SOL    HW224526   6.258   6.092   1.132
 2462SOL     OW24527   1.126   5.851   1.455
 2462SOL    HW124528   1.115   5.838   1.549
 2462SOL    HW224529   1.219   5.869   1.444
 2463SOL     OW24530   1.424   3.626   0.119
 2463SOL    HW124531   1.459   3.552   0.169
 2463SOL    HW224532   1.478   3.700   0.146
 2464SOL     OW24533   5.680   1.193   2.294
 2464SOL    HW124534   5.773   1.206   2.310
 2464SOL    HW224535   5.672   1.187   2.199
 2465SOL     OW24536   1.716   3.873   1.999
 2465SOL    HW124537   1.671   3.789   1.992
 2465SOL    HW224538   1.794   3.863   1.945
 2466SOL     OW24539   4.140   2.454   5.368
 2466SOL    HW124540   4.178   2.484   5.286
 2466SOL    HW224541   4.136   2.359   5.359
 2467SOL     OW24542   2.710   4.438   6.884
 2467SOL    HW124543   2.781   4.376   6.900
 2467SOL    HW224544   2.696   4.480   6.969
 2468SOL     OW24545   2.982   2.222   6.874
 2468SOL    HW124546   2.929   2.149   6.906
 2468SOL    HW224547   3.055   2.228   6.935
 2469SOL     OW24548   0.705   4.327   7.269
 2469SOL    HW124549   0.624   4.334   7.318
 2469SOL    HW224550   0.685   4.364   7.183
 2470SOL     OW24551   2.132   1.341   1.467
 2470SOL    HW124552   2.195   1.364   1.535
 2470SOL    HW224553   2.174   1.270   1.418
 2471SOL     OW24554   2.831   5.361   0.227
 2471SOL    HW124555   2.757   5.304   0.249
 2471SOL    HW224556   2.814   5.442   0.275
 2472SOL     OW24557   2.790   2.043   6.934
 2472SOL    HW124558   2.844   1.973   6.969
 2472SOL    HW224559   2.716   2.049   6.995
 2473SOL     OW24560   1.193   3.617   0.571
 2473SOL    HW124561   1.203   3.523   0.554
 2473SOL    HW224562   1.283   3.650   0.574
 2474SOL     OW24563   2.111   5.721   6.442
 2474SOL    HW124564   2.064   5.770   6.375
 2474SOL    HW224565   2.168   5.786   6.484
 2475SOL     OW24566   1.933   0.094   7.687
 2475SOL    HW124567   1.872   0.074   7.758
 2475SOL    HW224568   1.891   0.057   7.609
 2476SOL     OW24569   2.855   1.548   1.332
 2476SOL    HW124570   2.857   1.498   1.414
 2476SOL    HW224571   2.932   1.518   1.283
 2477SOL     OW24572   4.316   5.350   7.171
 2477SOL    HW124573   4.356   5.411   7.233
 2477SOL    HW224574   4.237   5.394   7.142
 2478SOL     OW24575   5.594   4.981   6.184
 2478SOL    HW124576   5.586   5.026   6.101
 2478SOL    HW224577   5.560   4.893   6.168
 2479SOL     OW24578   5.676   1.089   1.139
 2479SOL    HW124579   5.679   1.163   1.080
 2479SOL    HW224580   5.588   1.092   1.178
 2480SOL     OW24581   3.904   1.412   5.787
 2480SOL    HW124582   3.989   1.367   5.791
 2480SOL    HW224583   3.927   1.505   5.787
 2481SOL     OW24584   3.649   3.643   6.858
 2481SOL    HW124585   3.717   3.700   6.892
 2481SOL    HW224586   3.598   3.617   6.935
 2482SOL     OW24587   1.708   2.188   0.347
 2482SOL    HW124588   1.800   2.168   0.332
 2482SOL    HW224589   1.692   2.161   0.438
 2483SOL     OW24590   5.363   0.860   0.946
 2483SOL    HW124591   5.456   0.843   0.932
 2483SOL    HW224592   5.339   0.920   0.876
 2484SOL     OW24593   0.765   0.856   7.007
 2484SOL    HW124594   0.861   0.854   7.020
 2484SOL    HW224595   0.729   0.874   7.093
 2485SOL     OW24596   5.340   1.616   0.978
 2485SOL    HW124597   5.345   1.702   0.935
 2485SOL    HW224598   5.272   1.627   1.045
 2486SOL     OW24599   2.143   2.000   7.812
 2486SOL    HW124600   2.123   1.943   7.738
 2486SOL    HW224601   2.214   1.956   7.858
 2487SOL     OW24602   5.443   4.512   1.918
 2487SOL    HW124603   5.462   4.462   1.839
 2487SOL    HW224604   5.392   4.452   1.973
 2488SOL     OW24605   0.816   2.663   0.972
 2488SOL    HW124606   0.759   2.586   0.972
 2488SOL    HW224607   0.896   2.634   1.016
 2489SOL     OW24608   1.948   5.243   7.583
 2489SOL    HW124609   1.957   5.162   7.633
 2489SOL    HW224610   1.854   5.251   7.567
 2490SOL     OW24611   2.218   3.793   2.762
 2490SOL    HW124612   2.270   3.865   2.727
 2490SOL    HW224613   2.281   3.722   2.777
 2491SOL     OW24614   0.233   2.364   6.918
 2491SOL    HW124615   0.185   2.444   6.938
 2491SOL    HW224616   0.248   2.368   6.823
 2492SOL     OW24617   4.144   2.743   0.143
 2492SOL    HW124618   4.050   2.733   0.128
 2492SOL    HW224619   4.151   2.805   0.216
 2493SOL     OW24620   4.163   0.705   7.639
 2493SOL    HW124621   4.227   0.709   7.710
 2493SOL    HW224622   4.169   0.790   7.596
 2494SOL     OW24623   0.230   5.854   1.668
 2494SOL    HW124624   0.300   5.880   1.728
 2494SOL    HW224625   0.233   5.758   1.668
 2495SOL     OW24626   2.948   4.911   1.057
 2495SOL    HW124627   3.007   4.965   1.110
 2495SOL    HW224628   2.912   4.971   0.992
 2496SOL     OW24629   0.784   4.777   6.139
 2496SOL    HW124630   0.690   4.765   6.124
 2496SOL    HW224631   0.798   4.753   6.230
 2497SOL     OW24632   4.524   5.703   0.432
 2497SOL    HW124633   4.609   5.709   0.388
 2497SOL    HW224634   4.507   5.792   0.463
 2498SOL     OW24635   3.283   6.126   6.339
 2498SOL    HW124636   3.351   6.120   6.272
 2498SOL    HW224637   3.221   6.190   6.305
 2499SOL     OW24638   2.410   1.441   5.985
 2499SOL    HW124639   2.473   1.378   6.020
 2499SOL    HW224640   2.455   1.525   5.986
 2500SOL     OW24641   0.293   4.451   1.272
 2500SOL    HW124642   0.357   4.428   1.339
 2500SOL    HW224643   0.311   4.391   1.200
 2501SOL     OW24644   2.517   1.364   0.857
 2501SOL    HW124645   2.587   1.354   0.792
 2501SOL    HW224646   2.497   1.275   0.883
 2502SOL     OW24647   0.043   3.259   0.165
 2502SOL    HW124648   0.133   3.236   0.186
 2502SOL    HW224649   0.044   3.278   0.071
 2503SOL     OW24650   0.760   3.278   7.326
 2503SOL    HW124651   0.670   3.291   7.295
 2503SOL    HW224652   0.753   3.278   7.422
 2504SOL     OW24653   0.284   0.149   6.076
 2504SOL    HW124654   0.353   0.212   6.056
 2504SOL    HW224655   0.204   0.190   6.045
 2505SOL     OW24656   4.906   2.998   0.671
 2505SOL    HW124657   4.950   3.043   0.599
 2505SOL    HW224658   4.977   2.971   0.729
 2506SOL     OW24659   0.434   5.000   6.918
 2506SOL    HW124660   0.392   4.942   6.854
 2506SOL    HW224661   0.380   5.079   6.916
 2507SOL     OW24662   3.568   2.835   6.498
 2507SOL    HW124663   3.644   2.785   6.469
 2507SOL    HW224664   3.565   2.911   6.441
 2508SOL     OW24665   0.907   2.176   7.501
 2508SOL    HW124666   0.936   2.092   7.466
 2508SOL    HW224667   0.811   2.174   7.495
 2509SOL     OW24668   5.036   0.547   7.639
 2509SOL    HW124669   5.032   0.627   7.586
 2509SOL    HW224670   5.122   0.510   7.621
 2510SOL     OW24671   5.428   4.988   0.675
 2510SOL    HW124672   5.385   4.949   0.599
 2510SOL    HW224673   5.411   4.925   0.746
 2511SOL     OW24674   5.616   2.595   0.100
 2511SOL    HW124675   5.541   2.547   0.066
 2511SOL    HW224676   5.690   2.536   0.088
 2512SOL     OW24677   2.571   3.041   0.742
 2512SOL    HW124678   2.560   3.103   0.670
 2512SOL    HW224679   2.662   3.052   0.769
 2513SOL     OW24680   2.132   4.703   0.826
 2513SOL    HW124681   2.223   4.672   0.825
 2513SOL    HW224682   2.123   4.748   0.910
 2514SOL     OW24683   4.162   4.361   1.540
 2514SOL    HW124684   4.183   4.358   1.447
 2514SOL    HW224685   4.231   4.415   1.579
 2515SOL     OW24686   2.879   3.607   6.944
 2515SOL    HW124687   2.810   3.673   6.951
 2515SOL    HW224688   2.910   3.614   6.854
 2516SOL     OW24689   5.324   0.648   0.590
 2516SOL    HW124690   5.310   0.699   0.510
 2516SOL    HW224691   5.392   0.585   0.566
 2517SOL     OW24692   4.351   6.232   7.391
 2517SOL    HW124693   4.309   6.251   7.307
 2517SOL    HW224694   4.411   6.306   7.405
 2518SOL     OW24695   5.902   6.087   1.715
 2518SOL    HW124696   5.951   6.042   1.783
 2518SOL    HW224697   5.848   6.151   1.762
 2519SOL     OW24698   4.052   1.716   0.188
 2519SOL    HW124699   4.137   1.672   0.186
 2519SOL    HW224700   4.062   1.789   0.128
 2520SOL     OW24701   5.726   4.719   5.436
 2520SOL    HW124702   5.821   4.714   5.445
 2520SOL    HW224703   5.710   4.805   5.397
 2521SOL     OW24704   3.424   1.434   7.394
 2521SOL    HW124705   3.519   1.429   7.405
 2521SOL    HW224706   3.396   1.344   7.379
 2522SOL     OW24707   1.177   0.310   1.703
 2522SOL    HW124708   1.116   0.293   1.631
 2522SOL    HW224709   1.127   0.360   1.767
 2523SOL     OW24710   2.300   3.556   7.500
 2523SOL    HW124711   2.284   3.463   7.514
 2523SOL    HW224712   2.315   3.591   7.588
 2524SOL     OW24713   5.498   5.221   1.722
 2524SOL    HW124714   5.511   5.316   1.727
 2524SOL    HW224715   5.404   5.209   1.735
 2525SOL     OW24716   1.788   3.640   1.671
 2525SOL    HW124717   1.758   3.583   1.600
 2525SOL    HW224718   1.754   3.726   1.648
 2526SOL     OW24719   1.605   1.696   7.423
 2526SOL    HW124720   1.608   1.686   7.328
 2526SOL    HW224721   1.667   1.766   7.442
 2527SOL     OW24722   5.103   3.725   5.107
 2527SOL    HW124723   5.039   3.676   5.055
 2527SOL    HW224724   5.137   3.661   5.169
 2528SOL     OW24725   4.953   2.545   6.062
 2528SOL    HW124726   4.896   2.568   5.989
 2528SOL    HW224727   4.998   2.465   6.033
 2529SOL     OW24728   2.026   4.815   6.951
 2529SOL    HW124729   2.074   4.738   6.919
 2529SOL    HW224730   2.095   4.880   6.966
 2530SOL     OW24731   4.906   4.582   0.788
 2530SOL    HW124732   4.829   4.639   0.790
 2530SOL    HW224733   4.891   4.524   0.713
 2531SOL     OW24734   5.731   3.032   1.691
 2531SOL    HW124735   5.804   3.090   1.667
 2531SOL    HW224736   5.765   2.944   1.676
 2532SOL     OW24737   6.356   5.133   6.087
 2532SOL    HW124738   6.299   5.129   6.010
 2532SOL    HW224739   6.383   5.042   6.102
 2533SOL     OW24740   4.737   5.903   7.104
 2533SOL    HW124741   4.789   5.950   7.039
 2533SOL    HW224742   4.771   5.813   7.100
 2534SOL     OW24743   0.952   5.868   5.663
 2534SOL    HW124744   0.958   5.778   5.696
 2534SOL    HW224745   1.010   5.869   5.587
 2535SOL     OW24746   0.495   0.065   1.336
 2535SOL    HW124747   0.561   0.127   1.305
 2535SOL    HW224748   0.496   0.074   1.431
 2536SOL     OW24749   2.489   3.779   6.419
 2536SOL    HW124750   2.558   3.844   6.434
 2536SOL    HW224751   2.408   3.829   6.429
 2537SOL     OW24752   1.016   3.158   1.160
 2537SOL    HW124753   1.077   3.089   1.137
 2537SOL    HW224754   1.064   3.240   1.145
 2538SOL     OW24755   2.145   1.756   5.947
 2538SOL    HW124756   2.145   1.660   5.943
 2538SOL    HW224757   2.142   1.776   6.041
 2539SOL     OW24758   0.271   4.835   6.719
 2539SOL    HW124759   0.300   4.745   6.706
 2539SOL    HW224760   0.227   4.858   6.637
 2540SOL     OW24761   0.418   0.048   5.418
 2540SOL    HW124762   0.419   0.142   5.403
 2540SOL    HW224763   0.472   0.036   5.496
 2541SOL     OW24764   6.394   3.153   6.829
 2541SOL    HW124765   6.442   3.083   6.786
 2541SOL    HW224766   6.314   3.164   6.778
 2542SOL     OW24767   2.755   1.889   0.605
 2542SOL    HW124768   2.817   1.926   0.542
 2542SOL    HW224769   2.810   1.858   0.677
 2543SOL     OW24770   4.982   3.391   1.711
 2543SOL    HW124771   5.044   3.422   1.776
 2543SOL    HW224772   4.988   3.455   1.640
 2544SOL     OW24773   0.025   2.524   6.621
 2544SOL    HW124774  -0.010   2.481   6.700
 2544SOL    HW224775   0.112   2.487   6.611
 2545SOL     OW24776   2.558   4.884   7.444
 2545SOL    HW124777   2.618   4.819   7.481
 2545SOL    HW224778   2.514   4.839   7.372
 2546SOL     OW24779   4.047   5.385   1.201
 2546SOL    HW124780   4.002   5.356   1.281
 2546SOL    HW224781   3.976   5.396   1.137
 2547SOL     OW24782   3.280   5.937   1.285
 2547SOL    HW124783   3.322   5.949   1.370
 2547SOL    HW224784   3.289   6.022   1.242
 2548SOL     OW24785   1.192   4.139   6.392
 2548SOL    HW124786   1.230   4.121   6.307
 2548SOL    HW224787   1.211   4.061   6.444
 2549SOL     OW24788   1.591   2.762   1.066
 2549SOL    HW124789   1.594   2.791   0.975
 2549SOL    HW224790   1.507   2.795   1.099
 2550SOL     OW24791   1.035   5.749   2.027
 2550SOL    HW124792   1.079   5.669   2.056
 2550SOL    HW224793   1.064   5.816   2.089
 2551SOL     OW24794   5.931   0.789   0.523
 2551SOL    HW124795   5.996   0.720   0.537
 2551SOL    HW224796   5.946   0.817   0.432
 2552SOL     OW24797   5.749   5.902   1.585
 2552SOL    HW124798   5.677   5.904   1.648
 2552SOL    HW224799   5.811   5.968   1.618
 2553SOL     OW24800   2.473   0.785   7.566
 2553SOL    HW124801   2.384   0.749   7.560
 2553SOL    HW224802   2.493   0.785   7.659
 2554SOL     OW24803   2.189   4.503   0.133
 2554SOL    HW124804   2.151   4.495   0.221
 2554SOL    HW224805   2.280   4.527   0.148
 2555SOL     OW24806   1.042   4.162   0.234
 2555SOL    HW124807   0.964   4.188   0.283
 2555SOL    HW224808   1.100   4.122   0.300
 2556SOL     OW24809   2.670   1.048   1.917
 2556SOL    HW124810   2.720   1.126   1.893
 2556SOL    HW224811   2.601   1.043   1.850
 2557SOL     OW24812   4.689   1.383   1.582
 2557SOL    HW124813   4.723   1.405   1.669
 2557SOL    HW224814   4.611   1.438   1.572
 2558SOL     OW24815   0.834   3.856   7.469
 2558SOL    HW124816   0.790   3.882   7.550
 2558SOL    HW224817   0.815   3.928   7.408
 2559SOL     OW24818   5.388   6.288   1.332
 2559SOL    HW124819   5.303   6.247   1.343
 2559SOL    HW224820   5.405   6.284   1.238
 2560SOL     OW24821   5.113   5.996   7.760
 2560SOL    HW124822   5.154   6.037   7.836
 2560SOL    HW224823   5.182   5.940   7.723
 2561SOL     OW24824   1.078   0.919   0.673
 2561SOL    HW124825   0.990   0.956   0.664
 2561SOL    HW224826   1.121   0.941   0.590
 2562SOL     OW24827   3.090   5.282   7.814
 2562SOL    HW124828   3.166   5.239   7.775
 2562SOL    HW224829   3.019   5.266   7.752
 2563SOL     OW24830   3.348   0.870   1.119
 2563SOL    HW124831   3.373   0.946   1.172
 2563SOL    HW224832   3.386   0.795   1.164
 2564SOL     OW24833   1.185   2.496   1.190
 2564SOL    HW124834   1.198   2.469   1.281
 2564SOL    HW224835   1.197   2.591   1.192
 2565SOL     OW24836   5.751   1.850   6.598
 2565SOL    HW124837   5.821   1.817   6.654
 2565SOL    HW224838   5.712   1.771   6.559
 2566SOL     OW24839   3.496   4.111   0.641
 2566SOL    HW124840   3.483   4.109   0.546
 2566SOL    HW224841   3.408   4.116   0.678
 2567SOL     OW24842   3.723   6.020   1.887
 2567SOL    HW124843   3.805   6.069   1.900
 2567SOL    HW224844   3.736   5.939   1.936
 2568SOL     OW24845   4.411   1.599   7.031
 2568SOL    HW124846   4.493   1.648   7.027
 2568SOL    HW224847   4.355   1.651   7.089
 2569SOL     OW24848   6.399   3.395   0.388
 2569SOL    HW124849   6.303   3.402   0.389
 2569SOL    HW224850   6.419   3.354   0.304
 2570SOL     OW24851   5.880   2.383   1.381
 2570SOL    HW124852   5.934   2.460   1.363
 2570SOL    HW224853   5.857   2.390   1.474
 2571SOL     OW24854   0.024   6.051   7.570
 2571SOL    HW124855   0.102   6.023   7.522
 2571SOL    HW224856   0.036   6.015   7.657
 2572SOL     OW24857   1.320   0.599   1.420
 2572SOL    HW124858   1.226   0.583   1.409
 2572SOL    HW224859   1.358   0.578   1.335
 2573SOL     OW24860   3.571   4.134   7.597
 2573SOL    HW124861   3.510   4.191   7.644
 2573SOL    HW224862   3.648   4.130   7.654
 2574SOL     OW24863   1.514   1.215   2.498
 2574SOL    HW124864   1.418   1.216   2.491
 2574SOL    HW224865   1.538   1.125   2.480
 2575SOL     OW24866   2.540   2.560   0.596
 2575SOL    HW124867   2.512   2.649   0.615
 2575SOL    HW224868   2.634   2.561   0.614
 2576SOL     OW24869   0.491   1.857   1.374
 2576SOL    HW124870   0.460   1.884   1.287
 2576SOL    HW224871   0.546   1.930   1.403
 2577SOL     OW24872   3.230   4.285   1.902
 2577SOL    HW124873   3.148   4.314   1.943
 2577SOL    HW224874   3.279   4.365   1.885
 2578SOL     OW24875   4.213   4.282   1.263
 2578SOL    HW124876   4.164   4.233   1.197
 2578SOL    HW224877   4.243   4.360   1.217
 2579SOL     OW24878   2.399   4.194   1.586
 2579SOL    HW124879   2.390   4.257   1.658
 2579SOL    HW224880   2.483   4.214   1.546
 2580SOL     OW24881   5.479   6.225   5.757
 2580SOL    HW124882   5.506   6.175   5.680
 2580SOL    HW224883   5.386   6.244   5.742
 2581SOL     OW24884   1.663   4.185   7.236
 2581SOL    HW124885   1.670   4.201   7.330
 2581SOL    HW224886   1.672   4.090   7.228
 2582SOL     OW24887   4.590   2.078   0.023
 2582SOL    HW124888   4.495   2.091   0.021
 2582SOL    HW224889   4.613   2.086   0.116
 2583SOL     OW24890   1.048   4.293   5.479
 2583SOL    HW124891   0.988   4.367   5.479
 2583SOL    HW224892   1.076   4.284   5.388
 2584SOL     OW24893   2.660   5.851   5.563
 2584SOL    HW124894   2.630   5.912   5.495
 2584SOL    HW224895   2.652   5.901   5.645
 2585SOL     OW24896   5.181   2.723   7.498
 2585SOL    HW124897   5.133   2.803   7.478
 2585SOL    HW224898   5.273   2.745   7.482
 2586SOL     OW24899   4.025   4.649   5.622
 2586SOL    HW124900   3.968   4.716   5.659
 2586SOL    HW224901   4.054   4.597   5.697
 2587SOL     OW24902   5.489   2.201   1.520
 2587SOL    HW124903   5.397   2.208   1.493
 2587SOL    HW224904   5.525   2.289   1.510
 2588SOL     OW24905   2.123   3.995   6.926
 2588SOL    HW124906   2.042   3.966   6.882
 2588SOL    HW224907   2.096   4.011   7.016
 2589SOL     OW24908   2.164   2.027   6.678
 2589SOL    HW124909   2.160   2.081   6.600
 2589SOL    HW224910   2.252   1.990   6.678
 2590SOL     OW24911   2.672   2.638   6.414
 2590SOL    HW124912   2.742   2.576   6.394
 2590SOL    HW224913   2.707   2.723   6.389
 2591SOL     OW24914   1.422   1.608   5.437
 2591SOL    HW124915   1.445   1.676   5.500
 2591SOL    HW224916   1.492   1.543   5.444
 2592SOL     OW24917   1.518   6.373   2.398
 2592SOL    HW124918   1.453   6.401   2.333
 2592SOL    HW224919   1.601   6.375   2.351
 2593SOL     OW24920   4.727   0.757   0.160
 2593SOL    HW124921   4.738   0.690   0.227
 2593SOL    HW224922   4.724   0.709   0.078
 2594SOL     OW24923   4.142   4.175   2.305
 2594SOL    HW124924   4.207   4.220   2.252
 2594SOL    HW224925   4.083   4.245   2.334
 2595SOL     OW24926   3.620   5.699   2.223
 2595SOL    HW124927   3.656   5.715   2.311
 2595SOL    HW224928   3.565   5.622   2.234
 2596SOL     OW24929   2.825   2.435   0.863
 2596SOL    HW124930   2.808   2.375   0.791
 2596SOL    HW224931   2.784   2.517   0.836
 2597SOL     OW24932   5.026   0.100   1.238
 2597SOL    HW124933   5.030   0.145   1.153
 2597SOL    HW224934   5.072   0.018   1.223
 2598SOL     OW24935   1.883   5.906   0.390
 2598SOL    HW124936   1.831   5.951   0.323
 2598SOL    HW224937   1.974   5.931   0.370
 2599SOL     OW24938   3.439   4.301   7.772
 2599SOL    HW124939   3.498   4.280   7.844
 2599SOL    HW224940   3.369   4.353   7.813
 2600SOL     OW24941   5.808   0.139   1.615
 2600SOL    HW124942   5.898   0.135   1.582
 2600SOL    HW224943   5.817   0.160   1.708
 2601SOL     OW24944   5.232   0.827   0.058
 2601SOL    HW124945   5.211   0.734   0.060
 2601SOL    HW224946   5.147   0.871   0.054
 2602SOL     OW24947   4.163   5.697   7.763
 2602SOL    HW124948   4.253   5.673   7.783
 2602SOL    HW224949   4.117   5.690   7.847
 2603SOL     OW24950   0.395   0.097   0.048
 2603SOL    HW124951   0.304   0.124   0.060
 2603SOL    HW224952   0.411   0.036   0.120
 2604SOL     OW24953   4.158   5.093   0.799
 2604SOL    HW124954   4.095   5.113   0.868
 2604SOL    HW224955   4.234   5.148   0.819
 2605SOL     OW24956   4.597   5.949   6.762
 2605SOL    HW124957   4.670   6.004   6.734
 2605SOL    HW224958   4.638   5.873   6.803
 2606SOL     OW24959   0.053   3.611   0.079
 2606SOL    HW124960   0.105   3.607  -0.001
 2606SOL    HW224961  -0.004   3.687   0.068
 2607SOL     OW24962   2.867   5.213   7.126
 2607SOL    HW124963   2.834   5.299   7.151
 2607SOL    HW224964   2.820   5.191   7.046
 2608SOL     OW24965   0.063   1.913   6.544
 2608SOL    HW124966  -0.019   1.873   6.516
 2608SOL    HW224967   0.131   1.852   6.515
 2609SOL     OW24968   5.671   3.886   0.150
 2609SOL    HW124969   5.730   3.924   0.084
 2609SOL    HW224970   5.606   3.838   0.098
 2610SOL     OW24971   2.196   5.492   7.274
 2610SOL    HW124972   2.104   5.518   7.266
 2610SOL    HW224973   2.195   5.419   7.335
 2611SOL     OW24974   5.437   5.952   0.838
 2611SOL    HW124975   5.497   5.888   0.800
 2611SOL    HW224976   5.351   5.930   0.803
 2612SOL     OW24977   4.334   0.619   7.284
 2612SOL    HW124978   4.311   0.708   7.310
 2612SOL    HW224979   4.260   0.590   7.231
 2613SOL     OW24980   3.471   5.664   1.003
 2613SOL    HW124981   3.514   5.733   1.053
 2613SOL    HW224982   3.388   5.702   0.975
 2614SOL     OW24983   4.321   0.796   0.107
 2614SOL    HW124984   4.382   0.848   0.055
 2614SOL    HW224985   4.371   0.720   0.135
 2615SOL     OW24986   5.486   2.631   2.239
 2615SOL    HW124987   5.542   2.630   2.161
 2615SOL    HW224988   5.537   2.677   2.305
 2616SOL     OW24989   1.115   5.534   6.044
 2616SOL    HW124990   1.103   5.461   6.105
 2616SOL    HW224991   1.134   5.492   5.960
 2617SOL     OW24992   2.736   0.785   2.200
 2617SOL    HW124993   2.777   0.770   2.285
 2617SOL    HW224994   2.682   0.864   2.214
 2618SOL     OW24995   4.072   0.768   0.196
 2618SOL    HW124996   4.026   0.701   0.145
 2618SOL    HW224997   4.164   0.745   0.188
 2619SOL     OW24998   2.496   2.550   6.112
 2619SOL    HW124999   2.542   2.610   6.170
 2619SOL    HW225000   2.519   2.579   6.024
 2620SOL     OW25001   1.480   0.010   1.962
 2620SOL    HW125002   1.455  -0.013   2.051
 2620SOL    HW225003   1.397   0.028   1.918
 2621SOL     OW25004   2.016   0.541   1.069
 2621SOL    HW125005   2.065   0.485   1.130
 2621SOL    HW225006   1.935   0.492   1.054
 2622SOL     OW25007   1.477   3.534   1.218
 2622SOL    HW125008   1.539   3.584   1.271
 2622SOL    HW225009   1.404   3.595   1.203
 2623SOL     OW25010   4.240   2.583   1.843
 2623SOL    HW125011   4.152   2.621   1.838
 2623SOL    HW225012   4.299   2.655   1.821
 2624SOL     OW25013   5.940   2.317   7.222
 2624SOL    HW125014   6.005   2.366   7.274
 2624SOL    HW225015   5.862   2.316   7.277
 2625SOL     OW25016   0.707   4.187   7.686
 2625SOL    HW125017   0.692   4.222   7.598
 2625SOL    HW225018   0.668   4.100   7.684
 2626SOL     OW25019   0.500   2.544   1.616
 2626SOL    HW125020   0.498   2.495   1.698
 2626SOL    HW225021   0.527   2.633   1.641
 2627SOL     OW25022   3.769   6.380   0.283
 2627SOL    HW125023   3.697   6.358   0.224
 2627SOL    HW225024   3.727   6.401   0.367
 2628SOL     OW25025   5.506   3.362   0.917
 2628SOL    HW125026   5.463   3.292   0.966
 2628SOL    HW225027   5.575   3.394   0.975
 2629SOL     OW25028   6.060   5.683   1.183
 2629SOL    HW125029   6.025   5.716   1.100
 2629SOL    HW225030   5.993   5.625   1.217
 2630SOL     OW25031  -0.002   2.280   0.610
 2630SOL    HW125032   0.035   2.367   0.626
 2630SOL    HW225033   0.058   2.239   0.547
 2631SOL     OW25034   2.891   1.880   1.378
 2631SOL    HW125035   2.963   1.832   1.337
 2631SOL    HW225036   2.933   1.952   1.424
 2632SOL     OW25037   4.381   1.099   1.324
 2632SOL    HW125038   4.463   1.093   1.275
 2632SOL    HW225039   4.407   1.087   1.416
 2633SOL     OW25040   6.341   2.574   1.330
 2633SOL    HW125041   6.351   2.658   1.376
 2633SOL    HW225042   6.419   2.524   1.355
 2634SOL     OW25043   2.969   3.791   1.950
 2634SOL    HW125044   3.022   3.746   2.016
 2634SOL    HW225045   2.879   3.779   1.981
 2635SOL     OW25046   4.175   3.902   7.607
 2635SOL    HW125047   4.103   3.842   7.626
 2635SOL    HW225048   4.209   3.874   7.522
 2636SOL     OW25049   3.887   0.589   7.156
 2636SOL    HW125050   3.819   0.539   7.112
 2636SOL    HW225051   3.846   0.622   7.236
 2637SOL     OW25052   5.758   1.475   6.970
 2637SOL    HW125053   5.673   1.516   6.952
 2637SOL    HW225054   5.822   1.546   6.960
 2638SOL     OW25055   0.837   4.704   0.658
 2638SOL    HW125056   0.889   4.635   0.616
 2638SOL    HW225057   0.799   4.662   0.736
 2639SOL     OW25058   2.331   3.687   5.617
 2639SOL    HW125059   2.418   3.682   5.657
 2639SOL    HW225060   2.307   3.779   5.622
 2640SOL     OW25061   1.049   3.898   5.448
 2640SOL    HW125062   1.139   3.926   5.433
 2640SOL    HW225063   1.019   3.954   5.520
 2641SOL     OW25064   0.708   4.140   1.635
 2641SOL    HW125065   0.715   4.228   1.673
 2641SOL    HW225066   0.619   4.112   1.655
 2642SOL     OW25067   6.233   3.900   6.899
 2642SOL    HW125068   6.248   3.994   6.896
 2642SOL    HW225069   6.276   3.872   6.980
 2643SOL     OW25070   4.326   1.821   6.752
 2643SOL    HW125071   4.291   1.887   6.692
 2643SOL    HW225072   4.386   1.770   6.698
 2644SOL     OW25073   0.986   2.794   7.332
 2644SOL    HW125074   0.974   2.814   7.425
 2644SOL    HW225075   0.903   2.754   7.305
 2645SOL     OW25076   0.239   1.568   0.307
 2645SOL    HW125077   0.173   1.637   0.297
 2645SOL    HW225078   0.221   1.530   0.394
 2646SOL     OW25079   4.870   1.785   1.853
 2646SOL    HW125080   4.822   1.857   1.895
 2646SOL    HW225081   4.962   1.802   1.874
 2647SOL     OW25082   1.403   0.898   0.076
 2647SOL    HW125083   1.492   0.931   0.066
 2647SOL    HW225084   1.348   0.971   0.046
 2648SOL     OW25085   6.217   5.519   7.337
 2648SOL    HW125086   6.290   5.458   7.332
 2648SOL    HW225087   6.184   5.509   7.427
 2649SOL     OW25088   6.381   4.498   2.519
 2649SOL    HW125089   6.404   4.439   2.447
 2649SOL    HW225090   6.298   4.539   2.491
 2650SOL     OW25091   5.249   4.379   2.110
 2650SOL    HW125092   5.171   4.381   2.054
 2650SOL    HW225093   5.217   4.348   2.195
 2651SOL     OW25094   4.087   5.408   6.120
 2651SOL    HW125095   4.110   5.315   6.116
 2651SOL    HW225096   4.136   5.448   6.048
 2652SOL     OW25097   4.017   3.006   7.696
 2652SOL    HW125098   4.045   3.002   7.787
 2652SOL    HW225099   4.020   3.099   7.674
 2653SOL     OW25100   4.958   3.144   7.465
 2653SOL    HW125101   5.000   3.202   7.402
 2653SOL    HW225102   4.899   3.089   7.413
 2654SOL     OW25103   4.289   1.432   0.552
 2654SOL    HW125104   4.346   1.509   0.555
 2654SOL    HW225105   4.248   1.429   0.638
 2655SOL     OW25106   3.265   5.893   7.053
 2655SOL    HW125107   3.210   5.876   7.130
 2655SOL    HW225108   3.324   5.964   7.081
 2656SOL     OW25109   5.694   6.083   1.087
 2656SOL    HW125110   5.733   6.091   1.174
 2656SOL    HW225111   5.633   6.156   1.081
 2657SOL     OW25112   6.042   5.600   2.252
 2657SOL    HW125113   5.973   5.639   2.198
 2657SOL    HW225114   6.025   5.633   2.340
 2658SOL     OW25115   0.360   6.222   1.860
 2658SOL    HW125116   0.364   6.268   1.776
 2658SOL    HW225117   0.369   6.130   1.837
 2659SOL     OW25118   1.681   0.933   0.135
 2659SOL    HW125119   1.652   0.989   0.208
 2659SOL    HW225120   1.746   0.874   0.174
 2660SOL     OW25121   0.186   3.049   0.633
 2660SOL    HW125122   0.136   3.130   0.637
 2660SOL    HW225123   0.139   2.990   0.692
 2661SOL     OW25124   4.904   3.461   0.198
 2661SOL    HW125125   4.851   3.388   0.230
 2661SOL    HW225126   4.930   3.434   0.109
 2662SOL     OW25127   3.364   4.018   0.391
 2662SOL    HW125128   3.275   4.049   0.373
 2662SOL    HW225129   3.352   3.934   0.435
 2663SOL     OW25130   5.144   1.802   1.931
 2663SOL    HW125131   5.198   1.727   1.958
 2663SOL    HW225132   5.158   1.867   1.999
 2664SOL     OW25133   2.399   4.752   2.459
 2664SOL    HW125134   2.338   4.806   2.510
 2664SOL    HW225135   2.386   4.780   2.369
 2665SOL     OW25136   0.091   1.844   6.090
 2665SOL    HW125137   0.123   1.773   6.146
 2665SOL    HW225138  -0.004   1.839   6.098
 2666SOL     OW25139   4.953   5.681   6.056
 2666SOL    HW125140   5.035   5.693   6.007
 2666SOL    HW225141   4.891   5.740   6.012
 2667SOL     OW25142   3.059   5.945   1.483
 2667SOL    HW125143   3.028   5.987   1.403
 2667SOL    HW225144   2.979   5.914   1.526
 2668SOL     OW25145   3.966   4.834   1.077
 2668SOL    HW125146   3.880   4.864   1.106
 2668SOL    HW225147   4.002   4.787   1.152
 2669SOL     OW25148   2.775   5.575   0.423
 2669SOL    HW125149   2.702   5.566   0.485
 2669SOL    HW225150   2.841   5.624   0.471
 2670SOL     OW25151   0.670   3.764   6.815
 2670SOL    HW125152   0.587   3.803   6.841
 2670SOL    HW225153   0.659   3.743   6.722
 2671SOL     OW25154   6.158   1.050   0.080
 2671SOL    HW125155   6.238   1.060   0.131
 2671SOL    HW225156   6.089   1.043   0.145
 2672SOL     OW25157   3.319   2.846   7.468
 2672SOL    HW125158   3.245   2.875   7.415
 2672SOL    HW225159   3.392   2.839   7.407
 2673SOL     OW25160   3.720   6.005   5.943
 2673SOL    HW125161   3.675   6.063   5.881
 2673SOL    HW225162   3.780   6.062   5.991
 2674SOL     OW25163   5.919   5.029   0.447
 2674SOL    HW125164   5.841   5.027   0.502
 2674SOL    HW225165   5.886   5.013   0.358
 2675SOL     OW25166   3.070   3.462   1.295
 2675SOL    HW125167   3.039   3.394   1.236
 2675SOL    HW225168   3.020   3.449   1.375
 2676SOL     OW25169   0.025   4.792   1.171
 2676SOL    HW125170  -0.026   4.714   1.146
 2676SOL    HW225171  -0.035   4.845   1.222
 2677SOL     OW25172   0.440   0.217   6.579
 2677SOL    HW125173   0.510   0.156   6.605
 2677SOL    HW225174   0.404   0.179   6.499
 2678SOL     OW25175   2.065   3.289   7.120
 2678SOL    HW125176   2.063   3.198   7.148
 2678SOL    HW225177   1.976   3.321   7.136
 2679SOL     OW25178   3.960   3.357   6.801
 2679SOL    HW125179   4.053   3.378   6.810
 2679SOL    HW225180   3.922   3.435   6.761
 2680SOL     OW25181   2.393   4.211   6.064
 2680SOL    HW125182   2.317   4.214   6.006
 2680SOL    HW225183   2.402   4.118   6.087
 2681SOL     OW25184   4.885   3.526   2.113
 2681SOL    HW125185   4.831   3.528   2.192
 2681SOL    HW225186   4.975   3.519   2.147
 2682SOL     OW25187   2.450   3.353   0.729
 2682SOL    HW125188   2.429   3.305   0.648
 2682SOL    HW225189   2.437   3.445   0.706
 2683SOL     OW25190   1.268   0.129   0.467
 2683SOL    HW125191   1.304   0.040   0.467
 2683SOL    HW225192   1.243   0.145   0.376
 2684SOL     OW25193   4.098   4.799   6.884
 2684SOL    HW125194   4.080   4.738   6.955
 2684SOL    HW225195   4.025   4.860   6.884
 2685SOL     OW25196   0.332   0.813   0.316
 2685SOL    HW125197   0.347   0.737   0.373
 2685SOL    HW225198   0.264   0.784   0.255
 2686SOL     OW25199   3.942   2.912   6.544
 2686SOL    HW125200   3.952   2.906   6.639
 2686SOL    HW225201   3.893   2.994   6.530
 2687SOL     OW25202   1.765   2.348  -0.002
 2687SOL    HW125203   1.841   2.355   0.055
 2687SOL    HW225204   1.693   2.383   0.050
 2688SOL     OW25205   5.758   1.542   0.903
 2688SOL    HW125206   5.713   1.548   0.987
 2688SOL    HW225207   5.757   1.631   0.869
 2689SOL     OW25208   5.554   2.836   7.695
 2689SOL    HW125209   5.482   2.776   7.712
 2689SOL    HW225210   5.608   2.792   7.629
 2690SOL     OW25211   5.192   4.198   0.017
 2690SOL    HW125212   5.103   4.228   0.001
 2690SOL    HW225213   5.245   4.248  -0.045
 2691SOL     OW25214   4.933   2.338   7.340
 2691SOL    HW125215   4.973   2.254   7.315
 2691SOL    HW225216   4.842   2.315   7.361
 2692SOL     OW25217   5.960   2.749   6.932
 2692SOL    HW125218   5.869   2.731   6.911
 2692SOL    HW225219   5.976   2.837   6.898
 2693SOL     OW25220   1.994   4.335   0.289
 2693SOL    HW125221   1.927   4.382   0.340
 2693SOL    HW225222   2.029   4.270   0.349
 2694SOL     OW25223   4.605   1.654   1.533
 2694SOL    HW125224   4.589   1.683   1.623
 2694SOL    HW225225   4.698   1.635   1.529
 2695SOL     OW25226   0.877   1.983   7.196
 2695SOL    HW125227   0.846   2.020   7.113
 2695SOL    HW225228   0.969   2.010   7.203
 2696SOL     OW25229   0.897   6.035   7.575
 2696SOL    HW125230   0.852   5.967   7.624
 2696SOL    HW225231   0.941   5.989   7.504
 2697SOL     OW25232   3.409   0.369   5.555
 2697SOL    HW125233   3.502   0.388   5.544
 2697SOL    HW225234   3.364   0.442   5.513
 2698SOL     OW25235   5.784   2.983   1.056
 2698SOL    HW125236   5.694   2.987   1.026
 2698SOL    HW225237   5.777   2.954   1.147
 2699SOL     OW25238   2.424   0.444   1.675
 2699SOL    HW125239   2.458   0.359   1.647
 2699SOL    HW225240   2.494   0.481   1.730
 2700SOL     OW25241   3.867   1.027   7.734
 2700SOL    HW125242   3.902   0.938   7.728
 2700SOL    HW225243   3.934   1.076   7.781
 2701SOL     OW25244   3.038   1.579   6.485
 2701SOL    HW125245   3.107   1.513   6.474
 2701SOL    HW225246   2.960   1.538   6.449
 2702SOL     OW25247   4.048   3.038   6.313
 2702SOL    HW125248   3.991   2.983   6.260
 2702SOL    HW225249   4.023   3.019   6.403
 2703SOL     OW25250   2.002   2.898   2.078
 2703SOL    HW125251   1.912   2.876   2.105
 2703SOL    HW225252   2.052   2.898   2.159
 2704SOL     OW25253   5.518   3.359   0.630
 2704SOL    HW125254   5.612   3.369   0.647
 2704SOL    HW225255   5.482   3.330   0.713
 2705SOL     OW25256   0.555   0.875   7.187
 2705SOL    HW125257   0.463   0.872   7.213
 2705SOL    HW225258   0.603   0.876   7.270
 2706SOL     OW25259   5.248   4.680   0.046
 2706SOL    HW125260   5.305   4.715   0.115
 2706SOL    HW225261   5.241   4.751  -0.018
 2707SOL     OW25262   1.025   3.016   1.552
 2707SOL    HW125263   1.087   2.953   1.516
 2707SOL    HW225264   0.968   3.039   1.479
 2708SOL     OW25265   3.346   0.393   7.001
 2708SOL    HW125266   3.324   0.303   7.025
 2708SOL    HW225267   3.326   0.444   7.079
 2709SOL     OW25268   2.779   2.443   0.221
 2709SOL    HW125269   2.837   2.436   0.296
 2709SOL    HW225270   2.691   2.432   0.258
 2710SOL     OW25271   4.004   4.859   0.819
 2710SOL    HW125272   4.064   4.933   0.818
 2710SOL    HW225273   3.978   4.849   0.911
 2711SOL     OW25274   1.942   4.846   6.153
 2711SOL    HW125275   1.854   4.847   6.116
 2711SOL    HW225276   1.931   4.877   6.243
 2712SOL     OW25277   1.777   3.748   5.612
 2712SOL    HW125278   1.868   3.764   5.585
 2712SOL    HW225279   1.779   3.663   5.655
 2713SOL     OW25280   5.097   4.347   1.662
 2713SOL    HW125281   5.190   4.368   1.651
 2713SOL    HW225282   5.094   4.252   1.669
 2714SOL     OW25283   0.335   5.998   7.758
 2714SOL    HW125284   0.421   5.977   7.796
 2714SOL    HW225285   0.321   6.090   7.781
 2715SOL     OW25286   1.295   5.585   6.638
 2715SOL    HW125287   1.247   5.653   6.685
 2715SOL    HW225288   1.370   5.566   6.694
 2716SOL     OW25289   5.659   5.608   6.962
 2716SOL    HW125290   5.634   5.656   7.041
 2716SOL    HW225291   5.703   5.529   6.995
 2717SOL     OW25292   4.711   5.252   1.403
 2717SOL    HW125293   4.805   5.248   1.386
 2717SOL    HW225294   4.698   5.196   1.480
 2718SOL     OW25295   1.808   5.083   7.040
 2718SOL    HW125296   1.856   5.074   7.122
 2718SOL    HW225297   1.875   5.081   6.972
 2719SOL     OW25298   0.357   3.593   5.665
 2719SOL    HW125299   0.415   3.652   5.618
 2719SOL    HW225300   0.272   3.639   5.666
 2720SOL     OW25301   1.664   3.324   7.412
 2720SOL    HW125302   1.657   3.230   7.429
 2720SOL    HW225303   1.665   3.332   7.317
 2721SOL     OW25304   5.796   4.915   6.917
 2721SOL    HW125305   5.732   4.984   6.899
 2721SOL    HW225306   5.804   4.868   6.834
 2722SOL     OW25307   0.499   1.219   0.544
 2722SOL    HW125308   0.489   1.189   0.634
 2722SOL    HW225309   0.423   1.182   0.498
 2723SOL     OW25310   2.338   4.644   7.662
 2723SOL    HW125311   2.355   4.733   7.694
 2723SOL    HW225312   2.251   4.650   7.622
 2724SOL     OW25313   4.137   6.009   7.140
 2724SOL    HW125314   4.148   6.101   7.166
 2724SOL    HW225315   4.043   5.992   7.152
 2725SOL     OW25316   0.162   0.437   5.845
 2725SOL    HW125317   0.111   0.454   5.924
 2725SOL    HW225318   0.245   0.401   5.877
 2726SOL     OW25319   3.421   4.302   6.162
 2726SOL    HW125320   3.343   4.355   6.147
 2726SOL    HW225321   3.423   4.287   6.256
 2727SOL     OW25322   2.152   0.734   1.210
 2727SOL    HW125323   2.236   0.692   1.231
 2727SOL    HW225324   2.118   0.683   1.136
 2728SOL     OW25325   1.806   4.328   6.252
 2728SOL    HW125326   1.743   4.400   6.253
 2728SOL    HW225327   1.775   4.271   6.182
 2729SOL     OW25328   3.817   1.829   2.129
 2729SOL    HW125329   3.879   1.791   2.067
 2729SOL    HW225330   3.734   1.832   2.081
 2730SOL     OW25331   4.103   3.562   6.414
 2730SOL    HW125332   4.042   3.593   6.481
 2730SOL    HW225333   4.176   3.625   6.418
 2731SOL     OW25334   0.778   5.309   0.393
 2731SOL    HW125335   0.839   5.383   0.394
 2731SOL    HW225336   0.769   5.283   0.484
 2732SOL     OW25337   0.421   3.179   5.997
 2732SOL    HW125338   0.363   3.229   5.940
 2732SOL    HW225339   0.422   3.091   5.959
 2733SOL     OW25340   1.512   4.510   1.633
 2733SOL    HW125341   1.500   4.415   1.628
 2733SOL    HW225342   1.427   4.546   1.606
 2734SOL     OW25343   2.414   2.734   7.054
 2734SOL    HW125344   2.388   2.661   6.999
 2734SOL    HW225345   2.499   2.761   7.019
 2735SOL     OW25346   3.624   5.788   0.763
 2735SOL    HW125347   3.587   5.718   0.817
 2735SOL    HW225348   3.578   5.780   0.680
 2736SOL     OW25349   1.645   3.794   0.137
 2736SOL    HW125350   1.671   3.886   0.134
 2736SOL    HW225351   1.657   3.763   0.047
 2737SOL     OW25352   5.492   3.046   1.784
 2737SOL    HW125353   5.584   3.045   1.760
 2737SOL    HW225354   5.482   2.973   1.845
 2738SOL     OW25355   2.619   1.279   0.343
 2738SOL    HW125356   2.604   1.374   0.337
 2738SOL    HW225357   2.575   1.244   0.265
 2739SOL     OW25358   3.329   0.463   1.826
 2739SOL    HW125359   3.377   0.455   1.908
 2739SOL    HW225360   3.287   0.378   1.814
 2740SOL     OW25361   5.905   1.577   1.174
 2740SOL    HW125362   5.828   1.586   1.230
 2740SOL    HW225363   5.914   1.482   1.160
 2741SOL     OW25364   6.355   2.732   1.558
 2741SOL    HW125365   6.339   2.795   1.629
 2741SOL    HW225366   6.418   2.671   1.595
 2742SOL     OW25367   5.038   2.017   0.541
 2742SOL    HW125368   4.945   2.004   0.518
 2742SOL    HW225369   5.070   1.928   0.557
 2743SOL     OW25370   0.879   2.516   6.776
 2743SOL    HW125371   0.911   2.594   6.821
 2743SOL    HW225372   0.907   2.443   6.832
 2744SOL     OW25373   5.681   0.105   7.257
 2744SOL    HW125374   5.735   0.026   7.264
 2744SOL    HW225375   5.744   0.177   7.252
 2745SOL     OW25376   2.658   2.299   6.547
 2745SOL    HW125377   2.727   2.331   6.605
 2745SOL    HW225378   2.599   2.374   6.537
 2746SOL     OW25379   1.283   4.713   7.364
 2746SOL    HW125380   1.275   4.808   7.354
 2746SOL    HW225381   1.304   4.682   7.276
 2747SOL     OW25382   1.482   2.675   7.512
 2747SOL    HW125383   1.418   2.609   7.485
 2747SOL    HW225384   1.464   2.751   7.456
 2748SOL     OW25385   3.980   1.620   1.735
 2748SOL    HW125386   3.893   1.600   1.770
 2748SOL    HW225387   4.019   1.679   1.800
 2749SOL     OW25388   3.652   0.052   6.881
 2749SOL    HW125389   3.714   0.014   6.818
 2749SOL    HW225390   3.566   0.037   6.842
 2750SOL     OW25391   4.707   2.577   6.566
 2750SOL    HW125392   4.712   2.618   6.652
 2750SOL    HW225393   4.683   2.486   6.584
 2751SOL     OW25394   2.551   4.562   2.141
 2751SOL    HW125395   2.542   4.546   2.235
 2751SOL    HW225396   2.613   4.496   2.112
 2752SOL     OW25397   4.713   1.450   0.044
 2752SOL    HW125398   4.775   1.411   0.107
 2752SOL    HW225399   4.683   1.530   0.087
 2753SOL     OW25400   4.496   2.938   6.328
 2753SOL    HW125401   4.551   3.009   6.295
 2753SOL    HW225402   4.551   2.860   6.323
 2754SOL     OW25403   0.543   0.518   6.084
 2754SOL    HW125404   0.566   0.582   6.152
 2754SOL    HW225405   0.625   0.473   6.066
 2755SOL     OW25406   2.508   1.754   7.273
 2755SOL    HW125407   2.563   1.747   7.350
 2755SOL    HW225408   2.420   1.769   7.307
 2756SOL     OW25409   6.078   4.586   0.795
 2756SOL    HW125410   6.168   4.598   0.827
 2756SOL    HW225411   6.038   4.672   0.802
 2757SOL     OW25412   1.791   1.296   0.341
 2757SOL    HW125413   1.732   1.221   0.340
 2757SOL    HW225414   1.823   1.303   0.250
 2758SOL     OW25415   0.596   4.809   1.514
 2758SOL    HW125416   0.576   4.886   1.459
 2758SOL    HW225417   0.578   4.839   1.603
 2759SOL     OW25418   0.755   0.614   7.302
 2759SOL    HW125419   0.813   0.542   7.276
 2759SOL    HW225420   0.812   0.674   7.351
 2760SOL     OW25421   3.076   6.112   0.973
 2760SOL    HW125422   3.119   6.134   1.056
 2760SOL    HW225423   3.040   6.024   0.987
 2761SOL     OW25424   2.195   2.476   7.191
 2761SOL    HW125425   2.197   2.549   7.253
 2761SOL    HW225426   2.126   2.418   7.224
 2762SOL     OW25427   6.185   5.186   7.364
 2762SOL    HW125428   6.267   5.223   7.334
 2762SOL    HW225429   6.207   5.144   7.448
 2763SOL     OW25430   0.255   6.273   7.049
 2763SOL    HW125431   0.326   6.333   7.072
 2763SOL    HW225432   0.176   6.314   7.085
 2764SOL     OW25433   2.324   4.286   0.607
 2764SOL    HW125434   2.275   4.352   0.558
 2764SOL    HW225435   2.299   4.300   0.698
 2765SOL     OW25436   5.532   5.190   6.676
 2765SOL    HW125437   5.553   5.183   6.582
 2765SOL    HW225438   5.523   5.284   6.692
 2766SOL     OW25439   0.280   5.634   0.196
 2766SOL    HW125440   0.257   5.554   0.244
 2766SOL    HW225441   0.206   5.649   0.137
 2767SOL     OW25442   5.147   0.471   1.504
 2767SOL    HW125443   5.199   0.505   1.577
 2767SOL    HW225444   5.113   0.549   1.460
 2768SOL     OW25445   4.079   5.629   5.343
 2768SOL    HW125446   4.170   5.650   5.365
 2768SOL    HW225447   4.027   5.681   5.405
 2769SOL     OW25448   0.939   0.776   7.506
 2769SOL    HW125449   0.947   0.682   7.525
 2769SOL    HW225450   0.928   0.816   7.592
 2770SOL     OW25451   0.197   5.977   5.690
 2770SOL    HW125452   0.246   5.896   5.702
 2770SOL    HW225453   0.113   5.949   5.653
 2771SOL     OW25454   4.105   1.964   0.016
 2771SOL    HW125455   4.050   2.042   0.023
 2771SOL    HW225456   4.140   1.968  -0.073
 2772SOL     OW25457   4.740   0.961   5.307
 2772SOL    HW125458   4.734   0.969   5.402
 2772SOL    HW225459   4.658   0.917   5.282
 2773SOL     OW25460   5.923   1.696   6.858
 2773SOL    HW125461   5.940   1.789   6.875
 2773SOL    HW225462   5.982   1.650   6.918
 2774SOL     OW25463   5.361   1.428   7.573
 2774SOL    HW125464   5.293   1.494   7.586
 2774SOL    HW225465   5.433   1.457   7.629
 2775SOL     OW25466   0.341   3.411   1.307
 2775SOL    HW125467   0.336   3.417   1.211
 2775SOL    HW225468   0.310   3.322   1.327
 2776SOL     OW25469   1.640   0.850   1.860
 2776SOL    HW125470   1.632   0.945   1.841
 2776SOL    HW225471   1.554   0.826   1.896
 2777SOL     OW25472   6.014   4.499   5.228
 2777SOL    HW125473   6.063   4.480   5.308
 2777SOL    HW225474   6.051   4.439   5.163
 2778SOL     OW25475   5.379   2.143   0.972
 2778SOL    HW125476   5.434   2.191   0.910
 2778SOL    HW225477   5.305   2.112   0.919
 2779SOL     OW25478   5.774   3.650   0.887
 2779SOL    HW125479   5.688   3.622   0.920
 2779SOL    HW225480   5.837   3.613   0.949
 2780SOL     OW25481   3.902   2.228   5.559
 2780SOL    HW125482   3.876   2.319   5.575
 2780SOL    HW225483   3.859   2.177   5.627
 2781SOL     OW25484   2.489   1.432   1.232
 2781SOL    HW125485   2.484   1.477   1.316
 2781SOL    HW225486   2.576   1.453   1.197
 2782SOL     OW25487   5.876   3.203   7.349
 2782SOL    HW125488   5.832   3.210   7.264
 2782SOL    HW225489   5.967   3.228   7.332
 2783SOL     OW25490   5.221   3.498   0.040
 2783SOL    HW125491   5.164   3.456  -0.025
 2783SOL    HW225492   5.248   3.580  -0.001
 2784SOL     OW25493   3.064   0.198   0.161
 2784SOL    HW125494   3.044   0.260   0.231
 2784SOL    HW225495   3.133   0.143   0.197
 2785SOL     OW25496   2.482   4.479   0.219
 2785SOL    HW125497   2.523   4.546   0.165
 2785SOL    HW225498   2.496   4.509   0.309
 2786SOL     OW25499   4.812   3.763   7.664
 2786SOL    HW125500   4.754   3.831   7.632
 2786SOL    HW225501   4.871   3.743   7.591
 2787SOL     OW25502   0.938   5.303   5.924
 2787SOL    HW125503   1.005   5.246   5.886
 2787SOL    HW225504   0.977   5.391   5.921
 2788SOL     OW25505   2.483   5.941   6.062
 2788SOL    HW125506   2.423   6.015   6.058
 2788SOL    HW225507   2.486   5.917   6.155
 2789SOL     OW25508   5.440   3.841   6.801
 2789SOL    HW125509   5.389   3.904   6.750
 2789SOL    HW225510   5.531   3.864   6.783
 2790SOL     OW25511   1.539   5.839   1.651
 2790SOL    HW125512   1.482   5.789   1.710
 2790SOL    HW225513   1.626   5.831   1.689
 2791SOL     OW25514   5.048   1.304   0.036
 2791SOL    HW125515   5.142   1.289   0.026
 2791SOL    HW225516   5.016   1.316  -0.053
 2792SOL     OW25517   2.297   1.379   6.803
 2792SOL    HW125518   2.226   1.431   6.765
 2792SOL    HW225519   2.376   1.430   6.783
 2793SOL     OW25520   4.083   4.187   5.501
 2793SOL    HW125521   3.991   4.203   5.483
 2793SOL    HW225522   4.097   4.096   5.474
 2794SOL     OW25523   3.435   5.572   0.347
 2794SOL    HW125524   3.448   5.619   0.265
 2794SOL    HW225525   3.472   5.485   0.331
 2795SOL     OW25526   1.280   0.870   1.178
 2795SOL    HW125527   1.238   0.893   1.096
 2795SOL    HW225528   1.208   0.863   1.241
 2796SOL     OW25529   3.280   3.012   2.439
 2796SOL    HW125530   3.361   3.060   2.418
 2796SOL    HW225531   3.223   3.078   2.478
 2797SOL     OW25532   0.356   0.579   1.198
 2797SOL    HW125533   0.329   0.491   1.172
 2797SOL    HW225534   0.275   0.626   1.215
 2798SOL     OW25535   3.170   5.047   1.157
 2798SOL    HW125536   3.198   5.138   1.146
 2798SOL    HW225537   3.215   5.017   1.236
 2799SOL     OW25538   3.431   6.397   7.287
 2799SOL    HW125539   3.341   6.393   7.321
 2799SOL    HW225540   3.461   6.485   7.311
 2800SOL     OW25541   0.546   2.092   6.530
 2800SOL    HW125542   0.505   2.056   6.452
 2800SOL    HW225543   0.637   2.109   6.505
 2801SOL     OW25544   2.470   0.036   0.191
 2801SOL    HW125545   2.492   0.125   0.218
 2801SOL    HW225546   2.522  -0.020   0.248
 2802SOL     OW25547   6.098   4.096   1.666
 2802SOL    HW125548   6.049   4.058   1.593
 2802SOL    HW225549   6.169   4.145   1.624
 2803SOL     OW25550   1.435   3.138   6.427
 2803SOL    HW125551   1.380   3.167   6.499
 2803SOL    HW225552   1.448   3.216   6.373
 2804SOL     OW25553   3.582   2.894   4.916
 2804SOL    HW125554   3.491   2.900   4.947
 2804SOL    HW225555   3.603   2.801   4.922
 2805SOL     OW25556   3.019   1.954   2.455
 2805SOL    HW125557   3.071   2.035   2.463
 2805SOL    HW225558   3.005   1.926   2.546
 2806SOL     OW25559   1.833   0.797   7.197
 2806SOL    HW125560   1.827   0.848   7.116
 2806SOL    HW225561   1.839   0.863   7.266
 2807SOL     OW25562   0.067   2.874   7.522
 2807SOL    HW125563   0.162   2.882   7.524
 2807SOL    HW225564   0.046   2.817   7.596
 2808SOL     OW25565   4.467   0.827   1.044
 2808SOL    HW125566   4.502   0.912   1.071
 2808SOL    HW225567   4.536   0.788   0.991
 2809SOL     OW25568   2.330   0.053   1.349
 2809SOL    HW125569   2.346  -0.041   1.357
 2809SOL    HW225570   2.372   0.078   1.267
 2810SOL     OW25571   0.695   5.920   5.593
 2810SOL    HW125572   0.659   5.922   5.681
 2810SOL    HW225573   0.787   5.893   5.605
 2811SOL     OW25574   2.612   3.749   1.403
 2811SOL    HW125575   2.692   3.751   1.455
 2811SOL    HW225576   2.627   3.680   1.338
 2812SOL     OW25577   0.041   5.566   0.580
 2812SOL    HW125578   0.131   5.573   0.548
 2812SOL    HW225579   0.048   5.582   0.674
 2813SOL     OW25580   5.515   4.059   0.367
 2813SOL    HW125581   5.571   4.010   0.428
 2813SOL    HW225582   5.554   4.044   0.281
 2814SOL     OW25583   0.538   1.792   7.094
 2814SOL    HW125584   0.461   1.835   7.132
 2814SOL    HW225585   0.600   1.786   7.166
 2815SOL     OW25586   4.109   3.335   7.759
 2815SOL    HW125587   4.135   3.379   7.841
 2815SOL    HW225588   4.174   3.266   7.747
 2816SOL     OW25589   2.621   5.875   6.781
 2816SOL    HW125590   2.557   5.947   6.777
 2816SOL    HW225591   2.591   5.813   6.715
 2817SOL     OW25592   2.524   2.327   7.788
 2817SOL    HW125593   2.615   2.352   7.773
 2817SOL    HW225594   2.524   2.286   7.875
 2818SOL     OW25595   3.601   2.251   7.777
 2818SOL    HW125596   3.549   2.299   7.712
 2818SOL    HW225597   3.537   2.203   7.829
 2819SOL     OW25598   4.809   2.703   1.686
 2819SOL    HW125599   4.761   2.715   1.768
 2819SOL    HW225600   4.745   2.718   1.617
 2820SOL     OW25601   5.600   5.660   0.304
 2820SOL    HW125602   5.561   5.651   0.217
 2820SOL    HW225603   5.571   5.746   0.334
 2821SOL     OW25604   2.407   3.218   1.818
 2821SOL    HW125605   2.336   3.160   1.844
 2821SOL    HW225606   2.470   3.214   1.890
 2822SOL     OW25607   3.214   0.221   5.695
 2822SOL    HW125608   3.261   0.294   5.655
 2822SOL    HW225609   3.234   0.146   5.640
 2823SOL     OW25610   5.515   6.296   6.046
 2823SOL    HW125611   5.456   6.287   5.972
 2823SOL    HW225612   5.472   6.360   6.103
 2824SOL     OW25613   5.954   0.177   1.213
 2824SOL    HW125614   5.999   0.148   1.133
 2824SOL    HW225615   5.975   0.270   1.219
 2825SOL     OW25616   4.123   1.467   7.340
 2825SOL    HW125617   4.033   1.489   7.316
 2825SOL    HW225618   4.120   1.374   7.362
 2826SOL     OW25619   4.369   1.434   7.657
 2826SOL    HW125620   4.280   1.400   7.646
 2826SOL    HW225621   4.384   1.487   7.579
 2827SOL     OW25622   4.845   2.548   1.362
 2827SOL    HW125623   4.915   2.485   1.345
 2827SOL    HW225624   4.823   2.536   1.454
 2828SOL     OW25625   3.733   4.388   6.083
 2828SOL    HW125626   3.689   4.327   6.143
 2828SOL    HW225627   3.686   4.378   6.000
 2829SOL     OW25628   5.696   1.661   6.159
 2829SOL    HW125629   5.742   1.732   6.203
 2829SOL    HW225630   5.765   1.612   6.115
 2830SOL     OW25631   3.750   2.905   1.149
 2830SOL    HW125632   3.766   2.959   1.226
 2830SOL    HW225633   3.658   2.920   1.127
 2831SOL     OW25634   0.501   1.743   0.867
 2831SOL    HW125635   0.490   1.838   0.855
 2831SOL    HW225636   0.585   1.736   0.914
 2832SOL     OW25637   2.896   5.125   0.530
 2832SOL    HW125638   2.814   5.088   0.497
 2832SOL    HW225639   2.959   5.054   0.523
 2833SOL     OW25640   2.596   1.034   2.196
 2833SOL    HW125641   2.611   1.124   2.224
 2833SOL    HW225642   2.644   1.026   2.113
 2834SOL     OW25643   0.628   1.211   1.684
 2834SOL    HW125644   0.666   1.256   1.760
 2834SOL    HW225645   0.543   1.253   1.672
 2835SOL     OW25646   3.493   3.298   7.648
 2835SOL    HW125647   3.512   3.297   7.554
 2835SOL    HW225648   3.455   3.384   7.665
 2836SOL     OW25649   0.900   5.173   2.103
 2836SOL    HW125650   0.937   5.086   2.086
 2836SOL    HW225651   0.968   5.234   2.077
 2837SOL     OW25652   2.217   1.796   0.932
 2837SOL    HW125653   2.213   1.777   1.026
 2837SOL    HW225654   2.296   1.752   0.902
 2838SOL     OW25655   3.314   2.430   7.120
 2838SOL    HW125656   3.271   2.492   7.180
 2838SOL    HW225657   3.379   2.386   7.174
 2839SOL     OW25658   2.802   0.223   7.464
 2839SOL    HW125659   2.781   0.159   7.396
 2839SOL    HW225660   2.718   0.240   7.507
 2840SOL     OW25661   2.416   5.340   0.798
 2840SOL    HW125662   2.406   5.293   0.715
 2840SOL    HW225663   2.347   5.305   0.854
 2841SOL     OW25664   3.102   5.293   6.544
 2841SOL    HW125665   3.018   5.327   6.575
 2841SOL    HW225666   3.144   5.257   6.623
 2842SOL     OW25667   4.664   5.334   6.213
 2842SOL    HW125668   4.663   5.253   6.161
 2842SOL    HW225669   4.747   5.330   6.261
 2843SOL     OW25670   4.185   3.750   7.104
 2843SOL    HW125671   4.141   3.833   7.125
 2843SOL    HW225672   4.115   3.692   7.075
 2844SOL     OW25673   4.790   1.545   7.349
 2844SOL    HW125674   4.874   1.585   7.325
 2844SOL    HW225675   4.804   1.451   7.333
 2845SOL     OW25676   5.927   1.882   6.254
 2845SOL    HW125677   5.985   1.932   6.197
 2845SOL    HW225678   5.878   1.948   6.302
 2846SOL     OW25679   3.058   2.779   0.064
 2846SOL    HW125680   3.024   2.814   0.146
 2846SOL    HW225681   3.145   2.818   0.056
 2847SOL     OW25682   0.726   0.454   2.108
 2847SOL    HW125683   0.762   0.368   2.088
 2847SOL    HW225684   0.788   0.492   2.170
 2848SOL     OW25685   2.580   5.921   1.720
 2848SOL    HW125686   2.506   5.971   1.755
 2848SOL    HW225687   2.543   5.834   1.702
 2849SOL     OW25688   5.805   3.058   0.173
 2849SOL    HW125689   5.772   2.980   0.218
 2849SOL    HW225690   5.739   3.078   0.107
 2850SOL     OW25691   4.179   3.599   6.037
 2850SOL    HW125692   4.180   3.638   5.950
 2850SOL    HW225693   4.222   3.664   6.093
 2851SOL     OW25694   0.068   0.769   7.629
 2851SOL    HW125695   0.102   0.856   7.648
 2851SOL    HW225696  -0.018   0.767   7.672
 2852SOL     OW25697   4.443   4.900   2.170
 2852SOL    HW125698   4.452   4.804   2.173
 2852SOL    HW225699   4.391   4.917   2.092
 2853SOL     OW25700   4.739   3.732   5.102
 2853SOL    HW125701   4.778   3.708   5.018
 2853SOL    HW225702   4.685   3.809   5.082
 2854SOL     OW25703   6.013   5.032   7.100
 2854SOL    HW125704   5.955   5.033   7.023
 2854SOL    HW225705   6.044   5.122   7.108
 2855SOL     OW25706   1.428   5.536   7.066
 2855SOL    HW125707   1.337   5.566   7.068
 2855SOL    HW225708   1.454   5.531   7.158
 2856SOL     OW25709   3.815   0.157   1.313
 2856SOL    HW125710   3.840   0.238   1.357
 2856SOL    HW225711   3.723   0.144   1.336
 2857SOL     OW25712   1.128   2.812   0.859
 2857SOL    HW125713   1.191   2.883   0.846
 2857SOL    HW225714   1.044   2.856   0.875
 2858SOL     OW25715   1.881   2.787   7.318
 2858SOL    HW125716   1.908   2.745   7.399
 2858SOL    HW225717   1.831   2.720   7.271
 2859SOL     OW25718   3.537   5.354   0.201
 2859SOL    HW125719   3.622   5.376   0.240
 2859SOL    HW225720   3.557   5.333   0.110
 2860SOL     OW25721   2.552   5.631   5.416
 2860SOL    HW125722   2.636   5.589   5.401
 2860SOL    HW225723   2.574   5.716   5.454
 2861SOL     OW25724   5.062   5.611   0.752
 2861SOL    HW125725   5.022   5.586   0.669
 2861SOL    HW225726   4.996   5.591   0.818
 2862SOL     OW25727   5.170   1.383   1.327
 2862SOL    HW125728   5.116   1.442   1.275
 2862SOL    HW225729   5.139   1.295   1.305
 2863SOL     OW25730   0.254   4.211   7.357
 2863SOL    HW125731   0.317   4.280   7.334
 2863SOL    HW225732   0.186   4.217   7.290
 2864SOL     OW25733   3.416   1.819   7.590
 2864SOL    HW125734   3.420   1.724   7.590
 2864SOL    HW225735   3.474   1.846   7.662
 2865SOL     OW25736   0.720   1.208   1.037
 2865SOL    HW125737   0.664   1.133   1.057
 2865SOL    HW225738   0.686   1.279   1.091
 2866SOL     OW25739   5.829   6.125   7.729
 2866SOL    HW125740   5.922   6.126   7.707
 2866SOL    HW225741   5.824   6.067   7.806
 2867SOL     OW25742   1.336   5.645   1.707
 2867SOL    HW125743   1.260   5.700   1.688
 2867SOL    HW225744   1.306   5.585   1.775
 2868SOL     OW25745   0.630   3.157   1.253
 2868SOL    HW125746   0.594   3.245   1.265
 2868SOL    HW225747   0.557   3.106   1.219
 2869SOL     OW25748   4.957   3.763   0.694
 2869SOL    HW125749   4.934   3.790   0.604
 2869SOL    HW225750   4.886   3.704   0.720
 2870SOL     OW25751   5.147   4.174   6.013
 2870SOL    HW125752   5.084   4.183   5.942
 2870SOL    HW225753   5.162   4.080   6.020
 2871SOL     OW25754   0.739   4.092   2.089
 2871SOL    HW125755   0.657   4.122   2.052
 2871SOL    HW225756   0.780   4.041   2.019
 2872SOL     OW25757   6.247   4.992   6.752
 2872SOL    HW125758   6.220   5.001   6.660
 2872SOL    HW225759   6.270   5.080   6.779
 2873SOL     OW25760   4.966   4.723   1.759
 2873SOL    HW125761   4.887   4.672   1.776
 2873SOL    HW225762   4.940   4.813   1.779
 2874SOL     OW25763   2.868   3.560   6.056
 2874SOL    HW125764   2.819   3.552   6.138
 2874SOL    HW225765   2.845   3.483   6.006
 2875SOL     OW25766   2.759   1.222   1.162
 2875SOL    HW125767   2.718   1.304   1.137
 2875SOL    HW225768   2.796   1.187   1.081
 2876SOL     OW25769   5.361   4.773   1.989
 2876SOL    HW125770   5.394   4.686   1.971
 2876SOL    HW225771   5.282   4.758   2.041
 2877SOL     OW25772   5.059   4.062   0.338
 2877SOL    HW125773   5.118   4.055   0.263
 2877SOL    HW225774   5.111   4.032   0.412
 2878SOL     OW25775   0.956   3.446   7.190
 2878SOL    HW125776   0.883   3.403   7.234
 2878SOL    HW225777   0.984   3.515   7.250
 2879SOL     OW25778   5.921   4.156   5.556
 2879SOL    HW125779   5.985   4.094   5.521
 2879SOL    HW225780   5.871   4.105   5.620
 2880SOL     OW25781   2.912   4.645   6.892
 2880SOL    HW125782   2.868   4.566   6.863
 2880SOL    HW225783   2.930   4.630   6.984
 2881SOL     OW25784   1.956   1.801   1.389
 2881SOL    HW125785   1.939   1.719   1.343
 2881SOL    HW225786   2.041   1.788   1.431
 2882SOL     OW25787   3.480   3.771   2.422
 2882SOL    HW125788   3.570   3.803   2.434
 2882SOL    HW225789   3.484   3.717   2.343
 2883SOL     OW25790   3.752   6.238   1.137
 2883SOL    HW125791   3.777   6.325   1.106
 2883SOL    HW225792   3.745   6.185   1.058
 2884SOL     OW25793   1.025   2.794   0.152
 2884SOL    HW125794   0.974   2.874   0.142
 2884SOL    HW225795   1.059   2.776   0.065
 2885SOL     OW25796   6.178   1.968   7.655
 2885SOL    HW125797   6.123   1.894   7.627
 2885SOL    HW225798   6.251   1.927   7.700
 2886SOL     OW25799   3.189   5.714   0.185
 2886SOL    HW125800   3.121   5.752   0.130
 2886SOL    HW225801   3.180   5.619   0.173
 2887SOL     OW25802   1.660   5.709   5.551
 2887SOL    HW125803   1.565   5.710   5.565
 2887SOL    HW225804   1.683   5.800   5.537
 2888SOL     OW25805   0.213   4.296   7.033
 2888SOL    HW125806   0.290   4.326   7.080
 2888SOL    HW225807   0.151   4.369   7.040
 2889SOL     OW25808   2.582   2.058   1.453
 2889SOL    HW125809   2.672   2.085   1.467
 2889SOL    HW225810   2.529   2.122   1.500
 2890SOL     OW25811   2.766   3.037   6.858
 2890SOL    HW125812   2.682   3.082   6.866
 2890SOL    HW225813   2.827   3.090   6.908
 2891SOL     OW25814   3.913   5.300   1.465
 2891SOL    HW125815   3.817   5.297   1.459
 2891SOL    HW225816   3.934   5.256   1.547
 2892SOL     OW25817   1.739   4.456   2.145
 2892SOL    HW125818   1.794   4.476   2.069
 2892SOL    HW225819   1.681   4.531   2.153
 2893SOL     OW25820   1.689   5.667   6.681
 2893SOL    HW125821   1.607   5.619   6.695
 2893SOL    HW225822   1.724   5.629   6.600
 2894SOL     OW25823   1.111   4.933   1.655
 2894SOL    HW125824   1.087   5.025   1.644
 2894SOL    HW225825   1.126   4.924   1.750
 2895SOL     OW25826   0.665   3.653   1.424
 2895SOL    HW125827   0.617   3.723   1.468
 2895SOL    HW225828   0.748   3.693   1.398
 2896SOL     OW25829   2.411   3.463   5.494
 2896SOL    HW125830   2.382   3.483   5.405
 2896SOL    HW225831   2.403   3.546   5.541
 2897SOL     OW25832   6.307   0.653   1.304
 2897SOL    HW125833   6.274   0.629   1.390
 2897SOL    HW225834   6.308   0.571   1.254
 2898SOL     OW25835   5.901   2.471   0.349
 2898SOL    HW125836   5.838   2.487   0.419
 2898SOL    HW225837   5.980   2.518   0.376
 2899SOL     OW25838   5.034   0.225   1.996
 2899SOL    HW125839   5.005   0.169   1.924
 2899SOL    HW225840   4.979   0.199   2.070
 2900SOL     OW25841   2.203   1.644   0.616
 2900SOL    HW125842   2.217   1.566   0.669
 2900SOL    HW225843   2.287   1.691   0.620
 2901SOL     OW25844   6.137   2.645   0.542
 2901SOL    HW125845   6.077   2.720   0.541
 2901SOL    HW225846   6.161   2.635   0.634
 2902SOL     OW25847   2.681   0.530   7.108
 2902SOL    HW125848   2.657   0.620   7.130
 2902SOL    HW225849   2.733   0.500   7.184
 2903SOL     OW25850   4.546   3.853   7.208
 2903SOL    HW125851   4.531   3.934   7.160
 2903SOL    HW225852   4.597   3.799   7.148
 2904SOL     OW25853   1.502   6.354   7.477
 2904SOL    HW125854   1.499   6.275   7.530
 2904SOL    HW225855   1.594   6.383   7.482
 2905SOL     OW25856   2.188   5.881   7.161
 2905SOL    HW125857   2.150   5.881   7.073
 2905SOL    HW225858   2.118   5.851   7.218
 2906SOL     OW25859   2.140   0.565   0.050
 2906SOL    HW125860   2.086   0.515  -0.010
 2906SOL    HW225861   2.195   0.500   0.094
 2907SOL     OW25862   5.642   4.001   7.142
 2907SOL    HW125863   5.614   4.050   7.065
 2907SOL    HW225864   5.729   3.968   7.119
 2908SOL     OW25865   0.675   2.956   7.551
 2908SOL    HW125866   0.690   3.048   7.529
 2908SOL    HW225867   0.754   2.930   7.597
 2909SOL     OW25868   5.843   5.917   7.481
 2909SOL    HW125869   5.803   5.976   7.545
 2909SOL    HW225870   5.779   5.846   7.470
 2910SOL     OW25871   3.237   0.184   2.423
 2910SOL    HW125872   3.252   0.230   2.340
 2910SOL    HW225873   3.166   0.233   2.464
 2911SOL     OW25874   2.245   0.435   7.506
 2911SOL    HW125875   2.204   0.483   7.434
 2911SOL    HW225876   2.333   0.472   7.512
 2912SOL     OW25877   1.328   2.794   6.805
 2912SOL    HW125878   1.346   2.842   6.724
 2912SOL    HW225879   1.263   2.848   6.851
 2913SOL     OW25880   5.747   2.028   6.397
 2913SOL    HW125881   5.766   1.967   6.469
 2913SOL    HW225882   5.652   2.031   6.394
 2914SOL     OW25883   4.327   0.019   6.891
 2914SOL    HW125884   4.281   0.087   6.940
 2914SOL    HW225885   4.372  -0.032   6.958
 2915SOL     OW25886   1.107   3.316   6.865
 2915SOL    HW125887   1.022   3.358   6.876
 2915SOL    HW225888   1.163   3.356   6.932
 2916SOL     OW25889   5.135   3.022   7.115
 2916SOL    HW125890   5.124   2.953   7.050
 2916SOL    HW225891   5.161   3.099   7.064
 2917SOL     OW25892   5.398   0.286   0.249
 2917SOL    HW125893   5.453   0.290   0.171
 2917SOL    HW225894   5.314   0.252   0.217
 2918SOL     OW25895   1.903   0.305   6.095
 2918SOL    HW125896   1.894   0.210   6.097
 2918SOL    HW225897   1.849   0.333   6.021
 2919SOL     OW25898   1.349   4.024   1.027
 2919SOL    HW125899   1.423   4.044   1.084
 2919SOL    HW225900   1.324   4.108   0.989
 2920SOL     OW25901   1.870   3.155   5.729
 2920SOL    HW125902   1.945   3.096   5.727
 2920SOL    HW225903   1.901   3.233   5.775
 2921SOL     OW25904   1.321   3.617   1.716
 2921SOL    HW125905   1.350   3.567   1.792
 2921SOL    HW225906   1.264   3.557   1.668
 2922SOL     OW25907   4.941   3.981   0.851
 2922SOL    HW125908   5.031   4.010   0.862
 2922SOL    HW225909   4.944   3.919   0.779
 2923SOL     OW25910   1.751   4.303   1.098
 2923SOL    HW125911   1.806   4.338   1.167
 2923SOL    HW225912   1.806   4.239   1.053
 2924SOL     OW25913   2.630   2.956   1.585
 2924SOL    HW125914   2.661   2.892   1.650
 2924SOL    HW225915   2.599   2.902   1.513
 2925SOL     OW25916   2.374   5.490   1.886
 2925SOL    HW125917   2.408   5.402   1.877
 2925SOL    HW225918   2.289   5.488   1.842
 2926SOL     OW25919   2.096   3.040   1.681
 2926SOL    HW125920   2.013   2.994   1.672
 2926SOL    HW225921   2.113   3.041   1.775
 2927SOL     OW25922   1.441   2.179   0.760
 2927SOL    HW125923   1.430   2.091   0.724
 2927SOL    HW225924   1.367   2.229   0.724
 2928SOL     OW25925   6.373   6.191   6.069
 2928SOL    HW125926   6.452   6.137   6.075
 2928SOL    HW225927   6.404   6.280   6.088
 2929SOL     OW25928   4.515   2.095   1.141
 2929SOL    HW125929   4.471   2.180   1.141
 2929SOL    HW225930   4.608   2.115   1.141
 2930SOL     OW25931   2.933   0.467   5.911
 2930SOL    HW125932   2.863   0.411   5.945
 2930SOL    HW225933   3.013   0.415   5.923
 2931SOL     OW25934   1.606   4.687   2.080
 2931SOL    HW125935   1.637   4.746   2.149
 2931SOL    HW225936   1.608   4.739   2.000
 2932SOL     OW25937   1.292   0.501   7.697
 2932SOL    HW125938   1.302   0.408   7.677
 2932SOL    HW225939   1.382   0.532   7.707
 2933SOL     OW25940   4.760   5.515   1.502
 2933SOL    HW125941   4.820   5.478   1.436
 2933SOL    HW225942   4.778   5.464   1.581
 2934SOL     OW25943   2.169   3.666   0.450
 2934SOL    HW125944   2.179   3.754   0.412
 2934SOL    HW225945   2.238   3.614   0.407
 2935SOL     OW25946   3.289   2.181   6.786
 2935SOL    HW125947   3.217   2.217   6.735
 2935SOL    HW225948   3.352   2.151   6.721
 2936SOL     OW25949   1.259   3.260   0.266
 2936SOL    HW125950   1.175   3.301   0.245
 2936SOL    HW225951   1.323   3.307   0.213
 2937SOL     OW25952   0.059   2.007   7.772
 2937SOL    HW125953   0.058   1.929   7.716
 2937SOL    HW225954   0.144   2.048   7.756
 2938SOL     OW25955   0.326   3.818   5.318
 2938SOL    HW125956   0.349   3.793   5.407
 2938SOL    HW225957   0.392   3.883   5.293
 2939SOL     OW25958   2.716   1.409   7.066
 2939SOL    HW125959   2.737   1.411   7.160
 2939SOL    HW225960   2.621   1.416   7.063
 2940SOL     OW25961   3.699   2.454   6.880
 2940SOL    HW125962   3.780   2.472   6.832
 2940SOL    HW225963   3.640   2.417   6.815
 2941SOL     OW25964   3.272   5.060   6.862
 2941SOL    HW125965   3.214   5.081   6.935
 2941SOL    HW225966   3.267   4.965   6.854
 2942SOL     OW25967   0.665   3.383   0.703
 2942SOL    HW125968   0.623   3.462   0.738
 2942SOL    HW225969   0.592   3.328   0.674
 2943SOL     OW25970   3.769   3.580   2.566
 2943SOL    HW125971   3.756   3.662   2.520
 2943SOL    HW225972   3.858   3.585   2.601
 2944SOL     OW25973   0.858   5.729   7.533
 2944SOL    HW125974   0.798   5.763   7.466
 2944SOL    HW225975   0.817   5.646   7.561
 2945SOL     OW25976   2.576   0.689   0.917
 2945SOL    HW125977   2.575   0.718   1.008
 2945SOL    HW225978   2.499   0.633   0.908
 2946SOL     OW25979   6.384   5.801   5.101
 2946SOL    HW125980   6.449   5.854   5.054
 2946SOL    HW225981   6.334   5.865   5.151
 2947SOL     OW25982   5.708   1.189   6.610
 2947SOL    HW125983   5.766   1.141   6.669
 2947SOL    HW225984   5.760   1.263   6.580
 2948SOL     OW25985   3.643   5.197   1.033
 2948SOL    HW125986   3.697   5.154   0.966
 2948SOL    HW225987   3.578   5.246   0.983
 2949SOL     OW25988   5.033   6.016   1.228
 2949SOL    HW125989   4.939   6.024   1.245
 2949SOL    HW225990   5.037   5.978   1.140
 2950SOL     OW25991   0.009   1.906   1.623
 2950SOL    HW125992   0.007   1.812   1.641
 2950SOL    HW225993   0.072   1.916   1.552
 2951SOL     OW25994   4.517   6.353   1.074
 2951SOL    HW125995   4.603   6.355   1.116
 2951SOL    HW225996   4.474   6.432   1.104
 2952SOL     OW25997   2.614   3.160   2.034
 2952SOL    HW125998   2.647   3.153   2.124
 2952SOL    HW225999   2.613   3.069   2.002
 2953SOL     OW26000   1.557   0.504   5.649
 2953SOL    HW126001   1.507   0.535   5.573
 2953SOL    HW226002   1.637   0.556   5.648
 2954SOL     OW26003   5.251   0.238   7.167
 2954SOL    HW126004   5.242   0.198   7.080
 2954SOL    HW226005   5.345   0.245   7.180
 2955SOL     OW26006   1.252   0.910   2.348
 2955SOL    HW126007   1.254   0.849   2.275
 2955SOL    HW226008   1.196   0.982   2.319
 2956SOL     OW26009   5.805   5.135   6.692
 2956SOL    HW126010   5.713   5.163   6.699
 2956SOL    HW226011   5.800   5.040   6.678
 2957SOL     OW26012   1.006   5.602   1.464
 2957SOL    HW126013   1.051   5.684   1.444
 2957SOL    HW226014   0.918   5.628   1.491
 2958SOL     OW26015   0.607   3.988   6.626
 2958SOL    HW126016   0.593   4.079   6.602
 2958SOL    HW226017   0.569   3.980   6.714
 2959SOL     OW26018   5.083   6.153   7.373
 2959SOL    HW126019   5.023   6.080   7.387
 2959SOL    HW226020   5.032   6.218   7.326
 2960SOL     OW26021   1.299   1.590   0.161
 2960SOL    HW126022   1.369   1.529   0.136
 2960SOL    HW226023   1.327   1.674   0.124
 2961SOL     OW26024   6.134   1.444   6.320
 2961SOL    HW126025   6.215   1.479   6.282
 2961SOL    HW226026   6.073   1.517   6.317
 2962SOL     OW26027   3.256   6.253   5.891
 2962SOL    HW126028   3.321   6.256   5.822
 2962SOL    HW226029   3.213   6.339   5.888
 2963SOL     OW26030   3.188   0.003   7.389
 2963SOL    HW126031   3.177   0.096   7.409
 2963SOL    HW226032   3.109  -0.038   7.425
 2964SOL     OW26033   5.700   6.367   0.767
 2964SOL    HW126034   5.742   6.290   0.805
 2964SOL    HW226035   5.737   6.441   0.815
 2965SOL     OW26036   0.906   1.414   7.403
 2965SOL    HW126037   0.977   1.458   7.450
 2965SOL    HW226038   0.938   1.325   7.390
 2966SOL     OW26039   4.286   2.333   1.716
 2966SOL    HW126040   4.234   2.401   1.759
 2966SOL    HW226041   4.373   2.373   1.704
 2967SOL     OW26042   4.131   2.790   1.469
 2967SOL    HW126043   4.094   2.827   1.549
 2967SOL    HW226044   4.089   2.839   1.398
 2968SOL     OW26045   3.784   1.138   7.242
 2968SOL    HW126046   3.847   1.210   7.248
 2968SOL    HW226047   3.785   1.114   7.149
 2969SOL     OW26048   4.682   0.661   0.927
 2969SOL    HW126049   4.632   0.601   0.872
 2969SOL    HW226050   4.774   0.638   0.912
 2970SOL     OW26051   1.105   3.162   6.415
 2970SOL    HW126052   1.152   3.233   6.372
 2970SOL    HW226053   1.109   3.089   6.352
 2971SOL     OW26054   5.355   3.326   1.331
 2971SOL    HW126055   5.377   3.287   1.415
 2971SOL    HW226056   5.304   3.258   1.285
 2972SOL     OW26057   5.387   1.904   0.450
 2972SOL    HW126058   5.319   1.868   0.507
 2972SOL    HW226059   5.435   1.966   0.506
 2973SOL     OW26060   1.327   4.491   7.536
 2973SOL    HW126061   1.252   4.503   7.594
 2973SOL    HW226062   1.315   4.557   7.467
 2974SOL     OW26063   0.326   3.343   5.548
 2974SOL    HW126064   0.415   3.329   5.518
 2974SOL    HW226065   0.329   3.427   5.594
 2975SOL     OW26066   1.712   5.605   0.800
 2975SOL    HW126067   1.721   5.665   0.726
 2975SOL    HW226068   1.691   5.661   0.874
 2976SOL     OW26069   2.321   2.380   1.383
 2976SOL    HW126070   2.241   2.403   1.335
 2976SOL    HW226071   2.291   2.357   1.471
 2977SOL     OW26072   6.205   4.380   0.491
 2977SOL    HW126073   6.281   4.321   0.493
 2977SOL    HW226074   6.130   4.323   0.480
 2978SOL     OW26075   5.984   4.333   0.826
 2978SOL    HW126076   5.961   4.303   0.738
 2978SOL    HW226077   5.988   4.428   0.819
 2979SOL     OW26078   1.236   5.812   0.532
 2979SOL    HW126079   1.270   5.733   0.574
 2979SOL    HW226080   1.259   5.883   0.593
 2980SOL     OW26081   2.597   1.724   6.539
 2980SOL    HW126082   2.684   1.757   6.561
 2980SOL    HW226083   2.606   1.688   6.451
 2981SOL     OW26084   4.677   1.820   7.730
 2981SOL    HW126085   4.651   1.906   7.764
 2981SOL    HW226086   4.682   1.764   7.807
 2982SOL     OW26087   3.032   6.129   5.657
 2982SOL    HW126088   3.040   6.194   5.727
 2982SOL    HW226089   2.939   6.130   5.634
 2983SOL     OW26090   5.498   0.277   7.154
 2983SOL    HW126091   5.530   0.206   7.209
 2983SOL    HW226092   5.569   0.294   7.093
 2984SOL     OW26093   5.640   1.702   0.132
 2984SOL    HW126094   5.643   1.796   0.151
 2984SOL    HW226095   5.731   1.673   0.140
 2985SOL     OW26096   0.885   2.892   6.914
 2985SOL    HW126097   0.846   2.933   6.991
 2985SOL    HW226098   0.814   2.840   6.876
 2986SOL     OW26099   6.209   2.290   7.718
 2986SOL    HW126100   6.229   2.196   7.722
 2986SOL    HW226101   6.127   2.295   7.669
 2987SOL     OW26102   3.248   0.600   0.155
 2987SOL    HW126103   3.287   0.664   0.095
 2987SOL    HW226104   3.246   0.519   0.105
 2988SOL     OW26105   0.564   5.148   1.753
 2988SOL    HW126106   0.593   5.163   1.843
 2988SOL    HW226107   0.551   5.053   1.748
 2989SOL     OW26108   0.724   5.371   5.397
 2989SOL    HW126109   0.762   5.422   5.469
 2989SOL    HW226110   0.761   5.409   5.318
 2990SOL     OW26111   3.775   2.809   5.955
 2990SOL    HW126112   3.815   2.823   5.869
 2990SOL    HW226113   3.710   2.741   5.941
 2991SOL     OW26114   2.598   0.261   0.909
 2991SOL    HW126115   2.671   0.262   0.848
 2991SOL    HW226116   2.528   0.308   0.864
 2992SOL     OW26117   2.297   5.856   7.625
 2992SOL    HW126118   2.315   5.849   7.718
 2992SOL    HW226119   2.358   5.921   7.593
 2993SOL     OW26120   2.538   3.029   7.517
 2993SOL    HW126121   2.489   3.082   7.580
 2993SOL    HW226122   2.550   2.944   7.561
 2994SOL     OW26123   1.295   5.142   6.263
 2994SOL    HW126124   1.317   5.066   6.210
 2994SOL    HW226125   1.367   5.150   6.326
 2995SOL     OW26126   0.681   5.131   1.096
 2995SOL    HW126127   0.588   5.129   1.120
 2995SOL    HW226128   0.711   5.217   1.123
 2996SOL     OW26129   4.239   5.057   0.548
 2996SOL    HW126130   4.200   5.073   0.634
 2996SOL    HW226131   4.314   5.116   0.544
 2997SOL     OW26132   5.572   2.667   6.524
 2997SOL    HW126133   5.584   2.734   6.458
 2997SOL    HW226134   5.498   2.615   6.492
 2998SOL     OW26135   5.075   3.749   1.191
 2998SOL    HW126136   5.058   3.721   1.101
 2998SOL    HW226137   5.108   3.670   1.235
 2999SOL     OW26138   4.541   5.129   0.215
 2999SOL    HW126139   4.514   5.098   0.128
 2999SOL    HW226140   4.540   5.051   0.270
 3000SOL     OW26141   2.751   3.029   1.059
 3000SOL    HW126142   2.682   3.095   1.064
 3000SOL    HW226143   2.789   3.040   0.972
 3001SOL     OW26144   2.003   2.065   6.199
 3001SOL    HW126145   1.917   2.096   6.229
 3001SOL    HW226146   1.990   1.971   6.184
 3002SOL     OW26147   4.749   0.296   6.986
 3002SOL    HW126148   4.688   0.369   6.995
 3002SOL    HW226149   4.834   0.333   7.013
 3003SOL     OW26150   6.156   1.259   6.804
 3003SOL    HW126151   6.073   1.255   6.852
 3003SOL    HW226152   6.131   1.286   6.716
 3004SOL     OW26153   2.933   3.118   7.640
 3004SOL    HW126154   2.915   3.195   7.694
 3004SOL    HW226155   3.028   3.120   7.626
 3005SOL     OW26156   2.000   4.316   7.539
 3005SOL    HW126157   1.999   4.389   7.601
 3005SOL    HW226158   2.067   4.340   7.474
 3006SOL     OW26159   5.131   0.218   0.201
 3006SOL    HW126160   5.097   0.174   0.279
 3006SOL    HW226161   5.118   0.155   0.130
 3007SOL     OW26162   4.007   6.126   1.051
 3007SOL    HW126163   3.992   6.204   0.997
 3007SOL    HW226164   3.932   6.122   1.110
 3008SOL     OW26165   1.923   0.761   7.687
 3008SOL    HW126166   1.964   0.794   7.767
 3008SOL    HW226167   1.864   0.831   7.660
 3009SOL     OW26168   1.255   0.952   6.091
 3009SOL    HW126169   1.259   0.959   5.995
 3009SOL    HW226170   1.344   0.973   6.120
 3010SOL     OW26171   6.059   3.536   1.791
 3010SOL    HW126172   5.976   3.582   1.804
 3010SOL    HW226173   6.122   3.605   1.770
 3011SOL     OW26174   3.973   0.106   7.514
 3011SOL    HW126175   3.978   0.022   7.560
 3011SOL    HW226176   3.949   0.082   7.424
 3012SOL     OW26177   1.095   5.365   6.279
 3012SOL    HW126178   1.081   5.360   6.373
 3012SOL    HW226179   1.131   5.280   6.255
 3013SOL     OW26180   2.802   2.886   7.732
 3013SOL    HW126181   2.815   2.889   7.827
 3013SOL    HW226182   2.857   2.957   7.699
 3014SOL     OW26183   6.024   1.667   0.674
 3014SOL    HW126184   6.046   1.721   0.598
 3014SOL    HW226185   6.002   1.581   0.637
 3015SOL     OW26186   4.810   0.190   6.756
 3015SOL    HW126187   4.726   0.192   6.710
 3015SOL    HW226188   4.789   0.214   6.846
 3016SOL     OW26189   0.922   0.686   0.325
 3016SOL    HW126190   1.001   0.633   0.339
 3016SOL    HW226191   0.956   0.773   0.302
 3017SOL     OW26192   1.611   2.416   6.828
 3017SOL    HW126193   1.685   2.389   6.882
 3017SOL    HW226194   1.592   2.506   6.855
 3018SOL     OW26195   0.537   0.537   1.718
 3018SOL    HW126196   0.600   0.510   1.785
 3018SOL    HW226197   0.592   0.566   1.645
 3019SOL     OW26198   2.371   3.023   5.258
 3019SOL    HW126199   2.429   3.018   5.182
 3019SOL    HW226200   2.417   3.081   5.319
 3020SOL     OW26201   5.688   1.015   7.377
 3020SOL    HW126202   5.626   0.949   7.408
 3020SOL    HW226203   5.643   1.098   7.389
 3021SOL     OW26204   1.074   6.242   6.330
 3021SOL    HW126205   1.043   6.307   6.267
 3021SOL    HW226206   1.099   6.167   6.277
 3022SOL     OW26207   0.732   5.480   7.545
 3022SOL    HW126208   0.787   5.503   7.620
 3022SOL    HW226209   0.649   5.527   7.562
 3023SOL     OW26210   5.629   2.652   1.350
 3023SOL    HW126211   5.628   2.578   1.411
 3023SOL    HW226212   5.670   2.723   1.400
 3024SOL     OW26213   4.096   2.624   6.173
 3024SOL    HW126214   4.099   2.631   6.078
 3024SOL    HW226215   4.004   2.606   6.192
 3025SOL     OW26216   3.883   0.653   0.795
 3025SOL    HW126217   3.831   0.643   0.874
 3025SOL    HW226218   3.822   0.634   0.723
 3026SOL     OW26219   4.976   0.747   1.299
 3026SOL    HW126220   5.038   0.745   1.371
 3026SOL    HW226221   5.016   0.694   1.230
 3027SOL     OW26222   2.864   2.224   5.808
 3027SOL    HW126223   2.905   2.143   5.776
 3027SOL    HW226224   2.801   2.247   5.740
 3028SOL     OW26225   1.811   0.835   2.329
 3028SOL    HW126226   1.789   0.905   2.391
 3028SOL    HW226227   1.764   0.858   2.249
 3029SOL     OW26228   2.125   4.416   1.694
 3029SOL    HW126229   2.190   4.482   1.717
 3029SOL    HW226230   2.073   4.456   1.624
 3030SOL     OW26231   1.758   4.115   6.952
 3030SOL    HW126232   1.673   4.155   6.935
 3030SOL    HW226233   1.790   4.158   7.031
 3031SOL     OW26234   4.293   5.736   6.800
 3031SOL    HW126235   4.321   5.800   6.735
 3031SOL    HW226236   4.310   5.779   6.884
 3032SOL     OW26237   3.275   0.482   7.231
 3032SOL    HW126238   3.349   0.529   7.270
 3032SOL    HW226239   3.210   0.551   7.213
 3033SOL     OW26240   2.600   3.989   6.703
 3033SOL    HW126241   2.526   3.931   6.684
 3033SOL    HW226242   2.577   4.072   6.661
 3034SOL     OW26243   5.232   0.568   7.327
 3034SOL    HW126244   5.303   0.584   7.265
 3034SOL    HW226245   5.167   0.519   7.277
 3035SOL     OW26246   4.027   2.536   1.520
 3035SOL    HW126247   4.058   2.624   1.540
 3035SOL    HW226248   4.087   2.504   1.453
 3036SOL     OW26249   5.903   0.540   2.077
 3036SOL    HW126250   5.865   0.455   2.055
 3036SOL    HW226251   5.863   0.601   2.015
 3037SOL     OW26252   0.544   0.401   0.028
 3037SOL    HW126253   0.481   0.363  -0.034
 3037SOL    HW226254   0.598   0.459  -0.025
 3038SOL     OW26255   4.237   2.040   6.586
 3038SOL    HW126256   4.166   2.089   6.628
 3038SOL    HW226257   4.204   2.019   6.499
 3039SOL     OW26258   6.075   4.741   1.484
 3039SOL    HW126259   6.034   4.657   1.503
 3039SOL    HW226260   6.088   4.781   1.570
 3040SOL     OW26261   4.926   5.791   1.647
 3040SOL    HW126262   4.909   5.835   1.730
 3040SOL    HW226263   4.983   5.718   1.669
 3041SOL     OW26264   3.996   4.753   7.401
 3041SOL    HW126265   3.979   4.846   7.388
 3041SOL    HW226266   3.909   4.712   7.401
 3042SOL     OW26267   2.971   4.696   0.886
 3042SOL    HW126268   3.009   4.724   0.802
 3042SOL    HW226269   2.971   4.775   0.940
 3043SOL     OW26270   2.168   3.733   6.868
 3043SOL    HW126271   2.136   3.701   6.952
 3043SOL    HW226272   2.156   3.828   6.872
 3044SOL     OW26273   4.371   4.476   7.197
 3044SOL    HW126274   4.368   4.547   7.134
 3044SOL    HW226275   4.301   4.495   7.259
 3045SOL     OW26276   3.723   4.440   1.132
 3045SOL    HW126277   3.658   4.457   1.201
 3045SOL    HW226278   3.726   4.344   1.127
 3046SOL     OW26279   2.738   2.590   1.933
 3046SOL    HW126280   2.695   2.631   2.008
 3046SOL    HW226281   2.700   2.502   1.929
 3047SOL     OW26282   3.597   3.146   5.075
 3047SOL    HW126283   3.589   3.070   5.018
 3047SOL    HW226284   3.680   3.186   5.050
 3048SOL     OW26285   2.729   4.940   1.592
 3048SOL    HW126286   2.808   4.914   1.545
 3048SOL    HW226287   2.667   4.962   1.523
 3049SOL     OW26288   6.077   4.407   5.491
 3049SOL    HW126289   6.004   4.346   5.503
 3049SOL    HW226290   6.070   4.467   5.565
 3050SOL     OW26291   1.047   4.092   6.910
 3050SOL    HW126292   1.032   3.998   6.898
 3050SOL    HW226293   1.140   4.098   6.935
 3051SOL     OW26294   0.088   2.170   6.536
 3051SOL    HW126295   0.071   2.210   6.451
 3051SOL    HW226296   0.090   2.076   6.518
 3052SOL     OW26297   4.289   3.283   1.122
 3052SOL    HW126298   4.353   3.339   1.167
 3052SOL    HW226299   4.339   3.236   1.056
 3053SOL     OW26300   4.715   3.583   6.808
 3053SOL    HW126301   4.759   3.582   6.723
 3053SOL    HW226302   4.711   3.490   6.834
 3054SOL     OW26303   0.231   6.148   6.522
 3054SOL    HW126304   0.201   6.057   6.531
 3054SOL    HW226305   0.253   6.175   6.611
 3055SOL     OW26306   4.365   3.871   0.839
 3055SOL    HW126307   4.409   3.869   0.924
 3055SOL    HW226308   4.274   3.892   0.860
 3056SOL     OW26309   0.276   1.959   1.538
 3056SOL    HW126310   0.321   1.919   1.463
 3056SOL    HW226311   0.342   2.015   1.579
 3057SOL     OW26312   2.725   0.006   7.307
 3057SOL    HW126313   2.710  -0.010   7.400
 3057SOL    HW226314   2.650  -0.033   7.263
 3058SOL     OW26315   3.892   0.909   6.893
 3058SOL    HW126316   3.934   0.875   6.972
 3058SOL    HW226317   3.815   0.956   6.925
 3059SOL     OW26318   3.783   4.061   5.432
 3059SOL    HW126319   3.761   4.139   5.482
 3059SOL    HW226320   3.705   4.005   5.437
 3060SOL     OW26321   2.147   0.715   5.700
 3060SOL    HW126322   2.073   0.772   5.718
 3060SOL    HW226323   2.108   0.635   5.664
 3061SOL     OW26324   5.487   3.021   7.042
 3061SOL    HW126325   5.421   3.007   7.110
 3061SOL    HW226326   5.516   2.932   7.018
 3062SOL     OW26327   2.838   3.974   1.162
 3062SOL    HW126328   2.775   3.992   1.093
 3062SOL    HW226329   2.868   3.885   1.144
 3063SOL     OW26330   4.869   3.894   1.552
 3063SOL    HW126331   4.817   3.848   1.486
 3063SOL    HW226332   4.905   3.824   1.607
 3064SOL     OW26333   2.370   0.893   2.264
 3064SOL    HW126334   2.434   0.956   2.229
 3064SOL    HW226335   2.351   0.925   2.352
 3065SOL     OW26336   6.039   5.282   7.683
 3065SOL    HW126337   6.037   5.207   7.743
 3065SOL    HW226338   5.983   5.255   7.610
 3066SOL     OW26339   4.383   2.430   2.020
 3066SOL    HW126340   4.331   2.478   1.956
 3066SOL    HW226341   4.318   2.397   2.083
 3067SOL     OW26342   2.162   4.741   5.585
 3067SOL    HW126343   2.082   4.783   5.555
 3067SOL    HW226344   2.221   4.813   5.606
 3068SOL     OW26345   5.039   3.059   0.443
 3068SOL    HW126346   5.076   3.092   0.362
 3068SOL    HW226347   5.091   2.981   0.463
 3069SOL     OW26348   5.791   4.843   7.807
 3069SOL    HW126349   5.825   4.853   7.718
 3069SOL    HW226350   5.818   4.755   7.833
 3070SOL     OW26351   4.774   1.510   1.807
 3070SOL    HW126352   4.806   1.595   1.836
 3070SOL    HW226353   4.689   1.501   1.849
 3071SOL     OW26354   1.203   1.600   0.398
 3071SOL    HW126355   1.190   1.508   0.421
 3071SOL    HW226356   1.246   1.598   0.313
 3072SOL     OW26357   0.952   3.320   6.142
 3072SOL    HW126358   0.947   3.415   6.145
 3072SOL    HW226359   1.032   3.298   6.191
 3073SOL     OW26360   3.830   5.170   2.191
 3073SOL    HW126361   3.921   5.154   2.168
 3073SOL    HW226362   3.795   5.220   2.117
 3074SOL     OW26363   5.720   6.262   7.176
 3074SOL    HW126364   5.671   6.311   7.110
 3074SOL    HW226365   5.655   6.239   7.242
 3075SOL     OW26366   5.530   0.035   0.605
 3075SOL    HW126367   5.528   0.129   0.624
 3075SOL    HW226368   5.597   0.000   0.664
 3076SOL     OW26369   6.009   4.681   6.473
 3076SOL    HW126370   6.071   4.706   6.404
 3076SOL    HW226371   6.061   4.628   6.534
 3077SOL     OW26372   1.524   2.518   1.510
 3077SOL    HW126373   1.566   2.433   1.500
 3077SOL    HW226374   1.543   2.564   1.428
 3078SOL     OW26375   3.660   2.481   6.515
 3078SOL    HW126376   3.581   2.483   6.569
 3078SOL    HW226377   3.657   2.562   6.464
 3079SOL     OW26378   4.120   1.468   0.760
 3079SOL    HW126379   4.145   1.401   0.823
 3079SOL    HW226380   4.163   1.548   0.791
 3080SOL     OW26381   0.903   5.074   6.049
 3080SOL    HW126382   0.834   5.089   6.114
 3080SOL    HW226383   0.900   5.150   5.992
 3081SOL     OW26384   5.815   5.457   0.368
 3081SOL    HW126385   5.745   5.510   0.330
 3081SOL    HW226386   5.880   5.448   0.298
 3082SOL     OW26387   4.084   3.233   5.227
 3082SOL    HW126388   4.106   3.207   5.316
 3082SOL    HW226389   4.159   3.285   5.198
 3083SOL     OW26390   3.021   3.990   0.721
 3083SOL    HW126391   3.039   3.945   0.638
 3083SOL    HW226392   3.080   4.066   0.720
 3084SOL     OW26393   4.185   0.995   6.989
 3084SOL    HW126394   4.264   0.945   7.009
 3084SOL    HW226395   4.114   0.945   7.029
 3085SOL     OW26396   4.240   5.592   5.951
 3085SOL    HW126397   4.224   5.582   5.857
 3085SOL    HW226398   4.210   5.681   5.970
 3086SOL     OW26399   0.185   3.865   5.644
 3086SOL    HW126400   0.261   3.913   5.613
 3086SOL    HW226401   0.186   3.875   5.739
 3087SOL     OW26402   5.644   3.613   7.136
 3087SOL    HW126403   5.691   3.559   7.198
 3087SOL    HW226404   5.686   3.699   7.141
 3088SOL     OW26405   1.148   5.531   0.377
 3088SOL    HW126406   1.055   5.544   0.396
 3088SOL    HW226407   1.190   5.526   0.462
 3089SOL     OW26408   4.513   1.517   7.411
 3089SOL    HW126409   4.519   1.422   7.401
 3089SOL    HW226410   4.602   1.548   7.392
 3090SOL     OW26411   5.460   0.027   7.583
 3090SOL    HW126412   5.485   0.038   7.492
 3090SOL    HW226413   5.417  -0.058   7.587
 3091SOL     OW26414   1.653   4.347   0.271
 3091SOL    HW126415   1.681   4.373   0.184
 3091SOL    HW226416   1.564   4.381   0.279
 3092SOL     OW26417   5.147   6.305   6.392
 3092SOL    HW126418   5.101   6.221   6.385
 3092SOL    HW226419   5.188   6.317   6.307
 3093SOL     OW26420   5.661   4.379   1.451
 3093SOL    HW126421   5.653   4.332   1.534
 3093SOL    HW226422   5.654   4.471   1.475
 3094SOL     OW26423   3.162   1.344   6.469
 3094SOL    HW126424   3.175   1.342   6.564
 3094SOL    HW226425   3.225   1.280   6.436
 3095SOL     OW26426   4.601   4.345   0.470
 3095SOL    HW126427   4.692   4.314   0.470
 3095SOL    HW226428   4.554   4.282   0.416
 3096SOL     OW26429   2.806   5.917   6.991
 3096SOL    HW126430   2.767   5.941   7.075
 3096SOL    HW226431   2.731   5.895   6.936
 3097SOL     OW26432   3.835   4.378   0.760
 3097SOL    HW126433   3.826   4.286   0.782
 3097SOL    HW226434   3.849   4.422   0.844
 3098SOL     OW26435   3.517   3.344   0.867
 3098SOL    HW126436   3.517   3.428   0.821
 3098SOL    HW226437   3.534   3.366   0.958
 3099SOL     OW26438   0.794   3.976   2.358
 3099SOL    HW126439   0.885   3.988   2.329
 3099SOL    HW226440   0.741   3.997   2.280
 3100SOL     OW26441   4.836   4.178   0.512
 3100SOL    HW126442   4.788   4.116   0.567
 3100SOL    HW226443   4.908   4.126   0.475
 3101SOL     OW26444   4.567   2.118   6.255
 3101SOL    HW126445   4.626   2.177   6.209
 3101SOL    HW226446   4.544   2.051   6.191
 3102SOL     OW26447   5.190   6.270   6.126
 3102SOL    HW126448   5.136   6.193   6.145
 3102SOL    HW226449   5.184   6.281   6.031
 3103SOL     OW26450   3.071   0.308   7.590
 3103SOL    HW126451   2.980   0.313   7.562
 3103SOL    HW226452   3.121   0.316   7.509
 3104SOL     OW26453   1.947   4.009   0.392
 3104SOL    HW126454   1.906   4.000   0.306
 3104SOL    HW226455   1.888   4.066   0.442
 3105SOL     OW26456   5.249   4.722   7.022
 3105SOL    HW126457   5.165   4.762   6.998
 3105SOL    HW226458   5.236   4.629   7.006
 3106SOL     OW26459   2.760   2.731   7.137
 3106SOL    HW126460   2.751   2.681   7.056
 3106SOL    HW226461   2.848   2.769   7.132
 3107SOL     OW26462   3.146   2.633   7.524
 3107SOL    HW126463   3.161   2.597   7.436
 3107SOL    HW226464   3.204   2.709   7.529
 3108SOL     OW26465   0.347   1.079   0.371
 3108SOL    HW126466   0.338   0.986   0.349
 3108SOL    HW226467   0.282   1.123   0.317
 3109SOL     OW26468   0.124   5.104   7.207
 3109SOL    HW126469   0.211   5.066   7.217
 3109SOL    HW226470   0.070   5.031   7.175
 3110SOL     OW26471   0.292   3.421   1.016
 3110SOL    HW126472   0.260   3.449   0.931
 3110SOL    HW226473   0.347   3.344   0.997
 3111SOL     OW26474   2.556   0.279   0.394
 3111SOL    HW126475   2.619   0.349   0.413
 3111SOL    HW226476   2.562   0.221   0.470
 3112SOL     OW26477   3.246   5.279   7.285
 3112SOL    HW126478   3.268   5.331   7.208
 3112SOL    HW226479   3.330   5.247   7.317
 3113SOL     OW26480   3.966   3.627   5.665
 3113SOL    HW126481   3.992   3.719   5.671
 3113SOL    HW226482   4.016   3.593   5.590
 3114SOL     OW26483   0.971   5.850   6.671
 3114SOL    HW126484   0.905   5.782   6.684
 3114SOL    HW226485   1.048   5.818   6.717
 3115SOL     OW26486   0.823   4.550   0.884
 3115SOL    HW126487   0.916   4.533   0.904
 3115SOL    HW226488   0.776   4.473   0.917
 3116SOL     OW26489   4.520   2.821   5.381
 3116SOL    HW126490   4.524   2.825   5.285
 3116SOL    HW226491   4.491   2.908   5.407
 3117SOL     OW26492   4.886   1.984   7.257
 3117SOL    HW126493   4.849   1.995   7.344
 3117SOL    HW226494   4.816   2.011   7.197
 3118SOL     OW26495   0.758   4.534   6.405
 3118SOL    HW126496   0.719   4.526   6.492
 3118SOL    HW226497   0.684   4.525   6.345
 3119SOL     OW26498   2.800   3.251   1.851
 3119SOL    HW126499   2.739   3.198   1.902
 3119SOL    HW226500   2.829   3.193   1.780
 3120SOL     OW26501   5.639   4.551   0.747
 3120SOL    HW126502   5.639   4.498   0.668
 3120SOL    HW226503   5.671   4.637   0.719
 3121SOL     OW26504   4.217   4.920   7.173
 3121SOL    HW126505   4.275   4.859   7.219
 3121SOL    HW226506   4.172   4.967   7.242
 3122SOL     OW26507   3.298   2.801   0.418
 3122SOL    HW126508   3.232   2.816   0.350
 3122SOL    HW226509   3.250   2.754   0.487
 3123SOL     OW26510   3.626   1.432   6.112
 3123SOL    HW126511   3.708   1.470   6.144
 3123SOL    HW226512   3.639   1.338   6.117
 3124SOL     OW26513   6.359   4.093   6.347
 3124SOL    HW126514   6.412   4.019   6.317
 3124SOL    HW226515   6.271   4.057   6.355
 3125SOL     OW26516   2.291   5.041   1.276
 3125SOL    HW126517   2.200   5.070   1.270
 3125SOL    HW226518   2.293   4.958   1.229
 3126SOL     OW26519   3.728   2.576   7.120
 3126SOL    HW126520   3.740   2.663   7.082
 3126SOL    HW226521   3.698   2.523   7.046
 3127SOL     OW26522   2.306   2.339   5.559
 3127SOL    HW126523   2.218   2.302   5.552
 3127SOL    HW226524   2.291   2.433   5.568
 3128SOL     OW26525   2.542   1.677   5.949
 3128SOL    HW126526   2.627   1.635   5.933
 3128SOL    HW226527   2.549   1.710   6.038
 3129SOL     OW26528   5.036   4.096   1.653
 3129SOL    HW126529   4.992   4.031   1.600
 3129SOL    HW226530   4.995   4.089   1.739
 3130SOL     OW26531   2.884   1.216   6.858
 3130SOL    HW126532   2.935   1.245   6.934
 3130SOL    HW226533   2.802   1.265   6.864
 3131SOL     OW26534   0.180   3.362   1.587
 3131SOL    HW126535   0.228   3.298   1.640
 3131SOL    HW226536   0.160   3.433   1.647
 3132SOL     OW26537   0.009   2.547   7.373
 3132SOL    HW126538  -0.041   2.616   7.331
 3132SOL    HW226539   0.015   2.574   7.465
 3133SOL     OW26540   5.163   5.331   1.058
 3133SOL    HW126541   5.180   5.316   0.965
 3133SOL    HW226542   5.241   5.296   1.103
 3134SOL     OW26543   3.807   5.422   1.090
 3134SOL    HW126544   3.782   5.488   1.026
 3134SOL    HW226545   3.753   5.346   1.068
 3135SOL     OW26546   3.228   3.859   2.481
 3135SOL    HW126547   3.255   3.936   2.531
 3135SOL    HW226548   3.309   3.824   2.445
 3136SOL     OW26549   2.274   1.975   7.459
 3136SOL    HW126550   2.196   1.997   7.510
 3136SOL    HW226551   2.345   1.973   7.523
 3137SOL     OW26552   5.818   0.544   0.243
 3137SOL    HW126553   5.861   0.477   0.190
 3137SOL    HW226554   5.755   0.586   0.183
 3138SOL     OW26555   3.149   0.135   6.509
 3138SOL    HW126556   3.077   0.080   6.477
 3138SOL    HW226557   3.205   0.147   6.433
 3139SOL     OW26558   6.296   5.715   1.031
 3139SOL    HW126559   6.202   5.718   1.049
 3139SOL    HW226560   6.316   5.621   1.023
 3140SOL     OW26561   5.507   3.425   1.955
 3140SOL    HW126562   5.444   3.362   1.919
 3140SOL    HW226563   5.473   3.446   2.042
 3141SOL     OW26564   4.143   4.511   5.820
 3141SOL    HW126565   4.207   4.489   5.753
 3141SOL    HW226566   4.080   4.438   5.818
 3142SOL     OW26567   0.874   5.071   5.731
 3142SOL    HW126568   0.950   5.129   5.736
 3142SOL    HW226569   0.896   5.008   5.662
 3143SOL     OW26570   3.495   2.866   7.198
 3143SOL    HW126571   3.449   2.834   7.121
 3143SOL    HW226572   3.475   2.959   7.201
 3144SOL     OW26573   1.923   0.588   5.905
 3144SOL    HW126574   1.914   0.660   5.842
 3144SOL    HW226575   1.885   0.512   5.861
 3145SOL     OW26576   1.431   5.717   0.705
 3145SOL    HW126577   1.475   5.757   0.779
 3145SOL    HW226578   1.490   5.732   0.631
 3146SOL     OW26579   1.215   3.751   6.749
 3146SOL    HW126580   1.120   3.756   6.756
 3146SOL    HW226581   1.234   3.657   6.738
 3147SOL     OW26582   0.979   2.037   1.139
 3147SOL    HW126583   1.013   2.044   1.228
 3147SOL    HW226584   0.885   2.054   1.147
 3148SOL     OW26585   1.067   0.221   5.515
 3148SOL    HW126586   0.985   0.245   5.473
 3148SOL    HW226587   1.132   0.225   5.445
 3149SOL     OW26588   2.282   3.237   0.102
 3149SOL    HW126589   2.333   3.247   0.182
 3149SOL    HW226590   2.235   3.319   0.093
 3150SOL     OW26591   0.006   5.337   7.720
 3150SOL    HW126592   0.064   5.313   7.647
 3150SOL    HW226593  -0.014   5.254   7.763
 3151SOL     OW26594   1.587   0.794   2.164
 3151SOL    HW126595   1.624   0.876   2.132
 3151SOL    HW226596   1.514   0.776   2.104
 3152SOL     OW26597   4.058   5.860   6.697
 3152SOL    HW126598   4.125   5.809   6.743
 3152SOL    HW226599   4.083   5.951   6.713
 3153SOL     OW26600   4.491   2.371   1.096
 3153SOL    HW126601   4.431   2.428   1.144
 3153SOL    HW226602   4.575   2.418   1.096
 3154SOL     OW26603   3.854   3.433   2.232
 3154SOL    HW126604   3.852   3.347   2.274
 3154SOL    HW226605   3.925   3.428   2.169
 3155SOL     OW26606   3.455   4.791   0.517
 3155SOL    HW126607   3.474   4.867   0.462
 3155SOL    HW226608   3.538   4.772   0.561
 3156SOL     OW26609   2.279   5.391   1.551
 3156SOL    HW126610   2.234   5.423   1.629
 3156SOL    HW226611   2.215   5.401   1.481
 3157SOL     OW26612   5.209   6.243   1.812
 3157SOL    HW126613   5.166   6.157   1.817
 3157SOL    HW226614   5.248   6.255   1.898
 3158SOL     OW26615   1.679   4.874   6.641
 3158SOL    HW126616   1.737   4.936   6.685
 3158SOL    HW226617   1.596   4.881   6.688
 3159SOL     OW26618   2.054   2.256   5.515
 3159SOL    HW126619   2.052   2.162   5.536
 3159SOL    HW226620   2.011   2.298   5.589
 3160SOL     OW26621   6.164   3.389   0.830
 3160SOL    HW126622   6.089   3.355   0.879
 3160SOL    HW226623   6.125   3.446   0.764
 3161SOL     OW26624   6.253   0.810   7.774
 3161SOL    HW126625   6.178   0.791   7.718
 3161SOL    HW226626   6.248   0.904   7.791
 3162SOL     OW26627   2.088   2.684   6.631
 3162SOL    HW126628   2.044   2.653   6.710
 3162SOL    HW226629   2.109   2.775   6.649
 3163SOL     OW26630   3.125   3.113   6.058
 3163SOL    HW126631   3.107   3.096   5.966
 3163SOL    HW226632   3.199   3.173   6.058
 3164SOL     OW26633   0.311   4.902   0.259
 3164SOL    HW126634   0.388   4.892   0.314
 3164SOL    HW226635   0.344   4.945   0.180
 3165SOL     OW26636   2.258   1.491   1.101
 3165SOL    HW126637   2.335   1.445   1.135
 3165SOL    HW226638   2.287   1.534   1.021
 3166SOL     OW26639   2.478   0.005   7.705
 3166SOL    HW126640   2.503   0.040   7.790
 3166SOL    HW226641   2.382   0.010   7.705
 3167SOL     OW26642   0.452   3.843   7.622
 3167SOL    HW126643   0.452   3.905   7.695
 3167SOL    HW226644   0.512   3.774   7.649
 3168SOL     OW26645   2.090   4.173   6.314
 3168SOL    HW126646   2.131   4.107   6.369
 3168SOL    HW226647   2.074   4.247   6.374
 3169SOL     OW26648   2.885   1.811   5.989
 3169SOL    HW126649   2.868   1.874   5.919
 3169SOL    HW226650   2.895   1.727   5.944
 3170SOL     OW26651   1.333   3.005   0.759
 3170SOL    HW126652   1.416   2.971   0.792
 3170SOL    HW226653   1.355   3.039   0.672
 3171SOL     OW26654   3.831   6.288   6.767
 3171SOL    HW126655   3.812   6.229   6.840
 3171SOL    HW226656   3.779   6.253   6.694
 3172SOL     OW26657   1.454   1.405   0.534
 3172SOL    HW126658   1.492   1.396   0.622
 3172SOL    HW226659   1.512   1.466   0.489
 3173SOL     OW26660   1.726   0.311   7.546
 3173SOL    HW126661   1.803   0.308   7.490
 3173SOL    HW226662   1.736   0.392   7.596
 3174SOL     OW26663   0.259   5.348   0.881
 3174SOL    HW126664   0.283   5.440   0.891
 3174SOL    HW226665   0.177   5.339   0.931
 3175SOL     OW26666   5.200   1.954   7.569
 3175SOL    HW126667   5.195   2.045   7.542
 3175SOL    HW226668   5.110   1.921   7.560
 3176SOL     OW26669   5.335   4.506   5.511
 3176SOL    HW126670   5.265   4.486   5.573
 3176SOL    HW226671   5.403   4.548   5.564
 3177SOL     OW26672   0.191   5.779   5.963
 3177SOL    HW126673   0.110   5.728   5.957
 3177SOL    HW226674   0.247   5.742   5.896
 3178SOL     OW26675   0.583   5.426   1.008
 3178SOL    HW126676   0.559   5.343   1.050
 3178SOL    HW226677   0.661   5.456   1.056
 3179SOL     OW26678   5.196   6.219   5.716
 3179SOL    HW126679   5.207   6.303   5.762
 3179SOL    HW226680   5.115   6.183   5.751
 3180SOL     OW26681   4.692   1.048   7.270
 3180SOL    HW126682   4.683   0.955   7.291
 3180SOL    HW226683   4.613   1.069   7.221
 3181SOL     OW26684   2.669   5.681   7.574
 3181SOL    HW126685   2.722   5.681   7.494
 3181SOL    HW226686   2.613   5.603   7.567
 3182SOL     OW26687   5.033   1.803   0.796
 3182SOL    HW126688   4.955   1.857   0.795
 3182SOL    HW226689   5.021   1.745   0.871
 3183SOL     OW26690   2.197   4.939   1.981
 3183SOL    HW126691   2.213   4.845   1.975
 3183SOL    HW226692   2.110   4.946   2.020
 3184SOL     OW26693   0.929   0.324   7.741
 3184SOL    HW126694   0.958   0.240   7.703
 3184SOL    HW226695   0.947   0.315   7.834
 3185SOL     OW26696   0.409   0.708   5.291
 3185SOL    HW126697   0.472   0.643   5.321
 3185SOL    HW226698   0.462   0.787   5.278
 3186SOL     OW26699   6.344   4.816   6.489
 3186SOL    HW126700   6.322   4.736   6.537
 3186SOL    HW226701   6.261   4.863   6.484
 3187SOL     OW26702   3.098   0.146   0.559
 3187SOL    HW126703   3.017   0.096   0.542
 3187SOL    HW226704   3.148   0.090   0.618
 3188SOL     OW26705   6.311   5.889   6.094
 3188SOL    HW126706   6.252   5.908   6.022
 3188SOL    HW226707   6.396   5.924   6.066
 3189SOL     OW26708   2.545   5.001   1.416
 3189SOL    HW126709   2.586   4.988   1.330
 3189SOL    HW226710   2.464   5.048   1.397
 3190SOL     OW26711   6.108   1.451   6.606
 3190SOL    HW126712   6.191   1.490   6.632
 3190SOL    HW226713   6.110   1.452   6.510
 3191SOL     OW26714   0.327   0.010   0.899
 3191SOL    HW126715   0.316  -0.003   0.805
 3191SOL    HW226716   0.417  -0.016   0.917
 3192SOL     OW26717   2.494   0.260   1.456
 3192SOL    HW126718   2.581   0.234   1.427
 3192SOL    HW226719   2.443   0.179   1.454
 3193SOL     OW26720   4.275   5.508   0.567
 3193SOL    HW126721   4.340   5.567   0.606
 3193SOL    HW226722   4.326   5.448   0.513
 3194SOL     OW26723   4.384   1.503   6.771
 3194SOL    HW126724   4.341   1.418   6.786
 3194SOL    HW226725   4.391   1.541   6.859
 3195SOL     OW26726   6.244   6.077   6.501
 3195SOL    HW126727   6.265   6.003   6.443
 3195SOL    HW226728   6.149   6.071   6.513
 3196SOL     OW26729   1.101   3.016   6.831
 3196SOL    HW126730   1.012   2.997   6.860
 3196SOL    HW226731   1.117   3.106   6.859
 3197SOL     OW26732   1.826   4.861   1.069
 3197SOL    HW126733   1.790   4.831   1.152
 3197SOL    HW226734   1.852   4.781   1.024
 3198SOL     OW26735   6.183   6.164   0.233
 3198SOL    HW126736   6.180   6.075   0.199
 3198SOL    HW226737   6.260   6.165   0.290
 3199SOL     OW26738   5.042   3.661   0.942
 3199SOL    HW126739   5.045   3.717   0.865
 3199SOL    HW226740   5.108   3.593   0.925
 3200SOL     OW26741   2.932   4.573   7.202
 3200SOL    HW126742   2.934   4.668   7.212
 3200SOL    HW226743   2.851   4.546   7.244
 3201SOL     OW26744   0.037   6.418   1.680
 3201SOL    HW126745   0.056   6.385   1.768
 3201SOL    HW226746   0.061   6.511   1.684
 3202SOL     OW26747   2.356   0.503   6.476
 3202SOL    HW126748   2.335   0.596   6.481
 3202SOL    HW226749   2.309   0.472   6.398
 3203SOL     OW26750   3.297   6.124   5.561
 3203SOL    HW126751   3.203   6.139   5.569
 3203SOL    HW226752   3.305   6.051   5.499
 3204SOL     OW26753   4.510   3.583   5.451
 3204SOL    HW126754   4.503   3.499   5.497
 3204SOL    HW226755   4.428   3.627   5.469
 3205SOL     OW26756   5.690   0.241   1.362
 3205SOL    HW126757   5.711   0.236   1.455
 3205SOL    HW226758   5.766   0.203   1.318
 3206SOL     OW26759   0.844   5.367   1.112
 3206SOL    HW126760   0.919   5.324   1.155
 3206SOL    HW226761   0.828   5.445   1.165
 3207SOL     OW26762   1.028   2.240   0.390
 3207SOL    HW126763   1.040   2.331   0.418
 3207SOL    HW226764   0.938   2.237   0.357
 3208SOL     OW26765   1.501   1.242   6.764
 3208SOL    HW126766   1.560   1.187   6.816
 3208SOL    HW226767   1.444   1.180   6.719
 3209SOL     OW26768   2.440   5.210   2.139
 3209SOL    HW126769   2.464   5.281   2.199
 3209SOL    HW226770   2.364   5.169   2.181
 3210SOL     OW26771   2.389   4.795   2.208
 3210SOL    HW126772   2.314   4.781   2.150
 3210SOL    HW226773   2.464   4.799   2.149
 3211SOL     OW26774   0.915   5.823   0.711
 3211SOL    HW126775   0.825   5.818   0.679
 3211SOL    HW226776   0.928   5.742   0.760
 3212SOL     OW26777   5.446   5.862   6.422
 3212SOL    HW126778   5.383   5.931   6.443
 3212SOL    HW226779   5.437   5.848   6.328
 3213SOL     OW26780   1.308   6.352   0.031
 3213SOL    HW126781   1.399   6.371   0.055
 3213SOL    HW226782   1.262   6.347   0.116
 3214SOL     OW26783   3.117   2.762   6.882
 3214SOL    HW126784   3.078   2.711   6.811
 3214SOL    HW226785   3.127   2.850   6.846
 3215SOL     OW26786   1.455   2.421   5.923
 3215SOL    HW126787   1.529   2.441   5.865
 3215SOL    HW226788   1.377   2.444   5.872
 3216SOL     OW26789   0.025   3.542   1.985
 3216SOL    HW126790   0.032   3.447   1.993
 3216SOL    HW226791  -0.065   3.562   2.010
 3217SOL     OW26792   1.223   4.867   0.332
 3217SOL    HW126793   1.216   4.941   0.272
 3217SOL    HW226794   1.138   4.824   0.329
 3218SOL     OW26795   2.727   2.665   0.763
 3218SOL    HW126796   2.804   2.720   0.773
 3218SOL    HW226797   2.661   2.704   0.820
 3219SOL     OW26798   4.442   3.960   6.309
 3219SOL    HW126799   4.518   3.917   6.272
 3219SOL    HW226800   4.401   4.006   6.235
 3220SOL     OW26801   3.229   4.171   7.001
 3220SOL    HW126802   3.274   4.253   7.017
 3220SOL    HW226803   3.222   4.130   7.087
 3221SOL     OW26804   3.889   0.314   6.684
 3221SOL    HW126805   3.888   0.241   6.745
 3221SOL    HW226806   3.875   0.392   6.739
 3222SOL     OW26807   1.758   1.844   7.738
 3222SOL    HW126808   1.749   1.937   7.760
 3222SOL    HW226809   1.822   1.810   7.801
 3223SOL     OW26810   4.130   4.121   1.658
 3223SOL    HW126811   4.137   4.195   1.598
 3223SOL    HW226812   4.147   4.158   1.744
 3224SOL     OW26813   5.900   2.258   1.151
 3224SOL    HW126814   5.873   2.322   1.217
 3224SOL    HW226815   5.818   2.230   1.110
 3225SOL     OW26816   3.127   3.510   0.808
 3225SOL    HW126817   3.111   3.593   0.851
 3225SOL    HW226818   3.045   3.488   0.765
 3226SOL     OW26819   2.533   2.567   5.158
 3226SOL    HW126820   2.587   2.493   5.131
 3226SOL    HW226821   2.557   2.638   5.098
 3227SOL     OW26822   4.012   1.744   1.424
 3227SOL    HW126823   4.001   1.765   1.332
 3227SOL    HW226824   4.024   1.649   1.426
 3228SOL     OW26825   2.170   0.439   5.187
 3228SOL    HW126826   2.087   0.428   5.141
 3228SOL    HW226827   2.168   0.530   5.218
 3229SOL     OW26828   2.481   4.810   6.533
 3229SOL    HW126829   2.387   4.791   6.536
 3229SOL    HW226830   2.518   4.757   6.604
 3230SOL     OW26831   0.403   5.262   7.323
 3230SOL    HW126832   0.401   5.174   7.286
 3230SOL    HW226833   0.472   5.259   7.389
 3231SOL     OW26834   0.806   1.089   2.227
 3231SOL    HW126835   0.794   1.170   2.178
 3231SOL    HW226836   0.718   1.055   2.239
 3232SOL     OW26837   5.711   3.433   6.537
 3232SOL    HW126838   5.624   3.403   6.563
 3232SOL    HW226839   5.696   3.520   6.499
 3233SOL     OW26840   0.585   4.253   6.673
 3233SOL    HW126841   0.645   4.326   6.685
 3233SOL    HW226842   0.500   4.286   6.703
 3234SOL     OW26843   2.020   3.175   1.458
 3234SOL    HW126844   2.004   3.113   1.387
 3234SOL    HW226845   2.062   3.123   1.526
 3235SOL     OW26846   1.999   0.619   2.324
 3235SOL    HW126847   1.942   0.689   2.358
 3235SOL    HW226848   2.087   0.656   2.326
 3236SOL     OW26849   1.058   0.965   6.851
 3236SOL    HW126850   1.056   1.026   6.777
 3236SOL    HW226851   1.086   0.881   6.813
 3237SOL     OW26852   6.439   3.836   6.243
 3237SOL    HW126853   6.381   3.763   6.220
 3237SOL    HW226854   6.483   3.807   6.323
 3238SOL     OW26855   2.804   0.574   7.673
 3238SOL    HW126856   2.715   0.538   7.674
 3238SOL    HW226857   2.844   0.538   7.752
 3239SOL     OW26858   3.397   4.892   5.565
 3239SOL    HW126859   3.343   4.833   5.512
 3239SOL    HW226860   3.362   4.979   5.548
 3240SOL     OW26861   6.146   4.726   5.299
 3240SOL    HW126862   6.223   4.671   5.318
 3240SOL    HW226863   6.081   4.664   5.264
 3241SOL     OW26864   6.433   1.371   0.384
 3241SOL    HW126865   6.365   1.425   0.343
 3241SOL    HW226866   6.475   1.429   0.447
 3242SOL     OW26867   5.937   3.355   1.284
 3242SOL    HW126868   6.018   3.327   1.327
 3242SOL    HW226869   5.868   3.306   1.327
 3243SOL     OW26870   3.827   1.921   6.484
 3243SOL    HW126871   3.763   1.860   6.446
 3243SOL    HW226872   3.816   1.911   6.578
 3244SOL     OW26873   2.315   3.857   1.154
 3244SOL    HW126874   2.402   3.833   1.122
 3244SOL    HW226875   2.279   3.776   1.190
 3245SOL     OW26876   0.494   4.915   1.180
 3245SOL    HW126877   0.408   4.933   1.142
 3245SOL    HW226878   0.549   4.894   1.104
 3246SOL     OW26879   4.359   1.404   0.263
 3246SOL    HW126880   4.370   1.314   0.233
 3246SOL    HW226881   4.344   1.396   0.358
 3247SOL     OW26882   2.092   5.641   0.733
 3247SOL    HW126883   2.049   5.598   0.807
 3247SOL    HW226884   2.126   5.569   0.680
 3248SOL     OW26885   0.895   4.428   2.037
 3248SOL    HW126886   0.844   4.509   2.045
 3248SOL    HW226887   0.870   4.377   2.115
 3249SOL     OW26888   1.978   1.051   6.221
 3249SOL    HW126889   2.008   1.141   6.234
 3249SOL    HW226890   1.977   1.039   6.126
 3250SOL     OW26891   2.529   2.380   5.716
 3250SOL    HW126892   2.590   2.314   5.683
 3250SOL    HW226893   2.451   2.369   5.662
 3251SOL     OW26894   2.109   4.892   0.405
 3251SOL    HW126895   2.123   4.899   0.310
 3251SOL    HW226896   2.023   4.933   0.419
 3252SOL     OW26897   4.681   1.442   0.385
 3252SOL    HW126898   4.764   1.429   0.340
 3252SOL    HW226899   4.656   1.355   0.415
 3253SOL     OW26900   4.589   1.050   1.103
 3253SOL    HW126901   4.631   1.054   1.189
 3253SOL    HW226902   4.626   1.124   1.055
 3254SOL     OW26903   0.152   3.917   7.768
 3254SOL    HW126904   0.060   3.893   7.765
 3254SOL    HW226905   0.196   3.855   7.711
 3255SOL     OW26906   5.425   3.225   2.225
 3255SOL    HW126907   5.449   3.317   2.215
 3255SOL    HW226908   5.342   3.216   2.178
 3256SOL     OW26909   0.527   5.264   0.276
 3256SOL    HW126910   0.616   5.288   0.303
 3256SOL    HW226911   0.518   5.173   0.304
 3257SOL     OW26912   2.125   5.655   7.568
 3257SOL    HW126913   2.178   5.729   7.599
 3257SOL    HW226914   2.105   5.676   7.477
 3258SOL     OW26915   3.857   3.257   5.052
 3258SOL    HW126916   3.925   3.241   5.118
 3258SOL    HW226917   3.893   3.328   4.998
 3259SOL     OW26918   2.937   3.339   0.011
 3259SOL    HW126919   2.900   3.339   0.100
 3259SOL    HW226920   3.030   3.325   0.024
 3260SOL     OW26921   3.489   6.439   0.979
 3260SOL    HW126922   3.475   6.365   0.919
 3260SOL    HW226923   3.567   6.414   1.028
 3261SOL     OW26924   0.427   6.210   6.333
 3261SOL    HW126925   0.347   6.192   6.382
 3261SOL    HW226926   0.399   6.265   6.260
 3262SOL     OW26927   4.175   2.026   0.919
 3262SOL    HW126928   4.240   1.997   0.855
 3262SOL    HW226929   4.189   1.969   0.995
 3263SOL     OW26930   0.089   0.107   1.257
 3263SOL    HW126931   0.135   0.051   1.319
 3263SOL    HW226932   0.059   0.046   1.188
 3264SOL     OW26933   6.100   1.026   0.611
 3264SOL    HW126934   6.066   1.091   0.672
 3264SOL    HW226935   6.029   0.964   0.600
 3265SOL     OW26936   5.502   2.279   6.331
 3265SOL    HW126937   5.444   2.281   6.256
 3265SOL    HW226938   5.462   2.339   6.394
 3266SOL     OW26939   0.921   4.104   5.610
 3266SOL    HW126940   0.981   4.098   5.685
 3266SOL    HW226941   0.963   4.167   5.551
 3267SOL     OW26942   5.684   2.745   2.372
 3267SOL    HW126943   5.645   2.832   2.380
 3267SOL    HW226944   5.777   2.762   2.353
 3268SOL     OW26945   3.785   3.189   5.755
 3268SOL    HW126946   3.698   3.202   5.717
 3268SOL    HW226947   3.832   3.138   5.689
 3269SOL     OW26948   1.158   1.631   7.304
 3269SOL    HW126949   1.174   1.584   7.386
 3269SOL    HW226950   1.095   1.699   7.328
 3270SOL     OW26951   5.725   2.290   7.398
 3270SOL    HW126952   5.691   2.243   7.474
 3270SOL    HW226953   5.669   2.262   7.325
 3271SOL     OW26954   0.479   1.212   0.115
 3271SOL    HW126955   0.513   1.227   0.203
 3271SOL    HW226956   0.553   1.172   0.067
 3272SOL     OW26957   5.186   3.698   6.730
 3272SOL    HW126958   5.246   3.662   6.664
 3272SOL    HW226959   5.243   3.727   6.801
 3273SOL     OW26960   4.772   1.231   1.896
 3273SOL    HW126961   4.711   1.286   1.944
 3273SOL    HW226962   4.817   1.291   1.836
 3274SOL     OW26963   4.226   5.295   5.415
 3274SOL    HW126964   4.208   5.207   5.447
 3274SOL    HW226965   4.308   5.320   5.458
 3275SOL     OW26966   0.035   2.306   6.243
 3275SOL    HW126967   0.091   2.371   6.286
 3275SOL    HW226968  -0.049   2.350   6.234
 3276SOL     OW26969   6.355   2.645   1.853
 3276SOL    HW126970   6.338   2.739   1.858
 3276SOL    HW226971   6.267   2.605   1.854
 3277SOL     OW26972   2.758   4.713   7.546
 3277SOL    HW126973   2.818   4.756   7.485
 3277SOL    HW226974   2.783   4.745   7.632
 3278SOL     OW26975   6.127   6.110   6.810
 3278SOL    HW126976   6.067   6.037   6.827
 3278SOL    HW226977   6.127   6.119   6.715
 3279SOL     OW26978   5.296   4.783   5.847
 3279SOL    HW126979   5.338   4.799   5.762
 3279SOL    HW226980   5.247   4.702   5.833
 3280SOL     OW26981   0.452   0.111   0.348
 3280SOL    HW126982   0.518   0.165   0.305
 3280SOL    HW226983   0.388   0.174   0.382
 3281SOL     OW26984   4.372   3.373   0.769
 3281SOL    HW126985   4.278   3.382   0.788
 3281SOL    HW226986   4.389   3.280   0.776
 3282SOL     OW26987   5.998   6.245   1.096
 3282SOL    HW126988   6.069   6.304   1.122
 3282SOL    HW226989   5.922   6.276   1.145
 3283SOL     OW26990   5.307   1.714   0.130
 3283SOL    HW126991   5.390   1.680   0.097
 3283SOL    HW226992   5.310   1.808   0.110
 3284SOL     OW26993   3.130   1.597   7.739
 3284SOL    HW126994   3.135   1.520   7.796
 3284SOL    HW226995   3.215   1.601   7.696
 3285SOL     OW26996   3.475   0.793   6.086
 3285SOL    HW126997   3.405   0.770   6.024
 3285SOL    HW226998   3.553   0.803   6.031
 3286SOL     OW26999   5.935   0.059   6.404
 3286SOL    HW127000   5.969   0.001   6.472
 3286SOL    HW227001   5.840   0.058   6.417
 3287SOL     OW27002   1.258   1.228   0.245
 3287SOL    HW127003   1.251   1.218   0.150
 3287SOL    HW227004   1.172   1.260   0.272
 3288SOL     OW27005   5.032   2.404   6.929
 3288SOL    HW127006   5.075   2.336   6.877
 3288SOL    HW227007   5.103   2.448   6.976
 3289SOL     OW27008   1.508   4.248   5.906
 3289SOL    HW127009   1.582   4.188   5.914
 3289SOL    HW227010   1.431   4.192   5.921
 3290SOL     OW27011   0.835   1.563   7.772
 3290SOL    HW127012   0.748   1.532   7.747
 3290SOL    HW227013   0.858   1.511   7.849
 3291SOL     OW27014   5.595   3.882   6.016
 3291SOL    HW127015   5.691   3.881   6.019
 3291SOL    HW227016   5.574   3.852   5.927
 3292SOL     OW27017   2.913   2.505   0.002
 3292SOL    HW127018   2.890   2.458   0.083
 3292SOL    HW227019   2.934   2.594   0.031
 3293SOL     OW27020   2.533   0.257   7.531
 3293SOL    HW127021   2.487   0.339   7.546
 3293SOL    HW227022   2.469   0.189   7.551
 3294SOL     OW27023   3.072   1.884   0.398
 3294SOL    HW127024   3.146   1.893   0.458
 3294SOL    HW227025   3.103   1.820   0.333
 3295SOL     OW27026   3.099   3.001   6.683
 3295SOL    HW127027   3.194   2.994   6.696
 3295SOL    HW227028   3.083   2.956   6.600
 3296SOL     OW27029   1.194   6.236   2.145
 3296SOL    HW127030   1.234   6.323   2.160
 3296SOL    HW227031   1.188   6.198   2.233
 3297SOL     OW27032   3.591   3.624   7.509
 3297SOL    HW127033   3.599   3.564   7.583
 3297SOL    HW227034   3.567   3.708   7.549
 3298SOL     OW27035   5.235   0.256   0.561
 3298SOL    HW127036   5.249   0.292   0.473
 3298SOL    HW227037   5.314   0.280   0.609
 3299SOL     OW27038   0.117   2.818   7.250
 3299SOL    HW127039   0.102   2.835   7.343
 3299SOL    HW227040   0.048   2.867   7.205
 3300SOL     OW27041   0.346   0.198   7.337
 3300SOL    HW127042   0.441   0.202   7.345
 3300SOL    HW227043   0.326   0.104   7.339
 3301SOL     OW27044   1.093   0.946   6.544
 3301SOL    HW127045   1.059   0.939   6.455
 3301SOL    HW227046   1.130   0.858   6.562
 3302SOL     OW27047   5.137   4.494   7.715
 3302SOL    HW127048   5.091   4.447   7.784
 3302SOL    HW227049   5.178   4.568   7.759
 3303SOL     OW27050   2.524   0.475   7.808
 3303SOL    HW127051   2.594   0.419   7.840
 3303SOL    HW227052   2.465   0.415   7.762
 3304SOL     OW27053   2.214   1.150   6.952
 3304SOL    HW127054   2.219   1.199   7.034
 3304SOL    HW227055   2.220   1.218   6.884
 3305SOL     OW27056   5.927   2.405   7.622
 3305SOL    HW127057   5.897   2.430   7.709
 3305SOL    HW227058   5.853   2.358   7.584
 3306SOL     OW27059   1.006   3.181   7.421
 3306SOL    HW127060   0.919   3.218   7.409
 3306SOL    HW227061   1.013   3.114   7.352
 3307SOL     OW27062   4.920   6.407   5.828
 3307SOL    HW127063   4.899   6.453   5.909
 3307SOL    HW227064   4.839   6.408   5.777
 3308SOL     OW27065   1.231   3.357   6.190
 3308SOL    HW127066   1.238   3.400   6.104
 3308SOL    HW227067   1.311   3.382   6.236
 3309SOL     OW27068   2.048   4.510   1.108
 3309SOL    HW127069   2.029   4.421   1.139
 3309SOL    HW227070   2.137   4.528   1.138
 3310SOL     OW27071   2.976   2.670   1.279
 3310SOL    HW127072   2.906   2.649   1.218
 3310SOL    HW227073   2.935   2.669   1.365
 3311SOL     OW27074   0.662   3.936   1.190
 3311SOL    HW127075   0.697   4.006   1.245
 3311SOL    HW227076   0.738   3.885   1.165
 3312SOL     OW27077   4.047   0.730   1.565
 3312SOL    HW127078   4.088   0.712   1.650
 3312SOL    HW227079   4.118   0.767   1.512
 3313SOL     OW27080   1.176   0.063   1.863
 3313SOL    HW127081   1.200   0.131   1.800
 3313SOL    HW227082   1.185   0.106   1.948
 3314SOL     OW27083   4.850   5.023   7.489
 3314SOL    HW127084   4.852   4.961   7.562
 3314SOL    HW227085   4.773   5.077   7.506
 3315SOL     OW27086   4.259   4.079   0.454
 3315SOL    HW127087   4.166   4.094   0.471
 3315SOL    HW227088   4.305   4.134   0.517
 3316SOL     OW27089   5.961   5.407   0.142
 3316SOL    HW127090   5.988   5.495   0.118
 3316SOL    HW227091   6.039   5.367   0.179
 3317SOL     OW27092   2.249   0.351   5.418
 3317SOL    HW127093   2.223   0.377   5.329
 3317SOL    HW227094   2.185   0.285   5.443
 3318SOL     OW27095   1.222   5.624   6.339
 3318SOL    HW127096   1.203   5.541   6.295
 3318SOL    HW227097   1.201   5.608   6.430
 3319SOL     OW27098   6.111   1.739   0.094
 3319SOL    HW127099   6.132   1.693   0.175
 3319SOL    HW227100   6.080   1.825   0.122
 3320SOL     OW27101   2.315   2.890   1.229
 3320SOL    HW127102   2.316   2.973   1.182
 3320SOL    HW227103   2.245   2.901   1.294
 3321SOL     OW27104   1.598   0.165   7.759
 3321SOL    HW127105   1.654   0.206   7.693
 3321SOL    HW227106   1.585   0.076   7.728
 3322SOL     OW27107   4.512   5.679   7.544
 3322SOL    HW127108   4.540   5.692   7.453
 3322SOL    HW227109   4.592   5.656   7.591
 3323SOL     OW27110   6.202   1.151   0.342
 3323SOL    HW127111   6.178   1.082   0.405
 3323SOL    HW227112   6.282   1.190   0.379
 3324SOL     OW27113   5.042   0.972   7.319
 3324SOL    HW127114   5.018   1.019   7.240
 3324SOL    HW227115   5.084   1.037   7.375
 3325SOL     OW27116   5.434   0.667   1.290
 3325SOL    HW127117   5.344   0.700   1.300
 3325SOL    HW227118   5.457   0.686   1.200
 3326SOL     OW27119   1.804   6.225   5.891
 3326SOL    HW127120   1.764   6.244   5.806
 3326SOL    HW227121   1.889   6.186   5.869
 3327SOL     OW27122   3.785   4.151   1.200
 3327SOL    HW127123   3.838   4.072   1.197
 3327SOL    HW227124   3.833   4.210   1.258
 3328SOL     OW27125   5.268   1.450   1.882
 3328SOL    HW127126   5.327   1.510   1.927
 3328SOL    HW227127   5.319   1.371   1.869
 3329SOL     OW27128   1.883   1.169   1.365
 3329SOL    HW127129   1.836   1.136   1.441
 3329SOL    HW227130   1.969   1.194   1.398
 3330SOL     OW27131   3.581   5.527   1.280
 3330SOL    HW127132   3.499   5.575   1.292
 3330SOL    HW227133   3.600   5.535   1.187
 3331SOL     OW27134   5.144   1.271   5.748
 3331SOL    HW127135   5.203   1.325   5.694
 3331SOL    HW227136   5.119   1.327   5.821
 3332SOL     OW27137   2.399   5.227   2.470
 3332SOL    HW127138   2.407   5.315   2.433
 3332SOL    HW227139   2.304   5.215   2.482
 3333SOL     OW27140   1.296   3.502   6.622
 3333SOL    HW127141   1.377   3.536   6.659
 3333SOL    HW227142   1.297   3.531   6.531
 3334SOL     OW27143   3.139   2.937   1.142
 3334SOL    HW127144   3.161   2.908   1.054
 3334SOL    HW227145   3.078   2.871   1.174
 3335SOL     OW27146   2.415   3.864   0.821
 3335SOL    HW127147   2.335   3.817   0.845
 3335SOL    HW227148   2.387   3.926   0.753
 3336SOL     OW27149   0.308   1.265   7.237
 3336SOL    HW127150   0.259   1.343   7.213
 3336SOL    HW227151   0.386   1.268   7.181
 3337SOL     OW27152   0.557   2.164   0.999
 3337SOL    HW127153   0.633   2.155   1.056
 3337SOL    HW227154   0.529   2.255   1.009
 3338SOL     OW27155   3.981   5.176   1.706
 3338SOL    HW127156   3.954   5.235   1.777
 3338SOL    HW227157   3.968   5.089   1.742
 3339SOL     OW27158   3.614   2.224   5.668
 3339SOL    HW127159   3.561   2.215   5.589
 3339SOL    HW227160   3.611   2.317   5.690
 3340SOL     OW27161   1.987   2.371   5.729
 3340SOL    HW127162   1.949   2.443   5.779
 3340SOL    HW227163   1.971   2.294   5.782
 3341SOL     OW27164   3.654   6.259   6.560
 3341SOL    HW127165   3.679   6.281   6.470
 3341SOL    HW227166   3.597   6.183   6.552
 3342SOL     OW27167   4.600   3.636   5.822
 3342SOL    HW127168   4.625   3.720   5.860
 3342SOL    HW227169   4.508   3.649   5.796
 3343SOL     OW27170   5.627   2.011   1.311
 3343SOL    HW127171   5.698   1.985   1.371
 3343SOL    HW227172   5.601   2.098   1.342
 3344SOL     OW27173   4.374   4.828   0.534
 3344SOL    HW127174   4.305   4.769   0.503
 3344SOL    HW227175   4.332   4.913   0.543
 3345SOL     OW27176   6.381   1.035   0.632
 3345SOL    HW127177   6.420   0.948   0.628
 3345SOL    HW227178   6.289   1.020   0.652
 3346SOL     OW27179   1.950   5.726   7.348
 3346SOL    HW127180   1.956   5.732   7.253
 3346SOL    HW227181   1.856   5.731   7.366
 3347SOL     OW27182   1.173   5.408   7.375
 3347SOL    HW127183   1.124   5.341   7.421
 3347SOL    HW227184   1.107   5.455   7.323
 3348SOL     OW27185   4.417   2.635   5.921
 3348SOL    HW127186   4.489   2.685   5.882
 3348SOL    HW227187   4.459   2.580   5.988
 3349SOL     OW27188   1.057   2.514   7.314
 3349SOL    HW127189   1.065   2.609   7.323
 3349SOL    HW227190   1.041   2.483   7.403
 3350SOL     OW27191   1.016   1.769   1.111
 3350SOL    HW127192   1.086   1.735   1.056
 3350SOL    HW227193   1.033   1.863   1.116
 3351SOL     OW27194   3.282   2.516   6.862
 3351SOL    HW127195   3.313   2.458   6.932
 3351SOL    HW227196   3.220   2.575   6.905
 3352SOL     OW27197   5.038   0.738   7.440
 3352SOL    HW127198   5.047   0.821   7.392
 3352SOL    HW227199   5.104   0.681   7.400
 3353SOL     OW27200   3.962   6.214   1.944
 3353SOL    HW127201   3.951   6.218   2.039
 3353SOL    HW227202   4.054   6.235   1.929
 3354SOL     OW27203   1.846   0.588   6.390
 3354SOL    HW127204   1.911   0.545   6.446
 3354SOL    HW227205   1.889   0.594   6.304
 3355SOL     OW27206   3.699   4.955   7.531
 3355SOL    HW127207   3.710   4.907   7.613
 3355SOL    HW227208   3.789   4.978   7.505
 3356SOL     OW27209   3.316   4.894   7.753
 3356SOL    HW127210   3.308   4.846   7.836
 3356SOL    HW227211   3.408   4.918   7.748
 3357SOL     OW27212   3.059   3.675   5.741
 3357SOL    HW127213   3.136   3.711   5.697
 3357SOL    HW227214   3.088   3.659   5.830
 3358SOL     OW27215   6.067   4.792   6.863
 3358SOL    HW127216   6.137   4.851   6.835
 3358SOL    HW227217   5.997   4.850   6.894
 3359SOL     OW27218   0.756   3.801   0.597
 3359SOL    HW127219   0.755   3.767   0.687
 3359SOL    HW227220   0.781   3.726   0.544
 3360SOL     OW27221   2.018   0.535   0.585
 3360SOL    HW127222   2.002   0.612   0.640
 3360SOL    HW227223   1.944   0.534   0.524
 3361SOL     OW27224   4.660   6.155   0.419
 3361SOL    HW127225   4.595   6.154   0.349
 3361SOL    HW227226   4.627   6.092   0.483
 3362SOL     OW27227   5.045   4.349   6.871
 3362SOL    HW127228   5.002   4.266   6.846
 3362SOL    HW227229   5.137   4.326   6.882
 3363SOL     OW27230   0.749   3.589   0.147
 3363SOL    HW127231   0.729   3.677   0.181
 3363SOL    HW227232   0.827   3.602   0.093
 3364SOL     OW27233   3.510   0.569   6.258
 3364SOL    HW127234   3.484   0.630   6.189
 3364SOL    HW227235   3.553   0.623   6.324
 3365SOL     OW27236   0.187   5.945   5.011
 3365SOL    HW127237   0.234   5.863   4.998
 3365SOL    HW227238   0.248   6.000   5.061
 3366SOL     OW27239   4.925   5.608   5.708
 3366SOL    HW127240   4.952   5.532   5.759
 3366SOL    HW227241   5.005   5.639   5.666
 3367SOL     OW27242   2.667   4.465   7.717
 3367SOL    HW127243   2.627   4.463   7.630
 3367SOL    HW227244   2.683   4.372   7.737
 3368SOL     OW27245   6.266   2.952   6.550
 3368SOL    HW127246   6.346   2.902   6.538
 3368SOL    HW227247   6.211   2.929   6.474
 3369SOL     OW27248   3.279   1.552   0.893
 3369SOL    HW127249   3.330   1.484   0.850
 3369SOL    HW227250   3.246   1.512   0.973
 3370SOL     OW27251   3.080   2.466   5.301
 3370SOL    HW127252   3.153   2.457   5.241
 3370SOL    HW227253   3.112   2.430   5.384
 3371SOL     OW27254   2.828   3.256   0.442
 3371SOL    HW127255   2.833   3.338   0.393
 3371SOL    HW227256   2.735   3.231   0.436
 3372SOL     OW27257   4.767   3.444   6.377
 3372SOL    HW127258   4.683   3.404   6.400
 3372SOL    HW227259   4.811   3.377   6.324
 3373SOL     OW27260   0.452   4.245   5.742
 3373SOL    HW127261   0.448   4.303   5.666
 3373SOL    HW227262   0.459   4.157   5.705
 3374SOL     OW27263   5.161   4.658   2.156
 3374SOL    HW127264   5.066   4.649   2.144
 3374SOL    HW227265   5.193   4.568   2.161
 3375SOL     OW27266   3.040   5.755   7.556
 3375SOL    HW127267   2.982   5.774   7.629
 3375SOL    HW227268   2.983   5.752   7.480
 3376SOL     OW27269   0.680   5.724   6.271
 3376SOL    HW127270   0.637   5.788   6.214
 3376SOL    HW227271   0.614   5.656   6.283
 3377SOL     OW27272   1.608   6.372   1.062
 3377SOL    HW127273   1.669   6.434   1.102
 3377SOL    HW227274   1.522   6.414   1.071
 3378SOL     OW27275   0.514   4.808   6.114
 3378SOL    HW127276   0.504   4.901   6.134
 3378SOL    HW227277   0.432   4.769   6.144
 3379SOL     OW27278   0.384   2.999   0.826
 3379SOL    HW127279   0.298   2.993   0.785
 3379SOL    HW227280   0.424   2.913   0.812
 3380SOL     OW27281   5.828   5.642   0.602
 3380SOL    HW127282   5.790   5.579   0.541
 3380SOL    HW227283   5.866   5.709   0.545
 3381SOL     OW27284   2.285   3.030   6.349
 3381SOL    HW127285   2.297   2.956   6.408
 3381SOL    HW227286   2.349   3.016   6.280
 3382SOL     OW27287   3.265   5.199   0.816
 3382SOL    HW127288   3.179   5.236   0.796
 3382SOL    HW227289   3.306   5.264   0.872
 3383SOL     OW27290   3.298   2.810   5.788
 3383SOL    HW127291   3.329   2.758   5.714
 3383SOL    HW227292   3.333   2.764   5.865
 3384SOL     OW27293   2.237   0.126   6.289
 3384SOL    HW127294   2.259   0.219   6.304
 3384SOL    HW227295   2.317   0.079   6.313
 3385SOL     OW27296   6.091   3.982   5.448
 3385SOL    HW127297   6.171   3.963   5.400
 3385SOL    HW227298   6.026   3.922   5.411
 3386SOL     OW27299   5.891   5.113   6.084
 3386SOL    HW127300   5.861   5.129   5.995
 3386SOL    HW227301   5.884   5.018   6.094
 3387SOL     OW27302   4.877   5.981   7.358
 3387SOL    HW127303   4.869   5.920   7.284
 3387SOL    HW227304   4.793   6.028   7.359
 3388SOL     OW27305   2.913   5.616   6.663
 3388SOL    HW127306   2.863   5.577   6.591
 3388SOL    HW227307   2.864   5.695   6.685
 3389SOL     OW27308   4.840   0.908   0.924
 3389SOL    HW127309   4.782   0.954   0.863
 3389SOL    HW227310   4.788   0.835   0.957
 3390SOL     OW27311   3.961   2.625   0.711
 3390SOL    HW127312   3.892   2.658   0.768
 3390SOL    HW227313   3.975   2.534   0.739
 3391SOL     OW27314   5.066   5.817   1.055
 3391SOL    HW127315   5.130   5.747   1.062
 3391SOL    HW227316   4.985   5.773   1.028
 3392SOL     OW27317   3.282   0.692   6.592
 3392SOL    HW127318   3.317   0.632   6.657
 3392SOL    HW227319   3.293   0.646   6.509
 3393SOL     OW27320   2.424   0.295   6.201
 3393SOL    HW127321   2.368   0.372   6.201
 3393SOL    HW227322   2.500   0.319   6.147
 3394SOL     OW27323   0.370   3.681   1.005
 3394SOL    HW127324   0.322   3.600   1.020
 3394SOL    HW227325   0.407   3.704   1.091
 3395SOL     OW27326   5.524   6.426   7.039
 3395SOL    HW127327   5.445   6.374   7.045
 3395SOL    HW227328   5.513   6.495   7.105
 3396SOL     OW27329   0.838   0.682   1.094
 3396SOL    HW127330   0.842   0.684   0.998
 3396SOL    HW227331   0.891   0.757   1.122
 3397SOL     OW27332   3.181   0.126   1.533
 3397SOL    HW127333   3.135   0.123   1.617
 3397SOL    HW227334   3.228   0.209   1.534
 3398SOL     OW27335   5.536   4.681   1.061
 3398SOL    HW127336   5.535   4.591   1.028
 3398SOL    HW227337   5.474   4.728   1.005
 3399SOL     OW27338   1.400   5.778   2.200
 3399SOL    HW127339   1.335   5.727   2.152
 3399SOL    HW227340   1.444   5.831   2.133
 3400SOL     OW27341   2.606   3.991   7.617
 3400SOL    HW127342   2.640   4.033   7.539
 3400SOL    HW227343   2.515   4.018   7.621
 3401SOL     OW27344   0.504   5.276   2.237
 3401SOL    HW127345   0.423   5.327   2.241
 3401SOL    HW227346   0.498   5.216   2.311
 3402SOL     OW27347   5.410   3.382   7.574
 3402SOL    HW127348   5.355   3.304   7.576
 3402SOL    HW227349   5.459   3.380   7.656
 3403SOL     OW27350   5.224   2.601   7.214
 3403SOL    HW127351   5.231   2.643   7.299
 3403SOL    HW227352   5.130   2.587   7.201
 3404SOL     OW27353   4.115   0.234   1.701
 3404SOL    HW127354   4.186   0.240   1.764
 3404SOL    HW227355   4.150   0.274   1.622
 3405SOL     OW27356   4.372   2.655   6.292
 3405SOL    HW127357   4.302   2.629   6.232
 3405SOL    HW227358   4.333   2.724   6.346
 3406SOL     OW27359   0.885   5.902   6.391
 3406SOL    HW127360   0.810   5.845   6.371
 3406SOL    HW227361   0.917   5.871   6.475
 3407SOL     OW27362   5.469   2.649   0.371
 3407SOL    HW127363   5.453   2.591   0.296
 3407SOL    HW227364   5.512   2.726   0.334
 3408SOL     OW27365   2.170   0.753   6.520
 3408SOL    HW127366   2.250   0.768   6.471
 3408SOL    HW227367   2.105   0.809   6.478
 3409SOL     OW27368   4.902   0.066   1.798
 3409SOL    HW127369   4.811   0.054   1.824
 3409SOL    HW227370   4.905   0.040   1.706
 3410SOL     OW27371   2.039   1.282   6.071
 3410SOL    HW127372   2.125   1.300   6.109
 3410SOL    HW227373   2.056   1.264   5.979
 3411SOL     OW27374   3.865   5.829   5.771
 3411SOL    HW127375   3.805   5.878   5.827
 3411SOL    HW227376   3.882   5.748   5.818
 3412SOL     OW27377   0.342   3.501   0.245
 3412SOL    HW127378   0.314   3.452   0.322
 3412SOL    HW227379   0.261   3.533   0.206
 3413SOL     OW27380   1.918   3.684   6.619
 3413SOL    HW127381   1.905   3.660   6.528
 3413SOL    HW227382   1.989   3.627   6.649
 3414SOL     OW27383   4.765   2.168   7.629
 3414SOL    HW127384   4.710   2.179   7.706
 3414SOL    HW227385   4.704   2.160   7.556
 3415SOL     OW27386   3.180   2.403   6.416
 3415SOL    HW127387   3.206   2.432   6.504
 3415SOL    HW227388   3.236   2.328   6.398
 3416SOL     OW27389   2.875   6.210   0.308
 3416SOL    HW127390   2.967   6.183   0.303
 3416SOL    HW227391   2.826   6.140   0.266
 3417SOL     OW27392   4.781   2.191   1.402
 3417SOL    HW127393   4.707   2.250   1.392
 3417SOL    HW227394   4.792   2.151   1.316
 3418SOL     OW27395   0.055   2.649   7.659
 3418SOL    HW127396  -0.007   2.600   7.711
 3418SOL    HW227397   0.135   2.596   7.660
 3419SOL     OW27398   4.033   6.242   0.436
 3419SOL    HW127399   4.093   6.306   0.397
 3419SOL    HW227400   4.042   6.165   0.380
 3420SOL     OW27401   4.629   5.051   2.324
 3420SOL    HW127402   4.545   5.011   2.303
 3420SOL    HW227403   4.676   4.983   2.374
 3421SOL     OW27404   3.628   4.194   0.965
 3421SOL    HW127405   3.646   4.118   1.021
 3421SOL    HW227406   3.676   4.175   0.884
 3422SOL     OW27407   1.910   6.431   0.531
 3422SOL    HW127408   1.910   6.355   0.590
 3422SOL    HW227409   1.976   6.490   0.567
 3423SOL     OW27410   5.477   5.640   0.963
 3423SOL    HW127411   5.528   5.584   0.904
 3423SOL    HW227412   5.542   5.683   1.017
 3424SOL     OW27413   1.950   0.300   7.397
 3424SOL    HW127414   2.020   0.342   7.348
 3424SOL    HW227415   1.911   0.238   7.336
 3425SOL     OW27416   0.207   6.224   0.037
 3425SOL    HW127417   0.272   6.263   0.097
 3425SOL    HW227418   0.132   6.283   0.042
 3426SOL     OW27419   4.089   1.687   1.034
 3426SOL    HW127420   4.063   1.619   1.097
 3426SOL    HW227421   4.185   1.691   1.043
 3427SOL     OW27422   3.794   5.014   7.171
 3427SOL    HW127423   3.822   4.962   7.095
 3427SOL    HW227424   3.768   5.099   7.134
 3428SOL     OW27425   3.892   2.782   5.724
 3428SOL    HW127426   3.865   2.733   5.646
 3428SOL    HW227427   3.963   2.838   5.694
 3429SOL     OW27428   6.347   4.602   0.847
 3429SOL    HW127429   6.397   4.683   0.831
 3429SOL    HW227430   6.409   4.532   0.828
 3430SOL     OW27431   4.531   1.120   1.588
 3430SOL    HW127432   4.457   1.096   1.643
 3430SOL    HW227433   4.555   1.208   1.617
 3431SOL     OW27434   1.461   0.523   6.423
 3431SOL    HW127435   1.475   0.429   6.430
 3431SOL    HW227436   1.400   0.533   6.350
 3432SOL     OW27437   3.807   0.899   1.317
 3432SOL    HW127438   3.779   0.941   1.236
 3432SOL    HW227439   3.899   0.876   1.301
 3433SOL     OW27440   5.629   0.846   1.052
 3433SOL    HW127441   5.639   0.930   1.099
 3433SOL    HW227442   5.706   0.841   0.996
 3434SOL     OW27443   5.607   5.088   7.078
 3434SOL    HW127444   5.514   5.067   7.085
 3434SOL    HW227445   5.652   5.011   7.114
 3435SOL     OW27446   3.349   3.109   1.228
 3435SOL    HW127447   3.283   3.045   1.200
 3435SOL    HW227448   3.353   3.100   1.323
 3436SOL     OW27449   2.619   2.741   2.137
 3436SOL    HW127450   2.589   2.694   2.214
 3436SOL    HW227451   2.619   2.833   2.163
 3437SOL     OW27452   3.316   1.851   6.839
 3437SOL    HW127453   3.250   1.912   6.873
 3437SOL    HW227454   3.304   1.772   6.892
 3438SOL     OW27455   3.371   3.223   5.183
 3438SOL    HW127456   3.454   3.194   5.145
 3438SOL    HW227457   3.384   3.317   5.200
 3439SOL     OW27458   3.373   0.331   1.456
 3439SOL    HW127459   3.400   0.422   1.466
 3439SOL    HW227460   3.455   0.282   1.450
 3440SOL     OW27461   3.073   3.677   6.364
 3440SOL    HW127462   3.016   3.611   6.405
 3440SOL    HW227463   3.055   3.757   6.413
 3441SOL     OW27464   1.205   6.083   7.802
 3441SOL    HW127465   1.242   6.170   7.786
 3441SOL    HW227466   1.212   6.039   7.718
 3442SOL     OW27467   6.169   0.655   0.827
 3442SOL    HW127468   6.153   0.738   0.871
 3442SOL    HW227469   6.132   0.589   0.886
 3443SOL     OW27470   1.047   2.449   7.560
 3443SOL    HW127471   1.028   2.356   7.564
 3443SOL    HW227472   0.991   2.488   7.627
 3444SOL     OW27473   3.680   2.124   6.394
 3444SOL    HW127474   3.709   2.041   6.431
 3444SOL    HW227475   3.735   2.191   6.436
 3445SOL     OW27476   5.967   4.505   1.503
 3445SOL    HW127477   5.944   4.451   1.579
 3445SOL    HW227478   5.920   4.465   1.430
 3446SOL     OW27479   4.991   2.506   6.444
 3446SOL    HW127480   5.059   2.523   6.509
 3446SOL    HW227481   4.920   2.567   6.466
 3447SOL     OW27482   2.264   0.894   0.327
 3447SOL    HW127483   2.222   0.981   0.319
 3447SOL    HW227484   2.224   0.855   0.405
 3448SOL     OW27485   5.714   3.912   0.516
 3448SOL    HW127486   5.669   3.832   0.544
 3448SOL    HW227487   5.806   3.897   0.540
 3449SOL     OW27488   0.756   1.121   0.091
 3449SOL    HW127489   0.796   1.170   0.019
 3449SOL    HW227490   0.755   1.030   0.061
 3450SOL     OW27491   4.169   2.963   0.303
 3450SOL    HW127492   4.234   2.941   0.369
 3450SOL    HW227493   4.132   3.046   0.332
 3451SOL     OW27494   0.514   3.252   0.993
 3451SOL    HW127495   0.592   3.306   1.009
 3451SOL    HW227496   0.526   3.219   0.904
 3452SOL     OW27497   2.789   3.725   5.819
 3452SOL    HW127498   2.864   3.708   5.762
 3452SOL    HW227499   2.808   3.677   5.899
 3453SOL     OW27500   2.279   2.669   1.067
 3453SOL    HW127501   2.289   2.752   1.114
 3453SOL    HW227502   2.336   2.678   0.990
 3454SOL     OW27503   3.039   5.377   7.432
 3454SOL    HW127504   3.113   5.347   7.379
 3454SOL    HW227505   3.030   5.470   7.411
 3455SOL     OW27506   1.961   5.079   7.272
 3455SOL    HW127507   2.052   5.107   7.274
 3455SOL    HW227508   1.951   5.027   7.352
 3456SOL     OW27509   5.473   2.196   7.484
 3456SOL    HW127510   5.455   2.151   7.402
 3456SOL    HW227511   5.426   2.145   7.550
 3457SOL     OW27512   2.912   2.464   7.272
 3457SOL    HW127513   2.896   2.526   7.342
 3457SOL    HW227514   2.827   2.454   7.228
 3458SOL     OW27515   4.546   1.253   7.434
 3458SOL    HW127516   4.607   1.260   7.507
 3458SOL    HW227517   4.597   1.212   7.364
 3459SOL     OW27518   2.117   3.949   0.824
 3459SOL    HW127519   2.188   3.999   0.783
 3459SOL    HW227520   2.122   3.863   0.784
 3460SOL     OW27521   2.175   0.113   0.361
 3460SOL    HW127522   2.125   0.157   0.431
 3460SOL    HW227523   2.108   0.081   0.301
 3461SOL     OW27524   3.640   4.448   0.563
 3461SOL    HW127525   3.639   4.538   0.597
 3461SOL    HW227526   3.670   4.395   0.637
 3462SOL     OW27527   2.976   0.210   6.893
 3462SOL    HW127528   2.938   0.191   6.979
 3462SOL    HW227529   3.018   0.128   6.866
 3463SOL     OW27530   3.325   1.973   6.425
 3463SOL    HW127531   3.246   1.934   6.389
 3463SOL    HW227532   3.354   1.910   6.492
 3464SOL     OW27533   0.044   3.887   2.419
 3464SOL    HW127534   0.061   3.916   2.329
 3464SOL    HW227535  -0.010   3.956   2.457
 3465SOL     OW27536   4.677   1.537   0.812
 3465SOL    HW127537   4.710   1.447   0.817
 3465SOL    HW227538   4.623   1.547   0.891
 3466SOL     OW27539   5.498   6.156   0.667
 3466SOL    HW127540   5.492   6.095   0.740
 3466SOL    HW227541   5.411   6.153   0.626
 3467SOL     OW27542   4.720   3.924   0.537
 3467SOL    HW127543   4.693   3.833   0.529
 3467SOL    HW227544   4.734   3.952   0.447
 3468SOL     OW27545   1.819   5.333   0.346
 3468SOL    HW127546   1.825   5.359   0.438
 3468SOL    HW227547   1.769   5.403   0.305
 3469SOL     OW27548   0.132   2.636   1.704
 3469SOL    HW127549   0.059   2.617   1.762
 3469SOL    HW227550   0.203   2.662   1.762
 3470SOL     OW27551   2.159   1.645   0.367
 3470SOL    HW127552   2.153   1.656   0.462
 3470SOL    HW227553   2.133   1.730   0.331
 3471SOL     OW27554   1.923   1.852   2.015
 3471SOL    HW127555   1.943   1.873   2.107
 3471SOL    HW227556   1.839   1.807   2.019
 3472SOL     OW27557   5.752   5.112   1.026
 3472SOL    HW127558   5.768   5.020   1.046
 3472SOL    HW227559   5.819   5.134   0.961
 3473SOL     OW27560   4.869   3.075   1.176
 3473SOL    HW127561   4.869   2.993   1.226
 3473SOL    HW227562   4.776   3.094   1.162
 3474SOL     OW27563   0.635   1.596   6.214
 3474SOL    HW127564   0.597   1.555   6.136
 3474SOL    HW227565   0.708   1.649   6.180
 3475SOL     OW27566   5.664   1.345   5.955
 3475SOL    HW127567   5.601   1.409   5.921
 3475SOL    HW227568   5.706   1.310   5.876
 3476SOL     OW27569   0.231   1.871   0.549
 3476SOL    HW127570   0.147   1.857   0.504
 3476SOL    HW227571   0.262   1.955   0.515
 3477SOL     OW27572   1.324   6.182   5.442
 3477SOL    HW127573   1.294   6.092   5.457
 3477SOL    HW227574   1.375   6.177   5.361
 3478SOL     OW27575   5.137   4.257   7.351
 3478SOL    HW127576   5.093   4.327   7.304
 3478SOL    HW227577   5.229   4.285   7.355
 3479SOL     OW27578   1.363   2.861   7.373
 3479SOL    HW127579   1.361   2.950   7.407
 3479SOL    HW227580   1.361   2.872   7.278
 3480SOL     OW27581   0.789   2.422   1.307
 3480SOL    HW127582   0.722   2.489   1.317
 3480SOL    HW227583   0.852   2.439   1.379
 3481SOL     OW27584   6.253   0.942   1.545
 3481SOL    HW127585   6.237   0.847   1.550
 3481SOL    HW227586   6.176   0.982   1.586
 3482SOL     OW27587   3.426   4.598   6.409
 3482SOL    HW127588   3.502   4.635   6.365
 3482SOL    HW227589   3.351   4.631   6.359
 3483SOL     OW27590   6.318   3.260   1.023
 3483SOL    HW127591   6.371   3.324   1.070
 3483SOL    HW227592   6.278   3.310   0.952
 3484SOL     OW27593   1.313   4.112   6.144
 3484SOL    HW127594   1.403   4.095   6.171
 3484SOL    HW227595   1.307   4.074   6.056
 3485SOL     OW27596   3.758   4.093   0.741
 3485SOL    HW127597   3.769   3.998   0.730
 3485SOL    HW227598   3.668   4.110   0.712
 3486SOL     OW27599   6.204   3.665   0.999
 3486SOL    HW127600   6.275   3.620   0.953
 3486SOL    HW227601   6.173   3.731   0.936
 3487SOL     OW27602   0.148   0.688   7.100
 3487SOL    HW127603   0.216   0.621   7.099
 3487SOL    HW227604   0.066   0.640   7.096
 3488SOL     OW27605   2.129   3.466   0.873
 3488SOL    HW127606   2.168   3.394   0.922
 3488SOL    HW227607   2.071   3.509   0.936
 3489SOL     OW27608   1.663   0.879   7.660
 3489SOL    HW127609   1.636   0.957   7.610
 3489SOL    HW227610   1.664   0.908   7.751
 3490SOL     OW27611   3.152   2.469   5.828
 3490SOL    HW127612   3.150   2.431   5.741
 3490SOL    HW227613   3.060   2.491   5.847
 3491SOL     OW27614   2.758   5.657   0.150
 3491SOL    HW127615   2.764   5.638   0.243
 3491SOL    HW227616   2.838   5.622   0.112
 3492SOL     OW27617   3.950   0.446   1.811
 3492SOL    HW127618   3.868   0.407   1.779
 3492SOL    HW227619   4.018   0.406   1.757
 3493SOL     OW27620   3.549   2.698   6.228
 3493SOL    HW127621   3.498   2.774   6.201
 3493SOL    HW227622   3.513   2.626   6.176
 3494SOL     OW27623   1.579   5.383   0.135
 3494SOL    HW127624   1.552   5.333   0.059
 3494SOL    HW227625   1.499   5.393   0.187
 3495SOL     OW27626   4.261   3.715   5.764
 3495SOL    HW127627   4.246   3.802   5.800
 3495SOL    HW227628   4.258   3.728   5.669
 3496SOL     OW27629   0.014   4.627   6.750
 3496SOL    HW127630  -0.063   4.666   6.708
 3496SOL    HW227631   0.043   4.693   6.813
 3497SOL     OW27632   5.118   1.130   1.262
 3497SOL    HW127633   5.143   1.077   1.337
 3497SOL    HW227634   5.097   1.067   1.193
 3498SOL     OW27635   2.859   5.626   7.381
 3498SOL    HW127636   2.867   5.662   7.292
 3498SOL    HW227637   2.836   5.533   7.367
 3499SOL     OW27638   4.066   1.484   1.209
 3499SOL    HW127639   4.013   1.455   1.283
 3499SOL    HW227640   4.136   1.419   1.203
 3500SOL     OW27641   1.817   0.293   0.738
 3500SOL    HW127642   1.722   0.290   0.728
 3500SOL    HW227643   1.833   0.375   0.786
 3501SOL     OW27644   0.115   4.214   6.504
 3501SOL    HW127645   0.045   4.186   6.445
 3501SOL    HW227646   0.071   4.250   6.580
 3502SOL     OW27647   0.243   3.770   2.550
 3502SOL    HW127648   0.156   3.803   2.525
 3502SOL    HW227649   0.271   3.718   2.475
 3503SOL     OW27650   5.418   0.471   0.007
 3503SOL    HW127651   5.325   0.474   0.028
 3503SOL    HW227652   5.428   0.393  -0.049
 3504SOL     OW27653   1.428   1.052   6.547
 3504SOL    HW127654   1.355   1.097   6.505
 3504SOL    HW227655   1.401   0.960   6.551
 3505SOL     OW27656   1.221   2.841   1.465
 3505SOL    HW127657   1.289   2.897   1.427
 3505SOL    HW227658   1.267   2.789   1.531
 3506SOL     OW27659   4.864   0.875   6.840
 3506SOL    HW127660   4.927   0.940   6.808
 3506SOL    HW227661   4.804   0.862   6.767
 3507SOL     OW27662   3.665   0.421   5.543
 3507SOL    HW127663   3.744   0.367   5.550
 3507SOL    HW227664   3.692   0.506   5.579
 3508SOL     OW27665   5.969   4.178   7.710
 3508SOL    HW127666   5.927   4.242   7.652
 3508SOL    HW227667   6.013   4.230   7.776
 3509SOL     OW27668   0.000   1.128   7.026
 3509SOL    HW127669  -0.058   1.068   7.072
 3509SOL    HW227670   0.084   1.081   7.021
 3510SOL     OW27671   3.601   1.336   1.158
 3510SOL    HW127672   3.667   1.402   1.136
 3510SOL    HW227673   3.595   1.340   1.254
 3511SOL     OW27674   4.826   6.081   6.930
 3511SOL    HW127675   4.845   6.170   6.959
 3511SOL    HW227676   4.812   6.090   6.835
 3512SOL     OW27677   2.942   2.340   6.631
 3512SOL    HW127678   2.962   2.271   6.568
 3512SOL    HW227679   2.974   2.307   6.715
 3513SOL     OW27680   0.041   5.595   0.025
 3513SOL    HW127681  -0.043   5.632  -0.003
 3513SOL    HW227682   0.027   5.500   0.021
 3514SOL     OW27683   3.253   0.107   0.838
 3514SOL    HW127684   3.318   0.063   0.893
 3514SOL    HW227685   3.300   0.125   0.756
 3515SOL     OW27686   3.222   3.410   0.101
 3515SOL    HW127687   3.270   3.450   0.028
 3515SOL    HW227688   3.207   3.482   0.162
 3516SOL     OW27689   4.700   1.837   2.115
 3516SOL    HW127690   4.676   1.751   2.082
 3516SOL    HW227691   4.751   1.819   2.194
 3517SOL     OW27692   3.840   1.307   1.892
 3517SOL    HW127693   3.849   1.233   1.952
 3517SOL    HW227694   3.752   1.341   1.907
 3518SOL     OW27695   3.329   4.669   7.522
 3518SOL    HW127696   3.287   4.681   7.437
 3518SOL    HW227697   3.403   4.729   7.521
 3519SOL     OW27698   2.802   3.547   0.403
 3519SOL    HW127699   2.764   3.591   0.327
 3519SOL    HW227700   2.896   3.564   0.395
 3520SOL     OW27701   5.792   1.967   1.948
 3520SOL    HW127702   5.797   1.889   2.003
 3520SOL    HW227703   5.805   1.935   1.859
 3521SOL     OW27704   0.676   5.826   7.347
 3521SOL    HW127705   0.623   5.773   7.287
 3521SOL    HW227706   0.640   5.914   7.340
 3522SOL     OW27707   2.938   0.635   0.820
 3522SOL    HW127708   2.970   0.719   0.853
 3522SOL    HW227709   2.884   0.601   0.891
 3523SOL     OW27710   6.386   0.905   1.203
 3523SOL    HW127711   6.340   0.832   1.245
 3523SOL    HW227712   6.442   0.864   1.137
 3524SOL     OW27713   3.809   5.603   7.431
 3524SOL    HW127714   3.721   5.600   7.392
 3524SOL    HW227715   3.797   5.566   7.518
 3525SOL     OW27716   1.791   0.376   1.067
 3525SOL    HW127717   1.858   0.309   1.051
 3525SOL    HW227718   1.761   0.360   1.156
 3526SOL     OW27719   4.754   5.474   7.357
 3526SOL    HW127720   4.707   5.539   7.410
 3526SOL    HW227721   4.693   5.400   7.351
 3527SOL     OW27722   0.454   5.329   1.560
 3527SOL    HW127723   0.499   5.263   1.614
 3527SOL    HW227724   0.363   5.327   1.590
 3528SOL     OW27725   5.102   6.253   7.687
 3528SOL    HW127726   5.032   6.204   7.730
 3528SOL    HW227727   5.093   6.231   7.594
 3529SOL     OW27728   2.539   2.458   0.349
 3529SOL    HW127729   2.558   2.490   0.437
 3529SOL    HW227730   2.493   2.375   0.364
 3530SOL     OW27731   5.262   4.915   1.262
 3530SOL    HW127732   5.270   4.941   1.170
 3530SOL    HW227733   5.174   4.941   1.287
 3531SOL     OW27734   6.280   1.956   6.781
 3531SOL    HW127735   6.254   1.926   6.694
 3531SOL    HW227736   6.323   1.880   6.821
 3532SOL     OW27737   1.773   3.615   6.833
 3532SOL    HW127738   1.815   3.608   6.747
 3532SOL    HW227739   1.771   3.709   6.851
 3533SOL     OW27740   6.085   3.319   6.445
 3533SOL    HW127741   6.067   3.290   6.356
 3533SOL    HW227742   6.157   3.381   6.437
 3534SOL     OW27743   4.134   2.442   6.370
 3534SOL    HW127744   4.213   2.432   6.422
 3534SOL    HW227745   4.159   2.500   6.298
 3535SOL     OW27746   3.322   1.773   0.527
 3535SOL    HW127747   3.338   1.729   0.444
 3535SOL    HW227748   3.409   1.778   0.568
 3536SOL     OW27749   3.989   1.540   0.513
 3536SOL    HW127750   3.997   1.550   0.607
 3536SOL    HW227751   4.069   1.495   0.486
 3537SOL     OW27752   4.600   2.981   5.158
 3537SOL    HW127753   4.616   3.073   5.139
 3537SOL    HW227754   4.618   2.972   5.251
 3538SOL     OW27755   0.686   5.910   1.020
 3538SOL    HW127756   0.777   5.936   1.010
 3538SOL    HW227757   0.663   5.934   1.110
 3539SOL     OW27758   1.038   2.633   6.978
 3539SOL    HW127759   0.980   2.598   7.045
 3539SOL    HW227760   1.005   2.721   6.961
 3540SOL     OW27761   2.754   0.420   1.587
 3540SOL    HW127762   2.708   0.504   1.580
 3540SOL    HW227763   2.746   0.396   1.679
 3541SOL     OW27764   3.805   1.617   6.233
 3541SOL    HW127765   3.892   1.611   6.196
 3541SOL    HW227766   3.763   1.689   6.186
 3542SOL     OW27767   2.439   3.508   6.339
 3542SOL    HW127768   2.441   3.587   6.393
 3542SOL    HW227769   2.355   3.467   6.359
 3543SOL     OW27770   3.084   1.888   0.034
 3543SOL    HW127771   3.003   1.863  -0.010
 3543SOL    HW227772   3.133   1.806   0.043
 3544SOL     OW27773   4.654   4.190   7.453
 3544SOL    HW127774   4.749   4.183   7.449
 3544SOL    HW227775   4.632   4.256   7.387
 3545SOL     OW27776   4.875   5.592   0.966
 3545SOL    HW127777   4.815   5.536   1.015
 3545SOL    HW227778   4.818   5.642   0.907
 3546SOL     OW27779   3.521   4.898   2.212
 3546SOL    HW127780   3.515   4.855   2.127
 3546SOL    HW227781   3.610   4.878   2.242
 3547SOL     OW27782   2.562   2.202   0.454
 3547SOL    HW127783   2.530   2.179   0.542
 3547SOL    HW227784   2.657   2.187   0.458
 3548SOL     OW27785   0.729   3.243   6.985
 3548SOL    HW127786   0.776   3.324   6.964
 3548SOL    HW227787   0.644   3.272   7.017
 3549SOL     OW27788   0.459   6.096   0.583
 3549SOL    HW127789   0.469   6.126   0.492
 3549SOL    HW227790   0.540   6.050   0.602
 3550SOL     OW27791   2.839   3.414   2.347
 3550SOL    HW127792   2.899   3.445   2.279
 3550SOL    HW227793   2.832   3.319   2.332
 3551SOL     OW27794   1.081   5.531   1.200
 3551SOL    HW127795   1.031   5.559   1.276
 3551SOL    HW227796   1.076   5.435   1.201
 3552SOL     OW27797   6.378   4.178   0.528
 3552SOL    HW127798   6.353   4.086   0.520
 3552SOL    HW227799   6.469   4.180   0.497
 3553SOL     OW27800   1.487   1.927   0.946
 3553SOL    HW127801   1.489   2.022   0.944
 3553SOL    HW227802   1.396   1.904   0.927
 3554SOL     OW27803   4.978   0.424   6.946
 3554SOL    HW127804   5.053   0.475   6.977
 3554SOL    HW227805   4.948   0.471   6.868
 3555SOL     OW27806   4.038   0.180   0.929
 3555SOL    HW127807   3.973   0.236   0.888
 3555SOL    HW227808   4.100   0.241   0.970
 3556SOL     OW27809   2.380   3.148   6.975
 3556SOL    HW127810   2.426   3.227   7.004
 3556SOL    HW227811   2.409   3.080   7.036
 3557SOL     OW27812   4.226   0.855   2.074
 3557SOL    HW127813   4.181   0.784   2.028
 3557SOL    HW227814   4.182   0.935   2.044
 3558SOL     OW27815   6.104   4.055   0.125
 3558SOL    HW127816   6.107   3.977   0.071
 3558SOL    HW227817   6.176   4.109   0.094
 3559SOL     OW27818   0.116   1.656   7.042
 3559SOL    HW127819   0.161   1.606   6.973
 3559SOL    HW227820   0.099   1.592   7.111
 3560SOL     OW27821   6.370   3.733   7.486
 3560SOL    HW127822   6.393   3.643   7.507
 3560SOL    HW227823   6.429   3.758   7.415
 3561SOL     OW27824   3.701   6.265   7.616
 3561SOL    HW127825   3.646   6.307   7.550
 3561SOL    HW227826   3.732   6.185   7.574
 3562SOL     OW27827   5.681   2.337   1.860
 3562SOL    HW127828   5.634   2.363   1.781
 3562SOL    HW227829   5.758   2.393   1.861
 3563SOL     OW27830   4.135   2.422   1.280
 3563SOL    HW127831   4.200   2.487   1.252
 3563SOL    HW227832   4.125   2.365   1.204
 3564SOL     OW27833   1.410   1.982   5.754
 3564SOL    HW127834   1.480   2.011   5.695
 3564SOL    HW227835   1.352   2.058   5.762
 3565SOL     OW27836   6.201   1.651   6.088
 3565SOL    HW127837   6.235   1.737   6.114
 3565SOL    HW227838   6.256   1.588   6.134
 3566SOL     OW27839   4.023   1.571   6.075
 3566SOL    HW127840   3.998   1.611   5.992
 3566SOL    HW227841   4.118   1.561   6.069
 3567SOL     OW27842   4.701   0.948   1.835
 3567SOL    HW127843   4.723   1.029   1.882
 3567SOL    HW227844   4.622   0.915   1.879
 3568SOL     OW27845   5.784   4.019   5.795
 3568SOL    HW127846   5.799   3.956   5.865
 3568SOL    HW227847   5.717   3.979   5.740
 3569SOL     OW27848   5.873   4.122   0.276
 3569SOL    HW127849   5.951   4.093   0.229
 3569SOL    HW227850   5.805   4.059   0.253
 3570SOL     OW27851   4.467   6.325   0.144
 3570SOL    HW127852   4.411   6.337   0.067
 3570SOL    HW227853   4.451   6.235   0.171
 3571SOL     OW27854   0.150   0.830   1.016
 3571SOL    HW127855   0.242   0.842   0.993
 3571SOL    HW227856   0.122   0.754   0.965
 3572SOL     OW27857   3.857   3.582   0.409
 3572SOL    HW127858   3.762   3.590   0.397
 3572SOL    HW227859   3.870   3.491   0.436
 3573SOL     OW27860   1.631   1.396   0.742
 3573SOL    HW127861   1.720   1.372   0.719
 3573SOL    HW227862   1.641   1.472   0.800
 3574SOL     OW27863   5.813   1.681   7.340
 3574SOL    HW127864   5.807   1.761   7.289
 3574SOL    HW227865   5.748   1.692   7.410
 3575SOL     OW27866   0.183   2.089   6.184
 3575SOL    HW127867   0.140   2.011   6.149
 3575SOL    HW227868   0.112   2.152   6.197
 3576SOL     OW27869   4.059   0.211   2.102
 3576SOL    HW127870   4.141   0.168   2.079
 3576SOL    HW227871   4.019   0.154   2.168
 3577SOL     OW27872   1.142   3.582   1.088
 3577SOL    HW127873   1.167   3.498   1.126
 3577SOL    HW227874   1.200   3.646   1.130
 3578SOL     OW27875   4.141   3.316   6.556
 3578SOL    HW127876   4.220   3.300   6.505
 3578SOL    HW227877   4.111   3.403   6.528
 3579SOL     OW27878   0.527   1.578   7.341
 3579SOL    HW127879   0.616   1.613   7.338
 3579SOL    HW227880   0.499   1.575   7.250
 3580SOL     OW27881   6.200   3.289   1.732
 3580SOL    HW127882   6.265   3.288   1.802
 3580SOL    HW227883   6.137   3.356   1.759
 3581SOL     OW27884   2.231   1.759   7.215
 3581SOL    HW127885   2.198   1.815   7.145
 3581SOL    HW227886   2.154   1.737   7.267
 3582SOL     OW27887   4.937   2.465   1.797
 3582SOL    HW127888   4.902   2.548   1.766
 3582SOL    HW227889   4.861   2.407   1.802
 3583SOL     OW27890   1.225   2.318   2.256
 3583SOL    HW127891   1.206   2.225   2.269
 3583SOL    HW227892   1.185   2.339   2.171
 3584SOL     OW27893   4.600   1.823   6.989
 3584SOL    HW127894   4.649   1.759   7.040
 3584SOL    HW227895   4.611   1.794   6.898
 3585SOL     OW27896   4.082   3.874   6.634
 3585SOL    HW127897   4.148   3.924   6.683
 3585SOL    HW227898   4.130   3.836   6.561
 3586SOL     OW27899   1.192   2.139   1.837
 3586SOL    HW127900   1.197   2.198   1.911
 3586SOL    HW227901   1.134   2.068   1.866
 3587SOL     OW27902   4.528   3.665   7.556
 3587SOL    HW127903   4.540   3.758   7.575
 3587SOL    HW227904   4.439   3.659   7.520
 3588SOL     OW27905   4.394   5.357   5.897
 3588SOL    HW127906   4.346   5.433   5.929
 3588SOL    HW227907   4.341   5.282   5.924
 3589SOL     OW27908   4.544   5.636   7.027
 3589SOL    HW127909   4.591   5.668   6.951
 3589SOL    HW227910   4.470   5.696   7.037
 3590SOL     OW27911   0.605   4.396   1.801
 3590SOL    HW127912   0.547   4.367   1.871
 3590SOL    HW227913   0.600   4.492   1.803
 3591SOL     OW27914   4.145   2.263   0.277
 3591SOL    HW127915   4.162   2.334   0.215
 3591SOL    HW227916   4.133   2.307   0.361
 3592SOL     OW27917   0.420   0.825   1.006
 3592SOL    HW127918   0.435   0.733   1.030
 3592SOL    HW227919   0.507   0.861   0.991
 3593SOL     OW27920   0.352   2.076   7.759
 3593SOL    HW127921   0.376   2.148   7.701
 3593SOL    HW227922   0.386   1.998   7.716
 3594SOL     OW27923   1.212   1.198   6.373
 3594SOL    HW127924   1.212   1.286   6.412
 3594SOL    HW227925   1.144   1.202   6.305
 3595SOL     OW27926   1.626   5.122   0.656
 3595SOL    HW127927   1.687   5.191   0.630
 3595SOL    HW227928   1.619   5.131   0.751
 3596SOL     OW27929   6.428   1.272   0.763
 3596SOL    HW127930   6.515   1.301   0.738
 3596SOL    HW227931   6.420   1.184   0.725
 3597SOL     OW27932   5.317   1.712   6.540
 3597SOL    HW127933   5.411   1.718   6.524
 3597SOL    HW227934   5.285   1.653   6.472
 3598SOL     OW27935   4.142   1.968   0.521
 3598SOL    HW127936   4.181   1.964   0.433
 3598SOL    HW227937   4.050   1.990   0.506
 3599SOL     OW27938   3.578   2.598   0.742
 3599SOL    HW127939   3.568   2.502   0.737
 3599SOL    HW227940   3.639   2.611   0.815
 3600SOL     OW27941   0.516   2.050   5.801
 3600SOL    HW127942   0.565   2.003   5.868
 3600SOL    HW227943   0.431   2.005   5.796
 3601SOL     OW27944   4.344   5.728   0.896
 3601SOL    HW127945   4.266   5.779   0.878
 3601SOL    HW227946   4.352   5.729   0.991
 3602SOL     OW27947   1.623   2.050   5.603
 3602SOL    HW127948   1.576   2.125   5.570
 3602SOL    HW227949   1.715   2.076   5.600
 3603SOL     OW27950   2.103   5.906   6.909
 3603SOL    HW127951   2.128   5.991   6.873
 3603SOL    HW227952   2.023   5.883   6.862
 3604SOL     OW27953   0.839   3.254   5.468
 3604SOL    HW127954   0.838   3.168   5.426
 3604SOL    HW227955   0.930   3.265   5.499
 3605SOL     OW27956   3.099   4.201   6.566
 3605SOL    HW127957   3.068   4.254   6.493
 3605SOL    HW227958   3.024   4.146   6.589
 3606SOL     OW27959   5.634   2.719   0.881
 3606SOL    HW127960   5.596   2.680   0.960
 3606SOL    HW227961   5.564   2.716   0.817
 3607SOL     OW27962   0.059   3.909   1.208
 3607SOL    HW127963   0.101   3.878   1.288
 3607SOL    HW227964  -0.014   3.848   1.196
 3608SOL     OW27965   6.167   5.036   6.487
 3608SOL    HW127966   6.093   5.060   6.432
 3608SOL    HW227967   6.240   5.087   6.453
 3609SOL     OW27968   5.431   1.830   0.823
 3609SOL    HW127969   5.502   1.820   0.886
 3609SOL    HW227970   5.445   1.916   0.784
 3610SOL     OW27971   0.721   6.179   6.689
 3610SOL    HW127972   0.663   6.223   6.627
 3610SOL    HW227973   0.805   6.172   6.642
 3611SOL     OW27974   1.259   4.781   6.579
 3611SOL    HW127975   1.178   4.808   6.535
 3611SOL    HW227976   1.271   4.690   6.553
 3612SOL     OW27977   3.811   3.295   0.573
 3612SOL    HW127978   3.761   3.301   0.654
 3612SOL    HW227979   3.774   3.220   0.527
 3613SOL     OW27980   0.475   2.104   1.642
 3613SOL    HW127981   0.448   2.095   1.734
 3613SOL    HW227982   0.519   2.189   1.638
 3614SOL     OW27983   3.711   0.394   1.712
 3614SOL    HW127984   3.636   0.426   1.662
 3614SOL    HW227985   3.684   0.402   1.804
 3615SOL     OW27986   1.568   5.581   1.247
 3615SOL    HW127987   1.532   5.548   1.329
 3615SOL    HW227988   1.493   5.586   1.188
 3616SOL     OW27989   5.759   4.100   0.979
 3616SOL    HW127990   5.734   4.133   1.066
 3616SOL    HW227991   5.752   4.177   0.922
 3617SOL     OW27992   5.563   3.424   0.221
 3617SOL    HW127993   5.495   3.364   0.252
 3617SOL    HW227994   5.541   3.507   0.262
 3618SOL     OW27995   2.496   3.621   0.702
 3618SOL    HW127996   2.589   3.640   0.688
 3618SOL    HW227997   2.457   3.705   0.726
 3619SOL     OW27998   1.659   5.252   6.848
 3619SOL    HW127999   1.753   5.266   6.837
 3619SOL    HW228000   1.653   5.190   6.921
 3620SOL     OW28001   1.929   4.080   0.978
 3620SOL    HW128002   1.987   4.065   1.053
 3620SOL    HW228003   1.976   4.039   0.904
 3621SOL     OW28004   1.570   6.056   0.480
 3621SOL    HW128005   1.565   6.117   0.406
 3621SOL    HW228006   1.622   5.983   0.448
 3622SOL     OW28007   2.853   3.691   1.143
 3622SOL    HW128008   2.864   3.681   1.237
 3622SOL    HW228009   2.841   3.602   1.111
 3623SOL     OW28010   2.339   5.174   6.774
 3623SOL    HW128011   2.415   5.135   6.730
 3623SOL    HW228012   2.314   5.247   6.717
 3624SOL     OW28013   2.209   1.578   5.235
 3624SOL    HW128014   2.288   1.611   5.191
 3624SOL    HW228015   2.181   1.650   5.291
 3625SOL     OW28016   4.135   1.118   1.993
 3625SOL    HW128017   4.062   1.113   2.055
 3625SOL    HW228018   4.099   1.087   1.911
 3626SOL     OW28019   1.231   1.433   6.186
 3626SOL    HW128020   1.167   1.504   6.184
 3626SOL    HW228021   1.183   1.357   6.154
 3627SOL     OW28022   1.958   4.313   1.283
 3627SOL    HW128023   1.903   4.298   1.360
 3627SOL    HW228024   2.004   4.230   1.270
 3628SOL     OW28025   1.800   2.888   0.628
 3628SOL    HW128026   1.786   2.935   0.546
 3628SOL    HW228027   1.888   2.851   0.620
 3629SOL     OW28028   6.151   3.163   0.031
 3629SOL    HW128029   6.207   3.148  -0.046
 3629SOL    HW228030   6.104   3.244   0.010
 3630SOL     OW28031   4.905   2.188   2.447
 3630SOL    HW128032   4.923   2.095   2.435
 3630SOL    HW228033   4.840   2.208   2.380
 3631SOL     OW28034   2.532   1.482   7.317
 3631SOL    HW128035   2.544   1.549   7.249
 3631SOL    HW228036   2.518   1.401   7.268
 3632SOL     OW28037   3.679   1.289   0.222
 3632SOL    HW128038   3.612   1.232   0.183
 3632SOL    HW228039   3.757   1.233   0.227
 3633SOL     OW28040   1.139   4.292   7.365
 3633SOL    HW128041   1.221   4.308   7.412
 3633SOL    HW228042   1.082   4.252   7.431
 3634SOL     OW28043   5.163   4.497   0.966
 3634SOL    HW128044   5.166   4.502   1.062
 3634SOL    HW228045   5.255   4.492   0.940
 3635SOL     OW28046   4.317   3.807   7.368
 3635SOL    HW128047   4.260   3.809   7.292
 3635SOL    HW228048   4.405   3.798   7.333
 3636SOL     OW28049   2.762   3.924   0.889
 3636SOL    HW128050   2.841   3.953   0.844
 3636SOL    HW228051   2.725   3.858   0.831
 3637SOL     OW28052   2.831   0.365   0.785
 3637SOL    HW128053   2.871   0.414   0.713
 3637SOL    HW228054   2.900   0.362   0.852
 3638SOL     OW28055   0.038   4.360   2.303
 3638SOL    HW128056   0.085   4.289   2.259
 3638SOL    HW228057  -0.032   4.383   2.242
 3639SOL     OW28058   2.116   1.393   0.249
 3639SOL    HW128059   2.131   1.480   0.286
 3639SOL    HW228060   2.071   1.409   0.166
 3640SOL     OW28061   2.112   6.110   0.907
 3640SOL    HW128062   2.205   6.089   0.907
 3640SOL    HW228063   2.069   6.025   0.898
 3641SOL     OW28064   5.187   5.317   1.446
 3641SOL    HW128065   5.276   5.300   1.417
 3641SOL    HW228066   5.197   5.369   1.526
 3642SOL     OW28067   3.759   2.846   7.650
 3642SOL    HW128068   3.690   2.912   7.652
 3642SOL    HW228069   3.837   2.893   7.623
 3643SOL     OW28070   0.113   3.696   5.434
 3643SOL    HW128071   0.103   3.757   5.506
 3643SOL    HW228072   0.180   3.736   5.378
 3644SOL     OW28073   2.115   0.491   1.641
 3644SOL    HW128074   2.209   0.472   1.648
 3644SOL    HW228075   2.074   0.405   1.630
 3645SOL     OW28076   0.720   6.374   1.595
 3645SOL    HW128077   0.809   6.388   1.561
 3645SOL    HW228078   0.690   6.294   1.551
 3646SOL     OW28079   1.184   5.199   0.946
 3646SOL    HW128080   1.250   5.186   1.015
 3646SOL    HW228081   1.220   5.153   0.870
 3647SOL     OW28082   6.244   2.463   6.241
 3647SOL    HW128083   6.185   2.525   6.197
 3647SOL    HW228084   6.245   2.492   6.332
 3648SOL     OW28085   5.059   5.106   1.254
 3648SOL    HW128086   5.076   5.166   1.327
 3648SOL    HW228087   5.085   5.155   1.176
 3649SOL     OW28088   0.128   0.281   7.175
 3649SOL    HW128089   0.183   0.292   7.252
 3649SOL    HW228090   0.183   0.235   7.112
 3650SOL     OW28091   1.487   1.393   0.131
 3650SOL    HW128092   1.454   1.350   0.210
 3650SOL    HW228093   1.571   1.430   0.157
 3651SOL     OW28094   2.383   0.098   2.007
 3651SOL    HW128095   2.347   0.101   2.096
 3651SOL    HW228096   2.370   0.008   1.979
 3652SOL     OW28097   1.220   5.055   0.567
 3652SOL    HW128098   1.236   4.998   0.491
 3652SOL    HW228099   1.127   5.047   0.584
 3653SOL     OW28100   0.284   1.020   5.988
 3653SOL    HW128101   0.227   0.944   5.984
 3653SOL    HW228102   0.253   1.077   5.917
 3654SOL     OW28103   4.199   0.319   1.233
 3654SOL    HW128104   4.209   0.363   1.317
 3654SOL    HW228105   4.106   0.326   1.213
 3655SOL     OW28106   4.709   4.770   1.588
 3655SOL    HW128107   4.801   4.796   1.583
 3655SOL    HW228108   4.705   4.705   1.658
 3656SOL     OW28109   2.248   1.805   1.280
 3656SOL    HW128110   2.243   1.853   1.362
 3656SOL    HW228111   2.230   1.714   1.303
 3657SOL     OW28112   3.806   2.012   6.157
 3657SOL    HW128113   3.858   2.082   6.118
 3657SOL    HW228114   3.776   2.047   6.241
 3658SOL     OW28115   4.221   3.465   0.286
 3658SOL    HW128116   4.202   3.465   0.380
 3658SOL    HW228117   4.135   3.461   0.245
 3659SOL     OW28118   6.218   2.649   0.801
 3659SOL    HW128119   6.246   2.698   0.879
 3659SOL    HW228120   6.137   2.606   0.828
 3660SOL     OW28121   3.231   0.538   2.244
 3660SOL    HW128122   3.155   0.481   2.231
 3660SOL    HW228123   3.304   0.491   2.205
 3661SOL     OW28124   3.626   3.607   2.236
 3661SOL    HW128125   3.670   3.683   2.198
 3661SOL    HW228126   3.695   3.540   2.238
 3662SOL     OW28127   0.417   6.371   7.423
 3662SOL    HW128128   0.496   6.365   7.478
 3662SOL    HW228129   0.345   6.347   7.482
 3663SOL     OW28130   4.960   4.818   6.666
 3663SOL    HW128131   4.867   4.817   6.689
 3663SOL    HW228132   4.981   4.910   6.655
 3664SOL     OW28133   4.686   4.829   7.665
 3664SOL    HW128134   4.688   4.744   7.621
 3664SOL    HW228135   4.605   4.870   7.634
 3665SOL     OW28136   5.599   3.649   0.621
 3665SOL    HW128137   5.650   3.577   0.658
 3665SOL    HW228138   5.518   3.651   0.673
 3666SOL     OW28139   2.914   3.228   6.979
 3666SOL    HW128140   2.991   3.263   6.935
 3666SOL    HW228141   2.924   3.257   7.070
 3667SOL     OW28142   4.729   3.926   6.195
 3667SOL    HW128143   4.785   4.002   6.207
 3667SOL    HW228144   4.754   3.866   6.266
 3668SOL     OW28145   2.820   1.891   6.546
 3668SOL    HW128146   2.745   1.944   6.572
 3668SOL    HW228147   2.877   1.953   6.499
 3669SOL     OW28148   2.439   2.821   0.567
 3669SOL    HW128149   2.488   2.899   0.590
 3669SOL    HW228150   2.361   2.854   0.521
 3670SOL     OW28151   1.187   5.764   0.866
 3670SOL    HW128152   1.197   5.775   0.961
 3670SOL    HW228153   1.275   5.743   0.834
 3671SOL     OW28154   1.688   1.774   6.065
 3671SOL    HW128155   1.733   1.763   5.981
 3671SOL    HW228156   1.759   1.779   6.129
 3672SOL     OW28157   1.093   2.580   1.753
 3672SOL    HW128158   1.169   2.589   1.811
 3672SOL    HW228159   1.131   2.562   1.667
 3673SOL     OW28160   5.902   3.871   1.034
 3673SOL    HW128161   5.853   3.951   1.014
 3673SOL    HW228162   5.868   3.806   0.973
 3674SOL     OW28163   3.254   3.778   1.503
 3674SOL    HW128164   3.306   3.802   1.426
 3674SOL    HW228165   3.192   3.850   1.513
 3675SOL     OW28166   1.502   1.326   1.499
 3675SOL    HW128167   1.505   1.385   1.423
 3675SOL    HW228168   1.483   1.240   1.461
 3676SOL     OW28169   4.223   5.127   1.564
 3676SOL    HW128170   4.151   5.169   1.610
 3676SOL    HW228171   4.223   5.036   1.596
 3677SOL     OW28172   3.117   3.619   7.499
 3677SOL    HW128173   3.100   3.575   7.583
 3677SOL    HW228174   3.031   3.628   7.459
 3678SOL     OW28175   4.084   5.430   0.410
 3678SOL    HW128176   4.126   5.346   0.394
 3678SOL    HW228177   4.132   5.467   0.484
 3679SOL     OW28178   1.939   0.917   6.472
 3679SOL    HW128179   1.941   0.978   6.398
 3679SOL    HW228180   1.847   0.890   6.478
 3680SOL     OW28181   3.043   0.924   7.300
 3680SOL    HW128182   2.999   0.881   7.374
 3680SOL    HW228183   3.094   0.995   7.340
 3681SOL     OW28184   0.375   6.355   0.653
 3681SOL    HW128185   0.406   6.265   0.653
 3681SOL    HW228186   0.449   6.406   0.623
 3682SOL     OW28187   2.287   4.237   1.333
 3682SOL    HW128188   2.237   4.252   1.413
 3682SOL    HW228189   2.354   4.173   1.358
 3683SOL     OW28190   3.448   1.936   1.289
 3683SOL    HW128191   3.506   1.866   1.321
 3683SOL    HW228192   3.429   1.988   1.367
 3684SOL     OW28193   3.315   6.409   2.254
 3684SOL    HW128194   3.265   6.438   2.178
 3684SOL    HW228195   3.286   6.465   2.326
 3685SOL     OW28196   2.363   3.834   6.682
 3685SOL    HW128197   2.315   3.806   6.761
 3685SOL    HW228198   2.298   3.884   6.631
 3686SOL     OW28199   5.689   0.757   0.642
 3686SOL    HW128200   5.769   0.762   0.590
 3686SOL    HW228201   5.619   0.785   0.583
 3687SOL     OW28202   5.227   1.767   5.960
 3687SOL    HW128203   5.132   1.767   5.950
 3687SOL    HW228204   5.255   1.686   5.916
 3688SOL     OW28205   6.279   2.558   7.812
 3688SOL    HW128206   6.237   2.482   7.772
 3688SOL    HW228207   6.248   2.557   7.903
 3689SOL     OW28208   4.614   0.583   6.668
 3689SOL    HW128209   4.578   0.512   6.615
 3689SOL    HW228210   4.556   0.589   6.743
 3690SOL     OW28211   3.644   4.886   5.734
 3690SOL    HW128212   3.713   4.910   5.672
 3690SOL    HW228213   3.572   4.856   5.679
 3691SOL     OW28214   2.024   5.539   6.688
 3691SOL    HW128215   2.005   5.602   6.758
 3691SOL    HW228216   2.029   5.592   6.609
 3692SOL     OW28217   1.562   1.879   2.247
 3692SOL    HW128218   1.587   1.825   2.322
 3692SOL    HW228219   1.594   1.967   2.269
 3693SOL     OW28220   0.707   5.504   1.521
 3693SOL    HW128221   0.704   5.409   1.536
 3693SOL    HW228222   0.629   5.538   1.565
 3694SOL     OW28223   3.593   1.796   0.647
 3694SOL    HW128224   3.593   1.713   0.693
 3694SOL    HW228225   3.608   1.862   0.715
 3695SOL     OW28226   2.783   1.058   1.515
 3695SOL    HW128227   2.730   1.045   1.594
 3695SOL    HW228228   2.720   1.091   1.450
 3696SOL     OW28229   0.123   3.488   6.159
 3696SOL    HW128230   0.060   3.419   6.136
 3696SOL    HW228231   0.119   3.548   6.085
 3697SOL     OW28232   1.044   5.694   0.097
 3697SOL    HW128233   1.121   5.743   0.068
 3697SOL    HW228234   1.022   5.732   0.182
 3698SOL     OW28235   5.532   2.117   1.965
 3698SOL    HW128236   5.573   2.194   1.925
 3698SOL    HW228237   5.605   2.068   2.003
 3699SOL     OW28238   0.612   0.848   7.674
 3699SOL    HW128239   0.668   0.871   7.748
 3699SOL    HW228240   0.527   0.886   7.695
 3700SOL     OW28241   1.383   3.019   7.714
 3700SOL    HW128242   1.369   2.981   7.801
 3700SOL    HW228243   1.454   2.968   7.676
 3701SOL     OW28244   1.172   0.501   0.850
 3701SOL    HW128245   1.127   0.418   0.838
 3701SOL    HW228246   1.250   0.495   0.796
 3702SOL     OW28247   5.601   3.670   5.796
 3702SOL    HW128248   5.632   3.748   5.749
 3702SOL    HW228249   5.573   3.610   5.728
 3703SOL     OW28250   4.051   2.040   1.293
 3703SOL    HW128251   3.960   2.014   1.304
 3703SOL    HW228252   4.051   2.103   1.222
 3704SOL     OW28253   1.068   0.372   6.186
 3704SOL    HW128254   1.069   0.332   6.100
 3704SOL    HW228255   0.989   0.426   6.187
 3705SOL     OW28256   4.551   1.053   2.342
 3705SOL    HW128257   4.481   1.069   2.279
 3705SOL    HW228258   4.619   1.009   2.291
 3706SOL     OW28259   2.654   2.897   1.909
 3706SOL    HW128260   2.646   2.815   1.959
 3706SOL    HW228261   2.732   2.884   1.855
 3707SOL     OW28262   1.311   3.742   1.225
 3707SOL    HW128263   1.241   3.808   1.225
 3707SOL    HW228264   1.378   3.778   1.283
 3708SOL     OW28265   0.297   4.227   2.131
 3708SOL    HW128266   0.343   4.169   2.070
 3708SOL    HW228267   0.316   4.315   2.099
 3709SOL     OW28268   0.222   1.701   6.450
 3709SOL    HW128269   0.313   1.673   6.463
 3709SOL    HW228270   0.200   1.674   6.361
 3710SOL     OW28271   2.631   2.302   7.432
 3710SOL    HW128272   2.544   2.328   7.460
 3710SOL    HW228273   2.677   2.282   7.514
 3711SOL     OW28274   3.884   4.146   0.163
 3711SOL    HW128275   3.932   4.220   0.201
 3711SOL    HW228276   3.946   4.073   0.168
 3712SOL     OW28277   3.154   5.970   0.645
 3712SOL    HW128278   3.120   5.927   0.567
 3712SOL    HW228279   3.164   6.062   0.620
 3713SOL     OW28280   0.255   0.397   6.435
 3713SOL    HW128281   0.320   0.333   6.465
 3713SOL    HW228282   0.278   0.478   6.481
 3714SOL     OW28283   2.509   2.917   5.549
 3714SOL    HW128284   2.490   3.004   5.514
 3714SOL    HW228285   2.463   2.857   5.490
 3715SOL     OW28286   4.101   3.546   5.452
 3715SOL    HW128287   4.154   3.474   5.486
 3715SOL    HW228288   4.157   3.623   5.459
 3716SOL     OW28289   4.927   3.447   6.005
 3716SOL    HW128290   4.920   3.353   6.024
 3716SOL    HW228291   4.879   3.489   6.076
 3717SOL     OW28292   5.164   5.117   6.187
 3717SOL    HW128293   5.077   5.140   6.155
 3717SOL    HW228294   5.211   5.088   6.108
 3718SOL     OW28295   5.051   4.328   1.941
 3718SOL    HW128296   4.979   4.265   1.935
 3718SOL    HW228297   5.049   4.375   1.858
 3719SOL     OW28298   2.829   5.544   6.182
 3719SOL    HW128299   2.860   5.455   6.168
 3719SOL    HW228300   2.849   5.589   6.100
 3720SOL     OW28301   0.062   0.153   6.613
 3720SOL    HW128302   0.076   0.103   6.532
 3720SOL    HW228303   0.039   0.088   6.679
 3721SOL     OW28304   3.385   6.211   0.849
 3721SOL    HW128305   3.312   6.150   0.860
 3721SOL    HW228306   3.463   6.156   0.856
 3722SOL     OW28307   1.965   0.989   0.670
 3722SOL    HW128308   1.980   1.083   0.663
 3722SOL    HW228309   2.042   0.956   0.716
 3723SOL     OW28310   4.877   4.650   2.101
 3723SOL    HW128311   4.872   4.651   2.006
 3723SOL    HW228312   4.812   4.586   2.128
 3724SOL     OW28313   0.864   1.546   6.571
 3724SOL    HW128314   0.821   1.476   6.520
 3724SOL    HW228315   0.904   1.603   6.506
 3725SOL     OW28316   3.827   4.920   0.182
 3725SOL    HW128317   3.899   4.932   0.120
 3725SOL    HW228318   3.846   4.981   0.253
 3726SOL     OW28319   0.578   3.841   7.128
 3726SOL    HW128320   0.518   3.834   7.054
 3726SOL    HW228321   0.520   3.842   7.205
 3727SOL     OW28322   4.780   4.341   5.866
 3727SOL    HW128323   4.704   4.316   5.814
 3727SOL    HW228324   4.853   4.291   5.829
 3728SOL     OW28325   2.198   1.974   6.980
 3728SOL    HW128326   2.249   2.012   7.051
 3728SOL    HW228327   2.250   1.992   6.901
 3729SOL     OW28328   2.099   4.433   0.706
 3729SOL    HW128329   2.125   4.452   0.797
 3729SOL    HW228330   2.050   4.511   0.680
 3730SOL     OW28331   4.500   3.405   0.340
 3730SOL    HW128332   4.532   3.392   0.250
 3730SOL    HW228333   4.411   3.438   0.330
 3731SOL     OW28334   5.787   2.293   6.227
 3731SOL    HW128335   5.708   2.277   6.279
 3731SOL    HW228336   5.811   2.383   6.250
 3732SOL     OW28337   4.009   4.938   7.800
 3732SOL    HW128338   3.982   4.849   7.776
 3732SOL    HW228339   4.085   4.955   7.744
 3733SOL     OW28340   3.353   1.580   1.303
 3733SOL    HW128341   3.430   1.523   1.304
 3733SOL    HW228342   3.384   1.663   1.338
 3734SOL     OW28343   5.545   3.579   5.535
 3734SOL    HW128344   5.639   3.596   5.542
 3734SOL    HW228345   5.506   3.664   5.513
 3735SOL     OW28346   1.871   4.630   0.936
 3735SOL    HW128347   1.931   4.576   0.988
 3735SOL    HW228348   1.924   4.659   0.861
 3736SOL     OW28349   2.568   5.314   6.355
 3736SOL    HW128350   2.544   5.223   6.367
 3736SOL    HW228351   2.485   5.360   6.341
 3737SOL     OW28352   6.051   0.314   7.418
 3737SOL    HW128353   6.143   0.305   7.393
 3737SOL    HW228354   6.044   0.403   7.451
 3738SOL     OW28355   4.495   2.365   0.094
 3738SOL    HW128356   4.441   2.289   0.070
 3738SOL    HW228357   4.434   2.425   0.137
 3739SOL     OW28358   2.233   4.353   7.387
 3739SOL    HW128359   2.296   4.368   7.458
 3739SOL    HW228360   2.242   4.260   7.367
 3740SOL     OW28361   4.840   6.264   0.996
 3740SOL    HW128362   4.804   6.319   1.065
 3740SOL    HW228363   4.927   6.238   1.028
 3741SOL     OW28364   5.365   3.428   5.782
 3741SOL    HW128365   5.345   3.377   5.861
 3741SOL    HW228366   5.452   3.398   5.755
 3742SOL     OW28367   6.090   0.041   5.980
 3742SOL    HW128368   6.078   0.003   6.067
 3742SOL    HW228369   6.155   0.110   5.992
 3743SOL     OW28370   2.910   3.657   1.417
 3743SOL    HW128371   3.002   3.668   1.392
 3743SOL    HW228372   2.910   3.582   1.477
 3744SOL     OW28373   6.248   3.314   2.219
 3744SOL    HW128374   6.315   3.283   2.281
 3744SOL    HW228375   6.293   3.318   2.135
 3745SOL     OW28376   3.329   4.492   1.689
 3745SOL    HW128377   3.236   4.517   1.679
 3745SOL    HW228378   3.353   4.525   1.775
 3746SOL     OW28379   1.035   3.621   0.055
 3746SOL    HW128380   1.075   3.555   0.112
 3746SOL    HW228381   1.064   3.704   0.092
 3747SOL     OW28382   0.016   3.969   7.255
 3747SOL    HW128383  -0.074   3.959   7.224
 3747SOL    HW228384   0.070   3.936   7.183
 3748SOL     OW28385   3.896   2.374   0.761
 3748SOL    HW128386   3.883   2.303   0.824
 3748SOL    HW228387   3.808   2.407   0.743
 3749SOL     OW28388   6.154   4.906   0.511
 3749SOL    HW128389   6.154   4.811   0.517
 3749SOL    HW228390   6.061   4.930   0.504
 3750SOL     OW28391   4.034   4.419   7.590
 3750SOL    HW128392   3.991   4.344   7.550
 3750SOL    HW228393   4.084   4.383   7.663
 3751SOL     OW28394   5.173   6.081   0.978
 3751SOL    HW128395   5.159   6.126   0.895
 3751SOL    HW228396   5.154   5.989   0.959
 3752SOL     OW28397   5.936   1.743   0.417
 3752SOL    HW128398   5.877   1.668   0.407
 3752SOL    HW228399   5.878   1.818   0.429
 3753SOL     OW28400   1.940   0.015   0.267
 3753SOL    HW128401   1.936   0.017   0.363
 3753SOL    HW228402   1.858   0.055   0.238
 3754SOL     OW28403   2.221   3.294   6.396
 3754SOL    HW128404   2.236   3.201   6.416
 3754SOL    HW228405   2.142   3.294   6.342
 3755SOL     OW28406   2.335   5.980   0.934
 3755SOL    HW128407   2.295   5.950   0.853
 3755SOL    HW228408   2.429   5.973   0.919
 3756SOL     OW28409   3.619   1.810   6.821
 3756SOL    HW128410   3.636   1.746   6.752
 3756SOL    HW228411   3.643   1.764   6.902
 3757SOL     OW28412   4.823   2.681   7.592
 3757SOL    HW128413   4.821   2.693   7.497
 3757SOL    HW228414   4.758   2.613   7.609
 3758SOL     OW28415   3.475   3.011   5.944
 3758SOL    HW128416   3.435   2.966   6.019
 3758SOL    HW228417   3.437   2.969   5.867
 3759SOL     OW28418   6.017   1.951   6.921
 3759SOL    HW128419   6.088   1.984   6.866
 3759SOL    HW228420   6.052   1.954   7.010
 3760SOL     OW28421   4.123   1.723   6.355
 3760SOL    HW128422   4.196   1.712   6.294
 3760SOL    HW228423   4.092   1.813   6.339
 3761SOL     OW28424   4.596   5.036   6.515
 3761SOL    HW128425   4.554   5.054   6.599
 3761SOL    HW228426   4.548   5.089   6.452
 3762SOL     OW28427   2.624   4.071   5.792
 3762SOL    HW128428   2.558   4.101   5.729
 3762SOL    HW228429   2.703   4.057   5.739
 3763SOL     OW28430   5.290   3.444   5.524
 3763SOL    HW128431   5.297   3.430   5.619
 3763SOL    HW228432   5.370   3.493   5.502
 3764SOL     OW28433   2.309   5.566   5.314
 3764SOL    HW128434   2.291   5.652   5.274
 3764SOL    HW228435   2.399   5.573   5.345
 3765SOL     OW28436   5.404   2.067   6.666
 3765SOL    HW128437   5.462   2.007   6.712
 3765SOL    HW228438   5.404   2.036   6.575
 3766SOL     OW28439   5.179   3.969   7.661
 3766SOL    HW128440   5.159   4.054   7.700
 3766SOL    HW228441   5.198   3.912   7.736
 3767SOL     OW28442   1.514   5.501   6.800
 3767SOL    HW128443   1.546   5.411   6.807
 3767SOL    HW228444   1.485   5.523   6.888
 3768SOL     OW28445   5.904   1.286   6.204
 3768SOL    HW128446   5.896   1.341   6.282
 3768SOL    HW228447   5.927   1.347   6.134
 3769SOL     OW28448   3.213   1.328   7.165
 3769SOL    HW128449   3.128   1.291   7.140
 3769SOL    HW228450   3.230   1.290   7.251
 3770SOL     OW28451   3.615   1.748   1.344
 3770SOL    HW128452   3.677   1.742   1.272
 3770SOL    HW228453   3.660   1.799   1.411
 3771SOL     OW28454   5.670   5.011   0.556
 3771SOL    HW128455   5.588   5.006   0.604
 3771SOL    HW228456   5.696   5.103   0.563
 3772SOL     OW28457   3.668   1.445   6.566
 3772SOL    HW128458   3.717   1.483   6.638
 3772SOL    HW228459   3.651   1.354   6.593
 3773SOL     OW28460   4.977   5.487   0.509
 3773SOL    HW128461   4.929   5.480   0.426
 3773SOL    HW228462   4.954   5.407   0.556
 3774SOL     OW28463   1.849   2.985   1.764
 3774SOL    HW128464   1.814   3.014   1.848
 3774SOL    HW228465   1.826   2.892   1.760
 3775SOL     OW28466   1.610   2.591   6.497
 3775SOL    HW128467   1.679   2.563   6.557
 3775SOL    HW228468   1.657   2.616   6.417
 3776SOL     OW28469   4.359   4.409   6.652
 3776SOL    HW128470   4.444   4.376   6.626
 3776SOL    HW228471   4.298   4.373   6.588
 3777SOL     OW28472   2.819   1.815   7.369
 3777SOL    HW128473   2.867   1.896   7.359
 3777SOL    HW228474   2.883   1.746   7.351
 3778SOL     OW28475   2.637   5.164   7.453
 3778SOL    HW128476   2.727   5.170   7.484
 3778SOL    HW228477   2.625   5.071   7.432
 3779SOL     OW28478   1.583   2.374   0.191
 3779SOL    HW128479   1.615   2.304   0.248
 3779SOL    HW228480   1.488   2.374   0.205
 3780SOL     OW28481   6.022   5.957   7.243
 3780SOL    HW128482   6.081   5.882   7.247
 3780SOL    HW228483   5.963   5.944   7.317
 3781SOL     OW28484   5.858   2.330   0.720
 3781SOL    HW128485   5.828   2.344   0.630
 3781SOL    HW228486   5.818   2.247   0.746
 3782SOL     OW28487   3.859   1.541   6.739
 3782SOL    HW128488   3.920   1.476   6.774
 3782SOL    HW228489   3.915   1.604   6.694
 3783SOL     OW28490   0.554   4.278   0.329
 3783SOL    HW128491   0.470   4.320   0.313
 3783SOL    HW228492   0.597   4.334   0.394
 3784SOL     OW28493   3.532   5.858   7.320
 3784SOL    HW128494   3.531   5.832   7.228
 3784SOL    HW228495   3.453   5.820   7.357
 3785SOL     OW28496   3.041   2.096   1.436
 3785SOL    HW128497   3.092   2.117   1.357
 3785SOL    HW228498   3.063   2.165   1.498
 3786SOL     OW28499   3.211   2.225   1.241
 3786SOL    HW128500   3.271   2.286   1.284
 3786SOL    HW228501   3.192   2.265   1.156
 3787SOL     OW28502   1.623   0.917   0.582
 3787SOL    HW128503   1.711   0.880   0.575
 3787SOL    HW228504   1.584   0.871   0.656
 3788SOL     OW28505   4.279   2.488   6.718
 3788SOL    HW128506   4.265   2.401   6.756
 3788SOL    HW228507   4.370   2.508   6.736
 3789SOL     OW28508   4.612   5.440   0.411
 3789SOL    HW128509   4.587   5.532   0.408
 3789SOL    HW228510   4.707   5.440   0.401
 3790SOL     OW28511   2.389   1.922   0.354
 3790SOL    HW128512   2.475   1.963   0.342
 3790SOL    HW228513   2.359   1.903   0.265
 3791SOL     OW28514   6.300   2.044   2.107
 3791SOL    HW128515   6.352   2.061   2.028
 3791SOL    HW228516   6.358   1.990   2.162
 3792SOL     OW28517   3.972   0.510   1.168
 3792SOL    HW128518   4.036   0.574   1.139
 3792SOL    HW228519   3.926   0.553   1.240
 3793SOL     OW28520   1.862   1.370   5.843
 3793SOL    HW128521   1.812   1.305   5.892
 3793SOL    HW228522   1.932   1.321   5.801
 3794SOL     OW28523   1.427   1.782   6.179
 3794SOL    HW128524   1.520   1.787   6.156
 3794SOL    HW228525   1.425   1.728   6.258
 3795SOL     OW28526   1.652   5.175   0.930
 3795SOL    HW128527   1.605   5.258   0.934
 3795SOL    HW228528   1.682   5.160   1.020
 3796SOL     OW28529   3.983   3.042   0.870
 3796SOL    HW128530   3.989   3.091   0.952
 3796SOL    HW228531   3.899   3.067   0.833
 3797SOL     OW28532   4.176   5.981   0.531
 3797SOL    HW128533   4.144   5.946   0.448
 3797SOL    HW228534   4.141   5.921   0.597
 3798SOL     OW28535   4.480   1.262   0.013
 3798SOL    HW128536   4.515   1.317   0.084
 3798SOL    HW228537   4.452   1.324  -0.054
 3799SOL     OW28538   4.757   4.309   6.127
 3799SOL    HW128539   4.787   4.315   6.036
 3799SOL    HW228540   4.662   4.302   6.121
 3800SOL     OW28541   0.075   6.403   0.450
 3800SOL    HW128542   0.019   6.327   0.431
 3800SOL    HW228543   0.143   6.370   0.508
 3801SOL     OW28544   4.823   3.725   1.942
 3801SOL    HW128545   4.756   3.778   1.985
 3801SOL    HW228546   4.842   3.655   2.005
 3802SOL     OW28547   1.497   3.502   0.723
 3802SOL    HW128548   1.557   3.576   0.738
 3802SOL    HW228549   1.457   3.521   0.639
 3803SOL     OW28550   2.442   3.978   2.720
 3803SOL    HW128551   2.446   4.030   2.641
 3803SOL    HW228552   2.530   3.941   2.729
 3804SOL     OW28553   3.076   3.190   5.797
 3804SOL    HW128554   2.991   3.152   5.819
 3804SOL    HW228555   3.082   3.183   5.702
 3805SOL     OW28556   2.791   0.498   7.379
 3805SOL    HW128557   2.771   0.545   7.460
 3805SOL    HW228558   2.804   0.407   7.406
 3806SOL     OW28559   5.205   2.827   0.414
 3806SOL    HW128560   5.200   2.799   0.323
 3806SOL    HW228561   5.292   2.865   0.423
 3807SOL     OW28562   3.345   5.212   0.334
 3807SOL    HW128563   3.256   5.222   0.302
 3807SOL    HW228564   3.398   5.265   0.275
 3808SOL     OW28565   2.551   1.520   6.707
 3808SOL    HW128566   2.621   1.585   6.695
 3808SOL    HW228567   2.489   1.540   6.636
 3809SOL     OW28568   1.952   0.520   5.617
 3809SOL    HW128569   1.887   0.590   5.627
 3809SOL    HW228570   1.906   0.452   5.568
 3810SOL     OW28571   1.938   2.771   6.863
 3810SOL    HW128572   1.988   2.850   6.841
 3810SOL    HW228573   1.852   2.784   6.823
 3811SOL     OW28574   0.212   2.494   6.384
 3811SOL    HW128575   0.255   2.567   6.338
 3811SOL    HW228576   0.281   2.458   6.440
 3812SOL     OW28577   2.752   4.530   1.593
 3812SOL    HW128578   2.664   4.529   1.631
 3812SOL    HW228579   2.737   4.531   1.498
 3813SOL     OW28580   4.935   1.599   0.973
 3813SOL    HW128581   4.992   1.527   0.948
 3813SOL    HW228582   4.854   1.585   0.924
 3814SOL     OW28583   2.476   3.670   1.655
 3814SOL    HW128584   2.488   3.676   1.560
 3814SOL    HW228585   2.564   3.648   1.688
 3815SOL     OW28586   0.992   3.153   0.361
 3815SOL    HW128587   0.923   3.109   0.409
 3815SOL    HW228588   0.988   3.116   0.273
 3816SOL     OW28589   3.132   2.465   1.488
 3816SOL    HW128590   3.124   2.397   1.555
 3816SOL    HW228591   3.217   2.449   1.447
 3817SOL     OW28592   0.254   3.354   0.470
 3817SOL    HW128593   0.253   3.434   0.522
 3817SOL    HW228594   0.171   3.311   0.492
 3818SOL     OW28595   0.380   6.066   5.482
 3818SOL    HW128596   0.454   6.048   5.541
 3818SOL    HW228597   0.303   6.057   5.538
 3819SOL     OW28598   1.936   4.932   7.528
 3819SOL    HW128599   1.944   4.840   7.502
 3819SOL    HW228600   1.884   4.929   7.608
 3820SOL     OW28601   5.135   5.406   7.431
 3820SOL    HW128602   5.085   5.487   7.439
 3820SOL    HW228603   5.068   5.337   7.428
 3821SOL     OW28604   6.332   3.119   7.634
 3821SOL    HW128605   6.398   3.108   7.702
 3821SOL    HW228606   6.355   3.054   7.567
 3822SOL     OW28607   6.174   3.993   1.095
 3822SOL    HW128608   6.170   4.079   1.052
 3822SOL    HW228609   6.087   3.956   1.080
 3823SOL     OW28610   4.927   4.310   0.885
 3823SOL    HW128611   4.969   4.388   0.847
 3823SOL    HW228612   4.834   4.332   0.887
 3824SOL     OW28613   2.578   4.691   0.047
 3824SOL    HW128614   2.594   4.623  -0.019
 3824SOL    HW228615   2.607   4.772   0.004
 3825SOL     OW28616   5.303   4.861   6.239
 3825SOL    HW128617   5.233   4.924   6.255
 3825SOL    HW228618   5.345   4.849   6.324
 3826SOL     OW28619   5.540   0.470   0.462
 3826SOL    HW128620   5.505   0.386   0.432
 3826SOL    HW228621   5.634   0.453   0.475
 3827SOL     OW28622   5.521   3.238   1.541
 3827SOL    HW128623   5.573   3.315   1.563
 3827SOL    HW228624   5.557   3.168   1.595
 3828SOL     OW28625   0.826   2.367   0.818
 3828SOL    HW128626   0.878   2.406   0.747
 3828SOL    HW228627   0.880   2.378   0.896
 3829SOL     OW28628   0.056   4.045   7.503
 3829SOL    HW128629   0.034   4.003   7.420
 3829SOL    HW228630   0.151   4.059   7.498
 3830SOL     OW28631   0.601   1.437   7.765
 3830SOL    HW128632   0.521   1.420   7.816
 3830SOL    HW228633   0.603   1.367   7.701
 3831SOL     OW28634   0.902   2.985   0.804
 3831SOL    HW128635   0.827   2.961   0.749
 3831SOL    HW228636   0.932   3.069   0.770
 3832SOL     OW28637   6.315   0.236   7.268
 3832SOL    HW128638   6.401   0.273   7.248
 3832SOL    HW228639   6.331   0.182   7.346
 3833SOL     OW28640   1.501   4.397   1.173
 3833SOL    HW128641   1.589   4.361   1.172
 3833SOL    HW228642   1.451   4.337   1.229
 3834SOL     OW28643   3.790   5.350   6.161
 3834SOL    HW128644   3.875   5.388   6.138
 3834SOL    HW228645   3.731   5.381   6.092
 3835SOL     OW28646   1.591   2.978   0.813
 3835SOL    HW128647   1.679   2.951   0.786
 3835SOL    HW228648   1.597   3.073   0.823
 3836SOL     OW28649   2.519   5.293   1.577
 3836SOL    HW128650   2.512   5.275   1.671
 3836SOL    HW228651   2.434   5.331   1.555
 3837SOL     OW28652   2.282   5.820   1.164
 3837SOL    HW128653   2.305   5.898   1.114
 3837SOL    HW228654   2.351   5.813   1.230
 3838SOL     OW28655   0.864   0.329   1.464
 3838SOL    HW128656   0.792   0.275   1.429
 3838SOL    HW228657   0.887   0.286   1.546
 3839SOL     OW28658   4.739   3.641   0.767
 3839SOL    HW128659   4.658   3.661   0.721
 3839SOL    HW228660   4.764   3.555   0.735
 3840SOL     OW28661   2.189   3.937   0.368
 3840SOL    HW128662   2.096   3.954   0.383
 3840SOL    HW228663   2.227   4.024   0.353
 3841SOL     OW28664   5.476   6.112   6.261
 3841SOL    HW128665   5.468   6.022   6.228
 3841SOL    HW228666   5.522   6.158   6.191
 3842SOL     OW28667   0.385   5.411   1.324
 3842SOL    HW128668   0.377   5.505   1.310
 3842SOL    HW228669   0.423   5.403   1.412
 3843SOL     OW28670   3.096   3.574   7.105
 3843SOL    HW128671   3.030   3.592   7.037
 3843SOL    HW228672   3.163   3.641   7.091
 3844SOL     OW28673   1.748   0.595   0.752
 3844SOL    HW128674   1.673   0.638   0.793
 3844SOL    HW228675   1.726   0.590   0.659
 3845SOL     OW28676   0.695   0.878   0.910
 3845SOL    HW128677   0.783   0.876   0.949
 3845SOL    HW228678   0.706   0.838   0.824
 3846SOL     OW28679   3.265   0.363   0.016
 3846SOL    HW128680   3.193   0.341  -0.043
 3846SOL    HW228681   3.289   0.280   0.056
 3847SOL     OW28682   2.503   4.522   6.694
 3847SOL    HW128683   2.534   4.439   6.656
 3847SOL    HW228684   2.575   4.552   6.749
 3848SOL     OW28685   4.469   5.097   6.097
 3848SOL    HW128686   4.562   5.093   6.074
 3848SOL    HW228687   4.469   5.120   6.189
 3849SOL     OW28688   2.437   2.071   7.687
 3849SOL    HW128689   2.450   2.166   7.688
 3849SOL    HW228690   2.514   2.037   7.641
 3850SOL     OW28691   5.993   5.764   0.423
 3850SOL    HW128692   6.047   5.842   0.438
 3850SOL    HW228693   6.053   5.691   0.436
 3851SOL     OW28694   5.135   5.647   0.289
 3851SOL    HW128695   5.134   5.563   0.335
 3851SOL    HW228696   5.174   5.708   0.351
 3852SOL     OW28697   4.241   1.983   5.238
 3852SOL    HW128698   4.233   2.000   5.144
 3852SOL    HW228699   4.192   2.055   5.279
 3853SOL     OW28700   3.063   0.200   1.099
 3853SOL    HW128701   3.061   0.242   1.014
 3853SOL    HW228702   2.984   0.147   1.102
 3854SOL     OW28703   2.598   0.608   6.747
 3854SOL    HW128704   2.572   0.699   6.761
 3854SOL    HW228705   2.624   0.605   6.655
 3855SOL     OW28706   4.735   3.713   6.384
 3855SOL    HW128707   4.745   3.625   6.348
 3855SOL    HW228708   4.787   3.711   6.465
 3856SOL     OW28709   4.727   5.263   7.681
 3856SOL    HW128710   4.654   5.201   7.687
 3856SOL    HW228711   4.702   5.335   7.738
 3857SOL     OW28712   6.248   3.075   0.300
 3857SOL    HW128713   6.254   3.052   0.208
 3857SOL    HW228714   6.280   3.165   0.304
 3858SOL     OW28715   4.727   4.811   7.324
 3858SOL    HW128716   4.810   4.769   7.301
 3858SOL    HW228717   4.751   4.899   7.351
 3859SOL     OW28718   0.293   2.486   1.173
 3859SOL    HW128719   0.305   2.568   1.221
 3859SOL    HW228720   0.218   2.444   1.215
 3860SOL     OW28721   5.520   2.581   1.083
 3860SOL    HW128722   5.604   2.538   1.098
 3860SOL    HW228723   5.469   2.560   1.161
 3861SOL     OW28724   0.679   4.051   0.692
 3861SOL    HW128725   0.761   4.080   0.732
 3861SOL    HW228726   0.692   3.958   0.675
 3862SOL     OW28727   3.015   3.949   0.225
 3862SOL    HW128728   2.940   3.929   0.169
 3862SOL    HW228729   3.063   4.016   0.177
 3863SOL     OW28730   1.056   3.547   1.436
 3863SOL    HW128731   1.003   3.498   1.374
 3863SOL    HW228732   1.046   3.639   1.409
 3864SOL     OW28733   5.955   0.689   1.143
 3864SOL    HW128734   5.935   0.721   1.055
 3864SOL    HW228735   6.015   0.754   1.179
 3865SOL     OW28736   2.649   0.137   0.603
 3865SOL    HW128737   2.569   0.100   0.641
 3865SOL    HW228738   2.719   0.109   0.662
 3866SOL     OW28739   3.600   1.164   6.145
 3866SOL    HW128740   3.619   1.119   6.062
 3866SOL    HW228741   3.558   1.097   6.199
 3867SOL     OW28742   4.402   5.418   5.596
 3867SOL    HW128743   4.474   5.481   5.608
 3867SOL    HW228744   4.379   5.390   5.685
 3868SOL     OW28745   3.121   1.812   6.324
 3868SOL    HW128746   3.106   1.752   6.397
 3868SOL    HW228747   3.188   1.768   6.271
 3869SOL     OW28748   1.237   4.340   6.722
 3869SOL    HW128749   1.178   4.278   6.766
 3869SOL    HW228750   1.302   4.284   6.679
 3870SOL     OW28751   2.051   3.839   1.945
 3870SOL    HW128752   2.013   3.892   1.875
 3870SOL    HW228753   2.124   3.793   1.903
 3871SOL     OW28754   3.864   4.124   6.097
 3871SOL    HW128755   3.857   4.219   6.091
 3871SOL    HW228756   3.796   4.091   6.037
 3872SOL     OW28757   1.331   6.296   0.316
 3872SOL    HW128758   1.252   6.242   0.316
 3872SOL    HW228759   1.388   6.256   0.249
 3873SOL     OW28760   1.541   6.022   0.753
 3873SOL    HW128761   1.548   6.030   0.658
 3873SOL    HW228762   1.609   6.081   0.787
 3874SOL     OW28763   2.823   5.914   6.082
 3874SOL    HW128764   2.815   5.831   6.037
 3874SOL    HW228765   2.794   5.896   6.172
 3875SOL     OW28766   2.696   0.122   1.283
 3875SOL    HW128767   2.650   0.070   1.218
 3875SOL    HW228768   2.715   0.205   1.239
 3876SOL     OW28769   5.153   1.600   7.563
 3876SOL    HW128770   5.068   1.559   7.580
 3876SOL    HW228771   5.151   1.622   7.470
 3877SOL     OW28772   1.357   5.332   0.272
 3877SOL    HW128773   1.286   5.269   0.276
 3877SOL    HW228774   1.328   5.405   0.326
 3878SOL     OW28775   1.005   1.887   7.530
 3878SOL    HW128776   1.020   1.833   7.607
 3878SOL    HW228777   1.085   1.938   7.520
 3879SOL     OW28778   1.814   1.819   0.751
 3879SOL    HW128779   1.730   1.805   0.707
 3879SOL    HW228780   1.864   1.739   0.735
 3880SOL     OW28781   1.609   5.993   6.624
 3880SOL    HW128782   1.517   5.982   6.601
 3880SOL    HW228783   1.608   6.041   6.706
 3881SOL     OW28784   1.316   1.505   1.629
 3881SOL    HW128785   1.397   1.457   1.610
 3881SOL    HW228786   1.279   1.461   1.705
 3882SOL     OW28787   1.766   3.186   6.430
 3882SOL    HW128788   1.698   3.193   6.497
 3882SOL    HW228789   1.797   3.095   6.437
 3883SOL     OW28790   4.897   6.238   1.522
 3883SOL    HW128791   4.875   6.329   1.498
 3883SOL    HW228792   4.965   6.213   1.459
 3884SOL     OW28793   0.775   3.695   0.862
 3884SOL    HW128794   0.827   3.617   0.880
 3884SOL    HW228795   0.790   3.752   0.937
 3885SOL     OW28796   1.413   3.976   2.378
 3885SOL    HW128797   1.396   3.945   2.467
 3885SOL    HW228798   1.503   4.009   2.381
 3886SOL     OW28799   5.489   2.305   0.776
 3886SOL    HW128800   5.528   2.367   0.838
 3886SOL    HW228801   5.483   2.354   0.694
 3887SOL     OW28802   1.852   3.043   7.421
 3887SOL    HW128803   1.881   3.096   7.347
 3887SOL    HW228804   1.857   2.953   7.389
 3888SOL     OW28805   5.989   6.382   7.396
 3888SOL    HW128806   5.916   6.401   7.455
 3888SOL    HW228807   5.989   6.455   7.334
 3889SOL     OW28808   2.363   5.505   6.256
 3889SOL    HW128809   2.295   5.563   6.288
 3889SOL    HW228810   2.345   5.495   6.162
 3890SOL     OW28811   1.555   3.779   5.447
 3890SOL    HW128812   1.634   3.751   5.495
 3890SOL    HW228813   1.551   3.874   5.462
 3891SOL     OW28814   2.205   4.302   2.562
 3891SOL    HW128815   2.161   4.225   2.599
 3891SOL    HW228816   2.139   4.342   2.505
 3892SOL     OW28817   2.559   2.853   1.353
 3892SOL    HW128818   2.479   2.882   1.309
 3892SOL    HW228819   2.542   2.761   1.375
 3893SOL     OW28820   6.199   4.907   0.239
 3893SOL    HW128821   6.236   4.820   0.251
 3893SOL    HW228822   6.187   4.941   0.328
 3894SOL     OW28823   1.970   1.070   1.109
 3894SOL    HW128824   1.890   1.045   1.062
 3894SOL    HW228825   1.939   1.113   1.188
 3895SOL     OW28826   3.749   5.568   6.653
 3895SOL    HW128827   3.839   5.590   6.629
 3895SOL    HW228828   3.717   5.515   6.581
 3896SOL     OW28829   4.543   2.570   6.850
 3896SOL    HW128830   4.489   2.524   6.915
 3896SOL    HW228831   4.631   2.570   6.887
 3897SOL     OW28832   5.884   3.830   7.571
 3897SOL    HW128833   5.883   3.803   7.480
 3897SOL    HW228834   5.829   3.766   7.616
 3898SOL     OW28835   3.454   3.906   7.097
 3898SOL    HW128836   3.528   3.962   7.074
 3898SOL    HW228837   3.490   3.840   7.156
 3899SOL     OW28838   3.895   2.775   2.408
 3899SOL    HW128839   3.809   2.733   2.398
 3899SOL    HW228840   3.876   2.860   2.448
 3900SOL     OW28841   2.046   3.654   7.102
 3900SOL    HW128842   2.095   3.587   7.149
 3900SOL    HW228843   1.955   3.641   7.129
 3901SOL     OW28844   3.767   2.200   0.284
 3901SOL    HW128845   3.798   2.288   0.263
 3901SOL    HW228846   3.821   2.142   0.231
 3902SOL     OW28847   6.254   4.432   1.790
 3902SOL    HW128848   6.204   4.377   1.851
 3902SOL    HW228849   6.251   4.384   1.707
 3903SOL     OW28850   4.966   5.110   7.802
 3903SOL    HW128851   4.879   5.148   7.788
 3903SOL    HW228852   4.950   5.016   7.812
 3904SOL     OW28853   1.660   4.858   1.845
 3904SOL    HW128854   1.688   4.903   1.766
 3904SOL    HW228855   1.565   4.871   1.848
 3905SOL     OW28856   3.359   0.463   6.735
 3905SOL    HW128857   3.342   0.375   6.702
 3905SOL    HW228858   3.358   0.454   6.830
 3906SOL     OW28859   2.575   0.105   6.964
 3906SOL    HW128860   2.587   0.192   6.924
 3906SOL    HW228861   2.647   0.053   6.929
 3907SOL     OW28862   5.934   1.573   6.068
 3907SOL    HW128863   6.025   1.603   6.071
 3907SOL    HW228864   5.922   1.541   5.978
 3908SOL     OW28865   4.973   0.883   0.085
 3908SOL    HW128866   4.893   0.835   0.107
 3908SOL    HW228867   4.960   0.911  -0.005
 3909SOL     OW28868   2.748   0.304   6.300
 3909SOL    HW128869   2.831   0.319   6.345
 3909SOL    HW228870   2.767   0.323   6.208
 3910SOL     OW28871   3.618   4.887   6.058
 3910SOL    HW128872   3.626   4.852   5.969
 3910SOL    HW228873   3.625   4.810   6.115
 3911SOL     OW28874   4.530   4.873   0.314
 3911SOL    HW128875   4.542   4.801   0.252
 3911SOL    HW228876   4.484   4.833   0.388
 3912SOL     OW28877   3.131   2.291   0.327
 3912SOL    HW128878   3.166   2.281   0.415
 3912SOL    HW228879   3.135   2.385   0.310
 3913SOL     OW28880   3.794   4.841   6.947
 3913SOL    HW128881   3.804   4.854   6.852
 3913SOL    HW228882   3.744   4.760   6.955
 3914SOL     OW28883   4.707   5.412   1.136
 3914SOL    HW128884   4.716   5.396   1.230
 3914SOL    HW228885   4.739   5.331   1.095
 3915SOL     OW28886   4.752   5.604   7.637
 3915SOL    HW128887   4.784   5.689   7.667
 3915SOL    HW228888   4.814   5.541   7.674
 3916SOL     OW28889   1.890   0.396   2.435
 3916SOL    HW128890   1.951   0.437   2.373
 3916SOL    HW228891   1.840   0.469   2.471
 3917SOL     OW28892   3.362   4.593   5.412
 3917SOL    HW128893   3.347   4.499   5.420
 3917SOL    HW228894   3.456   4.604   5.422
 3918SOL     OW28895   0.439   3.966   0.751
 3918SOL    HW128896   0.520   4.016   0.739
 3918SOL    HW228897   0.454   3.914   0.830
 3919SOL     OW28898   0.227   5.014   7.586
 3919SOL    HW128899   0.187   4.965   7.515
 3919SOL    HW228900   0.224   5.105   7.558
 3920SOL     OW28901   3.739   2.204   6.975
 3920SOL    HW128902   3.697   2.290   6.969
 3920SOL    HW228903   3.810   2.216   7.039
 3921SOL     OW28904   3.671   2.374   0.487
 3921SOL    HW128905   3.582   2.401   0.464
 3921SOL    HW228906   3.699   2.319   0.413
 3922SOL     OW28907   3.798   2.734   6.406
 3922SOL    HW128908   3.865   2.775   6.460
 3922SOL    HW228909   3.801   2.782   6.323
 3923SOL     OW28910   2.477   2.309   6.302
 3923SOL    HW128911   2.490   2.398   6.270
 3923SOL    HW228912   2.416   2.319   6.376
 3924SOL     OW28913   4.612   1.684   6.728
 3924SOL    HW128914   4.701   1.654   6.745
 3924SOL    HW228915   4.558   1.605   6.733
 3925SOL     OW28916   4.621   4.636   1.191
 3925SOL    HW128917   4.699   4.673   1.232
 3925SOL    HW228918   4.654   4.564   1.137
 3926SOL     OW28919   3.330   6.328   1.711
 3926SOL    HW128920   3.266   6.266   1.675
 3926SOL    HW228921   3.287   6.365   1.788
 3927SOL     OW28922   0.313   3.532   5.930
 3927SOL    HW128923   0.351   3.545   5.843
 3927SOL    HW228924   0.271   3.446   5.924
 3928SOL     OW28925   2.035   3.226   0.643
 3928SOL    HW128926   2.107   3.196   0.699
 3928SOL    HW228927   1.997   3.300   0.691
 3929SOL     OW28928   0.553   5.993   1.285
 3929SOL    HW128929   0.585   5.968   1.371
 3929SOL    HW228930   0.470   5.945   1.275
 3930SOL     OW28931   0.418   3.305   7.650
 3930SOL    HW128932   0.430   3.364   7.724
 3930SOL    HW228933   0.502   3.305   7.605
 3931SOL     OW28934   5.913   2.812   0.418
 3931SOL    HW128935   5.884   2.902   0.428
 3931SOL    HW228936   5.966   2.812   0.338
 3932SOL     OW28937   3.034   2.242   6.133
 3932SOL    HW128938   3.039   2.287   6.048
 3932SOL    HW228939   2.945   2.261   6.164
 3933SOL     OW28940   5.020   0.188   7.481
 3933SOL    HW128941   4.978   0.171   7.566
 3933SOL    HW228942   5.090   0.250   7.501
 3934SOL     OW28943   4.157   5.499   1.770
 3934SOL    HW128944   4.081   5.443   1.784
 3934SOL    HW228945   4.152   5.524   1.677
 3935SOL     OW28946   4.585   5.974   2.013
 3935SOL    HW128947   4.557   6.062   2.038
 3935SOL    HW228948   4.653   5.989   1.947
 3936SOL     OW28949   0.744   1.792   7.603
 3936SOL    HW128950   0.807   1.862   7.619
 3936SOL    HW228951   0.776   1.718   7.655
 3937SOL     OW28952   3.710   3.343   0.188
 3937SOL    HW128953   3.715   3.274   0.254
 3937SOL    HW228954   3.655   3.410   0.228
 3938SOL     OW28955   4.140   5.644   5.697
 3938SOL    HW128956   4.200   5.663   5.625
 3938SOL    HW228957   4.071   5.709   5.688
 3939SOL     OW28958   1.525   0.478   1.014
 3939SOL    HW128959   1.563   0.529   1.085
 3939SOL    HW228960   1.600   0.445   0.965
 3940SOL     OW28961   1.668   5.982   0.194
 3940SOL    HW128962   1.578   5.967   0.165
 3940SOL    HW228963   1.722   5.962   0.117
 3941SOL     OW28964   3.338   2.594   5.566
 3941SOL    HW128965   3.417   2.542   5.581
 3941SOL    HW228966   3.267   2.530   5.565
 3942SOL     OW28967   3.214   3.931   7.737
 3942SOL    HW128968   3.155   3.947   7.664
 3942SOL    HW228969   3.187   3.994   7.804
 3943SOL     OW28970   1.124   3.819   7.519
 3943SOL    HW128971   1.029   3.827   7.513
 3943SOL    HW228972   1.156   3.846   7.433
 3944SOL     OW28973   2.961   3.846   6.534
 3944SOL    HW128974   2.929   3.791   6.606
 3944SOL    HW228975   3.032   3.897   6.573
 3945SOL     OW28976   0.604   1.077   6.429
 3945SOL    HW128977   0.623   1.000   6.483
 3945SOL    HW228978   0.680   1.134   6.441
 3946SOL     OW28979   1.242   5.762   5.916
 3946SOL    HW128980   1.195   5.721   5.989
 3946SOL    HW228981   1.182   5.756   5.842
 3947SOL     OW28982   3.639   6.035   0.371
 3947SOL    HW128983   3.666   5.947   0.396
 3947SOL    HW228984   3.583   6.023   0.295
 3948SOL     OW28985   1.960   2.433   6.261
 3948SOL    HW128986   1.899   2.398   6.196
 3948SOL    HW228987   2.047   2.407   6.228
 3949SOL     OW28988   5.179   4.511   1.259
 3949SOL    HW128989   5.136   4.435   1.299
 3949SOL    HW228990   5.157   4.584   1.317
 3950SOL     OW28991   1.030   0.254   0.931
 3950SOL    HW128992   0.973   0.330   0.943
 3950SOL    HW228993   0.969   0.180   0.919
 3951SOL     OW28994   4.410   2.339   7.544
 3951SOL    HW128995   4.395   2.270   7.609
 3951SOL    HW228996   4.322   2.360   7.512
 3952SOL     OW28997   6.266   0.680   0.216
 3952SOL    HW128998   6.261   0.701   0.123
 3952SOL    HW228999   6.308   0.756   0.256
 3953SOL     OW29000   1.477   2.753   0.088
 3953SOL    HW129001   1.545   2.737   0.153
 3953SOL    HW229002   1.414   2.811   0.132
 3954SOL     OW29003   2.511   3.527   0.408
 3954SOL    HW129004   2.503   3.615   0.371
 3954SOL    HW229005   2.601   3.521   0.438
 3955SOL     OW29006   1.292   0.254   0.176
 3955SOL    HW129007   1.215   0.198   0.172
 3955SOL    HW229008   1.348   0.223   0.105
 3956SOL     OW29009   4.231   2.881   0.836
 3956SOL    HW129010   4.221   2.829   0.756
 3956SOL    HW229011   4.153   2.937   0.838
 3957SOL     OW29012   4.820   1.663   2.286
 3957SOL    HW129013   4.872   1.612   2.349
 3957SOL    HW229014   4.752   1.603   2.257
 3958SOL     OW29015   5.517   0.854   7.503
 3958SOL    HW129016   5.579   0.861   7.576
 3958SOL    HW229017   5.522   0.762   7.477
 3959SOL     OW29018   2.332   4.355   2.799
 3959SOL    HW129019   2.283   4.346   2.717
 3959SOL    HW229020   2.396   4.423   2.781
 3960SOL     OW29021   2.227   4.495   5.483
 3960SOL    HW129022   2.207   4.584   5.511
 3960SOL    HW229023   2.143   4.457   5.459
 3961SOL     OW29024   5.349   4.562   7.483
 3961SOL    HW129025   5.426   4.518   7.518
 3961SOL    HW229026   5.279   4.542   7.545
 3962SOL     OW29027   5.243   3.659   6.424
 3962SOL    HW129028   5.227   3.630   6.334
 3962SOL    HW229029   5.274   3.749   6.415
 3963SOL     OW29030   4.407   2.665   0.414
 3963SOL    HW129031   4.481   2.703   0.461
 3963SOL    HW229032   4.331   2.689   0.467
 3964SOL     OW29033   4.922   5.323   6.324
 3964SOL    HW129034   4.948   5.284   6.241
 3964SOL    HW229035   4.958   5.412   6.322
 3965SOL     OW29036   3.918   3.849   5.306
 3965SOL    HW129037   3.843   3.907   5.303
 3965SOL    HW229038   3.990   3.903   5.337
 3966SOL     OW29039   0.687   4.576   7.656
 3966SOL    HW129040   0.690   4.672   7.663
 3966SOL    HW229041   0.770   4.553   7.614
 3967SOL     OW29042   1.302   5.736   5.558
 3967SOL    HW129043   1.343   5.735   5.472
 3967SOL    HW229044   1.359   5.791   5.611
 3968SOL     OW29045   0.249   4.642   0.447
 3968SOL    HW129046   0.182   4.695   0.490
 3968SOL    HW229047   0.230   4.552   0.476
 3969SOL     OW29048   1.639   3.582   6.445
 3969SOL    HW129049   1.576   3.654   6.436
 3969SOL    HW229050   1.619   3.543   6.530
 3970SOL     OW29051   2.911   2.129   6.440
 3970SOL    HW129052   2.824   2.167   6.455
 3970SOL    HW229053   2.903   2.084   6.356
 3971SOL     OW29054   2.429   4.623   1.903
 3971SOL    HW129055   2.462   4.601   1.991
 3971SOL    HW229056   2.461   4.712   1.887
 3972SOL     OW29057   4.756   3.487   7.612
 3972SOL    HW129058   4.698   3.563   7.607
 3972SOL    HW229059   4.712   3.419   7.561
 3973SOL     OW29060   4.279   0.794   6.501
 3973SOL    HW129061   4.344   0.837   6.446
 3973SOL    HW229062   4.299   0.700   6.492
 3974SOL     OW29063   1.759   0.571   0.468
 3974SOL    HW129064   1.699   0.586   0.395
 3974SOL    HW229065   1.807   0.653   0.477
 3975SOL     OW29066   2.674   4.949   0.541
 3975SOL    HW129067   2.638   4.956   0.630
 3975SOL    HW229068   2.605   4.905   0.491
 3976SOL     OW29069   1.147   1.940   6.401
 3976SOL    HW129070   1.136   2.029   6.435
 3976SOL    HW229071   1.104   1.942   6.315
 3977SOL     OW29072   5.486   2.687   1.671
 3977SOL    HW129073   5.527   2.770   1.694
 3977SOL    HW229074   5.418   2.675   1.738
 3978SOL     OW29075   4.245   1.239   0.880
 3978SOL    HW129076   4.332   1.205   0.858
 3978SOL    HW229077   4.185   1.192   0.821
 3979SOL     OW29078   4.840   1.277   7.320
 3979SOL    HW129079   4.931   1.290   7.293
 3979SOL    HW229080   4.819   1.188   7.290
 3980SOL     OW29081   3.966   5.034   7.386
 3980SOL    HW129082   3.945   5.128   7.390
 3980SOL    HW229083   3.920   5.002   7.309
 3981SOL     OW29084   1.385   1.845   6.910
 3981SOL    HW129085   1.376   1.873   7.000
 3981SOL    HW229086   1.367   1.923   6.858
 3982SOL     OW29087   0.401   5.018   7.184
 3982SOL    HW129088   0.430   5.032   7.094
 3982SOL    HW229089   0.427   4.928   7.204
 3983SOL     OW29090   6.272   1.805   1.376
 3983SOL    HW129091   6.214   1.729   1.362
 3983SOL    HW229092   6.331   1.777   1.446
 3984SOL     OW29093   1.774   0.338   5.827
 3984SOL    HW129094   1.799   0.248   5.807
 3984SOL    HW229095   1.695   0.354   5.775
 3985SOL     OW29096   0.630   6.308   6.479
 3985SOL    HW129097   0.668   6.379   6.428
 3985SOL    HW229098   0.551   6.283   6.430
 3986SOL     OW29099   4.677   0.741   1.345
 3986SOL    HW129100   4.676   0.836   1.359
 3986SOL    HW229101   4.761   0.724   1.302
 3987SOL     OW29102   5.370   5.531   0.591
 3987SOL    HW129103   5.348   5.609   0.540
 3987SOL    HW229104   5.295   5.520   0.650
 3988SOL     OW29105   0.379   2.678   2.124
 3988SOL    HW129106   0.443   2.748   2.135
 3988SOL    HW229107   0.305   2.720   2.079
 3989SOL     OW29108   4.159   2.456   7.497
 3989SOL    HW129109   4.157   2.532   7.555
 3989SOL    HW229110   4.089   2.471   7.435
 3990SOL     OW29111   2.548   2.396   1.122
 3990SOL    HW129112   2.505   2.430   1.044
 3990SOL    HW229113   2.497   2.318   1.144
 3991SOL     OW29114   3.408   5.102   6.504
 3991SOL    HW129115   3.401   5.046   6.427
 3991SOL    HW229116   3.320   5.140   6.513
 3992SOL     OW29117   5.287   3.461   0.317
 3992SOL    HW129118   5.282   3.490   0.226
 3992SOL    HW229119   5.310   3.539   0.366
 3993SOL     OW29120   3.745   6.448   0.626
 3993SOL    HW129121   3.755   6.363   0.583
 3993SOL    HW229122   3.834   6.475   0.647
 3994SOL     OW29123   6.080   5.175   6.284
 3994SOL    HW129124   6.155   5.120   6.262
 3994SOL    HW229125   6.005   5.131   6.244
 3995SOL     OW29126   0.519   0.250   6.998
 3995SOL    HW129127   0.576   0.224   7.071
 3995SOL    HW229128   0.447   0.188   7.000
 3996SOL     OW29129   0.155   5.569   6.200
 3996SOL    HW129130   0.212   5.504   6.159
 3996SOL    HW229131   0.171   5.560   6.294
 3997SOL     OW29132   4.192   5.023   7.563
 3997SOL    HW129133   4.117   5.014   7.505
 3997SOL    HW229134   4.210   5.117   7.564
 3998SOL     OW29135   3.627   4.287   5.485
 3998SOL    HW129136   3.682   4.365   5.488
 3998SOL    HW229137   3.547   4.315   5.440
 3999SOL     OW29138   5.836   4.332   7.126
 3999SOL    HW129139   5.782   4.392   7.075
 3999SOL    HW229140   5.794   4.329   7.212
 4000SOL     OW29141   0.439   0.321   5.490
 4000SOL    HW129142   0.492   0.367   5.555
 4000SOL    HW229143   0.358   0.371   5.485
 4001SOL     OW29144   6.033   2.919   0.940
 4001SOL    HW129145   5.943   2.944   0.963
 4001SOL    HW229146   6.042   2.830   0.973
 4002SOL     OW29147   4.089   1.060   2.343
 4002SOL    HW129148   4.111   0.969   2.322
 4002SOL    HW229149   3.999   1.070   2.311
 4003SOL     OW29150   0.715   4.137   5.904
 4003SOL    HW129151   0.724   4.077   5.830
 4003SOL    HW229152   0.716   4.224   5.865
 4004SOL     OW29153   3.779   5.121   0.373
 4004SOL    HW129154   3.796   5.189   0.438
 4004SOL    HW229155   3.786   5.039   0.423
 4005SOL     OW29156   1.694   3.695   7.685
 4005SOL    HW129157   1.626   3.717   7.622
 4005SOL    HW229158   1.728   3.610   7.656
 4006SOL     OW29159   4.696   4.520   6.714
 4006SOL    HW129160   4.743   4.562   6.785
 4006SOL    HW229161   4.630   4.584   6.687
 4007SOL     OW29162   2.952   1.223   7.152
 4007SOL    HW129163   2.895   1.150   7.175
 4007SOL    HW229164   2.915   1.298   7.198
 4008SOL     OW29165   4.221   5.446   6.785
 4008SOL    HW129166   4.301   5.499   6.787
 4008SOL    HW229167   4.174   5.472   6.865
 4009SOL     OW29168   3.366   5.472   6.682
 4009SOL    HW129169   3.278   5.490   6.713
 4009SOL    HW229170   3.415   5.552   6.702
 4010SOL     OW29171   4.576   6.044   1.091
 4010SOL    HW129172   4.633   6.054   1.168
 4010SOL    HW229173   4.531   6.128   1.085
 4011SOL     OW29174   1.770   1.589   1.264
 4011SOL    HW129175   1.829   1.523   1.227
 4011SOL    HW229176   1.687   1.543   1.274
 4012SOL     OW29177   0.867   6.040   6.863
 4012SOL    HW129178   0.793   6.092   6.829
 4012SOL    HW229179   0.897   5.990   6.787
 4013SOL     OW29180   1.982   2.280   7.084
 4013SOL    HW129181   1.936   2.254   7.164
 4013SOL    HW229182   1.989   2.200   7.032
 4014SOL     OW29183   5.824   3.024   7.580
 4014SOL    HW129184   5.745   2.970   7.582
 4014SOL    HW229185   5.844   3.034   7.487
 4015SOL     OW29186   5.136   5.923   7.100
 4015SOL    HW129187   5.112   5.981   7.172
 4015SOL    HW229188   5.165   5.982   7.030
 4016SOL     OW29189   0.558   2.581   1.344
 4016SOL    HW129190   0.513   2.579   1.428
 4016SOL    HW229191   0.582   2.673   1.331
 4017SOL     OW29192   0.968   1.557   6.266
 4017SOL    HW129193   0.912   1.628   6.234
 4017SOL    HW229194   0.940   1.481   6.215
 4018SOL     OW29195   1.258   1.049   1.616
 4018SOL    HW129196   1.307   1.054   1.699
 4018SOL    HW229197   1.266   0.957   1.591
 4019SOL     OW29198   1.983   5.876   6.260
 4019SOL    HW129199   1.901   5.924   6.271
 4019SOL    HW229200   2.016   5.903   6.175
 4020SOL     OW29201   2.879   5.026   0.819
 4020SOL    HW129202   2.889   4.959   0.752
 4020SOL    HW229203   2.930   5.100   0.787
 4021SOL     OW29204   4.456   0.683   1.642
 4021SOL    HW129205   4.409   0.617   1.694
 4021SOL    HW229206   4.489   0.634   1.566
 4022SOL     OW29207   5.774   1.749   0.739
 4022SOL    HW129208   5.701   1.732   0.680
 4022SOL    HW229209   5.850   1.710   0.695
 4023SOL     OW29210   1.890   2.559   1.817
 4023SOL    HW129211   1.827   2.629   1.800
 4023SOL    HW229212   1.896   2.510   1.735
 4024SOL     OW29213   5.000   1.993   1.395
 4024SOL    HW129214   5.052   1.968   1.471
 4024SOL    HW229215   4.912   2.007   1.430
 4025SOL     OW29216   5.524   3.814   7.762
 4025SOL    HW129217   5.517   3.893   7.708
 4025SOL    HW229218   5.436   3.804   7.801
 4026SOL     OW29219   3.848   4.898   6.373
 4026SOL    HW129220   3.814   4.962   6.310
 4026SOL    HW229221   3.931   4.935   6.403
 4027SOL     OW29222   1.045   4.168   1.574
 4027SOL    HW129223   1.044   4.256   1.611
 4027SOL    HW229224   0.953   4.139   1.580
 4028SOL     OW29225   3.532   6.262   0.157
 4028SOL    HW129226   3.544   6.168   0.153
 4028SOL    HW229227   3.529   6.290   0.065
 4029SOL     OW29228   5.041   3.706   0.199
 4029SOL    HW129229   5.028   3.611   0.198
 4029SOL    HW229230   5.058   3.726   0.291
 4030SOL     OW29231   3.261   4.108   1.699
 4030SOL    HW129232   3.180   4.061   1.680
 4030SOL    HW229233   3.234   4.181   1.755
 4031SOL     OW29234   1.416   2.460   0.955
 4031SOL    HW129235   1.326   2.450   0.923
 4031SOL    HW229236   1.427   2.554   0.966
 4032SOL     OW29237   0.943   5.543   7.311
 4032SOL    HW129238   0.861   5.533   7.359
 4032SOL    HW229239   0.963   5.637   7.316
 4033SOL     OW29240   5.993   5.774   0.957
 4033SOL    HW129241   5.911   5.822   0.943
 4033SOL    HW229242   6.022   5.751   0.869
 4034SOL     OW29243   0.203   5.971   0.570
 4034SOL    HW129244   0.288   6.010   0.549
 4034SOL    HW229245   0.224   5.881   0.597
 4035SOL     OW29246   4.822   3.196   0.263
 4035SOL    HW129247   4.759   3.174   0.333
 4035SOL    HW229248   4.907   3.190   0.305
 4036SOL     OW29249   5.113   2.034   2.117
 4036SOL    HW129250   5.068   2.054   2.035
 4036SOL    HW229251   5.165   2.112   2.136
 4037SOL     OW29252   3.302   1.119   5.526
 4037SOL    HW129253   3.361   1.175   5.577
 4037SOL    HW229254   3.214   1.150   5.549
 4038SOL     OW29255   0.923   4.881   2.010
 4038SOL    HW129256   1.011   4.896   1.975
 4038SOL    HW229257   0.865   4.920   1.945
 4039SOL     OW29258   6.115   4.492   7.275
 4039SOL    HW129259   6.078   4.404   7.282
 4039SOL    HW229260   6.061   4.536   7.209
 4040SOL     OW29261   4.302   3.743   6.866
 4040SOL    HW129262   4.271   3.755   6.956
 4040SOL    HW229263   4.344   3.826   6.843
 4041SOL     OW29264   3.627   2.522   0.060
 4041SOL    HW129265   3.620   2.427   0.068
 4041SOL    HW229266   3.633   2.537  -0.034
 4042SOL     OW29267   4.093   3.949   0.899
 4042SOL    HW129268   4.062   3.950   0.990
 4042SOL    HW229269   4.017   3.975   0.847
 4043SOL     OW29270   3.862   5.583   1.351
 4043SOL    HW129271   3.910   5.568   1.270
 4043SOL    HW229272   3.770   5.586   1.325
 4044SOL     OW29273   6.366   4.174   0.803
 4044SOL    HW129274   6.445   4.228   0.797
 4044SOL    HW229275   6.340   4.161   0.711
 4045SOL     OW29276   2.337   1.164   6.362
 4045SOL    HW129277   2.429   1.144   6.380
 4045SOL    HW229278   2.325   1.140   6.270
 4046SOL     OW29279   2.641   0.673   1.607
 4046SOL    HW129280   2.628   0.719   1.525
 4046SOL    HW229281   2.581   0.714   1.669
 4047SOL     OW29282   5.741   2.427   7.055
 4047SOL    HW129283   5.802   2.490   7.092
 4047SOL    HW229284   5.780   2.342   7.075
 4048SOL     OW29285   6.236   4.646   0.552
 4048SOL    HW129286   6.225   4.553   0.533
 4048SOL    HW229287   6.194   4.658   0.637
 4049SOL     OW29288   5.582   5.153   7.619
 4049SOL    HW129289   5.587   5.139   7.525
 4049SOL    HW229290   5.513   5.093   7.649
 4050SOL     OW29291   0.435   3.205   0.599
 4050SOL    HW129292   0.372   3.267   0.563
 4050SOL    HW229293   0.385   3.156   0.664
 4051SOL     OW29294   0.482   1.050   0.805
 4051SOL    HW129295   0.429   1.100   0.866
 4051SOL    HW229296   0.547   1.005   0.860
 4052SOL     OW29297   5.851   4.477   6.241
 4052SOL    HW129298   5.887   4.493   6.154
 4052SOL    HW229299   5.757   4.479   6.229
 4053SOL     OW29300   4.507   2.874   7.128
 4053SOL    HW129301   4.446   2.857   7.056
 4053SOL    HW229302   4.511   2.969   7.135
 4054SOL     OW29303   6.345   1.671   6.888
 4054SOL    HW129304   6.373   1.613   6.817
 4054SOL    HW229305   6.424   1.686   6.940
 4055SOL     OW29306   2.321   0.842   6.135
 4055SOL    HW129307   2.309   0.789   6.056
 4055SOL    HW229308   2.295   0.931   6.109
 4056SOL     OW29309   0.125   3.617   1.720
 4056SOL    HW129310   0.200   3.672   1.744
 4056SOL    HW229311   0.098   3.576   1.802
 4057SOL     OW29312   4.025   5.373   0.036
 4057SOL    HW129313   4.050   5.309   0.102
 4057SOL    HW229314   4.086   5.358  -0.037
 4058SOL     OW29315   1.014   1.330   0.353
 4058SOL    HW129316   0.974   1.244   0.338
 4058SOL    HW229317   0.970   1.364   0.431
 4059SOL     OW29318   6.376   1.059   1.796
 4059SOL    HW129319   6.445   1.101   1.744
 4059SOL    HW229320   6.295   1.102   1.769
 4060SOL     OW29321   5.466   3.299   7.290
 4060SOL    HW129322   5.468   3.355   7.367
 4060SOL    HW229323   5.415   3.349   7.225
 4061SOL     OW29324   3.257   3.829   1.233
 4061SOL    HW129325   3.169   3.849   1.203
 4061SOL    HW229326   3.312   3.893   1.189
 4062SOL     OW29327   3.365   0.267   1.106
 4062SOL    HW129328   3.296   0.287   1.043
 4062SOL    HW229329   3.323   0.276   1.192
 4063SOL     OW29330   6.413   5.834   6.983
 4063SOL    HW129331   6.495   5.876   7.009
 4063SOL    HW229332   6.347   5.875   7.039
 4064SOL     OW29333   2.335   4.000   2.358
 4064SOL    HW129334   2.401   3.931   2.365
 4064SOL    HW229335   2.381   4.081   2.381
 4065SOL     OW29336   3.082   2.682   0.995
 4065SOL    HW129337   3.086   2.647   1.084
 4065SOL    HW229338   3.160   2.648   0.952
 4066SOL     OW29339   6.184   0.252   7.684
 4066SOL    HW129340   6.130   0.178   7.713
 4066SOL    HW229341   6.240   0.215   7.615
 4067SOL     OW29342   5.388   2.023   7.282
 4067SOL    HW129343   5.309   2.073   7.263
 4067SOL    HW229344   5.382   1.945   7.227
 4068SOL     OW29345   1.431   3.800   1.499
 4068SOL    HW129346   1.374   3.876   1.501
 4068SOL    HW229347   1.394   3.740   1.564
 4069SOL     OW29348   6.178   1.165   6.330
 4069SOL    HW129349   6.160   1.258   6.319
 4069SOL    HW229350   6.218   1.158   6.417
 4070SOL     OW29351   3.367   5.663   1.311
 4070SOL    HW129352   3.283   5.620   1.297
 4070SOL    HW229353   3.347   5.756   1.311
 4071SOL     OW29354   0.993   5.241   7.496
 4071SOL    HW129355   1.019   5.189   7.573
 4071SOL    HW229356   0.937   5.182   7.446
 4072SOL     OW29357   1.722   3.388   1.023
 4072SOL    HW129358   1.670   3.394   0.944
 4072SOL    HW229359   1.739   3.479   1.048
 4073SOL     OW29360   5.626   5.561   6.346
 4073SOL    HW129361   5.634   5.626   6.415
 4073SOL    HW229362   5.622   5.612   6.265
 4074SOL     OW29363   3.536   0.594   0.320
 4074SOL    HW129364   3.452   0.553   0.341
 4074SOL    HW229365   3.586   0.526   0.275
 4075SOL     OW29366   5.092   3.418   0.532
 4075SOL    HW129367   5.145   3.403   0.611
 4075SOL    HW229368   5.131   3.362   0.466
 4076SOL     OW29369   6.025   2.003   1.472
 4076SOL    HW129370   6.102   1.958   1.505
 4076SOL    HW229371   6.040   2.009   1.377
 4077SOL     OW29372   3.888   5.287   6.426
 4077SOL    HW129373   3.856   5.280   6.336
 4077SOL    HW229374   3.809   5.281   6.480
 4078SOL     OW29375   2.083   0.120   5.423
 4078SOL    HW129376   2.048   0.055   5.485
 4078SOL    HW229377   2.072   0.079   5.337
 4079SOL     OW29378   0.454   4.051   1.974
 4079SOL    HW129379   0.449   3.965   2.016
 4079SOL    HW229380   0.439   4.033   1.881
 4080SOL     OW29381   1.820   6.057   1.263
 4080SOL    HW129382   1.883   6.003   1.214
 4080SOL    HW229383   1.786   6.118   1.198
 4081SOL     OW29384   4.873   1.593   1.483
 4081SOL    HW129385   4.873   1.515   1.426
 4081SOL    HW229386   4.925   1.568   1.559
 4082SOL     OW29387   6.090   6.324   1.610
 4082SOL    HW129388   6.146   6.301   1.684
 4082SOL    HW229389   6.011   6.270   1.622
 4083SOL     OW29390   2.703   2.622   1.192
 4083SOL    HW129391   2.640   2.633   1.264
 4083SOL    HW229392   2.677   2.541   1.150
 4084SOL     OW29393   3.292   3.352   5.915
 4084SOL    HW129394   3.355   3.377   5.847
 4084SOL    HW229395   3.213   3.330   5.866
 4085SOL     OW29396   3.432   5.638   6.962
 4085SOL    HW129397   3.506   5.651   6.902
 4085SOL    HW229398   3.435   5.713   7.021
 4086SOL     OW29399   4.948   1.734   5.949
 4086SOL    HW129400   4.861   1.773   5.952
 4086SOL    HW229401   4.973   1.721   6.040
 4087SOL     OW29402   2.347   4.580   6.024
 4087SOL    HW129403   2.337   4.668   5.988
 4087SOL    HW229404   2.335   4.522   5.949
 4088SOL     OW29405   5.914   4.221   5.937
 4088SOL    HW129406   5.884   4.144   5.889
 4088SOL    HW229407   5.898   4.201   6.029
 4089SOL     OW29408   4.188   0.420   6.570
 4089SOL    HW129409   4.256   0.472   6.529
 4089SOL    HW229410   4.110   0.436   6.516
 4090SOL     OW29411   1.333   5.875   2.445
 4090SOL    HW129412   1.366   5.795   2.486
 4090SOL    HW229413   1.352   5.864   2.352
 4091SOL     OW29414   6.120   3.796   1.752
 4091SOL    HW129415   6.178   3.852   1.803
 4091SOL    HW229416   6.120   3.835   1.665
 4092SOL     OW29417   4.532   1.754   6.382
 4092SOL    HW129418   4.606   1.741   6.322
 4092SOL    HW229419   4.574   1.768   6.467
 4093SOL     OW29420   0.045   5.469   1.468
 4093SOL    HW129421   0.058   5.431   1.555
 4093SOL    HW229422   0.010   5.396   1.416
 4094SOL     OW29423   4.634   2.808   5.868
 4094SOL    HW129424   4.639   2.860   5.948
 4094SOL    HW229425   4.626   2.872   5.797
 4095SOL     OW29426   1.885   4.885   2.027
 4095SOL    HW129427   1.804   4.875   1.978
 4095SOL    HW229428   1.916   4.796   2.041
 4096SOL     OW29429   3.329   2.702   6.427
 4096SOL    HW129430   3.397   2.768   6.442
 4096SOL    HW229431   3.368   2.644   6.362
 4097SOL     OW29432   6.281   0.387   1.233
 4097SOL    HW129433   6.305   0.370   1.142
 4097SOL    HW229434   6.342   0.333   1.284
 4098SOL     OW29435   1.902   3.832   6.156
 4098SOL    HW129436   1.996   3.816   6.156
 4098SOL    HW229437   1.877   3.827   6.064
 4099SOL     OW29438   5.729   3.645   7.724
 4099SOL    HW129439   5.695   3.557   7.741
 4099SOL    HW229440   5.653   3.702   7.734
 4100SOL     OW29441   3.257   5.021   2.217
 4100SOL    HW129442   3.277   5.113   2.202
 4100SOL    HW229443   3.343   4.980   2.231
 4101SOL     OW29444   0.270   0.295   0.651
 4101SOL    HW129445   0.285   0.389   0.666
 4101SOL    HW229446   0.358   0.258   0.640
 4102SOL     OW29447   5.528   5.488   7.637
 4102SOL    HW129448   5.613   5.477   7.680
 4102SOL    HW229449   5.514   5.405   7.591
 4103SOL     OW29450   0.778   4.834   7.443
 4103SOL    HW129451   0.753   4.921   7.412
 4103SOL    HW229452   0.778   4.780   7.365
 4104SOL     OW29453   5.609   3.107   2.380
 4104SOL    HW129454   5.540   3.142   2.325
 4104SOL    HW229455   5.564   3.072   2.457
 4105SOL     OW29456   4.758   6.193   6.646
 4105SOL    HW129457   4.709   6.272   6.625
 4105SOL    HW229458   4.776   6.152   6.561
 4106SOL     OW29459   0.603   2.747   1.745
 4106SOL    HW129460   0.519   2.728   1.787
 4106SOL    HW229461   0.667   2.743   1.815
 4107SOL     OW29462   1.246   5.533   0.650
 4107SOL    HW129463   1.153   5.540   0.675
 4107SOL    HW229464   1.285   5.614   0.683
 4108SOL     OW29465   5.038   4.474   7.124
 4108SOL    HW129466   4.994   4.549   7.085
 4108SOL    HW229467   5.064   4.420   7.050
 4109SOL     OW29468   0.301   4.330   0.164
 4109SOL    HW129469   0.287   4.257   0.104
 4109SOL    HW229470   0.362   4.388   0.118
 4110SOL     OW29471   0.292   5.727   7.235
 4110SOL    HW129472   0.312   5.710   7.327
 4110SOL    HW229473   0.274   5.821   7.231
 4111SOL     OW29474   2.935   3.379   0.698
 4111SOL    HW129475   2.881   3.369   0.776
 4111SOL    HW229476   2.888   3.331   0.629
 4112SOL     OW29477   1.756   4.424   0.038
 4112SOL    HW129478   1.695   4.400  -0.032
 4112SOL    HW229479   1.774   4.517   0.023
 4113SOL     OW29480   0.536   5.010   0.462
 4113SOL    HW129481   0.536   4.965   0.546
 4113SOL    HW229482   0.476   5.084   0.474
 4114SOL     OW29483   6.220   2.669   7.072
 4114SOL    HW129484   6.256   2.684   6.985
 4114SOL    HW229485   6.134   2.710   7.070
 4115SOL     OW29486   6.140   6.167   7.359
 4115SOL    HW129487   6.083   6.100   7.321
 4115SOL    HW229488   6.086   6.246   7.361
 4116SOL     OW29489   1.077   0.490   1.368
 4116SOL    HW129490   1.004   0.441   1.407
 4116SOL    HW229491   1.101   0.440   1.290
 4117SOL     OW29492   1.775   3.516   1.406
 4117SOL    HW129493   1.868   3.501   1.390
 4117SOL    HW229494   1.737   3.428   1.403
 4118SOL     OW29495   0.266   5.843   7.509
 4118SOL    HW129496   0.307   5.877   7.589
 4118SOL    HW229497   0.242   5.753   7.531
 4119SOL     OW29498   1.617   3.908   0.438
 4119SOL    HW129499   1.664   3.992   0.432
 4119SOL    HW229500   1.676   3.845   0.398
 4120SOL     OW29501   0.318   2.544   7.708
 4120SOL    HW129502   0.345   2.573   7.795
 4120SOL    HW229503   0.337   2.618   7.651
 4121SOL     OW29504   3.624   0.212   6.404
 4121SOL    HW129505   3.717   0.223   6.387
 4121SOL    HW229506   3.612   0.117   6.413
 4122SOL     OW29507   3.507   3.216   6.618
 4122SOL    HW129508   3.518   3.291   6.676
 4122SOL    HW229509   3.512   3.253   6.530
 4123SOL     OW29510   0.678   3.246   1.629
 4123SOL    HW129511   0.630   3.169   1.659
 4123SOL    HW229512   0.670   3.244   1.534
 4124SOL     OW29513   6.350   3.888   1.892
 4124SOL    HW129514   6.349   3.983   1.890
 4124SOL    HW229515   6.418   3.866   1.955
 4125SOL     OW29516   1.824   1.062   7.372
 4125SOL    HW129517   1.762   1.080   7.443
 4125SOL    HW229518   1.803   1.127   7.305
 4126SOL     OW29519   2.252   4.550   7.171
 4126SOL    HW129520   2.260   4.502   7.089
 4126SOL    HW229521   2.223   4.485   7.235
 4127SOL     OW29522   2.106   2.444   7.631
 4127SOL    HW129523   2.074   2.401   7.710
 4127SOL    HW229524   2.201   2.430   7.633
 4128SOL     OW29525   4.831   4.829   0.089
 4128SOL    HW129526   4.856   4.742   0.121
 4128SOL    HW229527   4.783   4.811   0.008
 4129SOL     OW29528   4.971   5.104   7.129
 4129SOL    HW129529   4.965   5.199   7.134
 4129SOL    HW229530   4.889   5.076   7.088
 4130SOL     OW29531   6.242   3.039   6.233
 4130SOL    HW129532   6.204   2.959   6.268
 4130SOL    HW229533   6.169   3.102   6.232
 4131SOL     OW29534   1.538   0.774   0.835
 4131SOL    HW129535   1.523   0.736   0.922
 4131SOL    HW229536   1.501   0.862   0.841
 4132SOL     OW29537   4.066   1.989   6.361
 4132SOL    HW129538   3.977   1.990   6.396
 4132SOL    HW229539   4.065   2.055   6.292
 4133SOL     OW29540   1.317   1.606   1.154
 4133SOL    HW129541   1.261   1.547   1.203
 4133SOL    HW229542   1.306   1.580   1.062
 4134SOL     OW29543   2.904   4.207   1.815
 4134SOL    HW129544   2.938   4.277   1.870
 4134SOL    HW229545   2.813   4.232   1.799
 4135SOL     OW29546   2.962   4.331   6.868
 4135SOL    HW129547   2.986   4.279   6.945
 4135SOL    HW229548   3.042   4.380   6.848
 4136SOL     OW29549   3.421   2.789   2.418
 4136SOL    HW129550   3.362   2.864   2.420
 4136SOL    HW229551   3.469   2.799   2.335
 4137SOL     OW29552   1.731   2.125   7.315
 4137SOL    HW129553   1.781   2.063   7.368
 4137SOL    HW229554   1.732   2.206   7.367
 4138SOL     OW29555   4.710   0.984   6.446
 4138SOL    HW129556   4.707   0.890   6.466
 4138SOL    HW229557   4.633   1.000   6.393
 4139SOL     OW29558   3.733   5.921   6.790
 4139SOL    HW129559   3.755   5.943   6.700
 4139SOL    HW229560   3.719   6.005   6.833
 4140SOL     OW29561   2.790   1.479   6.216
 4140SOL    HW129562   2.793   1.425   6.137
 4140SOL    HW229563   2.802   1.417   6.288
 4141SOL     OW29564   0.346   0.925   0.037
 4141SOL    HW129565   0.363   0.859   0.105
 4141SOL    HW229566   0.370   1.009   0.078
 4142SOL     OW29567   5.544   1.883   6.796
 4142SOL    HW129568   5.617   1.854   6.742
 4142SOL    HW229569   5.517   1.805   6.845
 4143SOL     OW29570   2.031   3.520   7.496
 4143SOL    HW129571   2.122   3.495   7.486
 4143SOL    HW229572   2.028   3.612   7.469
 4144SOL     OW29573   0.880   5.581   0.895
 4144SOL    HW129574   0.830   5.560   0.974
 4144SOL    HW229575   0.921   5.499   0.869
 4145SOL     OW29576   0.528   3.418   0.063
 4145SOL    HW129577   0.593   3.483   0.087
 4145SOL    HW229578   0.453   3.437   0.120
 4146SOL     OW29579   4.482   3.295   6.925
 4146SOL    HW129580   4.410   3.353   6.947
 4146SOL    HW229581   4.448   3.238   6.856
 4147SOL     OW29582   5.123   2.827   6.906
 4147SOL    HW129583   5.191   2.782   6.855
 4147SOL    HW229584   5.041   2.798   6.867
 4148SOL     OW29585   3.687   3.716   6.612
 4148SOL    HW129586   3.689   3.682   6.702
 4148SOL    HW229587   3.606   3.767   6.608
 4149SOL     OW29588   0.170   1.044   7.637
 4149SOL    HW129589   0.173   1.132   7.675
 4149SOL    HW229590   0.218   0.989   7.699
 4150SOL     OW29591   3.388   0.108   5.474
 4150SOL    HW129592   3.325   0.095   5.403
 4150SOL    HW229593   3.383   0.201   5.494
 4151SOL     OW29594   0.528   0.974   6.701
 4151SOL    HW129595   0.596   1.036   6.729
 4151SOL    HW229596   0.522   0.910   6.773
 4152SOL     OW29597   5.690   4.332   0.279
 4152SOL    HW129598   5.654   4.283   0.205
 4152SOL    HW229599   5.762   4.277   0.311
 4153SOL     OW29600   1.763   5.562   6.938
 4153SOL    HW129601   1.677   5.529   6.965
 4153SOL    HW229602   1.748   5.598   6.851
 4154SOL     OW29603   5.181   1.740   0.582
 4154SOL    HW129604   5.258   1.689   0.607
 4154SOL    HW229605   5.141   1.765   0.665
 4155SOL     OW29606   6.191   4.636   6.679
 4155SOL    HW129607   6.186   4.545   6.708
 4155SOL    HW229608   6.136   4.684   6.741
 4156SOL     OW29609   2.035   5.468   0.141
 4156SOL    HW129610   2.054   5.557   0.169
 4156SOL    HW229611   1.939   5.463   0.140
 4157SOL     OW29612   2.250   2.650   6.426
 4157SOL    HW129613   2.208   2.667   6.511
 4157SOL    HW229614   2.212   2.567   6.396
 4158SOL     OW29615   2.237   2.459   6.135
 4158SOL    HW129616   2.172   2.526   6.116
 4158SOL    HW229617   2.320   2.497   6.107
 4159SOL     OW29618   5.678   1.441   6.329
 4159SOL    HW129619   5.629   1.372   6.284
 4159SOL    HW229620   5.682   1.513   6.265
 4160SOL     OW29621   5.552   4.505   7.654
 4160SOL    HW129622   5.621   4.540   7.599
 4160SOL    HW229623   5.533   4.574   7.717
 4161SOL     OW29624   4.603   3.929   7.562
 4161SOL    HW129625   4.550   3.956   7.637
 4161SOL    HW229626   4.638   4.010   7.527
 4162SOL     OW29627   2.865   4.597   0.499
 4162SOL    HW129628   2.821   4.551   0.570
 4162SOL    HW229629   2.894   4.528   0.440
 4163SOL     OW29630   6.167   5.018   1.061
 4163SOL    HW129631   6.171   4.962   1.139
 4163SOL    HW229632   6.256   5.017   1.027
 4164SOL     OW29633   5.329   2.226   2.122
 4164SOL    HW129634   5.383   2.191   2.052
 4164SOL    HW229635   5.391   2.273   2.179
 4165SOL     OW29636   3.286   0.922   2.175
 4165SOL    HW129637   3.216   0.981   2.147
 4165SOL    HW229638   3.242   0.855   2.229
 4166SOL     OW29639   6.265   0.172   0.710
 4166SOL    HW129640   6.197   0.143   0.650
 4166SOL    HW229641   6.346   0.169   0.658
 4167SOL     OW29642   2.982   4.163   6.189
 4167SOL    HW129643   3.036   4.103   6.241
 4167SOL    HW229644   2.910   4.109   6.156
 4168SOL     OW29645   6.222   2.026   7.092
 4168SOL    HW129646   6.294   2.064   7.141
 4168SOL    HW229647   6.250   2.030   7.001
 4169SOL     OW29648   5.818   2.860   0.739
 4169SOL    HW129649   5.891   2.803   0.764
 4169SOL    HW229650   5.745   2.831   0.794
 4170SOL     OW29651   1.759   0.040   7.473
 4170SOL    HW129652   1.726   0.126   7.496
 4170SOL    HW229653   1.771   0.043   7.378
 4171SOL     OW29654   4.359   0.536   6.415
 4171SOL    HW129655   4.443   0.492   6.404
 4171SOL    HW229656   4.327   0.549   6.325
 4172SOL     OW29657   3.058   6.148   7.322
 4172SOL    HW129658   3.095   6.210   7.259
 4172SOL    HW229659   3.035   6.202   7.398
 4173SOL     OW29660   2.160   4.090   1.115
 4173SOL    HW129661   2.218   4.140   1.173
 4173SOL    HW229662   2.199   4.002   1.112
 4174SOL     OW29663   0.122   3.661   6.566
 4174SOL    HW129664   0.131   3.599   6.638
 4174SOL    HW229665   0.047   3.716   6.591
 4175SOL     OW29666   0.161   6.108   2.176
 4175SOL    HW129667   0.192   6.074   2.260
 4175SOL    HW229668   0.163   6.203   2.186
 4176SOL     OW29669   0.682   2.879   1.016
 4176SOL    HW129670   0.719   2.951   0.965
 4176SOL    HW229671   0.730   2.802   0.985
 4177SOL     OW29672   4.101   5.504   7.024
 4177SOL    HW129673   4.016   5.470   6.995
 4177SOL    HW229674   4.079   5.570   7.090
 4178SOL     OW29675   4.073   2.204   6.226
 4178SOL    HW129676   4.091   2.276   6.286
 4178SOL    HW229677   3.995   2.232   6.178
 4179SOL     OW29678   0.317   5.797   6.260
 4179SOL    HW129679   0.240   5.792   6.317
 4179SOL    HW229680   0.285   5.772   6.174
 4180SOL     OW29681   6.411   5.565   4.969
 4180SOL    HW129682   6.391   5.650   5.009
 4180SOL    HW229683   6.499   5.544   5.002
 4181SOL     OW29684   5.422   4.447   0.924
 4181SOL    HW129685   5.468   4.457   0.841
 4181SOL    HW229686   5.475   4.385   0.974
 4182SOL     OW29687   0.550   3.011   1.686
 4182SOL    HW129688   0.575   2.920   1.703
 4182SOL    HW229689   0.516   3.042   1.770
 4183SOL     OW29690   3.160   3.041   5.189
 4183SOL    HW129691   3.232   3.103   5.194
 4183SOL    HW229692   3.108   3.057   5.268
 4184SOL     OW29693   1.600   4.012   1.182
 4184SOL    HW129694   1.652   3.940   1.218
 4184SOL    HW229695   1.582   4.068   1.257
 4185SOL     OW29696   0.578   6.112   0.006
 4185SOL    HW129697   0.641   6.043   0.028
 4185SOL    HW229698   0.605   6.143  -0.080
 4186SOL     OW29699   1.537   3.572   7.045
 4186SOL    HW129700   1.498   3.543   7.127
 4186SOL    HW229701   1.514   3.665   7.040
 4187SOL     OW29702   4.842   2.001   0.810
 4187SOL    HW129703   4.829   2.096   0.811
 4187SOL    HW229704   4.762   1.967   0.770
 4188SOL     OW29705   4.847   2.829   6.876
 4188SOL    HW129706   4.780   2.834   6.943
 4188SOL    HW229707   4.807   2.869   6.799
 4189SOL     OW29708   6.286   2.059   1.234
 4189SOL    HW129709   6.354   2.070   1.167
 4189SOL    HW229710   6.304   1.974   1.273
 4190SOL     OW29711   5.190   5.060   6.474
 4190SOL    HW129712   5.108   5.103   6.497
 4190SOL    HW229713   5.217   5.103   6.392
 4191SOL     OW29714   4.436   5.352   1.122
 4191SOL    HW129715   4.412   5.379   1.211
 4191SOL    HW229716   4.521   5.395   1.106
 4192SOL     OW29717   4.611   3.708   1.158
 4192SOL    HW129718   4.544   3.656   1.114
 4192SOL    HW229719   4.647   3.765   1.090
 4193SOL     OW29720   1.050   4.409   0.984
 4193SOL    HW129721   1.116   4.443   1.045
 4193SOL    HW229722   1.099   4.357   0.921
 4194SOL     OW29723   3.352   5.881   0.331
 4194SOL    HW129724   3.389   5.905   0.246
 4194SOL    HW229725   3.275   5.827   0.309
 4195SOL     OW29726   5.879   3.752   0.671
 4195SOL    HW129727   5.921   3.678   0.627
 4195SOL    HW229728   5.836   3.713   0.747
 4196SOL     OW29729   4.570   4.074   0.730
 4196SOL    HW129730   4.515   4.007   0.770
 4196SOL    HW229731   4.627   4.026   0.670
 4197SOL     OW29732   1.765   4.049   0.131
 4197SOL    HW129733   1.680   4.093   0.144
 4197SOL    HW229734   1.827   4.121   0.117
 4198SOL     OW29735   1.827   0.924   6.951
 4198SOL    HW129736   1.789   0.856   6.895
 4198SOL    HW229737   1.872   0.983   6.891
 4199SOL     OW29738   4.969   4.172   7.555
 4199SOL    HW129739   4.956   4.087   7.513
 4199SOL    HW229740   5.023   4.221   7.493
 4200SOL     OW29741   0.316   3.584   6.888
 4200SOL    HW129742   0.300   3.509   6.944
 4200SOL    HW229743   0.276   3.561   6.804
 4201SOL     OW29744   1.586   3.346   1.595
 4201SOL    HW129745   1.647   3.277   1.571
 4201SOL    HW229746   1.590   3.350   1.691
 4202SOL     OW29747   2.792   1.288   1.795
 4202SOL    HW129748   2.817   1.356   1.858
 4202SOL    HW229749   2.714   1.323   1.751
 4203SOL     OW29750   1.338   1.224   1.094
 4203SOL    HW129751   1.408   1.243   1.031
 4203SOL    HW229752   1.261   1.211   1.039
 4204SOL     OW29753   3.214   2.967   0.200
 4204SOL    HW129754   3.281   3.032   0.222
 4204SOL    HW229755   3.233   2.944   0.109
 4205SOL     OW29756   5.387   0.047   0.929
 4205SOL    HW129757   5.419   0.131   0.894
 4205SOL    HW229758   5.321   0.018   0.866
 4206SOL     OW29759   1.044   3.665   6.414
 4206SOL    HW129760   0.983   3.636   6.482
 4206SOL    HW229761   1.063   3.756   6.436
 4207SOL     OW29762   5.640   3.954   6.303
 4207SOL    HW129763   5.560   3.937   6.254
 4207SOL    HW229764   5.624   4.038   6.347
 4208SOL     OW29765   5.374   5.655   6.847
 4208SOL    HW129766   5.387   5.603   6.926
 4208SOL    HW229767   5.280   5.674   6.845
 4209SOL     OW29768   2.664   5.977   5.824
 4209SOL    HW129769   2.611   6.056   5.818
 4209SOL    HW229770   2.705   5.982   5.910
 4210SOL     OW29771   4.558   3.712   0.368
 4210SOL    HW129772   4.510   3.675   0.441
 4210SOL    HW229773   4.644   3.669   0.370
 4211SOL     OW29774   2.285   0.414   1.922
 4211SOL    HW129775   2.351   0.397   1.854
 4211SOL    HW229776   2.336   0.425   2.002
 4212SOL     OW29777   5.249   5.289   1.849
 4212SOL    HW129778   5.225   5.348   1.778
 4212SOL    HW229779   5.167   5.243   1.870
 4213SOL     OW29780   6.084   3.824   7.797
 4213SOL    HW129781   6.031   3.787   7.867
 4213SOL    HW229782   6.021   3.850   7.730
 4214SOL     OW29783   1.206   3.239   2.153
 4214SOL    HW129784   1.282   3.218   2.208
 4214SOL    HW229785   1.210   3.335   2.143
 4215SOL     OW29786   1.466   0.942   7.457
 4215SOL    HW129787   1.483   0.847   7.464
 4215SOL    HW229788   1.484   0.962   7.365
 4216SOL     OW29789   4.535   5.123   6.765
 4216SOL    HW129790   4.574   5.210   6.772
 4216SOL    HW229791   4.459   5.125   6.823
 4217SOL     OW29792   4.517   4.140   0.315
 4217SOL    HW129793   4.578   4.068   0.302
 4217SOL    HW229794   4.436   4.110   0.275
 4218SOL     OW29795   3.812   1.659   0.320
 4218SOL    HW129796   3.886   1.680   0.264
 4218SOL    HW229797   3.850   1.616   0.396
 4219SOL     OW29798   3.506   1.429   0.745
 4219SOL    HW129799   3.506   1.367   0.818
 4219SOL    HW229800   3.592   1.470   0.749
 4220SOL     OW29801   1.967   3.671   0.965
 4220SOL    HW129802   2.011   3.754   0.981
 4220SOL    HW229803   1.886   3.676   1.017
 4221SOL     OW29804   4.316   5.346   6.532
 4221SOL    HW129805   4.233   5.351   6.484
 4221SOL    HW229806   4.292   5.361   6.623
 4222SOL     OW29807   4.892   3.114   2.113
 4222SOL    HW129808   4.838   3.193   2.109
 4222SOL    HW229809   4.829   3.042   2.102
 4223SOL     OW29810   0.063   3.652   0.388
 4223SOL    HW129811   0.020   3.570   0.411
 4223SOL    HW229812   0.048   3.662   0.294
 4224SOL     OW29813   2.325   0.348   0.263
 4224SOL    HW129814   2.271   0.270   0.273
 4224SOL    HW229815   2.406   0.328   0.311
 4225SOL     OW29816   3.641   2.606   7.589
 4225SOL    HW129817   3.598   2.608   7.503
 4225SOL    HW229818   3.701   2.681   7.588
 4226SOL     OW29819   5.155   3.326   6.636
 4226SOL    HW129820   5.077   3.270   6.636
 4226SOL    HW229821   5.143   3.383   6.712
 4227SOL     OW29822   5.416   3.656   1.855
 4227SOL    HW129823   5.463   3.574   1.868
 4227SOL    HW229824   5.478   3.724   1.881
 4228SOL     OW29825   1.964   4.010   2.166
 4228SOL    HW129826   1.945   3.968   2.083
 4228SOL    HW229827   1.891   4.070   2.180
 4229SOL     OW29828   3.432   2.790   6.940
 4229SOL    HW129829   3.425   2.858   6.873
 4229SOL    HW229830   3.375   2.719   6.909
 4230SOL     OW29831   0.790   4.579   0.219
 4230SOL    HW129832   0.790   4.486   0.195
 4230SOL    HW229833   0.697   4.602   0.225
 4231SOL     OW29834   4.971   0.332   6.576
 4231SOL    HW129835   4.926   0.297   6.652
 4231SOL    HW229836   4.981   0.257   6.517
 4232SOL     OW29837   0.317   0.489   7.108
 4232SOL    HW129838   0.342   0.415   7.052
 4232SOL    HW229839   0.393   0.504   7.164
 4233SOL     OW29840   2.767   4.831   1.316
 4233SOL    HW129841   2.821   4.759   1.282
 4233SOL    HW229842   2.727   4.870   1.238
 4234SOL     OW29843   1.365   3.929   0.553
 4234SOL    HW129844   1.368   3.915   0.648
 4234SOL    HW229845   1.457   3.930   0.526
 4235SOL     OW29846   0.599   3.499   6.934
 4235SOL    HW129847   0.639   3.586   6.925
 4235SOL    HW229848   0.506   3.514   6.915
 4236SOL     OW29849   4.642   6.422   0.351
 4236SOL    HW129850   4.550   6.415   0.324
 4236SOL    HW229851   4.662   6.337   0.390
 4237SOL     OW29852   3.371   2.560   1.784
 4237SOL    HW129853   3.429   2.495   1.824
 4237SOL    HW229854   3.316   2.510   1.724
 4238SOL     OW29855   2.730   0.471   0.496
 4238SOL    HW129856   2.822   0.449   0.477
 4238SOL    HW229857   2.732   0.565   0.514
 4239SOL     OW29858   4.605   4.309   6.565
 4239SOL    HW129859   4.652   4.375   6.616
 4239SOL    HW229860   4.674   4.256   6.525
 4240SOL     OW29861   5.087   1.007   1.015
 4240SOL    HW129862   5.113   1.034   0.927
 4240SOL    HW229863   4.995   0.982   1.006
 4241SOL     OW29864   6.443   2.361   1.005
 4241SOL    HW129865   6.468   2.448   0.973
 4241SOL    HW229866   6.371   2.334   0.948
 4242SOL     OW29867   0.477   4.395   1.472
 4242SOL    HW129868   0.499   4.373   1.562
 4242SOL    HW229869   0.548   4.451   1.442
 4243SOL     OW29870   2.248   5.115   0.838
 4243SOL    HW129871   2.189   5.147   0.770
 4243SOL    HW229872   2.207   5.143   0.920
 4244SOL     OW29873   5.215   0.745   0.339
 4244SOL    HW129874   5.297   0.784   0.309
 4244SOL    HW229875   5.150   0.773   0.275
 4245SOL     OW29876   4.273   5.277   0.305
 4245SOL    HW129877   4.312   5.342   0.245
 4245SOL    HW229878   4.347   5.245   0.356
 4246SOL     OW29879   6.154   5.411   1.243
 4246SOL    HW129880   6.184   5.394   1.154
 4246SOL    HW229881   6.136   5.505   1.245
 4247SOL     OW29882   3.092   5.375   5.719
 4247SOL    HW129883   3.157   5.428   5.672
 4247SOL    HW229884   3.059   5.435   5.787
 4248SOL     OW29885   3.147   2.173   0.064
 4248SOL    HW129886   3.116   2.202   0.150
 4248SOL    HW229887   3.117   2.083   0.056
 4249SOL     OW29888   0.114   3.075   5.914
 4249SOL    HW129889   0.046   3.053   5.850
 4249SOL    HW229890   0.167   3.142   5.871
 4250SOL     OW29891   4.394   4.630   2.065
 4250SOL    HW129892   4.307   4.644   2.029
 4250SOL    HW229893   4.446   4.596   1.993
 4251SOL     OW29894   4.594   1.679   0.145
 4251SOL    HW129895   4.609   1.711   0.234
 4251SOL    HW229896   4.499   1.683   0.133
 4252SOL     OW29897   1.127   6.164   1.404
 4252SOL    HW129898   1.054   6.101   1.410
 4252SOL    HW229899   1.155   6.178   1.494
 4253SOL     OW29900   3.753   3.304   2.586
 4253SOL    HW129901   3.768   3.395   2.562
 4253SOL    HW229902   3.659   3.298   2.603
 4254SOL     OW29903   5.872   4.228   6.438
 4254SOL    HW129904   5.932   4.204   6.367
 4254SOL    HW229905   5.907   4.310   6.472
 4255SOL     OW29906   4.531   1.180   6.295
 4255SOL    HW129907   4.604   1.242   6.304
 4255SOL    HW229908   4.486   1.206   6.215
 4256SOL     OW29909   2.086   3.322   7.683
 4256SOL    HW129910   2.110   3.378   7.756
 4256SOL    HW229911   2.030   3.378   7.628
 4257SOL     OW29912   5.087   0.014   7.260
 4257SOL    HW129913   5.162   0.049   7.212
 4257SOL    HW229914   5.076   0.072   7.335
 4258SOL     OW29915   1.017   0.171   0.566
 4258SOL    HW129916   0.966   0.091   0.553
 4258SOL    HW229917   1.100   0.153   0.522
 4259SOL     OW29918   1.866   5.868   6.746
 4259SOL    HW129919   1.817   5.923   6.806
 4259SOL    HW229920   1.800   5.821   6.696
 4260SOL     OW29921   0.039   1.129   1.459
 4260SOL    HW129922   0.086   1.152   1.539
 4260SOL    HW229923  -0.028   1.067   1.488
 4261SOL     OW29924   0.565   4.413   7.002
 4261SOL    HW129925   0.659   4.424   6.986
 4261SOL    HW229926   0.545   4.326   6.968
 4262SOL     OW29927   1.131   5.621   7.576
 4262SOL    HW129928   1.066   5.691   7.568
 4262SOL    HW229929   1.103   5.555   7.512
 4263SOL     OW29930   2.411   5.451   2.287
 4263SOL    HW129931   2.358   5.493   2.219
 4263SOL    HW229932   2.498   5.489   2.277
 4264SOL     OW29933   5.284   1.902   7.043
 4264SOL    HW129934   5.317   1.884   6.955
 4264SOL    HW229935   5.191   1.923   7.031
 4265SOL     OW29936   3.830   2.304   1.104
 4265SOL    HW129937   3.923   2.282   1.110
 4265SOL    HW229938   3.801   2.310   1.195
 4266SOL     OW29939   4.353   5.909   6.613
 4266SOL    HW129940   4.311   5.990   6.642
 4266SOL    HW229941   4.447   5.927   6.618
 4267SOL     OW29942   1.815   5.829   5.954
 4267SOL    HW129943   1.903   5.836   5.991
 4267SOL    HW229944   1.804   5.908   5.902
 4268SOL     OW29945   6.224   4.314   1.540
 4268SOL    HW129946   6.299   4.338   1.485
 4268SOL    HW229947   6.156   4.377   1.517
 4269SOL     OW29948   0.991   1.386   5.768
 4269SOL    HW129949   1.056   1.323   5.801
 4269SOL    HW229950   0.933   1.333   5.713
 4270SOL     OW29951   4.219   4.793   5.458
 4270SOL    HW129952   4.163   4.752   5.524
 4270SOL    HW229953   4.221   4.731   5.385
 4271SOL     OW29954   4.542   2.431   1.697
 4271SOL    HW129955   4.599   2.393   1.763
 4271SOL    HW229956   4.519   2.517   1.731
 4272SOL     OW29957   6.239   3.554   6.383
 4272SOL    HW129958   6.245   3.578   6.290
 4272SOL    HW229959   6.181   3.620   6.421
 4273SOL     OW29960   1.221   3.877   1.766
 4273SOL    HW129961   1.131   3.878   1.734
 4273SOL    HW229962   1.255   3.791   1.741
 4274SOL     OW29963   4.194   5.433   0.981
 4274SOL    HW129964   4.273   5.395   1.019
 4274SOL    HW229965   4.132   5.436   1.054
 4275SOL     OW29966   4.546   1.092   2.618
 4275SOL    HW129967   4.535   1.078   2.524
 4275SOL    HW229968   4.629   1.139   2.626
 4276SOL     OW29969   6.039   6.153   2.307
 4276SOL    HW129970   6.129   6.151   2.340
 4276SOL    HW229971   5.987   6.184   2.380
 4277SOL     OW29972   3.337   2.605   5.991
 4277SOL    HW129973   3.340   2.545   6.065
 4277SOL    HW229974   3.267   2.572   5.936
 4278SOL     OW29975   6.113   0.054   0.474
 4278SOL    HW129976   6.116   0.049   0.378
 4278SOL    HW229977   6.022   0.077   0.494
 4279SOL     OW29978   5.400   5.161   0.087
 4279SOL    HW129979   5.489   5.174   0.054
 4279SOL    HW229980   5.409   5.149   0.181
 4280SOL     OW29981   3.787   3.918   0.438
 4280SOL    HW129982   3.800   4.009   0.412
 4280SOL    HW229983   3.846   3.868   0.382
 4281SOL     OW29984   3.892   1.644   7.206
 4281SOL    HW129985   3.866   1.673   7.118
 4281SOL    HW229986   3.841   1.698   7.265
 4282SOL     OW29987   2.274   3.454   7.142
 4282SOL    HW129988   2.203   3.392   7.125
 4282SOL    HW229989   2.323   3.457   7.060
 4283SOL     OW29990   0.327   4.025   6.674
 4283SOL    HW129991   0.343   4.090   6.742
 4283SOL    HW229992   0.257   4.062   6.621
 4284SOL     OW29993   2.213   3.831   7.197
 4284SOL    HW129994   2.299   3.795   7.177
 4284SOL    HW229995   2.151   3.764   7.168
 4285SOL     OW29996   4.713   3.150   1.604
 4285SOL    HW129997   4.648   3.102   1.553
 4285SOL    HW229998   4.721   3.100   1.685
 4286SOL     OW29999   1.620   2.945   7.562
 4286SOL    HW130000   1.617   2.850   7.570
 4286SOL    HW230001   1.699   2.962   7.510
 4287SOL     OW30002   1.189   0.792   0.915
 4287SOL    HW130003   1.147   0.847   0.850
 4287SOL    HW230004   1.198   0.706   0.873
 4288SOL     OW30005   0.425   3.041   7.005
 4288SOL    HW130006   0.510   3.045   6.962
 4288SOL    HW230007   0.442   3.000   7.089
 4289SOL     OW30008   2.008   4.176   6.043
 4289SOL    HW130009   2.022   4.160   6.137
 4289SOL    HW230010   2.096   4.173   6.005
 4290SOL     OW30011   2.147   4.482   6.675
 4290SOL    HW130012   2.164   4.435   6.756
 4290SOL    HW230013   2.112   4.416   6.615
 4291SOL     OW30014   4.838   3.451   0.981
 4291SOL    HW130015   4.755   3.497   0.965
 4291SOL    HW230016   4.905   3.519   0.972
 4292SOL     OW30017   3.685   1.477   1.627
 4292SOL    HW130018   3.691   1.555   1.683
 4292SOL    HW230019   3.675   1.405   1.689
 4293SOL     OW30020   5.696   4.849   2.294
 4293SOL    HW130021   5.635   4.900   2.241
 4293SOL    HW230022   5.757   4.914   2.330
 4294SOL     OW30023   2.402   2.225   1.628
 4294SOL    HW130024   2.311   2.253   1.632
 4294SOL    HW230025   2.426   2.209   1.720
 4295SOL     OW30026   3.403   1.193   7.044
 4295SOL    HW130027   3.388   1.211   6.951
 4295SOL    HW230028   3.352   1.260   7.090
 4296SOL     OW30029   0.808   4.979   1.795
 4296SOL    HW130030   0.812   5.072   1.773
 4296SOL    HW230031   0.722   4.950   1.766
 4297SOL     OW30032   1.750   5.980   6.332
 4297SOL    HW130033   1.658   6.005   6.330
 4297SOL    HW230034   1.758   5.923   6.408
 4298SOL     OW30035   0.576   0.454   6.447
 4298SOL    HW130036   0.562   0.365   6.479
 4298SOL    HW230037   0.525   0.510   6.507
 4299SOL     OW30038   6.136   6.415   6.238
 4299SOL    HW130039   6.075   6.454   6.301
 4299SOL    HW230040   6.219   6.410   6.286
 4300SOL     OW30041   3.520   4.645   6.858
 4300SOL    HW130042   3.600   4.592   6.858
 4300SOL    HW230043   3.517   4.683   6.770
 4301SOL     OW30044   3.299   1.625   7.178
 4301SOL    HW130045   3.358   1.557   7.211
 4301SOL    HW230046   3.280   1.598   7.088
 4302SOL     OW30047   5.760   3.307   6.925
 4302SOL    HW130048   5.767   3.340   7.014
 4302SOL    HW230049   5.835   3.249   6.914
 4303SOL     OW30050   0.576   5.845   6.733
 4303SOL    HW130051   0.505   5.823   6.673
 4303SOL    HW230052   0.649   5.871   6.676
 4304SOL     OW30053   2.460   4.836   0.348
 4304SOL    HW130054   2.461   4.852   0.253
 4304SOL    HW230055   2.381   4.880   0.379
 4305SOL     OW30056   1.205   6.019   7.542
 4305SOL    HW130057   1.113   6.039   7.524
 4305SOL    HW230058   1.246   6.018   7.455
 4306SOL     OW30059   2.988   3.824   2.356
 4306SOL    HW130060   3.004   3.752   2.294
 4306SOL    HW230061   3.066   3.825   2.412
 4307SOL     OW30062   2.720   1.491   1.055
 4307SOL    HW130063   2.702   1.577   1.092
 4307SOL    HW230064   2.665   1.486   0.977
 4308SOL     OW30065   5.529   0.593   1.016
 4308SOL    HW130066   5.608   0.555   1.056
 4308SOL    HW230067   5.541   0.688   1.025
 4309SOL     OW30068   5.535   4.845   1.699
 4309SOL    HW130069   5.440   4.834   1.697
 4309SOL    HW230070   5.547   4.937   1.723
 4310SOL     OW30071   2.149   5.838   2.044
 4310SOL    HW130072   2.134   5.932   2.043
 4310SOL    HW230073   2.083   5.802   1.986
 4311SOL     OW30074   1.019   5.820   0.324
 4311SOL    HW130075   1.093   5.808   0.384
 4311SOL    HW230076   0.964   5.885   0.367
 4312SOL     OW30077   2.803   0.872   0.115
 4312SOL    HW130078   2.818   0.922   0.196
 4312SOL    HW230079   2.889   0.865   0.074
 4313SOL     OW30080   2.685   1.550   7.801
 4313SOL    HW130081   2.767   1.598   7.804
 4313SOL    HW230082   2.625   1.600   7.856
 4314SOL     OW30083   0.056   6.377   7.192
 4314SOL    HW130084   0.036   6.350   7.282
 4314SOL    HW230085   0.028   6.468   7.188
 4315SOL     OW30086   1.967   4.421   5.444
 4315SOL    HW130087   1.944   4.332   5.416
 4315SOL    HW230088   1.883   4.467   5.449
 4316SOL     OW30089   3.172   2.298   2.012
 4316SOL    HW130090   3.079   2.297   2.032
 4316SOL    HW230091   3.195   2.205   2.004
 4317SOL     OW30092   3.543   4.226   6.907
 4317SOL    HW130093   3.463   4.278   6.916
 4317SOL    HW230094   3.531   4.179   6.824
 4318SOL     OW30095   2.487   4.698   7.228
 4318SOL    HW130096   2.534   4.670   7.149
 4318SOL    HW230097   2.395   4.688   7.206
 4319SOL     OW30098   2.514   3.047   7.188
 4319SOL    HW130099   2.608   3.063   7.186
 4319SOL    HW230100   2.498   3.011   7.275
 4320SOL     OW30101   5.383   6.440   2.253
 4320SOL    HW130102   5.404   6.422   2.345
 4320SOL    HW230103   5.357   6.533   2.253
 4321SOL     OW30104   6.204   3.925   7.200
 4321SOL    HW130105   6.130   3.985   7.202
 4321SOL    HW230106   6.170   3.846   7.158
 4322SOL     OW30107   1.342   3.938   2.102
 4322SOL    HW130108   1.354   3.982   2.186
 4322SOL    HW230109   1.295   3.858   2.123
 4323SOL     OW30110   6.341   4.799   5.961
 4323SOL    HW130111   6.345   4.720   6.014
 4323SOL    HW230112   6.431   4.832   5.960
 4324SOL     OW30113   3.493   0.956   6.297
 4324SOL    HW130114   3.539   0.906   6.365
 4324SOL    HW230115   3.494   0.898   6.221
 4325SOL     OW30116   3.793   5.861   0.518
 4325SOL    HW130117   3.786   5.908   0.601
 4325SOL    HW230118   3.774   5.770   0.540
 4326SOL     OW30119   1.702   5.597   7.817
 4326SOL    HW130120   1.751   5.574   7.738
 4326SOL    HW230121   1.665   5.514   7.847
 4327SOL     OW30122   2.686   2.755   0.176
 4327SOL    HW130123   2.702   2.666   0.144
 4327SOL    HW230124   2.591   2.765   0.174
 4328SOL     OW30125   5.896   1.073   7.760
 4328SOL    HW130126   5.937   1.055   7.844
 4328SOL    HW230127   5.958   1.040   7.695
 4329SOL     OW30128   6.391   3.309   6.072
 4329SOL    HW130129   6.397   3.235   6.012
 4329SOL    HW230130   6.297   3.331   6.074
 4330SOL     OW30131   5.724   4.635   6.445
 4330SOL    HW130132   5.818   4.627   6.429
 4330SOL    HW230133   5.684   4.610   6.362
 4331SOL     OW30134   1.596   2.847   0.386
 4331SOL    HW130135   1.530   2.812   0.446
 4331SOL    HW230136   1.623   2.772   0.333
 4332SOL     OW30137   4.619   5.359   7.052
 4332SOL    HW130138   4.583   5.446   7.036
 4332SOL    HW230139   4.543   5.303   7.067
 4333SOL     OW30140   1.143   1.407   0.651
 4333SOL    HW130141   1.234   1.395   0.623
 4333SOL    HW230142   1.126   1.500   0.635
 4334SOL     OW30143   5.728   4.502   5.262
 4334SOL    HW130144   5.725   4.578   5.320
 4334SOL    HW230145   5.821   4.491   5.242
 4335SOL     OW30146   5.827   4.122   6.686
 4335SOL    HW130147   5.916   4.108   6.718
 4335SOL    HW230148   5.835   4.123   6.591
 4336SOL     OW30149   3.659   1.057   6.966
 4336SOL    HW130150   3.583   1.089   7.015
 4336SOL    HW230151   3.622   1.026   6.883
 4337SOL     OW30152   2.096   1.247   6.419
 4337SOL    HW130153   2.056   1.222   6.502
 4337SOL    HW230154   2.177   1.198   6.415
 4338SOL     OW30155   3.704   2.049   6.734
 4338SOL    HW130156   3.716   2.108   6.809
 4338SOL    HW230157   3.663   1.971   6.772
 4339SOL     OW30158   3.231   6.245   6.639
 4339SOL    HW130159   3.254   6.246   6.546
 4339SOL    HW230160   3.181   6.164   6.650
 4340SOL     OW30161   0.710   4.348   0.122
 4340SOL    HW130162   0.697   4.330   0.029
 4340SOL    HW230163   0.647   4.292   0.167
 4341SOL     OW30164   1.219   6.322   5.670
 4341SOL    HW130165   1.262   6.287   5.592
 4341SOL    HW230166   1.169   6.248   5.705
 4342SOL     OW30167   5.934   0.619   7.348
 4342SOL    HW130168   5.984   0.556   7.297
 4342SOL    HW230169   5.921   0.693   7.289
 4343SOL     OW30170   1.005   4.591   7.211
 4343SOL    HW130171   1.013   4.500   7.184
 4343SOL    HW230172   1.092   4.628   7.197
 4344SOL     OW30173   4.618   3.034   6.641
 4344SOL    HW130174   4.536   3.083   6.633
 4344SOL    HW230175   4.590   2.947   6.673
 4345SOL     OW30176   4.885   4.977   1.565
 4345SOL    HW130177   4.897   4.961   1.659
 4345SOL    HW230178   4.966   5.022   1.539
 4346SOL     OW30179   1.507   0.507   1.669
 4346SOL    HW130180   1.438   0.539   1.726
 4346SOL    HW230181   1.463   0.449   1.607
 4347SOL     OW30182   2.128   3.696   0.725
 4347SOL    HW130183   2.148   3.690   0.631
 4347SOL    HW230184   2.146   3.608   0.758
 4348SOL     OW30185   3.434   5.463   6.386
 4348SOL    HW130186   3.517   5.485   6.343
 4348SOL    HW230187   3.461   5.435   6.474
 4349SOL     OW30188   3.812   1.951   1.810
 4349SOL    HW130189   3.739   1.919   1.863
 4349SOL    HW230190   3.883   1.890   1.829
 4350SOL     OW30191   5.600   0.099   6.791
 4350SOL    HW130192   5.589   0.047   6.870
 4350SOL    HW230193   5.624   0.186   6.823
 4351SOL     OW30194   4.015   6.129   6.381
 4351SOL    HW130195   3.971   6.126   6.296
 4351SOL    HW230196   3.975   6.057   6.431
 4352SOL     OW30197   5.445   4.717   1.336
 4352SOL    HW130198   5.367   4.772   1.329
 4352SOL    HW230199   5.467   4.695   1.246
 4353SOL     OW30200   3.016   2.325   1.061
 4353SOL    HW130201   3.001   2.375   1.141
 4353SOL    HW230202   2.961   2.368   0.996
 4354SOL     OW30203   4.477   0.042   1.682
 4354SOL    HW130204   4.470  -0.034   1.738
 4354SOL    HW230205   4.436   0.113   1.732
 4355SOL     OW30206   1.803   3.359   7.140
 4355SOL    HW130207   1.806   3.408   7.058
 4355SOL    HW230208   1.764   3.275   7.118
 4356SOL     OW30209   3.954   1.136   6.756
 4356SOL    HW130210   4.004   1.110   6.679
 4356SOL    HW230211   3.957   1.060   6.814
 4357SOL     OW30212   6.107   4.311   6.238
 4357SOL    HW130213   6.161   4.345   6.167
 4357SOL    HW230214   6.067   4.388   6.277
 4358SOL     OW30215   5.604   2.940   6.782
 4358SOL    HW130216   5.552   3.019   6.769
 4358SOL    HW230217   5.674   2.946   6.717
 4359SOL     OW30218   2.492   4.636   2.694
 4359SOL    HW130219   2.455   4.681   2.618
 4359SOL    HW230220   2.576   4.679   2.708
 4360SOL     OW30221   2.620   4.197   6.478
 4360SOL    HW130222   2.693   4.147   6.441
 4360SOL    HW230223   2.662   4.266   6.530
 4361SOL     OW30224   4.712   0.161   6.374
 4361SOL    HW130225   4.749   0.177   6.287
 4361SOL    HW230226   4.774   0.100   6.415
 4362SOL     OW30227   0.152   2.174   7.476
 4362SOL    HW130228   0.182   2.084   7.485
 4362SOL    HW230229   0.059   2.170   7.494
 4363SOL     OW30230   1.873   3.664   0.608
 4363SOL    HW130231   1.962   3.689   0.633
 4363SOL    HW230232   1.862   3.702   0.520
 4364SOL     OW30233   1.792   2.134   6.363
 4364SOL    HW130234   1.767   2.197   6.430
 4364SOL    HW230235   1.830   2.061   6.412
 4365SOL     OW30236   0.210   2.930   6.878
 4365SOL    HW130237   0.254   2.895   6.801
 4365SOL    HW230238   0.281   2.960   6.934
 4366SOL     OW30239   6.223   2.582   6.479
 4366SOL    HW130240   6.305   2.579   6.527
 4366SOL    HW230241   6.161   2.623   6.539
 4367SOL     OW30242   5.764  -0.003   1.152
 4367SOL    HW130243   5.834   0.055   1.183
 4367SOL    HW230244   5.724   0.044   1.079
 4368SOL     OW30245   3.766   6.211   0.532
 4368SOL    HW130246   3.718   6.142   0.487
 4368SOL    HW230247   3.849   6.218   0.485
 4369SOL     OW30248   3.093   4.907   7.603
 4369SOL    HW130249   3.174   4.887   7.650
 4369SOL    HW230250   3.024   4.897   7.669
 4370SOL     OW30251   3.467   3.008   1.473
 4370SOL    HW130252   3.525   3.082   1.458
 4370SOL    HW230253   3.433   3.021   1.561
 4371SOL     OW30254   5.941   3.468   6.794
 4371SOL    HW130255   5.905   3.458   6.706
 4371SOL    HW230256   5.876   3.428   6.852
 4372SOL     OW30257   4.396   4.695   6.710
 4372SOL    HW130258   4.386   4.601   6.700
 4372SOL    HW230259   4.326   4.732   6.656
 4373SOL     OW30260   1.544   3.425   0.260
 4373SOL    HW130261   1.607   3.408   0.190
 4373SOL    HW230262   1.549   3.348   0.316
 4374SOL     OW30263   5.930   2.181   6.021
 4374SOL    HW130264   5.869   2.222   6.083
 4374SOL    HW230265   5.991   2.132   6.076
 4375SOL     OW30266   1.387   4.898   6.155
 4375SOL    HW130267   1.465   4.864   6.113
 4375SOL    HW230268   1.315   4.845   6.120
 4376SOL     OW30269   5.429   0.197   7.790
 4376SOL    HW130270   5.414   0.152   7.707
 4376SOL    HW230271   5.455   0.127   7.851
 4377SOL     OW30272   2.550   5.692   6.567
 4377SOL    HW130273   2.498   5.713   6.490
 4377SOL    HW230274   2.636   5.666   6.533
 4378SOL     OW30275   5.138   4.590   6.749
 4378SOL    HW130276   5.077   4.525   6.784
 4378SOL    HW230277   5.082   4.656   6.708
 4379SOL     OW30278   4.758   3.569   2.338
 4379SOL    HW130279   4.782   3.493   2.392
 4379SOL    HW230280   4.663   3.566   2.333
 4380SOL     OW30281   5.505   5.235   1.072
 4380SOL    HW130282   5.583   5.181   1.058
 4380SOL    HW230283   5.478   5.261   0.984
 4381SOL     OW30284   3.571   2.324   0.734
 4381SOL    HW130285   3.569   2.230   0.753
 4381SOL    HW230286   3.606   2.330   0.646
 4382SOL     OW30287   4.857   0.849   0.561
 4382SOL    HW130288   4.912   0.774   0.538
 4382SOL    HW230289   4.767   0.818   0.550
 4383SOL     OW30290   3.250   0.225   6.291
 4383SOL    HW130291   3.318   0.285   6.324
 4383SOL    HW230292   3.171   0.279   6.286
 4384SOL     OW30293   1.924   5.012   0.834
 4384SOL    HW130294   1.904   4.977   0.921
 4384SOL    HW230295   1.893   4.944   0.774
 4385SOL     OW30296   1.788   5.620   5.336
 4385SOL    HW130297   1.745   5.675   5.402
 4385SOL    HW230298   1.767   5.530   5.362
 4386SOL     OW30299   2.759   3.661   0.736
 4386SOL    HW130300   2.778   3.591   0.799
 4386SOL    HW230301   2.795   3.629   0.653
 4387SOL     OW30302   6.075   5.377   0.806
 4387SOL    HW130303   6.063   5.303   0.865
 4387SOL    HW230304   6.066   5.340   0.719
 4388SOL     OW30305   1.758   1.967   1.516
 4388SOL    HW130306   1.842   1.960   1.471
 4388SOL    HW230307   1.696   1.918   1.461
 4389SOL     OW30308   1.682   6.252   0.829
 4389SOL    HW130309   1.658   6.293   0.912
 4389SOL    HW230310   1.672   6.321   0.764
 4390SOL     OW30311   3.213   3.197   7.550
 4390SOL    HW130312   3.298   3.240   7.545
 4390SOL    HW230313   3.200   3.159   7.463
 4391SOL     OW30314   3.624   0.961   1.534
 4391SOL    HW130315   3.666   0.946   1.450
 4391SOL    HW230316   3.696   0.959   1.597
 4392SOL     OW30317   4.850   4.683   1.337
 4392SOL    HW130318   4.864   4.624   1.411
 4392SOL    HW230319   4.911   4.755   1.352
 4393SOL     OW30320   3.353   4.060   1.041
 4393SOL    HW130321   3.373   4.110   0.962
 4393SOL    HW230322   3.259   4.073   1.055
 4394SOL     OW30323   0.854   1.201   6.344
 4394SOL    HW130324   0.911   1.125   6.346
 4394SOL    HW230325   0.828   1.210   6.252
 4395SOL     OW30326   5.296   4.878   5.555
 4395SOL    HW130327   5.320   4.791   5.525
 4395SOL    HW230328   5.264   4.922   5.476
 4396SOL     OW30329   2.577   2.113   0.721
 4396SOL    HW130330   2.641   2.052   0.685
 4396SOL    HW230331   2.620   2.150   0.799
 4397SOL     OW30332   1.496   5.662   6.384
 4397SOL    HW130333   1.410   5.620   6.383
 4397SOL    HW230334   1.480   5.750   6.418
 4398SOL     OW30335   1.398   1.104   1.361
 4398SOL    HW130336   1.330   1.119   1.427
 4398SOL    HW230337   1.350   1.081   1.282
 4399SOL     OW30338   6.165   1.839   6.570
 4399SOL    HW130339   6.078   1.801   6.583
 4399SOL    HW230340   6.204   1.785   6.502
 4400SOL     OW30341   1.026   0.533   7.587
 4400SOL    HW130342   1.002   0.479   7.662
 4400SOL    HW230343   1.117   0.509   7.569
 4401SOL     OW30344   4.098   5.149   6.186
 4401SOL    HW130345   4.121   5.139   6.278
 4401SOL    HW230346   4.022   5.093   6.173
 4402SOL     OW30347   5.973   3.109   0.370
 4402SOL    HW130348   5.897   3.098   0.312
 4402SOL    HW230349   6.041   3.054   0.330
 4403SOL     OW30350   4.402   2.657   1.515
 4403SOL    HW130351   4.405   2.663   1.611
 4403SOL    HW230352   4.339   2.725   1.489
 4404SOL     OW30353   1.547   0.952   2.401
 4404SOL    HW130354   1.454   0.935   2.409
 4404SOL    HW230355   1.568   0.930   2.311
 4405SOL     OW30356   4.040   5.978   6.144
 4405SOL    HW130357   4.100   6.050   6.162
 4405SOL    HW230358   3.960   6.020   6.113
 4406SOL     OW30359   1.369   0.238   7.636
 4406SOL    HW130360   1.461   0.230   7.660
 4406SOL    HW230361   1.369   0.259   7.543
 4407SOL     OW30362   3.176   0.865   1.430
 4407SOL    HW130363   3.195   0.950   1.472
 4407SOL    HW230364   3.082   0.866   1.415
 4408SOL     OW30365   6.360   5.183   6.373
 4408SOL    HW130366   6.447   5.214   6.398
 4408SOL    HW230367   6.356   5.198   6.278
 4409SOL     OW30368   2.519   4.268   1.013
 4409SOL    HW130369   2.567   4.201   1.063
 4409SOL    HW230370   2.505   4.339   1.076
 4410SOL     OW30371   2.430   6.078   6.782
 4410SOL    HW130372   2.396   6.166   6.765
 4410SOL    HW230373   2.378   6.045   6.855
 4411SOL     OW30374   2.625   4.642   7.027
 4411SOL    HW130375   2.637   4.688   6.944
 4411SOL    HW230376   2.686   4.685   7.087
 4412SOL     OW30377   1.749   6.258   5.441
 4412SOL    HW130378   1.825   6.201   5.453
 4412SOL    HW230379   1.729   6.291   5.528
 4413SOL     OW30380   5.546   5.740   7.708
 4413SOL    HW130381   5.601   5.768   7.782
 4413SOL    HW230382   5.542   5.645   7.718
 4414SOL     OW30383   0.227   6.324   5.322
 4414SOL    HW130384   0.288   6.389   5.355
 4414SOL    HW230385   0.280   6.268   5.264
 4415SOL     OW30386   6.314   1.967   0.510
 4415SOL    HW130387   6.330   1.973   0.605
 4415SOL    HW230388   6.346   2.051   0.476
 4416SOL     OW30389   4.019   1.756   6.666
 4416SOL    HW130390   4.114   1.755   6.673
 4416SOL    HW230391   4.002   1.757   6.571
 4417SOL     OW30392   2.139   2.416   6.920
 4417SOL    HW130393   2.094   2.334   6.940
 4417SOL    HW230394   2.153   2.457   7.005
 4418SOL     OW30395   4.886   5.371   7.148
 4418SOL    HW130396   4.871   5.426   7.225
 4418SOL    HW230397   4.802   5.368   7.103
 4419SOL     OW30398   0.423   2.901   7.227
 4419SOL    HW130399   0.373   2.935   7.302
 4419SOL    HW230400   0.436   2.808   7.247
 4420SOL     OW30401   3.556   4.618   6.052
 4420SOL    HW130402   3.599   4.537   6.081
 4420SOL    HW230403   3.485   4.588   5.995
 4421SOL     OW30404   1.911   3.094   6.737
 4421SOL    HW130405   1.893   3.076   6.645
 4421SOL    HW230406   2.002   3.124   6.738
 4422SOL     OW30407   6.275   2.579   0.298
 4422SOL    HW130408   6.217   2.583   0.374
 4422SOL    HW230409   6.324   2.662   0.300
 4423SOL     OW30410   3.353   3.295   6.178
 4423SOL    HW130411   3.366   3.293   6.083
 4423SOL    HW230412   3.441   3.284   6.214
 4424SOL     OW30413   4.513   3.643   1.428
 4424SOL    HW130414   4.545   3.706   1.493
 4424SOL    HW230415   4.541   3.680   1.344
 4425SOL     OW30416   3.293   2.856   7.737
 4425SOL    HW130417   3.306   2.762   7.741
 4425SOL    HW230418   3.275   2.875   7.645
 4426SOL     OW30419   1.951   3.825   2.717
 4426SOL    HW130420   1.907   3.743   2.737
 4426SOL    HW230421   2.043   3.810   2.738
 4427SOL     OW30422   3.936   3.542   1.769
 4427SOL    HW130423   3.988   3.502   1.839
 4427SOL    HW230424   3.854   3.568   1.812
 4428SOL     OW30425   5.711   0.761   5.764
 4428SOL    HW130426   5.619   0.748   5.741
 4428SOL    HW230427   5.722   0.856   5.763
 4429SOL     OW30428   0.399   5.347   0.017
 4429SOL    HW130429   0.456   5.327   0.091
 4429SOL    HW230430   0.329   5.282   0.021
 4430SOL     OW30431   2.337   5.651   2.122
 4430SOL    HW130432   2.358   5.603   2.041
 4430SOL    HW230433   2.274   5.718   2.094
 4431SOL     OW30434   3.421   1.822   7.303
 4431SOL    HW130435   3.385   1.747   7.256
 4431SOL    HW230436   3.373   1.824   7.386
 4432SOL     OW30437   1.960   0.894   1.337
 4432SOL    HW130438   1.980   0.969   1.280
 4432SOL    HW230439   2.018   0.825   1.308
 4433SOL     OW30440   2.300   4.477   1.197
 4433SOL    HW130441   2.392   4.497   1.178
 4433SOL    HW230442   2.303   4.392   1.241
 4434SOL     OW30443   5.199   0.219   5.670
 4434SOL    HW130444   5.132   0.164   5.630
 4434SOL    HW230445   5.279   0.167   5.664
 4435SOL     OW30446   4.990   3.739   1.722
 4435SOL    HW130447   5.059   3.676   1.741
 4435SOL    HW230448   4.942   3.747   1.805
 4436SOL     OW30449   4.863   3.633   7.124
 4436SOL    HW130450   4.814   3.682   7.058
 4436SOL    HW230451   4.822   3.547   7.126
 4437SOL     OW30452   5.872   2.132   7.772
 4437SOL    HW130453   5.819   2.055   7.749
 4437SOL    HW230454   5.942   2.133   7.707
 4438SOL     OW30455   2.726   3.959   1.619
 4438SOL    HW130456   2.652   3.954   1.680
 4438SOL    HW230457   2.799   3.922   1.667
 4439SOL     OW30458   3.374   3.115   7.167
 4439SOL    HW130459   3.280   3.098   7.175
 4439SOL    HW230460   3.383   3.165   7.086
 4440SOL     OW30461   1.382   5.913   1.451
 4440SOL    HW130462   1.404   6.001   1.421
 4440SOL    HW230463   1.436   5.900   1.529
 4441SOL     OW30464   3.121   5.644   1.501
 4441SOL    HW130465   3.142   5.729   1.537
 4441SOL    HW230466   3.079   5.597   1.573
 4442SOL     OW30467   3.344   2.592   7.719
 4442SOL    HW130468   3.391   2.606   7.636
 4442SOL    HW230469   3.264   2.546   7.694
 4443SOL     OW30470   4.493   5.582   0.730
 4443SOL    HW130471   4.449   5.638   0.794
 4443SOL    HW230472   4.580   5.621   0.720
 4444SOL     OW30473   3.899   6.374   7.319
 4444SOL    HW130474   3.829   6.314   7.344
 4444SOL    HW230475   3.978   6.335   7.355
 4445SOL     OW30476   0.010   3.170   6.299
 4445SOL    HW130477  -0.059   3.108   6.274
 4445SOL    HW230478   0.004   3.240   6.234
 4446SOL     OW30479   0.117   0.662   0.165
 4446SOL    HW130480   0.076   0.590   0.116
 4446SOL    HW230481   0.060   0.674   0.241
 4447SOL     OW30482   2.565   2.621   5.853
 4447SOL    HW130483   2.596   2.545   5.803
 4447SOL    HW230484   2.479   2.641   5.815
 4448SOL     OW30485   3.578   2.413   1.915
 4448SOL    HW130486   3.576   2.321   1.889
 4448SOL    HW230487   3.585   2.411   2.011
 4449SOL     OW30488   4.491   0.208   6.772
 4449SOL    HW130489   4.418   0.150   6.793
 4449SOL    HW230490   4.502   0.262   6.851
 4450SOL     OW30491   0.739   0.004   2.600
 4450SOL    HW130492   0.748   0.095   2.571
 4450SOL    HW230493   0.765  -0.047   2.523
 4451SOL     OW30494   2.943   4.568   1.129
 4451SOL    HW130495   3.004   4.502   1.162
 4451SOL    HW230496   2.974   4.586   1.040
 4452SOL     OW30497   2.621   5.404   1.041
 4452SOL    HW130498   2.626   5.337   0.974
 4452SOL    HW230499   2.562   5.368   1.107
 4453SOL     OW30500   3.482   3.716   0.996
 4453SOL    HW130501   3.464   3.810   0.998
 4453SOL    HW230502   3.544   3.702   1.067
 4454SOL     OW30503   4.826   3.437   0.621
 4454SOL    HW130504   4.785   3.353   0.601
 4454SOL    HW230505   4.916   3.429   0.588
 4455SOL     OW30506   1.730   1.417   6.457
 4455SOL    HW130507   1.645   1.419   6.500
 4455SOL    HW230508   1.718   1.356   6.384
 4456SOL     OW30509   5.998   3.277   0.558
 4456SOL    HW130510   6.038   3.218   0.621
 4456SOL    HW230511   5.963   3.220   0.490
 4457SOL     OW30512   5.582   1.038   1.595
 4457SOL    HW130513   5.634   1.070   1.521
 4457SOL    HW230514   5.495   1.076   1.581
 4458SOL     OW30515   5.728   6.297   5.838
 4458SOL    HW130516   5.638   6.269   5.820
 4458SOL    HW230517   5.733   6.302   5.934
 4459SOL     OW30518   4.869   5.088   6.452
 4459SOL    HW130519   4.868   5.181   6.430
 4459SOL    HW230520   4.777   5.065   6.463
 4460SOL     OW30521   2.023   1.591   7.428
 4460SOL    HW130522   1.936   1.604   7.467
 4460SOL    HW230523   2.035   1.496   7.429
 4461SOL     OW30524   1.953   3.034   0.451
 4461SOL    HW130525   1.953   3.084   0.369
 4461SOL    HW230526   1.969   3.100   0.519
 4462SOL     OW30527   5.620   4.702   7.221
 4462SOL    HW130528   5.673   4.782   7.211
 4462SOL    HW230529   5.540   4.732   7.264
 4463SOL     OW30530   1.837   4.792   0.671
 4463SOL    HW130531   1.822   4.829   0.584
 4463SOL    HW230532   1.775   4.719   0.676
 4464SOL     OW30533   1.915   5.300   6.785
 4464SOL    HW130534   1.977   5.255   6.842
 4464SOL    HW230535   1.957   5.384   6.766
 4465SOL     OW30536   0.840   2.223   7.781
 4465SOL    HW130537   0.848   2.196   7.689
 4465SOL    HW230538   0.823   2.141   7.828
 4466SOL     OW30539   2.222   6.335   7.197
 4466SOL    HW130540   2.234   6.271   7.267
 4466SOL    HW230541   2.196   6.415   7.241
 4467SOL     OW30542   1.814   5.395   0.626
 4467SOL    HW130543   1.776   5.470   0.672
 4467SOL    HW230544   1.909   5.405   0.637
 4468SOL     OW30545   0.915   5.991   7.304
 4468SOL    HW130546   0.845   5.929   7.279
 4468SOL    HW230547   0.892   6.072   7.258
 4469SOL     OW30548   4.949   0.600   0.919
 4469SOL    HW130549   5.016   0.660   0.886
 4469SOL    HW230550   4.942   0.533   0.851
 4470SOL     OW30551   2.613   0.779   1.358
 4470SOL    HW130552   2.586   0.864   1.323
 4470SOL    HW230553   2.565   0.715   1.306
 4471SOL     OW30554   0.757   5.040   6.720
 4471SOL    HW130555   0.792   5.119   6.679
 4471SOL    HW230556   0.776   5.050   6.813
 4472SOL     OW30557   5.494   2.356   2.302
 4472SOL    HW130558   5.489   2.448   2.275
 4472SOL    HW230559   5.567   2.354   2.364
 4473SOL     OW30560   0.637   1.182   7.571
 4473SOL    HW130561   0.624   1.235   7.492
 4473SOL    HW230562   0.659   1.095   7.538
 4474SOL     OW30563   1.692   1.586   0.911
 4474SOL    HW130564   1.771   1.628   0.944
 4474SOL    HW230565   1.623   1.651   0.924
 4475SOL     OW30566   5.470   1.891   7.614
 4475SOL    HW130567   5.443   1.922   7.701
 4475SOL    HW230568   5.389   1.873   7.568
 4476SOL     OW30569   4.695   1.242   7.654
 4476SOL    HW130570   4.778   1.256   7.700
 4476SOL    HW230571   4.628   1.261   7.720
 4477SOL     OW30572   2.327   5.712   6.847
 4477SOL    HW130573   2.288   5.656   6.914
 4477SOL    HW230574   2.280   5.795   6.855
 4478SOL     OW30575   3.634   3.290   6.364
 4478SOL    HW130576   3.725   3.291   6.336
 4478SOL    HW230577   3.615   3.380   6.389
 4479SOL     OW30578   2.527   1.541   0.388
 4479SOL    HW130579   2.551   1.613   0.329
 4479SOL    HW230580   2.514   1.582   0.473
 4480SOL     OW30581   3.536   2.087   7.432
 4480SOL    HW130582   3.510   2.018   7.371
 4480SOL    HW230583   3.532   2.045   7.518
 4481SOL     OW30584   0.147   0.221   1.800
 4481SOL    HW130585   0.226   0.237   1.749
 4481SOL    HW230586   0.102   0.305   1.802
 4482SOL     OW30587   2.424   2.166   1.248
 4482SOL    HW130588   2.482   2.122   1.311
 4482SOL    HW230589   2.388   2.240   1.298
 4483SOL     OW30590   5.778   4.763   0.636
 4483SOL    HW130591   5.729   4.843   0.621
 4483SOL    HW230592   5.801   4.732   0.548
 4484SOL     OW30593   3.435   2.467   0.383
 4484SOL    HW130594   3.390   2.551   0.370
 4484SOL    HW230595   3.399   2.410   0.314
 4485SOL     OW30596   1.165   2.532   0.875
 4485SOL    HW130597   1.153   2.612   0.824
 4485SOL    HW230598   1.144   2.557   0.965
 4486SOL     OW30599   3.810   2.561   6.139
 4486SOL    HW130600   3.748   2.592   6.205
 4486SOL    HW230601   3.779   2.600   6.057
 4487SOL     OW30602   2.437   6.322   0.885
 4487SOL    HW130603   2.496   6.279   0.823
 4487SOL    HW230604   2.393   6.390   0.833
 4488SOL     OW30605   4.738   5.720   6.847
 4488SOL    HW130606   4.767   5.750   6.761
 4488SOL    HW230607   4.817   5.686   6.889
 4489SOL     OW30608   3.577   5.871   6.114
 4489SOL    HW130609   3.644   5.903   6.055
 4489SOL    HW230610   3.562   5.780   6.087
 4490SOL     OW30611   2.349   5.911   0.114
 4490SOL    HW130612   2.361   6.006   0.102
 4490SOL    HW230613   2.434   5.873   0.091
 4491SOL     OW30614   0.480   2.377   6.389
 4491SOL    HW130615   0.442   2.404   6.306
 4491SOL    HW230616   0.486   2.282   6.384
 4492SOL     OW30617   5.435   6.399   0.098
 4492SOL    HW130618   5.447   6.352   0.180
 4492SOL    HW230619   5.459   6.336   0.030
 4493SOL     OW30620   2.528   3.257   1.094
 4493SOL    HW130621   2.500   3.255   1.186
 4493SOL    HW230622   2.496   3.342   1.062
 4494SOL     OW30623   2.476   4.926   1.933
 4494SOL    HW130624   2.557   4.959   1.894
 4494SOL    HW230625   2.429   5.004   1.959
 4495SOL     OW30626   4.577   3.571   7.301
 4495SOL    HW130627   4.568   3.661   7.268
 4495SOL    HW230628   4.559   3.578   7.394
 4496SOL     OW30629   1.238   3.531   5.965
 4496SOL    HW130630   1.148   3.501   5.948
 4496SOL    HW230631   1.255   3.594   5.895
 4497SOL     OW30632   5.828   0.263   7.610
 4497SOL    HW130633   5.850   0.260   7.516
 4497SOL    HW230634   5.904   0.224   7.653
 4498SOL     OW30635   0.847   4.492   6.980
 4498SOL    HW130636   0.928   4.452   7.014
 4498SOL    HW230637   0.877   4.575   6.942
 4499SOL     OW30638   3.940   3.642   6.648
 4499SOL    HW130639   3.998   3.705   6.690
 4499SOL    HW230640   3.867   3.694   6.614
 4500SOL     OW30641   0.980   0.769   1.482
 4500SOL    HW130642   1.036   0.845   1.469
 4500SOL    HW230643   0.981   0.723   1.398
 4501SOL     OW30644   0.902   0.159   1.700
 4501SOL    HW130645   0.943   0.079   1.669
 4501SOL    HW230646   0.850   0.132   1.777
 4502SOL     OW30647   5.335   2.135   0.285
 4502SOL    HW130648   5.304   2.195   0.352
 4502SOL    HW230649   5.376   2.064   0.333
 4503SOL     OW30650   5.476   2.063   0.660
 4503SOL    HW130651   5.568   2.050   0.682
 4503SOL    HW230652   5.460   2.156   0.677
 4504SOL     OW30653   2.762   2.396   6.901
 4504SOL    HW130654   2.820   2.324   6.875
 4504SOL    HW230655   2.738   2.376   6.991
 4505SOL     OW30656   4.212   0.155   7.099
 4505SOL    HW130657   4.231   0.199   7.181
 4505SOL    HW230658   4.116   0.152   7.095
 4506SOL     OW30659   5.987   2.937   7.781
 4506SOL    HW130660   6.036   3.018   7.798
 4506SOL    HW230661   5.922   2.962   7.715
 4507SOL     OW30662   5.115   4.572   5.856
 4507SOL    HW130663   5.020   4.580   5.865
 4507SOL    HW230664   5.126   4.514   5.780
 4508SOL     OW30665   5.181   4.428   6.074
 4508SOL    HW130666   5.189   4.343   6.031
 4508SOL    HW230667   5.153   4.487   6.005
 4509SOL     OW30668   4.805   0.030   1.503
 4509SOL    HW130669   4.711   0.020   1.519
 4509SOL    HW230670   4.820   0.125   1.501
 4510SOL     OW30671   5.196   2.573   1.606
 4510SOL    HW130672   5.189   2.481   1.634
 4510SOL    HW230673   5.205   2.622   1.688
 4511SOL     OW30674   3.048   4.482   1.772
 4511SOL    HW130675   3.027   4.459   1.862
 4511SOL    HW230676   2.969   4.458   1.722
 4512SOL     OW30677   1.721   2.326   1.505
 4512SOL    HW130678   1.812   2.354   1.500
 4512SOL    HW230679   1.723   2.233   1.483
 4513SOL     OW30680   1.693   5.190   7.594
 4513SOL    HW130681   1.633   5.246   7.643
 4513SOL    HW230682   1.671   5.101   7.621
 4514SOL     OW30683   0.150   1.875   7.556
 4514SOL    HW130684   0.209   1.804   7.581
 4514SOL    HW230685   0.085   1.833   7.499
 4515SOL     OW30686   6.303   1.794   1.090
 4515SOL    HW130687   6.245   1.789   1.165
 4515SOL    HW230688   6.246   1.815   1.016
 4516SOL     OW30689   3.672   6.179   2.307
 4516SOL    HW130690   3.607   6.190   2.377
 4516SOL    HW230691   3.624   6.143   2.233
 4517SOL     OW30692   0.801   3.295   1.007
 4517SOL    HW130693   0.865   3.348   0.959
 4517SOL    HW230694   0.851   3.219   1.036
 4518SOL     OW30695   3.948   0.696   6.737
 4518SOL    HW130696   3.912   0.762   6.795
 4518SOL    HW230697   4.037   0.682   6.768
 4519SOL     OW30698   2.175   5.521   6.069
 4519SOL    HW130699   2.188   5.444   6.014
 4519SOL    HW230700   2.189   5.595   6.010
 4520SOL     OW30701   0.744   1.832   6.420
 4520SOL    HW130702   0.747   1.927   6.414
 4520SOL    HW230703   0.739   1.814   6.514
 4521SOL     OW30704   2.718   5.484   1.945
 4521SOL    HW130705   2.785   5.525   1.890
 4521SOL    HW230706   2.671   5.426   1.886
 4522SOL     OW30707   0.926   3.244   0.726
 4522SOL    HW130708   0.989   3.265   0.657
 4522SOL    HW230709   0.859   3.311   0.719
 4523SOL     OW30710   2.244   0.797   7.373
 4523SOL    HW130711   2.168   0.752   7.408
 4523SOL    HW230712   2.211   0.842   7.295
 4524SOL     OW30713   3.918   0.048   5.638
 4524SOL    HW130714   3.913  -0.047   5.628
 4524SOL    HW230715   3.826   0.077   5.637
 4525SOL     OW30716   3.022   1.576   5.754
 4525SOL    HW130717   3.111   1.543   5.760
 4525SOL    HW230718   3.025   1.642   5.685
 4526SOL     OW30719   6.334   2.674   1.067
 4526SOL    HW130720   6.348   2.615   1.141
 4526SOL    HW230721   6.255   2.723   1.090
 4527SOL     OW30722   4.973   4.400   0.602
 4527SOL    HW130723   4.922   4.319   0.597
 4527SOL    HW230724   4.994   4.421   0.512
 4528SOL     OW30725   0.755   4.880   6.494
 4528SOL    HW130726   0.746   4.930   6.575
 4528SOL    HW230727   0.666   4.855   6.471
 4529SOL     OW30728   5.270   2.608   1.340
 4529SOL    HW130729   5.345   2.623   1.399
 4529SOL    HW230730   5.200   2.580   1.398
 4530SOL     OW30731   3.255   4.339   5.757
 4530SOL    HW130732   3.185   4.384   5.804
 4530SOL    HW230733   3.333   4.392   5.774
 4531SOL     OW30734   1.615   4.929   0.497
 4531SOL    HW130735   1.623   4.998   0.563
 4531SOL    HW230736   1.554   4.866   0.535
 4532SOL     OW30737   0.925   2.735   1.508
 4532SOL    HW130738   0.857   2.784   1.461
 4532SOL    HW230739   1.006   2.781   1.489
 4533SOL     OW30740   6.438   2.922   1.214
 4533SOL    HW130741   6.492   2.987   1.170
 4533SOL    HW230742   6.348   2.951   1.200
 4534SOL     OW30743   1.839   5.631   1.175
 4534SOL    HW130744   1.869   5.653   1.263
 4534SOL    HW230745   1.748   5.604   1.187
 4535SOL     OW30746   1.387   0.789   1.601
 4535SOL    HW130747   1.378   0.738   1.681
 4535SOL    HW230748   1.374   0.725   1.530
 4536SOL     OW30749   4.088   3.674   7.809
 4536SOL    HW130750   4.067   3.598   7.864
 4536SOL    HW230751   4.172   3.651   7.769
 4537SOL     OW30752   5.952   4.304   1.685
 4537SOL    HW130753   5.987   4.215   1.684
 4537SOL    HW230754   5.858   4.293   1.697
 4538SOL     OW30755   2.648   3.775   7.008
 4538SOL    HW130756   2.578   3.818   6.959
 4538SOL    HW230757   2.608   3.755   7.093
 4539SOL     OW30758   3.087   4.136   1.082
 4539SOL    HW130759   3.105   4.230   1.083
 4539SOL    HW230760   2.991   4.130   1.087
 4540SOL     OW30761   2.194   4.762   6.577
 4540SOL    HW130762   2.163   4.744   6.488
 4540SOL    HW230763   2.169   4.684   6.627
 4541SOL     OW30764   3.788   5.043   0.705
 4541SOL    HW130765   3.713   5.002   0.748
 4541SOL    HW230766   3.825   4.974   0.650
 4542SOL     OW30767   2.881   1.925   5.742
 4542SOL    HW130768   2.823   1.946   5.669
 4542SOL    HW230769   2.957   1.883   5.702
 4543SOL     OW30770   4.805   2.236   6.923
 4543SOL    HW130771   4.876   2.293   6.952
 4543SOL    HW230772   4.753   2.291   6.864
 4544SOL     OW30773   5.683   5.722   7.422
 4544SOL    HW130774   5.658   5.641   7.379
 4544SOL    HW230775   5.657   5.710   7.514
 4545SOL     OW30776   0.316   1.440   7.451
 4545SOL    HW130777   0.362   1.370   7.404
 4545SOL    HW230778   0.344   1.521   7.409
 4546SOL     OW30779   3.687   4.134   7.105
 4546SOL    HW130780   3.628   4.179   7.044
 4546SOL    HW230781   3.671   4.177   7.189
 4547SOL     OW30782   4.439   6.125   6.902
 4547SOL    HW130783   4.474   6.044   6.866
 4547SOL    HW230784   4.455   6.120   6.996
 4548SOL     OW30785   5.077   0.527   1.167
 4548SOL    HW130786   5.154   0.479   1.197
 4548SOL    HW230787   5.045   0.478   1.092
 4549SOL     OW30788   1.926   1.756   0.105
 4549SOL    HW130789   1.904   1.770   0.198
 4549SOL    HW230790   2.021   1.764   0.102
 4550SOL     OW30791   5.245   1.605   7.231
 4550SOL    HW130792   5.186   1.679   7.247
 4550SOL    HW230793   5.253   1.600   7.136
 4551SOL     OW30794   3.724   3.487   1.132
 4551SOL    HW130795   3.656   3.420   1.140
 4551SOL    HW230796   3.770   3.485   1.216
 4552SOL     OW30797   2.926   1.760   7.653
 4552SOL    HW130798   2.944   1.755   7.560
 4552SOL    HW230799   2.980   1.691   7.692
 4553SOL     OW30800   4.484   3.681   6.237
 4553SOL    HW130801   4.428   3.730   6.178
 4553SOL    HW230802   4.464   3.716   6.324
 4554SOL     OW30803   3.662   6.112   7.002
 4554SOL    HW130804   3.575   6.142   6.976
 4554SOL    HW230805   3.698   6.185   7.051
 4555SOL     OW30806   3.149   5.626   6.776
 4555SOL    HW130807   3.188   5.709   6.805
 4555SOL    HW230808   3.063   5.651   6.742
 4556SOL     OW30809   3.584   0.209   7.622
 4556SOL    HW130810   3.632   0.236   7.544
 4556SOL    HW230811   3.632   0.133   7.655
 4557SOL     OW30812   6.130   6.416   1.264
 4557SOL    HW130813   6.203   6.395   1.323
 4557SOL    HW230814   6.088   6.492   1.304
 4558SOL     OW30815   1.247   2.684   6.343
 4558SOL    HW130816   1.271   2.609   6.399
 4558SOL    HW230817   1.268   2.655   6.254
 4559SOL     OW30818   6.070   0.155   1.542
 4559SOL    HW130819   6.093   0.063   1.556
 4559SOL    HW230820   6.151   0.195   1.511
 4560SOL     OW30821   4.529   3.110   2.161
 4560SOL    HW130822   4.596   3.049   2.132
 4560SOL    HW230823   4.462   3.107   2.093
 4561SOL     OW30824   5.936   2.591   0.751
 4561SOL    HW130825   5.933   2.505   0.792
 4561SOL    HW230826   5.854   2.598   0.703
 4562SOL     OW30827   3.396   1.340   5.787
 4562SOL    HW130828   3.398   1.246   5.804
 4562SOL    HW230829   3.487   1.364   5.774
 4563SOL     OW30830   2.253   3.281   7.485
 4563SOL    HW130831   2.241   3.211   7.420
 4563SOL    HW230832   2.181   3.269   7.547
 4564SOL     OW30833   2.426   2.734   5.360
 4564SOL    HW130834   2.465   2.676   5.295
 4564SOL    HW230835   2.340   2.757   5.324
 4565SOL     OW30836   4.494   3.021   0.467
 4565SOL    HW130837   4.553   2.949   0.491
 4565SOL    HW230838   4.469   3.003   0.377
 4566SOL     OW30839   5.357   1.068   0.289
 4566SOL    HW130840   5.283   1.112   0.248
 4566SOL    HW230841   5.392   1.133   0.351
 4567SOL     OW30842   3.416   2.130   0.108
 4567SOL    HW130843   3.328   2.142   0.074
 4567SOL    HW230844   3.423   2.037   0.125
 4568SOL     OW30845   4.675   4.819   6.707
 4568SOL    HW130846   4.598   4.793   6.759
 4568SOL    HW230847   4.638   4.859   6.628
 4569SOL     OW30848   1.271   6.053   0.688
 4569SOL    HW130849   1.322   6.063   0.768
 4569SOL    HW230850   1.327   6.089   0.619
 4570SOL     OW30851   3.997   0.843   7.128
 4570SOL    HW130852   3.928   0.781   7.154
 4570SOL    HW230853   4.035   0.873   7.210
 4571SOL     OW30854   6.267   3.935   1.399
 4571SOL    HW130855   6.328   3.875   1.442
 4571SOL    HW230856   6.260   3.902   1.309
 4572SOL     OW30857   0.900   6.329   2.090
 4572SOL    HW130858   0.855   6.353   2.009
 4572SOL    HW230859   0.993   6.325   2.066
 4573SOL     OW30860   1.680   2.473   7.560
 4573SOL    HW130861   1.645   2.548   7.510
 4573SOL    HW230862   1.702   2.510   7.645
 4574SOL     OW30863   1.173   0.525   0.185
 4574SOL    HW130864   1.195   0.593   0.122
 4574SOL    HW230865   1.220   0.447   0.154
 4575SOL     OW30866   3.665   0.169   7.112
 4575SOL    HW130867   3.656   0.127   7.027
 4575SOL    HW230868   3.644   0.261   7.096
 4576SOL     OW30869   6.298   0.661   5.898
 4576SOL    HW130870   6.217   0.690   5.940
 4576SOL    HW230871   6.323   0.582   5.946
 4577SOL     OW30872   5.675   2.216   1.015
 4577SOL    HW130873   5.695   2.134   0.969
 4577SOL    HW230874   5.596   2.195   1.066
 4578SOL     OW30875   4.448   5.945   0.522
 4578SOL    HW130876   4.465   5.948   0.616
 4578SOL    HW230877   4.353   5.943   0.515
 4579SOL     OW30878   0.023   1.664   7.438
 4579SOL    HW130879   0.012   1.602   7.510
 4579SOL    HW230880   0.030   1.609   7.360
 4580SOL     OW30881   0.092   5.989   0.143
 4580SOL    HW130882   0.124   6.068   0.098
 4580SOL    HW230883   0.164   5.927   0.136
 4581SOL     OW30884   6.412   3.261   7.416
 4581SOL    HW130885   6.372   3.217   7.491
 4581SOL    HW230886   6.494   3.214   7.401
 4582SOL     OW30887   2.081   2.669   0.826
 4582SOL    HW130888   2.026   2.670   0.905
 4582SOL    HW230889   2.167   2.698   0.857
 4583SOL     OW30890   4.482   0.566   1.373
 4583SOL    HW130891   4.503   0.490   1.319
 4583SOL    HW230892   4.543   0.634   1.345
 4584SOL     OW30893   1.616   4.125   2.028
 4584SOL    HW130894   1.617   4.134   2.123
 4584SOL    HW230895   1.654   4.038   2.012
 4585SOL     OW30896   4.980   0.256   1.461
 4585SOL    HW130897   5.039   0.329   1.445
 4585SOL    HW230898   5.023   0.180   1.422
 4586SOL     OW30899   5.297   3.841   7.200
 4586SOL    HW130900   5.367   3.882   7.150
 4586SOL    HW230901   5.274   3.906   7.267
 4587SOL     OW30902   1.972   0.694   1.606
 4587SOL    HW130903   2.016   0.609   1.613
 4587SOL    HW230904   1.882   0.676   1.633
 4588SOL     OW30905   2.323   4.032   7.645
 4588SOL    HW130906   2.297   4.094   7.713
 4588SOL    HW230907   2.301   3.946   7.682
 4589SOL     OW30908   6.180   4.256   0.989
 4589SOL    HW130909   6.112   4.278   0.925
 4589SOL    HW230910   6.255   4.228   0.937
 4590SOL     OW30911   6.364   6.008   0.592
 4590SOL    HW130912   6.449   5.976   0.563
 4590SOL    HW230913   6.349   5.965   0.676
 4591SOL     OW30914   3.104   6.433   6.769
 4591SOL    HW130915   3.084   6.478   6.686
 4591SOL    HW230916   3.125   6.343   6.743
 4592SOL     OW30917   2.670   4.760   6.789
 4592SOL    HW130918   2.714   4.748   6.705
 4592SOL    HW230919   2.711   4.837   6.827
 4593SOL     OW30920   1.850   3.584   6.237
 4593SOL    HW130921   1.790   3.585   6.312
 4593SOL    HW230922   1.871   3.676   6.221
 4594SOL     OW30923   0.228   1.610   6.791
 4594SOL    HW130924   0.216   1.538   6.729
 4594SOL    HW230925   0.232   1.689   6.737
 4595SOL     OW30926   4.545   3.923   5.097
 4595SOL    HW130927   4.527   4.011   5.062
 4595SOL    HW230928   4.459   3.890   5.122
 4596SOL     OW30929   2.928   0.810   1.151
 4596SOL    HW130930   2.987   0.783   1.221
 4596SOL    HW230931   2.867   0.871   1.194
 4597SOL     OW30932   1.674   3.885   1.620
 4597SOL    HW130933   1.599   3.853   1.569
 4597SOL    HW230934   1.634   3.918   1.701
 4598SOL     OW30935   2.575   5.805   0.008
 4598SOL    HW130936   2.641   5.762   0.062
 4598SOL    HW230937   2.558   5.743  -0.063
 4599SOL     OW30938   4.945   5.590   6.321
 4599SOL    HW130939   5.007   5.657   6.351
 4599SOL    HW230940   4.947   5.598   6.225
 4600SOL     OW30941   1.096   2.069   1.372
 4600SOL    HW130942   1.153   2.144   1.354
 4600SOL    HW230943   1.072   2.078   1.464
 4601SOL     OW30944   3.383   3.559   7.719
 4601SOL    HW130945   3.450   3.608   7.767
 4601SOL    HW230946   3.347   3.621   7.657
 4602SOL     OW30947   3.689   3.837   1.982
 4602SOL    HW130948   3.700   3.914   2.038
 4602SOL    HW230949   3.695   3.872   1.893
 4603SOL     OW30950   1.420   0.266   1.556
 4603SOL    HW130951   1.351   0.306   1.609
 4603SOL    HW230952   1.374   0.214   1.491
 4604SOL     OW30953   0.150   2.062   1.066
 4604SOL    HW130954   0.157   2.128   0.997
 4604SOL    HW230955   0.235   2.019   1.067
 4605SOL     OW30956   2.579   6.048   6.554
 4605SOL    HW130957   2.521   6.039   6.630
 4605SOL    HW230958   2.613   6.137   6.561
 4606SOL     OW30959   1.687   5.787   1.907
 4606SOL    HW130960   1.597   5.795   1.939
 4606SOL    HW230961   1.725   5.874   1.921
 4607SOL     OW30962   2.009   3.408   1.295
 4607SOL    HW130963   2.004   3.372   1.206
 4607SOL    HW230964   2.030   3.333   1.350
 4608SOL     OW30965   3.095   5.304   0.254
 4608SOL    HW130966   2.999   5.309   0.255
 4608SOL    HW230967   3.116   5.282   0.164
 4609SOL     OW30968   1.208   3.829   7.252
 4609SOL    HW130969   1.118   3.832   7.221
 4609SOL    HW230970   1.262   3.835   7.173
 4610SOL     OW30971   5.145   2.497   0.086
 4610SOL    HW130972   5.096   2.507   0.168
 4610SOL    HW230973   5.086   2.449   0.028
 4611SOL     OW30974   3.513   3.515   7.080
 4611SOL    HW130975   3.451   3.497   7.151
 4611SOL    HW230976   3.576   3.443   7.085
 4612SOL     OW30977   3.618   2.274   6.184
 4612SOL    HW130978   3.633   2.213   6.256
 4612SOL    HW230979   3.705   2.296   6.152
 4613SOL     OW30980   4.310   3.348   5.492
 4613SOL    HW130981   4.393   3.305   5.474
 4613SOL    HW230982   4.245   3.278   5.486
 4614SOL     OW30983   2.089   1.938   0.721
 4614SOL    HW130984   2.007   1.891   0.738
 4614SOL    HW230985   2.155   1.893   0.774
 4615SOL     OW30986   2.477   4.588   0.469
 4615SOL    HW130987   2.547   4.571   0.532
 4615SOL    HW230988   2.486   4.681   0.448
 4616SOL     OW30989   2.643   2.093   6.367
 4616SOL    HW130990   2.595   2.168   6.333
 4616SOL    HW230991   2.642   2.104   6.462
 4617SOL     OW30992   3.146   1.338   6.736
 4617SOL    HW130993   3.059   1.354   6.773
 4617SOL    HW230994   3.167   1.249   6.762
 4618SOL     OW30995   3.428   5.553   7.395
 4618SOL    HW130996   3.414   5.572   7.487
 4618SOL    HW230997   3.342   5.564   7.354
 4619SOL     OW30998   1.598   3.154   6.700
 4619SOL    HW130999   1.643   3.236   6.722
 4619SOL    HW231000   1.505   3.176   6.703
 4620SOL     OW31001   5.234   5.602   1.089
 4620SOL    HW131002   5.310   5.601   1.031
 4620SOL    HW231003   5.192   5.517   1.074
 4621SOL     OW31004   0.402   2.640   7.301
 4621SOL    HW131005   0.457   2.579   7.252
 4621SOL    HW231006   0.313   2.617   7.277
 4622SOL     OW31007   5.922   5.900   6.847
 4622SOL    HW131008   5.866   5.830   6.814
 4622SOL    HW231009   5.865   5.953   6.902
 4623SOL     OW31010   3.865   4.164   7.700
 4623SOL    HW131011   3.870   4.069   7.694
 4623SOL    HW231012   3.856   4.181   7.794
 4624SOL     OW31013   3.472   2.901   1.085
 4624SOL    HW131014   3.438   2.829   1.138
 4624SOL    HW231015   3.453   2.979   1.136
 4625SOL     OW31016   4.232   3.640   1.093
 4625SOL    HW131017   4.142   3.626   1.063
 4625SOL    HW231018   4.224   3.659   1.186
 4626SOL     OW31019   3.466   1.008   7.490
 4626SOL    HW131020   3.467   1.017   7.395
 4626SOL    HW231021   3.538   0.947   7.509
 4627SOL     OW31022   4.949   2.127   1.906
 4627SOL    HW131023   4.916   2.117   1.817
 4627SOL    HW231024   4.872   2.154   1.957
 4628SOL     OW31025   0.105   1.276   1.222
 4628SOL    HW131026   0.090   1.236   1.308
 4628SOL    HW231027   0.034   1.242   1.168
 4629SOL     OW31028   4.732   0.373   1.446
 4629SOL    HW131029   4.745   0.399   1.355
 4629SOL    HW231030   4.817   0.338   1.474
 4630SOL     OW31031   0.275   0.830   6.718
 4630SOL    HW131032   0.275   0.833   6.814
 4630SOL    HW231033   0.352   0.882   6.692
 4631SOL     OW31034   2.959   3.976   5.939
 4631SOL    HW131035   2.963   3.949   5.847
 4631SOL    HW231036   3.030   4.040   5.948
 4632SOL     OW31037   1.957   2.145   5.924
 4632SOL    HW131038   1.976   2.132   6.017
 4632SOL    HW231039   1.862   2.134   5.917
 4633SOL     OW31040   4.859   5.868   6.662
 4633SOL    HW131041   4.952   5.848   6.664
 4633SOL    HW231042   4.847   5.923   6.585
 4634SOL     OW31043   3.507   2.157   0.346
 4634SOL    HW131044   3.603   2.163   0.346
 4634SOL    HW231045   3.484   2.143   0.254
 4635SOL     OW31046   4.969   4.704   7.296
 4635SOL    HW131047   4.948   4.683   7.386
 4635SOL    HW231048   5.003   4.622   7.259
 4636SOL     OW31049   4.980   1.049   1.912
 4636SOL    HW131050   4.901   1.100   1.892
 4636SOL    HW231051   4.973   1.030   2.005
 4637SOL     OW31052   4.781   3.390   7.202
 4637SOL    HW131053   4.839   3.375   7.277
 4637SOL    HW231054   4.694   3.396   7.240
 4638SOL     OW31055   2.732   6.200   5.597
 4638SOL    HW131056   2.736   6.293   5.575
 4638SOL    HW231057   2.670   6.195   5.670
 4639SOL     OW31058   3.934   0.091   6.825
 4639SOL    HW131059   3.914   0.002   6.797
 4639SOL    HW231060   3.927   0.088   6.921
 4640SOL     OW31061   2.550   5.644   0.928
 4640SOL    HW131062   2.578   5.559   0.961
 4640SOL    HW231063   2.490   5.624   0.856
 4641SOL     OW31064   2.187   5.994   6.535
 4641SOL    HW131065   2.140   6.055   6.478
 4641SOL    HW231066   2.175   6.029   6.623
 4642SOL     OW31067   4.954   1.636   6.485
 4642SOL    HW131068   4.910   1.672   6.562
 4642SOL    HW231069   5.008   1.565   6.519
 4643SOL     OW31070   2.408   1.898   6.667
 4643SOL    HW131071   2.436   1.824   6.613
 4643SOL    HW231072   2.489   1.929   6.708
 4644SOL     OW31073   2.244   5.066   2.252
 4644SOL    HW131074   2.155   5.043   2.224
 4644SOL    HW231075   2.298   4.994   2.220
 4645SOL     OW31076   1.229   3.818   0.058
 4645SOL    HW131077   1.285   3.769   0.118
 4645SOL    HW231078   1.283   3.891   0.028
 4646SOL     OW31079   4.979   6.139   5.893
 4646SOL    HW131080   4.945   6.226   5.871
 4646SOL    HW231081   4.928   6.112   5.969
 4647SOL     OW31082   2.897   2.478   5.878
 4647SOL    HW131083   2.860   2.535   5.946
 4647SOL    HW231084   2.861   2.391   5.897
 4648SOL     OW31085   2.805   0.566   1.063
 4648SOL    HW131086   2.711   0.574   1.075
 4648SOL    HW231087   2.840   0.652   1.088
 4649SOL     OW31088   5.340   4.801   0.853
 4649SOL    HW131089   5.286   4.729   0.821
 4649SOL    HW231090   5.280   4.857   0.901
 4650SOL     OW31091   0.483   3.745   1.236
 4650SOL    HW131092   0.479   3.711   1.325
 4650SOL    HW231093   0.565   3.795   1.232
 4651SOL     OW31094   5.109   0.846   6.978
 4651SOL    HW131095   5.031   0.827   6.925
 4651SOL    HW231096   5.087   0.928   7.023
 4652SOL     OW31097   4.549   0.861   6.890
 4652SOL    HW131098   4.629   0.874   6.940
 4652SOL    HW231099   4.515   0.776   6.919
 4653SOL     OW31100   0.421   5.225   1.131
 4653SOL    HW131101   0.361   5.185   1.069
 4653SOL    HW231102   0.366   5.284   1.183
 4654SOL     OW31103   5.913   4.038   0.753
 4654SOL    HW131104   5.861   4.052   0.832
 4654SOL    HW231105   5.883   3.954   0.719
 4655SOL     OW31106   4.152   1.196   0.419
 4655SOL    HW131107   4.223   1.164   0.364
 4655SOL    HW231108   4.187   1.275   0.460
 4656SOL     OW31109   4.778   5.280   6.843
 4656SOL    HW131110   4.742   5.304   6.929
 4656SOL    HW231111   4.802   5.364   6.804
 4657SOL     OW31112   2.854   3.624   7.429
 4657SOL    HW131113   2.790   3.602   7.497
 4657SOL    HW231114   2.811   3.601   7.347
 4658SOL     OW31115   2.863   6.210   7.755
 4658SOL    HW131116   2.850   6.289   7.807
 4658SOL    HW231117   2.847   6.138   7.816
 4659SOL     OW31118   1.777   0.480   1.369
 4659SOL    HW131119   1.711   0.505   1.434
 4659SOL    HW231120   1.793   0.560   1.319
 4660SOL     OW31121   0.453   5.283   6.658
 4660SOL    HW131122   0.407   5.236   6.728
 4660SOL    HW231123   0.546   5.277   6.682
 4661SOL     OW31124   1.185   5.122   0.195
 4661SOL    HW131125   1.101   5.169   0.192
 4661SOL    HW231126   1.212   5.116   0.103
 4662SOL     OW31127   4.614   4.487   0.949
 4662SOL    HW131128   4.599   4.578   0.920
 4662SOL    HW231129   4.576   4.434   0.879
 4663SOL     OW31130   2.924   1.043   0.520
 4663SOL    HW131131   2.944   0.990   0.443
 4663SOL    HW231132   2.936   1.133   0.491
 4664SOL     OW31133   4.357   6.100   6.063
 4664SOL    HW131134   4.452   6.105   6.051
 4664SOL    HW231135   4.328   6.191   6.067
 4665SOL     OW31136   6.052   0.705   6.949
 4665SOL    HW131137   6.147   0.695   6.952
 4665SOL    HW231138   6.034   0.776   7.012
 4666SOL     OW31139   0.299   1.985   2.178
 4666SOL    HW131140   0.345   2.046   2.120
 4666SOL    HW231141   0.367   1.952   2.237
 4667SOL     OW31142   5.257   1.552   6.314
 4667SOL    HW131143   5.236   1.459   6.324
 4667SOL    HW231144   5.344   1.553   6.275
 4668SOL     OW31145   0.964   3.823   6.855
 4668SOL    HW131146   0.957   3.820   6.950
 4668SOL    HW231147   0.877   3.800   6.823
 4669SOL     OW31148   3.342   2.868   5.099
 4669SOL    HW131149   3.266   2.925   5.109
 4669SOL    HW231150   3.340   2.811   5.175
 4670SOL     OW31151   6.419   5.813   5.612
 4670SOL    HW131152   6.358   5.778   5.677
 4670SOL    HW231153   6.485   5.744   5.602
 4671SOL     OW31154   4.410   1.282   1.780
 4671SOL    HW131155   4.326   1.280   1.825
 4671SOL    HW231156   4.474   1.293   1.851
 4672SOL     OW31157   3.886   2.050   0.523
 4672SOL    HW131158   3.902   2.128   0.470
 4672SOL    HW231159   3.811   2.007   0.482
 4673SOL     OW31160   1.827   3.842   6.965
 4673SOL    HW131161   1.835   3.936   6.979
 4673SOL    HW231162   1.878   3.803   7.037
 4674SOL     OW31163   0.131   5.067   1.312
 4674SOL    HW131164   0.169   5.094   1.396
 4674SOL    HW231165   0.037   5.081   1.323
 4675SOL     OW31166   1.957   3.198   6.023
 4675SOL    HW131167   1.954   3.233   6.112
 4675SOL    HW231168   1.955   3.275   5.966
 4676SOL     OW31169   4.262   3.770   6.448
 4676SOL    HW131170   4.264   3.837   6.380
 4676SOL    HW231171   4.350   3.772   6.486
 4677SOL     OW31172   1.168   0.998   7.109
 4677SOL    HW131173   1.137   0.991   7.019
 4677SOL    HW231174   1.192   1.090   7.120
 4678SOL     OW31175   2.593   1.236   6.648
 4678SOL    HW131176   2.564   1.324   6.668
 4678SOL    HW231177   2.557   1.182   6.719
 4679SOL     OW31178   1.382   1.415   7.701
 4679SOL    HW131179   1.409   1.392   7.789
 4679SOL    HW231180   1.463   1.422   7.651
 4680SOL     OW31181   4.865   3.581   6.590
 4680SOL    HW131182   4.829   3.525   6.521
 4680SOL    HW231183   4.959   3.569   6.585
 4681SOL     OW31184   6.274   5.076   0.705
 4681SOL    HW131185   6.219   5.009   0.664
 4681SOL    HW231186   6.281   5.145   0.639
 4682SOL     OW31187   1.038   4.807   7.731
 4682SOL    HW131188   1.062   4.715   7.723
 4682SOL    HW231189   0.944   4.809   7.714
 4683SOL     OW31190   4.644   1.425   6.347
 4683SOL    HW131191   4.585   1.499   6.336
 4683SOL    HW231192   4.633   1.399   6.439
 4684SOL     OW31193   2.768   3.996   6.377
 4684SOL    HW131194   2.817   3.942   6.438
 4684SOL    HW231195   2.776   3.950   6.293
 4685SOL     OW31196   3.074   1.934   2.075
 4685SOL    HW131197   3.011   1.959   2.143
 4685SOL    HW231198   3.037   1.855   2.035
 4686SOL     OW31199   4.258   3.455   6.837
 4686SOL    HW131200   4.293   3.440   6.750
 4686SOL    HW231201   4.269   3.549   6.852
 4687SOL     OW31202   0.379   0.419   7.519
 4687SOL    HW131203   0.348   0.341   7.472
 4687SOL    HW231204   0.427   0.469   7.453
 4688SOL     OW31205   4.433   0.517   6.862
 4688SOL    HW131206   4.429   0.451   6.931
 4688SOL    HW231207   4.358   0.574   6.878
 4689SOL     OW31208   2.623   2.645   2.392
 4689SOL    HW131209   2.605   2.577   2.457
 4689SOL    HW231210   2.596   2.727   2.434
 4690SOL     OW31211   0.638   6.255   1.187
 4690SOL    HW131212   0.609   6.176   1.232
 4690SOL    HW231213   0.584   6.325   1.223
 4691SOL     OW31214   0.708   0.482   5.455
 4691SOL    HW131215   0.673   0.443   5.536
 4691SOL    HW231216   0.732   0.406   5.401
 4692SOL     OW31217   0.979   3.959   6.372
 4692SOL    HW131218   0.935   3.989   6.292
 4692SOL    HW231219   1.041   4.029   6.392
 4693SOL     OW31220   1.003   3.971   0.030
 4693SOL    HW131221   1.082   3.925   0.060
 4693SOL    HW231222   0.977   4.024   0.106
 4694SOL     OW31223   0.954   3.648   5.491
 4694SOL    HW131224   0.867   3.635   5.455
 4694SOL    HW231225   0.986   3.728   5.449
 4695SOL     OW31226   4.610   3.185   6.292
 4695SOL    HW131227   4.533   3.227   6.331
 4695SOL    HW231228   4.619   3.227   6.206
 4696SOL     OW31229   5.348   3.065   7.321
 4696SOL    HW131230   5.389   3.151   7.315
 4696SOL    HW231231   5.276   3.068   7.258
 4697SOL     OW31232   6.447   3.405   7.186
 4697SOL    HW131233   6.359   3.399   7.150
 4697SOL    HW231234   6.441   3.366   7.273
 4698SOL     OW31235   2.976   1.082   6.446
 4698SOL    HW131236   3.031   1.131   6.508
 4698SOL    HW231237   2.996   0.990   6.464
 4699SOL     OW31238   5.170   4.112   0.859
 4699SOL    HW131239   5.114   4.189   0.870
 4699SOL    HW231240   5.258   4.148   0.843
 4700SOL     OW31241   3.911   0.215   6.394
 4700SOL    HW131242   3.911   0.238   6.487
 4700SOL    HW231243   3.940   0.124   6.392
 4701SOL     OW31244   2.426   1.010   7.263
 4701SOL    HW131245   2.358   1.003   7.196
 4701SOL    HW231246   2.385   0.972   7.341
 4702SOL     OW31247   3.879   0.682   7.654
 4702SOL    HW131248   3.969   0.706   7.631
 4702SOL    HW231249   3.885   0.655   7.746
 4703SOL     OW31250   1.663   6.348   6.767
 4703SOL    HW131251   1.679   6.427   6.715
 4703SOL    HW231252   1.731   6.287   6.740
 4704SOL     OW31253   5.826   3.814   1.295
 4704SOL    HW131254   5.901   3.817   1.236
 4704SOL    HW231255   5.791   3.904   1.293
 4705SOL     OW31256   2.835   3.183   1.501
 4705SOL    HW131257   2.748   3.217   1.522
 4705SOL    HW231258   2.818   3.108   1.444
 4706SOL     OW31259   2.216   1.615   6.617
 4706SOL    HW131260   2.288   1.558   6.591
 4706SOL    HW231261   2.228   1.695   6.565
 4707SOL     OW31262   1.706   1.053   0.997
 4707SOL    HW131263   1.647   0.996   1.047
 4707SOL    HW231264   1.696   1.024   0.906
 4708SOL     OW31265   5.558   0.332   7.518
 4708SOL    HW131266   5.616   0.328   7.443
 4708SOL    HW231267   5.605   0.286   7.588
 4709SOL     OW31268   6.309   5.598   6.173
 4709SOL    HW131269   6.338   5.664   6.110
 4709SOL    HW231270   6.391   5.559   6.205
 4710SOL     OW31271   0.826   5.570   5.550
 4710SOL    HW131272   0.868   5.645   5.507
 4710SOL    HW231273   0.792   5.605   5.633
 4711SOL     OW31274   0.165   5.951   1.959
 4711SOL    HW131275   0.238   5.965   1.899
 4711SOL    HW231276   0.172   6.022   2.023
 4712SOL     OW31277   0.686   2.711   7.776
 4712SOL    HW131278   0.629   2.635   7.767
 4712SOL    HW231279   0.747   2.688   7.845
 4713SOL     OW31280   1.345   4.201   0.434
 4713SOL    HW131281   1.339   4.117   0.481
 4713SOL    HW231282   1.320   4.180   0.344
 4714SOL     OW31283   5.598   2.457   1.543
 4714SOL    HW131284   5.537   2.516   1.588
 4714SOL    HW231285   5.683   2.478   1.580
 4715SOL     OW31286   2.410   2.477   7.520
 4715SOL    HW131287   2.458   2.541   7.468
 4715SOL    HW231288   2.396   2.520   7.605
 4716SOL     OW31289   3.907   6.266   2.201
 4716SOL    HW131290   3.833   6.231   2.251
 4716SOL    HW231291   3.933   6.345   2.248
 4717SOL     OW31292   2.400   2.723   0.302
 4717SOL    HW131293   2.447   2.792   0.349
 4717SOL    HW231294   2.402   2.648   0.362
 4718SOL     OW31295   3.261   0.791   0.684
 4718SOL    HW131296   3.175   0.816   0.715
 4718SOL    HW231297   3.268   0.831   0.597
 4719SOL     OW31298   2.807   5.496   6.923
 4719SOL    HW131299   2.741   5.545   6.873
 4719SOL    HW231300   2.833   5.425   6.865
 4720SOL     OW31301   5.139   2.105   0.834
 4720SOL    HW131302   5.123   2.028   0.889
 4720SOL    HW231303   5.087   2.089   0.755
 4721SOL     OW31304   3.139   2.636   0.579
 4721SOL    HW131305   3.085   2.679   0.646
 4721SOL    HW231306   3.083   2.567   0.543
 4722SOL     OW31307   5.628   1.402   7.210
 4722SOL    HW131308   5.633   1.495   7.233
 4722SOL    HW231309   5.673   1.396   7.126
 4723SOL     OW31310   2.233   4.081   7.380
 4723SOL    HW131311   2.268   4.057   7.466
 4723SOL    HW231312   2.283   4.029   7.318
 4724SOL     OW31313   1.872   5.018   6.750
 4724SOL    HW131314   1.964   4.990   6.742
 4724SOL    HW231315   1.876   5.113   6.746
 4725SOL     OW31316   6.031   1.996   0.142
 4725SOL    HW131317   6.043   2.059   0.213
 4725SOL    HW231318   5.975   2.040   0.079
 4726SOL     OW31319   0.492   0.392   2.518
 4726SOL    HW131320   0.492   0.355   2.607
 4726SOL    HW231321   0.585   0.392   2.493
 4727SOL     OW31322   4.337   0.450   7.553
 4727SOL    HW131323   4.424   0.433   7.518
 4727SOL    HW231324   4.311   0.534   7.516
 4728SOL     OW31325   3.225   3.684   0.162
 4728SOL    HW131326   3.315   3.692   0.130
 4728SOL    HW231327   3.182   3.764   0.132
 4729SOL     OW31328   6.347   0.922   7.155
 4729SOL    HW131329   6.413   0.939   7.222
 4729SOL    HW231330   6.323   0.830   7.168
 4730SOL     OW31331   6.317   5.078   1.464
 4730SOL    HW131332   6.297   5.021   1.537
 4730SOL    HW231333   6.270   5.160   1.483
 4731SOL     OW31334   0.389   3.471   1.850
 4731SOL    HW131335   0.353   3.391   1.889
 4731SOL    HW231336   0.466   3.441   1.801
 4732SOL     OW31337   5.501   1.136   6.421
 4732SOL    HW131338   5.520   1.182   6.339
 4732SOL    HW231339   5.570   1.163   6.480
 4733SOL     OW31340   2.799   2.686   6.056
 4733SOL    HW131341   2.856   2.741   6.110
 4733SOL    HW231342   2.726   2.743   6.033
 4734SOL     OW31343   5.903   5.982   0.139
 4734SOL    HW131344   5.909   6.015   0.229
 4734SOL    HW231345   5.994   5.977   0.109
 4735SOL     OW31346   1.069   0.751   6.119
 4735SOL    HW131347   1.055   0.719   6.029
 4735SOL    HW231348   1.137   0.817   6.110
 4736SOL     OW31349   1.313   4.102   6.983
 4736SOL    HW131350   1.378   4.171   6.969
 4736SOL    HW231351   1.360   4.031   7.024
 4737SOL     OW31352   5.852   4.938   6.350
 4737SOL    HW131353   5.868   4.852   6.389
 4737SOL    HW231354   5.825   4.919   6.260
 4738SOL     OW31355   5.537   4.487   6.244
 4738SOL    HW131356   5.523   4.551   6.175
 4738SOL    HW231357   5.463   4.499   6.304
 4739SOL     OW31358   2.234   1.811   6.445
 4739SOL    HW131359   2.215   1.782   6.356
 4739SOL    HW231360   2.226   1.906   6.441
 4740SOL     OW31361   3.256   0.549   5.963
 4740SOL    HW131362   3.203   0.627   5.980
 4740SOL    HW231363   3.314   0.575   5.891
 4741SOL     OW31364   1.397   2.977   7.116
 4741SOL    HW131365   1.384   3.067   7.087
 4741SOL    HW231366   1.492   2.968   7.125
 4742SOL     OW31367   2.318   1.001   2.513
 4742SOL    HW131368   2.297   1.075   2.456
 4742SOL    HW231369   2.234   0.971   2.546
 4743SOL     OW31370   4.484   4.607   6.382
 4743SOL    HW131371   4.474   4.677   6.447
 4743SOL    HW231372   4.439   4.640   6.304
 4744SOL     OW31373   1.100   1.233   1.518
 4744SOL    HW131374   1.167   1.185   1.567
 4744SOL    HW231375   1.043   1.269   1.585
 4745SOL     OW31376   4.297   1.511   6.058
 4745SOL    HW131377   4.330   1.590   6.102
 4745SOL    HW231378   4.288   1.538   5.967
 4746SOL     OW31379   4.266   6.221   6.430
 4746SOL    HW131380   4.238   6.262   6.511
 4746SOL    HW231381   4.189   6.173   6.399
 4747SOL     OW31382   2.001   0.626   0.290
 4747SOL    HW131383   2.057   0.622   0.213
 4747SOL    HW231384   1.963   0.714   0.289
 4748SOL     OW31385   5.799   4.895   7.234
 4748SOL    HW131386   5.854   4.922   7.160
 4748SOL    HW231387   5.857   4.898   7.310
 4749SOL     OW31388   4.459   2.057   0.421
 4749SOL    HW131389   4.514   2.112   0.365
 4749SOL    HW231390   4.398   2.015   0.360
 4750SOL     OW31391   1.564   6.332   0.163
 4750SOL    HW131392   1.596   6.313   0.075
 4750SOL    HW231393   1.619   6.404   0.193
 4751SOL     OW31394   2.201   4.068   5.899
 4751SOL    HW131395   2.274   4.008   5.883
 4751SOL    HW231396   2.139   4.050   5.828
 4752SOL     OW31397   5.938   6.377   6.707
 4752SOL    HW131398   5.847   6.383   6.679
 4752SOL    HW231399   5.934   6.387   6.803
 4753SOL     OW31400   3.948   1.722   0.807
 4753SOL    HW131401   3.987   1.708   0.893
 4753SOL    HW231402   3.987   1.804   0.776
 4754SOL     OW31403   3.787   3.036   1.391
 4754SOL    HW131404   3.718   2.972   1.414
 4754SOL    HW231405   3.752   3.120   1.421
 4755SOL     OW31406   0.317   2.501   2.311
 4755SOL    HW131407   0.351   2.562   2.246
 4755SOL    HW231408   0.262   2.554   2.369
 4756SOL     OW31409   1.144   1.493   7.553
 4756SOL    HW131410   1.217   1.451   7.599
 4756SOL    HW231411   1.121   1.568   7.608
 4757SOL     OW31412   0.306   3.572   0.613
 4757SOL    HW131413   0.277   3.663   0.608
 4757SOL    HW231414   0.385   3.575   0.667
 4758SOL     OW31415   4.107   5.495   1.475
 4758SOL    HW131416   4.166   5.432   1.435
 4758SOL    HW231417   4.019   5.461   1.459
 4759SOL     OW31418   4.252   3.802   0.608
 4759SOL    HW131419   4.272   3.883   0.562
 4759SOL    HW231420   4.289   3.814   0.696
 4760SOL     OW31421   2.681   6.278   6.673
 4760SOL    HW131422   2.705   6.280   6.766
 4760SOL    HW231423   2.598   6.324   6.668
 4761SOL     OW31424   1.538   1.768   5.619
 4761SOL    HW131425   1.565   1.841   5.563
 4761SOL    HW231426   1.471   1.806   5.676
 4762SOL     OW31427   1.597   2.139   1.242
 4762SOL    HW131428   1.602   2.044   1.235
 4762SOL    HW231429   1.605   2.170   1.152
 4763SOL     OW31430   0.475   4.923   7.687
 4763SOL    HW131431   0.406   4.989   7.688
 4763SOL    HW231432   0.475   4.890   7.597
 4764SOL     OW31433   5.804   5.789   6.380
 4764SOL    HW131434   5.757   5.861   6.422
 4764SOL    HW231435   5.760   5.779   6.295
 4765SOL     OW31436   4.183   1.232   2.542
 4765SOL    HW131437   4.193   1.172   2.617
 4765SOL    HW231438   4.174   1.174   2.467
 4766SOL     OW31439   3.173   1.639   0.273
 4766SOL    HW131440   3.157   1.573   0.340
 4766SOL    HW231441   3.254   1.612   0.231
 4767SOL     OW31442   3.805   2.923   6.198
 4767SOL    HW131443   3.785   2.866   6.123
 4767SOL    HW231444   3.797   3.012   6.163
 4768SOL     OW31445   0.501   4.097   7.456
 4768SOL    HW131446   0.417   4.121   7.417
 4768SOL    HW231447   0.488   4.008   7.489
 4769SOL     OW31448   3.546   4.003   1.279
 4769SOL    HW131449   3.472   4.048   1.240
 4769SOL    HW231450   3.622   4.054   1.252
 4770SOL     OW31451   1.794   1.081   1.583
 4770SOL    HW131452   1.747   1.109   1.661
 4770SOL    HW231453   1.738   1.012   1.546
 4771SOL     OW31454   3.372   4.418   7.003
 4771SOL    HW131455   3.411   4.485   6.947
 4771SOL    HW231456   3.432   4.411   7.077
 4772SOL     OW31457   1.832   0.508   7.693
 4772SOL    HW131458   1.905   0.450   7.673
 4772SOL    HW231459   1.869   0.596   7.687
 4773SOL     OW31460   1.125   0.889   0.284
 4773SOL    HW131461   1.193   0.828   0.313
 4773SOL    HW231462   1.146   0.972   0.327
 4774SOL     OW31463   0.856   4.792   5.882
 4774SOL    HW131464   0.866   4.783   5.977
 4774SOL    HW231465   0.879   4.884   5.865
 4775SOL     OW31466   5.142   2.712   0.657
 4775SOL    HW131467   5.171   2.756   0.577
 4775SOL    HW231468   5.052   2.687   0.639
 4776SOL     OW31469   0.978   5.148   6.898
 4776SOL    HW131470   1.035   5.123   6.825
 4776SOL    HW231471   0.949   5.065   6.936
 4777SOL     OW31472   5.142   0.467   6.391
 4777SOL    HW131473   5.085   0.481   6.467
 4777SOL    HW231474   5.093   0.405   6.336
 4778SOL     OW31475   6.041   4.178   7.166
 4778SOL    HW131476   5.961   4.230   7.157
 4778SOL    HW231477   6.035   4.141   7.254
 4779SOL     OW31478   5.318   3.808   0.700
 4779SOL    HW131479   5.376   3.744   0.740
 4779SOL    HW231480   5.300   3.871   0.770
 4780SOL     OW31481   4.444   6.378   7.133
 4780SOL    HW131482   4.482   6.291   7.142
 4780SOL    HW231483   4.519   6.434   7.112
 4781SOL     OW31484   1.984   2.399   0.143
 4781SOL    HW131485   2.072   2.364   0.130
 4781SOL    HW231486   1.999   2.488   0.176
 4782SOL     OW31487   6.163   3.159   6.663
 4782SOL    HW131488   6.214   3.088   6.624
 4782SOL    HW231489   6.144   3.217   6.589
 4783SOL     OW31490   2.273   6.126   7.044
 4783SOL    HW131491   2.255   6.192   7.110
 4783SOL    HW231492   2.247   6.044   7.084
 4784SOL     OW31493   4.638   0.281   1.005
 4784SOL    HW131494   4.576   0.233   1.061
 4784SOL    HW231495   4.696   0.326   1.066
 4785SOL     OW31496   4.276   3.101   1.530
 4785SOL    HW131497   4.265   3.078   1.623
 4785SOL    HW231498   4.189   3.086   1.492
 4786SOL     OW31499   5.239   4.492   0.447
 4786SOL    HW131500   5.313   4.432   0.448
 4786SOL    HW231501   5.231   4.523   0.537
 4787SOL     OW31502   4.142   0.550   7.070
 4787SOL    HW131503   4.132   0.464   7.028
 4787SOL    HW231504   4.053   0.576   7.093
 4788SOL     OW31505   0.405   2.995   5.675
 4788SOL    HW131506   0.408   2.961   5.764
 4788SOL    HW231507   0.388   2.918   5.620
 4789SOL     OW31508   4.105   2.214   1.098
 4789SOL    HW131509   4.140   2.290   1.052
 4789SOL    HW231510   4.118   2.141   1.038
 4790SOL     OW31511   4.932   6.283   0.182
 4790SOL    HW131512   5.017   6.325   0.173
 4790SOL    HW231513   4.869   6.355   0.181
 4791SOL     OW31514   1.978   3.341   6.295
 4791SOL    HW131515   1.908   3.289   6.335
 4791SOL    HW231516   1.937   3.424   6.272
 4792SOL     OW31517   5.802   2.895   6.588
 4792SOL    HW131518   5.836   2.829   6.527
 4792SOL    HW231519   5.801   2.976   6.537
 4793SOL     OW31520   5.747   4.564   6.967
 4793SOL    HW131521   5.696   4.514   6.903
 4793SOL    HW231522   5.682   4.619   7.011
 4794SOL     OW31523   1.082   4.311   7.094
 4794SOL    HW131524   1.101   4.294   7.186
 4794SOL    HW231525   1.079   4.224   7.054
 4795SOL     OW31526   5.856   4.596   0.116
 4795SOL    HW131527   5.929   4.657   0.124
 4795SOL    HW231528   5.810   4.600   0.200
 4796SOL     OW31529   1.253   4.217   2.324
 4796SOL    HW131530   1.289   4.130   2.339
 4796SOL    HW231531   1.167   4.215   2.364
 4797SOL     OW31532   1.554   5.935   5.374
 4797SOL    HW131533   1.524   6.026   5.365
 4797SOL    HW231534   1.643   5.942   5.410
 4798SOL     OW31535   0.735   1.058   5.698
 4798SOL    HW131536   0.732   1.150   5.724
 4798SOL    HW231537   0.788   1.016   5.766
 4799SOL     OW31538   5.306   6.236   2.080
 4799SOL    HW131539   5.348   6.305   2.130
 4799SOL    HW231540   5.258   6.184   2.145
 4800SOL     OW31541   3.155   6.308   6.173
 4800SOL    HW131542   3.226   6.372   6.175
 4800SOL    HW231543   3.153   6.277   6.083
 4801SOL     OW31544   5.355   5.495   7.067
 4801SOL    HW131545   5.261   5.475   7.060
 4801SOL    HW231546   5.357   5.586   7.097
 4802SOL     OW31547   1.492   6.192   1.589
 4802SOL    HW131548   1.498   6.171   1.495
 4802SOL    HW231549   1.531   6.279   1.596
 4803SOL     OW31550   0.899   3.483   6.620
 4803SOL    HW131551   0.986   3.450   6.641
 4803SOL    HW231552   0.838   3.413   6.646
 4804SOL     OW31553   3.697   3.318   7.107
 4804SOL    HW131554   3.751   3.282   7.177
 4804SOL    HW231555   3.718   3.264   7.030
 4805SOL     OW31556   3.864   2.464   7.616
 4805SOL    HW131557   3.773   2.492   7.606
 4805SOL    HW231558   3.911   2.544   7.641
 4806SOL     OW31559   1.193   4.730   6.028
 4806SOL    HW131560   1.175   4.815   5.989
 4806SOL    HW231561   1.255   4.688   5.968
 4807SOL     OW31562   4.132   5.976   7.703
 4807SOL    HW131563   4.217   6.018   7.693
 4807SOL    HW231564   4.152   5.890   7.741
 4808SOL     OW31565   4.443   4.495   5.972
 4808SOL    HW131566   4.391   4.470   5.896
 4808SOL    HW231567   4.394   4.463   6.047
 4809SOL     OW31568   2.033   1.004   0.018
 4809SOL    HW131569   2.116   1.034   0.055
 4809SOL    HW231570   2.043   1.018  -0.077
 4810SOL     OW31571   0.893   4.661   6.647
 4810SOL    HW131572   0.853   4.714   6.578
 4810SOL    HW231573   0.914   4.578   6.604
 4811SOL     OW31574   1.741   2.816   2.050
 4811SOL    HW131575   1.728   2.791   1.959
 4811SOL    HW231576   1.656   2.849   2.079
 4812SOL     OW31577   1.324   1.304   2.317
 4812SOL    HW131578   1.231   1.290   2.303
 4812SOL    HW231579   1.367   1.257   2.245
 4813SOL     OW31580   4.545   0.418   0.560
 4813SOL    HW131581   4.474   0.476   0.533
 4813SOL    HW231582   4.558   0.438   0.653
 4814SOL     OW31583   4.080   5.363   5.197
 4814SOL    HW131584   4.077   5.458   5.191
 4814SOL    HW231585   4.132   5.346   5.276
 4815SOL     OW31586   0.748   5.018   0.839
 4815SOL    HW131587   0.658   4.988   0.827
 4815SOL    HW231588   0.752   5.046   0.931
 4816SOL     OW31589   4.966   2.228   0.311
 4816SOL    HW131590   5.027   2.159   0.338
 4816SOL    HW231591   4.964   2.222   0.216
 4817SOL     OW31592   1.871   5.595   1.464
 4817SOL    HW131593   1.816   5.672   1.472
 4817SOL    HW231594   1.900   5.576   1.553
 4818SOL     OW31595   5.498   3.363   6.915
 4818SOL    HW131596   5.477   3.455   6.896
 4818SOL    HW231597   5.593   3.360   6.914
 4819SOL     OW31598   0.885   4.731   1.264
 4819SOL    HW131599   0.872   4.824   1.280
 4819SOL    HW231600   0.980   4.719   1.266
 4820SOL     OW31601   0.631   0.369   5.681
 4820SOL    HW131602   0.725   0.385   5.692
 4820SOL    HW231603   0.612   0.297   5.740
 4821SOL     OW31604   3.352   4.333   5.471
 4821SOL    HW131605   3.339   4.304   5.561
 4821SOL    HW231606   3.293   4.277   5.420
 4822SOL     OW31607   2.048   0.335   7.703
 4822SOL    HW131608   2.006   0.250   7.695
 4822SOL    HW231609   2.077   0.357   7.615
 4823SOL     OW31610   0.846   1.376   6.808
 4823SOL    HW131611   0.868   1.425   6.728
 4823SOL    HW231612   0.811   1.441   6.868
 4824SOL     OW31613   2.309   4.813   6.243
 4824SOL    HW131614   2.254   4.742   6.209
 4824SOL    HW231615   2.398   4.785   6.223
 4825SOL     OW31616   1.100   2.562   2.276
 4825SOL    HW131617   1.007   2.539   2.274
 4825SOL    HW231618   1.144   2.481   2.303
 4826SOL     OW31619   5.528   4.705   0.026
 4826SOL    HW131620   5.580   4.779   0.057
 4826SOL    HW231621   5.506   4.657   0.106
 4827SOL     OW31622   2.043   0.181   2.355
 4827SOL    HW131623   2.022   0.135   2.437
 4827SOL    HW231624   2.019   0.272   2.371
 4828SOL     OW31625   4.927   5.404   2.486
 4828SOL    HW131626   4.847   5.387   2.438
 4828SOL    HW231627   4.966   5.318   2.499
 4829SOL     OW31628   3.763   3.025   2.534
 4829SOL    HW131629   3.695   2.979   2.584
 4829SOL    HW231630   3.744   3.118   2.548
 4830SOL     OW31631   2.420   3.952   7.016
 4830SOL    HW131632   2.443   3.982   7.104
 4830SOL    HW231633   2.336   3.994   6.998
 4831SOL     OW31634   0.861   2.336   1.843
 4831SOL    HW131635   0.944   2.366   1.879
 4831SOL    HW231636   0.852   2.246   1.872
 4832SOL     OW31637   4.769   3.007   7.295
 4832SOL    HW131638   4.720   3.038   7.219
 4832SOL    HW231639   4.791   2.916   7.273
 4833SOL     OW31640   6.312   0.161   0.153
 4833SOL    HW131641   6.226   0.160   0.196
 4833SOL    HW231642   6.306   0.234   0.092
 4834SOL     OW31643   3.467   3.868   6.616
 4834SOL    HW131644   3.431   3.877   6.528
 4834SOL    HW231645   3.432   3.942   6.664
 4835SOL     OW31646   1.278   4.749   6.958
 4835SOL    HW131647   1.283   4.806   7.034
 4835SOL    HW231648   1.278   4.660   6.994
 4836SOL     OW31649   2.776   2.241   7.682
 4836SOL    HW131650   2.828   2.314   7.715
 4836SOL    HW231651   2.838   2.187   7.633
 4837SOL     OW31652   3.189   3.376   0.537
 4837SOL    HW131653   3.140   3.404   0.614
 4837SOL    HW231654   3.239   3.299   0.567
 4838SOL     OW31655   4.871   5.268   0.984
 4838SOL    HW131656   4.958   5.293   0.952
 4838SOL    HW231657   4.879   5.175   1.003
 4839SOL     OW31658   2.912   2.930   7.394
 4839SOL    HW131659   2.897   2.939   7.488
 4839SOL    HW231660   2.879   2.843   7.372
 4840SOL     OW31661   0.043   4.114   6.888
 4840SOL    HW131662  -0.047   4.145   6.891
 4840SOL    HW231663   0.094   4.184   6.927
 4841SOL     OW31664   0.445   2.723   7.561
 4841SOL    HW131665   0.534   2.759   7.568
 4841SOL    HW231666   0.416   2.746   7.473
 4842SOL     OW31667   1.676   2.207   5.912
 4842SOL    HW131668   1.605   2.144   5.900
 4842SOL    HW231669   1.676   2.258   5.831
 4843SOL     OW31670   2.020   5.924   0.724
 4843SOL    HW131671   1.976   5.926   0.639
 4843SOL    HW231672   2.102   5.878   0.708
 4844SOL     OW31673   2.618   4.144   0.194
 4844SOL    HW131674   2.655   4.108   0.274
 4844SOL    HW231675   2.599   4.236   0.215
 4845SOL     OW31676   4.239   4.842   1.622
 4845SOL    HW131677   4.173   4.829   1.689
 4845SOL    HW231678   4.322   4.826   1.666
 4846SOL     OW31679   1.572   0.254   6.420
 4846SOL    HW131680   1.634   0.180   6.419
 4846SOL    HW231681   1.571   0.282   6.512
 4847SOL     OW31682   1.485   6.002   6.290
 4847SOL    HW131683   1.392   5.983   6.280
 4847SOL    HW231684   1.513   6.032   6.204
 4848SOL     OW31685   0.868   4.391   6.679
 4848SOL    HW131686   0.900   4.321   6.622
 4848SOL    HW231687   0.901   4.369   6.766
 4849SOL     OW31688   5.205   3.016   6.578
 4849SOL    HW131689   5.126   3.042   6.627
 4849SOL    HW231690   5.277   3.056   6.627
 4850SOL     OW31691   5.161   3.210   2.142
 4850SOL    HW131692   5.072   3.176   2.148
 4850SOL    HW231693   5.150   3.306   2.143
 4851SOL     OW31694   3.491   6.006   1.742
 4851SOL    HW131695   3.573   6.025   1.789
 4851SOL    HW231696   3.423   6.043   1.798
 4852SOL     OW31697   3.374   5.498   7.765
 4852SOL    HW131698   3.460   5.456   7.770
 4852SOL    HW231699   3.313   5.426   7.753
 4853SOL     OW31700   1.375   6.231   7.177
 4853SOL    HW131701   1.346   6.251   7.087
 4853SOL    HW231702   1.468   6.252   7.177
 4854SOL     OW31703   2.885   3.429   6.468
 4854SOL    HW131704   2.840   3.352   6.502
 4854SOL    HW231705   2.954   3.394   6.411
 4855SOL     OW31706   0.127   3.111   1.089
 4855SOL    HW131707   0.202   3.137   1.143
 4855SOL    HW231708   0.119   3.180   1.024
 4856SOL     OW31709   2.867   4.876   7.771
 4856SOL    HW131710   2.807   4.951   7.782
 4856SOL    HW231711   2.894   4.854   7.860
 4857SOL     OW31712   2.744   3.843   7.287
 4857SOL    HW131713   2.763   3.761   7.332
 4857SOL    HW231714   2.823   3.862   7.237
 4858SOL     OW31715   5.474   0.662   0.252
 4858SOL    HW131716   5.487   0.602   0.326
 4858SOL    HW231717   5.436   0.609   0.183
 4859SOL     OW31718   5.867   3.315   0.121
 4859SOL    HW131719   5.853   3.224   0.148
 4859SOL    HW231720   5.845   3.316   0.028
 4860SOL     OW31721   6.120   6.001   0.459
 4860SOL    HW131722   6.198   5.990   0.513
 4860SOL    HW231723   6.096   6.093   0.469
 4861SOL     OW31724   1.914   4.424   1.861
 4861SOL    HW131725   1.938   4.500   1.913
 4861SOL    HW231726   1.991   4.406   1.806
 4862SOL     OW31727   5.035   0.350   6.156
 4862SOL    HW131728   4.948   0.319   6.179
 4862SOL    HW231729   5.046   0.324   6.064
 4863SOL     OW31730   3.017   1.370   0.067
 4863SOL    HW131731   3.080   1.299   0.072
 4863SOL    HW231732   2.948   1.337   0.009
 4864SOL     OW31733   3.894   2.719   0.083
 4864SOL    HW131734   3.838   2.780   0.130
 4864SOL    HW231735   3.880   2.740  -0.010
 4865SOL     OW31736   5.067   2.813   6.104
 4865SOL    HW131737   5.048   2.719   6.100
 4865SOL    HW231738   5.072   2.840   6.012
 4866SOL     OW31739   4.110   3.066   6.850
 4866SOL    HW131740   4.062   3.148   6.843
 4866SOL    HW231741   4.042   2.999   6.856
 4867SOL     OW31742   0.336   3.739   1.814
 4867SOL    HW131743   0.365   3.649   1.834
 4867SOL    HW231744   0.346   3.786   1.897
 4868SOL     OW31745   5.827   6.041   7.061
 4868SOL    HW131746   5.814   6.130   7.094
 4868SOL    HW231747   5.907   6.011   7.105
 4869SOL     OW31748   5.009   4.116   6.739
 4869SOL    HW131749   5.096   4.133   6.702
 4869SOL    HW231750   4.995   4.022   6.726
 4870SOL     OW31751   2.359   4.244   6.525
 4870SOL    HW131752   2.345   4.315   6.463
 4870SOL    HW231753   2.453   4.227   6.521
 4871SOL     OW31754   1.118   4.965   5.941
 4871SOL    HW131755   1.035   4.992   5.980
 4871SOL    HW231756   1.136   5.030   5.874
 4872SOL     OW31757   1.401   5.685   7.426
 4872SOL    HW131758   1.317   5.659   7.464
 4872SOL    HW231759   1.435   5.605   7.385
 4873SOL     OW31760   2.878   1.176   0.930
 4873SOL    HW131761   2.873   1.237   0.856
 4873SOL    HW231762   2.971   1.155   0.938
 4874SOL     OW31763   1.705   5.744   0.535
 4874SOL    HW131764   1.761   5.813   0.499
 4874SOL    HW231765   1.693   5.683   0.462
 4875SOL     OW31766   4.905   4.525   1.559
 4875SOL    HW131767   4.974   4.468   1.591
 4875SOL    HW231768   4.857   4.552   1.637
 4876SOL     OW31769   0.630   2.147   7.523
 4876SOL    HW131770   0.583   2.069   7.493
 4876SOL    HW231771   0.567   2.218   7.515
 4877SOL     OW31772   0.534   5.355   0.754
 4877SOL    HW131773   0.537   5.398   0.840
 4877SOL    HW231774   0.451   5.307   0.755
 4878SOL     OW31775   5.508   2.402   7.688
 4878SOL    HW131776   5.455   2.481   7.678
 4878SOL    HW231777   5.484   2.347   7.614
 4879SOL     OW31778   4.174   0.969   7.591
 4879SOL    HW131779   4.165   1.032   7.662
 4879SOL    HW231780   4.240   1.007   7.533
 4880SOL     OW31781   6.232   0.254   6.536
 4880SOL    HW131782   6.229   0.339   6.579
 4880SOL    HW231783   6.313   0.256   6.485
 4881SOL     OW31784   2.113   3.020   5.742
 4881SOL    HW131785   2.143   2.989   5.657
 4881SOL    HW231786   2.193   3.027   5.795
 4882SOL     OW31787   4.537   0.978   0.076
 4882SOL    HW131788   4.545   1.071   0.052
 4882SOL    HW231789   4.617   0.959   0.124
 4883SOL     OW31790   3.800   1.861   7.571
 4883SOL    HW131791   3.889   1.882   7.602
 4883SOL    HW231792   3.758   1.820   7.646
 4884SOL     OW31793   0.845   0.416   6.437
 4884SOL    HW131794   0.881   0.464   6.362
 4884SOL    HW231795   0.750   0.422   6.427
 4885SOL     OW31796   6.342   3.831   6.644
 4885SOL    HW131797   6.321   3.857   6.734
 4885SOL    HW231798   6.259   3.836   6.597
 4886SOL     OW31799   5.754   4.413   0.933
 4886SOL    HW131800   5.703   4.479   0.886
 4886SOL    HW231801   5.836   4.406   0.884
 4887SOL     OW31802   1.257   3.916   6.526
 4887SOL    HW131803   1.249   3.846   6.591
 4887SOL    HW231804   1.325   3.885   6.467
 4888SOL     OW31805   2.285   4.261   0.887
 4888SOL    HW131806   2.368   4.262   0.934
 4888SOL    HW231807   2.232   4.197   0.934
 4889SOL     OW31808   3.106   0.972   0.292
 4889SOL    HW131809   3.162   1.044   0.321
 4889SOL    HW231810   3.072   1.001   0.208
 4890SOL     OW31811   6.064   4.076   6.751
 4890SOL    HW131812   6.119   3.999   6.746
 4890SOL    HW231813   6.105   4.131   6.818
 4891SOL     OW31814   0.749   5.667   5.790
 4891SOL    HW131815   0.684   5.722   5.833
 4891SOL    HW231816   0.823   5.665   5.850
 4892SOL     OW31817   1.440   0.961   7.139
 4892SOL    HW131818   1.349   0.982   7.117
 4892SOL    HW231819   1.441   0.865   7.145
 4893SOL     OW31820   1.986   5.897   1.116
 4893SOL    HW131821   1.946   5.813   1.096
 4893SOL    HW231822   2.076   5.875   1.143
 4894SOL     OW31823   2.357   3.604   7.768
 4894SOL    HW131824   2.297   3.579   7.838
 4894SOL    HW231825   2.442   3.570   7.797
 4895SOL     OW31826   1.687   5.042   1.628
 4895SOL    HW131827   1.656   5.026   1.539
 4895SOL    HW231828   1.683   5.137   1.639
 4896SOL     OW31829   4.387   2.692   0.961
 4896SOL    HW131830   4.473   2.733   0.970
 4896SOL    HW231831   4.334   2.757   0.915
 4897SOL     OW31832   2.590   2.441   1.659
 4897SOL    HW131833   2.531   2.374   1.624
 4897SOL    HW231834   2.580   2.435   1.754
 4898SOL     OW31835   2.916   4.070   7.058
 4898SOL    HW131836   2.944   3.983   7.084
 4898SOL    HW231837   2.940   4.126   7.131
 4899SOL     OW31838   0.065   4.372   7.701
 4899SOL    HW131839   0.140   4.425   7.673
 4899SOL    HW231840  -0.010   4.409   7.655
 4900SOL     OW31841   0.255   2.370   0.449
 4900SOL    HW131842   0.171   2.381   0.404
 4900SOL    HW231843   0.316   2.341   0.381
 4901SOL     OW31844   6.161   2.797   6.314
 4901SOL    HW131845   6.200   2.723   6.361
 4901SOL    HW231846   6.104   2.757   6.248
 4902SOL     OW31847   4.905   3.485   1.459
 4902SOL    HW131848   4.867   3.564   1.421
 4902SOL    HW231849   4.856   3.413   1.420
 4903SOL     OW31850   3.608   3.540   6.407
 4903SOL    HW131851   3.517   3.565   6.393
 4903SOL    HW231852   3.644   3.609   6.462
 4904SOL     OW31853   5.181   3.555   6.188
 4904SOL    HW131854   5.140   3.561   6.102
 4904SOL    HW231855   5.175   3.463   6.212
 4905SOL     OW31856   4.690   0.454   6.299
 4905SOL    HW131857   4.716   0.414   6.216
 4905SOL    HW231858   4.660   0.381   6.353
 4906SOL     OW31859   4.748   3.347   6.900
 4906SOL    HW131860   4.793   3.299   6.970
 4906SOL    HW231861   4.657   3.321   6.909
 4907SOL     OW31862   3.391   3.253   6.940
 4907SOL    HW131863   3.441   3.322   6.896
 4907SOL    HW231864   3.305   3.257   6.899
 4908SOL     OW31865   5.648   0.872   6.864
 4908SOL    HW131866   5.621   0.829   6.783
 4908SOL    HW231867   5.635   0.807   6.933
 4909SOL     OW31868   3.935   0.117   7.101
 4909SOL    HW131869   3.906   0.061   7.173
 4909SOL    HW231870   3.862   0.176   7.085
 4910SOL     OW31871   3.649   4.080   6.487
 4910SOL    HW131872   3.618   3.993   6.510
 4910SOL    HW231873   3.740   4.083   6.517
 4911SOL     OW31874   2.456   1.874   6.218
 4911SOL    HW131875   2.532   1.816   6.217
 4911SOL    HW231876   2.439   1.889   6.311
 4912SOL     OW31877   3.040   3.545   1.792
 4912SOL    HW131878   3.046   3.476   1.858
 4912SOL    HW231879   3.017   3.624   1.841
 4913SOL     OW31880   3.328   0.953   6.627
 4913SOL    HW131881   3.322   0.857   6.626
 4913SOL    HW231882   3.265   0.981   6.693
 4914SOL     OW31883   3.002   2.197   7.239
 4914SOL    HW131884   2.970   2.288   7.239
 4914SOL    HW231885   3.077   2.199   7.180
 4915SOL     OW31886   1.463   5.434   7.319
 4915SOL    HW131887   1.398   5.409   7.385
 4915SOL    HW231888   1.525   5.361   7.316
 4916SOL     OW31889   3.513   3.885   6.121
 4916SOL    HW131890   3.568   3.947   6.073
 4916SOL    HW231891   3.444   3.862   6.059
 4917SOL     OW31892   3.503   6.009   6.588
 4917SOL    HW131893   3.452   5.979   6.663
 4917SOL    HW231894   3.554   5.932   6.561
 4918SOL     OW31895   2.672   6.342   1.015
 4918SOL    HW131896   2.708   6.254   1.004
 4918SOL    HW231897   2.579   6.332   0.995
 4919SOL     OW31898   4.455   1.075   0.809
 4919SOL    HW131899   4.421   0.986   0.815
 4919SOL    HW231900   4.545   1.064   0.779
 4920SOL     OW31901   2.622   2.639   7.361
 4920SOL    HW131902   2.636   2.544   7.357
 4920SOL    HW231903   2.676   2.674   7.290
 4921SOL     OW31904   5.368   4.438   6.671
 4921SOL    HW131905   5.349   4.366   6.732
 4921SOL    HW231906   5.316   4.512   6.704
 4922SOL     OW31907   1.033   1.657   0.628
 4922SOL    HW131908   1.045   1.697   0.542
 4922SOL    HW231909   0.943   1.676   0.651
 4923SOL     OW31910   2.204   1.707   7.612
 4923SOL    HW131911   2.150   1.688   7.536
 4923SOL    HW231912   2.288   1.666   7.592
 4924SOL     OW31913   2.371   0.526   0.923
 4924SOL    HW131914   2.437   0.503   0.858
 4924SOL    HW231915   2.290   0.488   0.889
 4925SOL     OW31916   3.544   5.884   1.126
 4925SOL    HW131917   3.537   5.911   1.035
 4925SOL    HW231918   3.549   5.966   1.175
 4926SOL     OW31919   4.146   5.086   6.714
 4926SOL    HW131920   4.139   5.123   6.802
 4926SOL    HW231921   4.160   4.992   6.728
 4927SOL     OW31922   1.089   3.694   1.968
 4927SOL    HW131923   1.123   3.682   2.057
 4927SOL    HW231924   1.142   3.764   1.931
 4928SOL     OW31925   4.650   6.307   5.893
 4928SOL    HW131926   4.686   6.383   5.939
 4928SOL    HW231927   4.642   6.240   5.961
 4929SOL     OW31928   5.785   2.394   6.778
 4929SOL    HW131929   5.781   2.300   6.795
 4929SOL    HW231930   5.773   2.434   6.863
 4930SOL     OW31931   4.684   3.846   0.931
 4930SOL    HW131932   4.725   3.773   0.884
 4930SOL    HW231933   4.734   3.923   0.905
 4931SOL     OW31934   5.196   3.242   0.733
 4931SOL    HW131935   5.138   3.187   0.785
 4931SOL    HW231936   5.257   3.181   0.692
 4932SOL     OW31937   4.398   1.269   6.091
 4932SOL    HW131938   4.372   1.225   6.009
 4932SOL    HW231939   4.352   1.353   6.088
 4933SOL     OW31940   2.451   6.354   6.338
 4933SOL    HW131941   2.415   6.316   6.418
 4933SOL    HW231942   2.525   6.407   6.368
 4934SOL     OW31943   2.787   2.166   1.594
 4934SOL    HW131944   2.871   2.120   1.601
 4934SOL    HW231945   2.771   2.200   1.682
 4935SOL     OW31946   2.591   5.730   6.245
 4935SOL    HW131947   2.636   5.706   6.164
 4935SOL    HW231948   2.502   5.695   6.234
 4936SOL     OW31949   4.185   4.398   0.042
 4936SOL    HW131950   4.253   4.414  -0.024
 4936SOL    HW231951   4.159   4.307   0.027
 4937SOL     OW31952   5.841   0.427   0.483
 4937SOL    HW131953   5.829   0.485   0.408
 4937SOL    HW231954   5.920   0.459   0.526
 4938SOL     OW31955   0.767   1.098   6.055
 4938SOL    HW131956   0.774   1.180   6.006
 4938SOL    HW231957   0.834   1.041   6.017
 4939SOL     OW31958   1.366   0.106   1.047
 4939SOL    HW131959   1.353   0.127   0.954
 4939SOL    HW231960   1.287   0.060   1.073
 4940SOL     OW31961   0.729   4.431   0.492
 4940SOL    HW131962   0.803   4.371   0.503
 4940SOL    HW231963   0.757   4.492   0.424
 4941SOL     OW31964   5.568   2.636   1.989
 4941SOL    HW131965   5.511   2.710   1.967
 4941SOL    HW231966   5.541   2.566   1.930
 4942SOL     OW31967   5.684   5.758   1.846
 4942SOL    HW131968   5.771   5.773   1.884
 4942SOL    HW231969   5.653   5.845   1.821
 4943SOL     OW31970   5.432   2.640   0.682
 4943SOL    HW131971   5.408   2.638   0.590
 4943SOL    HW231972   5.349   2.648   0.729
 4944SOL     OW31973   3.370   3.626   6.368
 4944SOL    HW131974   3.350   3.718   6.387
 4944SOL    HW231975   3.308   3.602   6.299
 4945SOL     OW31976   4.328   1.950   0.725
 4945SOL    HW131977   4.274   1.988   0.655
 4945SOL    HW231978   4.383   1.886   0.682
 4946SOL     OW31979   2.918   2.800   0.321
 4946SOL    HW131980   2.948   2.891   0.332
 4946SOL    HW231981   2.828   2.808   0.290
 4947SOL     OW31982   4.452   5.200   6.355
 4947SOL    HW131983   4.520   5.266   6.343
 4947SOL    HW231984   4.390   5.240   6.417
 4948SOL     OW31985   3.299   3.789   0.591
 4948SOL    HW131986   3.346   3.722   0.542
 4948SOL    HW231987   3.337   3.787   0.679
 4949SOL     OW31988   1.157   5.149   7.172
 4949SOL    HW131989   1.198   5.205   7.238
 4949SOL    HW231990   1.092   5.205   7.130
 4950SOL     OW31991   6.428   1.432   7.293
 4950SOL    HW131992   6.379   1.365   7.246
 4950SOL    HW231993   6.376   1.449   7.372
 4951SOL     OW31994   5.798   6.437   0.157
 4951SOL    HW131995   5.734   6.505   0.179
 4951SOL    HW231996   5.798   6.379   0.233
 4952SOL     OW31997   3.413   0.800   1.580
 4952SOL    HW131998   3.343   0.820   1.518
 4952SOL    HW231999   3.488   0.852   1.549
 4953SOL     OW32000   6.175   4.662   6.213
 4953SOL    HW132001   6.213   4.593   6.159
 4953SOL    HW232002   6.244   4.685   6.275
 4954SOL     OW32003   0.434   2.292   0.253
 4954SOL    HW132004   0.496   2.230   0.291
 4954SOL    HW232005   0.439   2.276   0.159
 4955SOL     OW32006   4.922   5.654   0.124
 4955SOL    HW132007   4.929   5.705   0.043
 4955SOL    HW232008   5.012   5.643   0.154
 4956SOL     OW32009   1.009   3.403   0.255
 4956SOL    HW132010   0.996   3.326   0.310
 4956SOL    HW232011   0.974   3.476   0.306
 4957SOL     OW32012   1.022   0.604   7.067
 4957SOL    HW132013   1.012   0.677   7.127
 4957SOL    HW232014   0.973   0.532   7.107
 4958SOL     OW32015   1.730   0.633   1.721
 4958SOL    HW132016   1.690   0.705   1.769
 4958SOL    HW232017   1.656   0.578   1.695
 4959SOL     OW32018   6.189   5.023   7.611
 4959SOL    HW132019   6.259   4.960   7.597
 4959SOL    HW232020   6.219   5.077   7.683
 4960SOL     OW32021   0.403   1.671   0.631
 4960SOL    HW132022   0.363   1.749   0.593
 4960SOL    HW232023   0.416   1.692   0.723
 4961SOL     OW32024   2.896   6.437   6.484
 4961SOL    HW132025   2.884   6.344   6.468
 4961SOL    HW232026   2.808   6.470   6.500
 4962SOL     OW32027   6.413   4.846   7.645
 4962SOL    HW132028   6.462   4.835   7.563
 4962SOL    HW232029   6.457   4.788   7.707
 4963SOL     OW32030   6.192   2.344   0.527
 4963SOL    HW132031   6.193   2.440   0.531
 4963SOL    HW232032   6.283   2.319   0.544
 4964SOL     OW32033   0.411   0.356   5.918
 4964SOL    HW132034   0.479   0.299   5.882
 4964SOL    HW232035   0.458   0.428   5.959
 4965SOL     OW32036   2.717   2.084   6.107
 4965SOL    HW132037   2.679   2.051   6.189
 4965SOL    HW232038   2.804   2.044   6.104
 4966SOL     OW32039   2.985   0.943   0.780
 4966SOL    HW132040   2.909   0.950   0.837
 4966SOL    HW232041   2.953   0.969   0.693
 4967SOL     OW32042   1.010   2.920   6.570
 4967SOL    HW132043   1.047   2.984   6.508
 4967SOL    HW232044   1.050   2.942   6.654
 4968SOL     OW32045   5.664   2.995   0.573
 4968SOL    HW132046   5.714   2.943   0.636
 4968SOL    HW232047   5.656   3.081   0.614
 4969SOL     OW32048   2.572   6.082   7.817
 4969SOL    HW132049   2.586   5.992   7.787
 4969SOL    HW232050   2.544   6.130   7.739
 4970SOL     OW32051   6.291   4.203   7.441
 4970SOL    HW132052   6.314   4.159   7.359
 4970SOL    HW232053   6.344   4.159   7.508
 4971SOL     OW32054   1.248   2.452   1.472
 4971SOL    HW132055   1.333   2.488   1.499
 4971SOL    HW232056   1.243   2.367   1.514
 4972SOL     OW32057   3.920   2.441   6.717
 4972SOL    HW132058   3.887   2.422   6.629
 4972SOL    HW232059   4.008   2.476   6.702
 4973SOL     OW32060   0.335   0.105   6.351
 4973SOL    HW132061   0.255   0.064   6.383
 4973SOL    HW232062   0.314   0.135   6.262
 4974SOL     OW32063   0.401   1.978   6.311
 4974SOL    HW132064   0.365   1.891   6.298
 4974SOL    HW232065   0.339   2.037   6.268
 4975SOL     OW32066   4.885   4.424   7.325
 4975SOL    HW132067   4.936   4.441   7.245
 4975SOL    HW232068   4.798   4.401   7.293
 4976SOL     OW32069   1.237   2.752   1.202
 4976SOL    HW132070   1.234   2.764   1.297
 4976SOL    HW232071   1.204   2.834   1.167
 4977SOL     OW32072   3.076   4.024   1.498
 4977SOL    HW132073   3.018   3.977   1.557
 4977SOL    HW232074   3.051   3.994   1.410
 4978SOL     OW32075   0.977   0.312   2.127
 4978SOL    HW132076   1.055   0.257   2.123
 4978SOL    HW232077   0.927   0.277   2.202
 4979SOL     OW32078   2.932   1.821   7.002
 4979SOL    HW132079   2.942   1.795   6.910
 4979SOL    HW232080   3.017   1.857   7.026
 4980SOL     OW32081   6.183   2.964   1.612
 4980SOL    HW132082   6.214   2.933   1.697
 4980SOL    HW232083   6.232   3.045   1.596
 4981SOL     OW32084   0.990   3.590   6.156
 4981SOL    HW132085   1.035   3.666   6.119
 4981SOL    HW232086   0.995   3.603   6.251
 4982SOL     OW32087   4.985   2.776   7.813
 4982SOL    HW132088   4.928   2.724   7.755
 4982SOL    HW232089   4.995   2.860   7.767
 4983SOL     OW32090   4.680   5.731   1.775
 4983SOL    HW132091   4.730   5.701   1.699
 4983SOL    HW232092   4.738   5.795   1.818
 4984SOL     OW32093   3.401   1.072   5.865
 4984SOL    HW132094   3.353   0.990   5.875
 4984SOL    HW232095   3.486   1.055   5.906
 4985SOL     OW32096   4.115   0.770   0.852
 4985SOL    HW132097   4.033   0.726   0.827
 4985SOL    HW232098   4.090   0.826   0.925
 4986SOL     OW32099   1.582   0.539   0.232
 4986SOL    HW132100   1.538   0.527   0.147
 4986SOL    HW232101   1.515   0.515   0.296
 4987SOL     OW32102   5.416   6.192   1.618
 4987SOL    HW132103   5.402   6.219   1.528
 4987SOL    HW232104   5.336   6.220   1.664
 4988SOL     OW32105   0.679   3.177   0.003
 4988SOL    HW132106   0.614   3.112   0.031
 4988SOL    HW232107   0.642   3.261   0.028
 4989SOL     OW32108   0.793   5.993   5.937
 4989SOL    HW132109   0.717   5.950   5.979
 4989SOL    HW232110   0.843   5.921   5.899
 4990SOL     OW32111   0.694   1.398   6.433
 4990SOL    HW132112   0.672   1.435   6.347
 4990SOL    HW232113   0.740   1.316   6.413
 4991SOL     OW32114   6.078   0.725   6.067
 4991SOL    HW132115   6.121   0.775   6.136
 4991SOL    HW232116   5.985   0.748   6.075
 4992SOL     OW32117   5.724   0.441   1.138
 4992SOL    HW132118   5.817   0.416   1.140
 4992SOL    HW232119   5.681   0.378   1.196
 4993SOL     OW32120   5.788   4.816   6.647
 4993SOL    HW132121   5.866   4.820   6.593
 4993SOL    HW232122   5.738   4.742   6.611
 4994SOL     OW32123   5.852   2.769   7.282
 4994SOL    HW132124   5.863   2.725   7.198
 4994SOL    HW232125   5.929   2.744   7.333
 4995SOL     OW32126   6.360   3.803   7.763
 4995SOL    HW132127   6.271   3.795   7.796
 4995SOL    HW232128   6.351   3.802   7.668
 4996SOL     OW32129   2.037   5.088   1.156
 4996SOL    HW132130   2.062   5.168   1.110
 4996SOL    HW232131   1.942   5.089   1.156
 4997SOL     OW32132   2.059   5.004   0.046
 4997SOL    HW132133   2.022   4.923   0.081
 4997SOL    HW232134   1.999   5.073   0.075
 4998SOL     OW32135   5.174   0.580   7.039
 4998SOL    HW132136   5.148   0.669   7.018
 4998SOL    HW232137   5.262   0.588   7.076
 4999SOL     OW32138   6.330   0.212   1.459
 4999SOL    HW132139   6.385   0.279   1.501
 4999SOL    HW232140   6.384   0.178   1.388
 5000SOL     OW32141   0.944   3.550   1.756
 5000SOL    HW132142   0.997   3.565   1.834
 5000SOL    HW232143   0.967   3.462   1.727
 5001SOL     OW32144   4.716   4.991   0.833
 5001SOL    HW132145   4.790   4.995   0.894
 5001SOL    HW232146   4.639   5.010   0.888
 5002SOL     OW32147   2.587   4.174   0.741
 5002SOL    HW132148   2.574   4.204   0.831
 5002SOL    HW232149   2.501   4.184   0.700
 5003SOL     OW32150   0.507   3.895   6.390
 5003SOL    HW132151   0.575   3.900   6.457
 5003SOL    HW232152   0.450   3.823   6.418
 5004SOL     OW32153   4.108   6.421   1.622
 5004SOL    HW132154   4.096   6.514   1.639
 5004SOL    HW232155   4.166   6.391   1.692
 5005SOL     OW32156   3.789   3.831   2.451
 5005SOL    HW132157   3.754   3.851   2.364
 5005SOL    HW232158   3.847   3.904   2.471
 5006SOL     OW32159   1.259   6.004   7.270
 5006SOL    HW132160   1.299   6.090   7.266
 5006SOL    HW232161   1.171   6.016   7.235
 5007SOL     OW32162   2.851   3.392   1.102
 5007SOL    HW132163   2.901   3.312   1.120
 5007SOL    HW232164   2.803   3.372   1.022
 5008SOL     OW32165   3.820   3.792   7.027
 5008SOL    HW132166   3.840   3.703   7.056
 5008SOL    HW232167   3.784   3.835   7.104
 5009SOL     OW32168   1.389   3.103   0.488
 5009SOL    HW132169   1.355   3.151   0.413
 5009SOL    HW232170   1.464   3.055   0.454
 5010SOL     OW32171   2.599   6.073   7.140
 5010SOL    HW132172   2.547   5.993   7.131
 5010SOL    HW232173   2.535   6.143   7.150
 5011SOL     OW32174   3.549   2.149   1.156
 5011SOL    HW132175   3.539   2.152   1.061
 5011SOL    HW232176   3.484   2.085   1.185
 5012SOL     OW32177   0.356   6.094   5.214
 5012SOL    HW132178   0.357   6.101   5.309
 5012SOL    HW232179   0.422   6.026   5.195
 5013SOL     OW32180   6.038   2.811   0.191
 5013SOL    HW132181   6.131   2.793   0.180
 5013SOL    HW232182   6.017   2.876   0.125
 5014SOL     OW32183   5.891   4.913   7.565
 5014SOL    HW132184   5.974   4.874   7.537
 5014SOL    HW232185   5.906   5.007   7.559
 5015SOL     OW32186   2.193   0.478   6.819
 5015SOL    HW132187   2.147   0.525   6.889
 5015SOL    HW232188   2.285   0.490   6.839
 5016SOL     OW32189   4.472   1.601   0.400
 5016SOL    HW132190   4.401   1.597   0.336
 5016SOL    HW232191   4.537   1.538   0.369
 5017SOL     OW32192   5.274   1.007   7.521
 5017SOL    HW132193   5.282   1.027   7.614
 5017SOL    HW232194   5.348   0.948   7.503
 5018SOL     OW32195   1.478   5.842   5.720
 5018SOL    HW132196   1.529   5.921   5.703
 5018SOL    HW232197   1.424   5.864   5.796
 5019SOL     OW32198   4.145   2.251   6.823
 5019SOL    HW132199   4.080   2.198   6.777
 5019SOL    HW232200   4.102   2.276   6.905
 5020SOL     OW32201   3.418   2.074   0.618
 5020SOL    HW132202   3.431   1.979   0.610
 5020SOL    HW232203   3.432   2.108   0.530
 5021SOL     OW32204   4.557   0.257   7.450
 5021SOL    HW132205   4.571   0.229   7.541
 5021SOL    HW232206   4.645   0.261   7.413
 5022SOL     OW32207   0.251   5.146   5.521
 5022SOL    HW132208   0.302   5.079   5.569
 5022SOL    HW232209   0.315   5.213   5.498
 5023SOL     OW32210   3.522   1.215   0.930
 5023SOL    HW132211   3.574   1.245   1.004
 5023SOL    HW232212   3.527   1.119   0.934
 5024SOL     OW32213   1.770   1.156   5.996
 5024SOL    HW132214   1.786   1.191   6.083
 5024SOL    HW232215   1.850   1.106   5.975
 5025SOL     OW32216   0.905   0.351   0.211
 5025SOL    HW132217   0.946   0.420   0.158
 5025SOL    HW232218   0.919   0.380   0.301
 5026SOL     OW32219   0.876   1.389   0.568
 5026SOL    HW132220   0.818   1.366   0.641
 5026SOL    HW232221   0.964   1.393   0.607
 5027SOL     OW32222   3.830   5.491   7.669
 5027SOL    HW132223   3.891   5.460   7.737
 5027SOL    HW232224   3.800   5.576   7.701
 5028SOL     OW32225   3.777   4.056   1.704
 5028SOL    HW132226   3.840   4.072   1.774
 5028SOL    HW232227   3.830   4.020   1.632
 5029SOL     OW32228   4.791   0.272   7.334
 5029SOL    HW132229   4.835   0.338   7.280
 5029SOL    HW232230   4.861   0.213   7.362
 5030SOL     OW32231   1.099   0.626   6.779
 5030SOL    HW132232   1.073   0.612   6.870
 5030SOL    HW232233   1.170   0.565   6.764
 5031SOL     OW32234   6.087   0.157   0.962
 5031SOL    HW132235   6.085   0.195   0.874
 5031SOL    HW232236   6.177   0.170   0.992
 5032SOL     OW32237   5.152   2.325   1.737
 5032SOL    HW132238   5.072   2.365   1.771
 5032SOL    HW232239   5.151   2.236   1.772
 5033SOL     OW32240   2.464   1.263   7.184
 5033SOL    HW132241   2.455   1.176   7.223
 5033SOL    HW232242   2.376   1.301   7.189
 5034SOL     OW32243   2.203   2.098   6.408
 5034SOL    HW132244   2.225   2.188   6.433
 5034SOL    HW232245   2.138   2.108   6.338
 5035SOL     OW32246   4.440   3.137   0.893
 5035SOL    HW132247   4.388   3.072   0.846
 5035SOL    HW232248   4.528   3.130   0.856
 5036SOL     OW32249   4.247   5.153   5.963
 5036SOL    HW132250   4.183   5.141   6.034
 5036SOL    HW232251   4.331   5.132   6.004
 5037SOL     OW32252   2.068   1.439   7.806
 5037SOL    HW132253   2.080   1.534   7.810
 5037SOL    HW232254   2.108   1.414   7.722
 5038SOL     OW32255   0.143   0.240   0.901
 5038SOL    HW132256   0.188   0.157   0.919
 5038SOL    HW232257   0.172   0.264   0.813
 5039SOL     OW32258   0.637   4.794   6.951
 5039SOL    HW132259   0.726   4.826   6.964
 5039SOL    HW232260   0.592   4.866   6.908
 5040SOL     OW32261   1.755   3.327   2.674
 5040SOL    HW132262   1.767   3.241   2.713
 5040SOL    HW232263   1.809   3.326   2.595
 5041SOL     OW32264   1.942   2.089   0.223
 5041SOL    HW132265   1.915   1.998   0.238
 5041SOL    HW232266   2.030   2.082   0.185
 5042SOL     OW32267   5.849   6.176   0.872
 5042SOL    HW132268   5.920   6.205   0.931
 5042SOL    HW232269   5.793   6.122   0.928
 5043SOL     OW32270   2.668   3.214   7.807
 5043SOL    HW132271   2.694   3.121   7.803
 5043SOL    HW232272   2.584   3.217   7.761
 5044SOL     OW32273   0.176   2.800   0.432
 5044SOL    HW132274   0.104   2.808   0.495
 5044SOL    HW232275   0.134   2.799   0.346
 5045SOL     OW32276   1.105   5.198   1.867
 5045SOL    HW132277   1.143   5.111   1.882
 5045SOL    HW232278   1.116   5.243   1.951
 5046SOL     OW32279   5.452   5.344   0.830
 5046SOL    HW132280   5.427   5.432   0.799
 5046SOL    HW232281   5.397   5.285   0.778
 5047SOL     OW32282   1.833   5.331   1.410
 5047SOL    HW132283   1.830   5.422   1.440
 5047SOL    HW232284   1.748   5.294   1.434
 5048SOL     OW32285   4.461   5.409   7.417
 5048SOL    HW132286   4.456   5.314   7.421
 5048SOL    HW232287   4.484   5.435   7.507
 5049SOL     OW32288   0.273   3.302   6.963
 5049SOL    HW132289   0.245   3.313   6.872
 5049SOL    HW232290   0.321   3.220   6.964
 5050SOL     OW32291   3.502   3.346   1.171
 5050SOL    HW132292   3.445   3.270   1.158
 5050SOL    HW232293   3.449   3.409   1.220
 5051SOL     OW32294   5.316   3.256   1.865
 5051SOL    HW132295   5.346   3.179   1.816
 5051SOL    HW232296   5.270   3.220   1.941
 5052SOL     OW32297   0.166   2.555   1.452
 5052SOL    HW132298   0.153   2.576   1.544
 5052SOL    HW232299   0.170   2.640   1.408
 5053SOL     OW32300   1.431   4.176   6.619
 5053SOL    HW132301   1.386   4.101   6.579
 5053SOL    HW232302   1.476   4.218   6.545
 5054SOL     OW32303   1.920   0.161   2.123
 5054SOL    HW132304   1.970   0.175   2.043
 5054SOL    HW232305   1.985   0.164   2.194
 5055SOL     OW32306   4.325   0.903   7.297
 5055SOL    HW132307   4.371   0.901   7.381
 5055SOL    HW232308   4.337   0.992   7.265
 5056SOL     OW32309   3.547   0.134   1.317
 5056SOL    HW132310   3.463   0.152   1.274
 5056SOL    HW232311   3.530   0.056   1.370
 5057SOL     OW32312   3.381   4.295   0.900
 5057SOL    HW132313   3.360   4.382   0.936
 5057SOL    HW232314   3.454   4.264   0.954
 5058SOL     OW32315   3.147   4.773   6.538
 5058SOL    HW132316   3.153   4.864   6.510
 5058SOL    HW232317   3.130   4.724   6.457
 5059SOL     OW32318   4.567   6.396   7.453
 5059SOL    HW132319   4.541   6.457   7.384
 5059SOL    HW232320   4.560   6.446   7.534
 5060SOL     OW32321   0.698   0.162   6.050
 5060SOL    HW132322   0.762   0.091   6.039
 5060SOL    HW232323   0.643   0.158   5.972
 5061SOL     OW32324   3.626   1.766   6.410
 5061SOL    HW132325   3.636   1.680   6.371
 5061SOL    HW232326   3.544   1.760   6.460
 5062SOL     OW32327   5.291   3.567   7.311
 5062SOL    HW132328   5.350   3.561   7.386
 5062SOL    HW232329   5.319   3.647   7.266
 5063SOL     OW32330   4.824   3.712   1.343
 5063SOL    HW132331   4.893   3.754   1.291
 5063SOL    HW232332   4.754   3.695   1.281
 5064SOL     OW32333   3.360   1.163   6.460
 5064SOL    HW132334   3.334   1.090   6.517
 5064SOL    HW232335   3.428   1.126   6.403
 5065SOL     OW32336   1.309   0.539   6.218
 5065SOL    HW132337   1.306   0.512   6.126
 5065SOL    HW232338   1.232   0.498   6.258
 5066SOL     OW32339   5.033   1.759   7.326
 5066SOL    HW132340   4.997   1.773   7.414
 5066SOL    HW232341   4.995   1.829   7.273
 5067SOL     OW32342   4.918   5.369   1.667
 5067SOL    HW132343   4.990   5.431   1.669
 5067SOL    HW232344   4.950   5.293   1.716
 5068SOL     OW32345   4.823   3.339   1.931
 5068SOL    HW132346   4.869   3.354   1.849
 5068SOL    HW232347   4.857   3.405   1.991
 5069SOL     OW32348   3.545   4.362   1.348
 5069SOL    HW132349   3.474   4.301   1.366
 5069SOL    HW232350   3.501   4.443   1.321
 5070SOL     OW32351   2.773   2.345   6.146
 5070SOL    HW132352   2.712   2.415   6.120
 5070SOL    HW232353   2.726   2.264   6.124
 5071SOL     OW32354   5.569   0.953   0.500
 5071SOL    HW132355   5.620   1.032   0.513
 5071SOL    HW232356   5.598   0.918   0.416
 5072SOL     OW32357   4.257   2.011   0.235
 5072SOL    HW132358   4.221   2.098   0.252
 5072SOL    HW232359   4.202   1.975   0.166
 5073SOL     OW32360   3.805   5.815   2.076
 5073SOL    HW132361   3.733   5.771   2.121
 5073SOL    HW232362   3.867   5.834   2.146
 5074SOL     OW32363   3.939   1.482   6.463
 5074SOL    HW132364   3.918   1.555   6.404
 5074SOL    HW232365   3.853   1.446   6.487
 5075SOL     OW32366   2.009   5.821   7.788
 5075SOL    HW132367   2.037   5.774   7.710
 5075SOL    HW232368   2.045   5.770   7.861
 5076SOL     OW32369   2.275   2.884   6.763
 5076SOL    HW132370   2.293   2.917   6.851
 5076SOL    HW232371   2.361   2.871   6.724
 5077SOL     OW32372   3.410   4.418   6.666
 5077SOL    HW132373   3.318   4.428   6.643
 5077SOL    HW232374   3.432   4.499   6.713
 5078SOL     OW32375   2.521   2.851   6.666
 5078SOL    HW132376   2.603   2.811   6.693
 5078SOL    HW232377   2.546   2.915   6.600
 5079SOL     OW32378   0.467   4.614   1.092
 5079SOL    HW132379   0.547   4.662   1.069
 5079SOL    HW232380   0.471   4.605   1.187
 5080SOL     OW32381   1.697   2.627   1.285
 5080SOL    HW132382   1.665   2.537   1.272
 5080SOL    HW232383   1.672   2.672   1.204
 5081SOL     OW32384   4.349   1.166   6.546
 5081SOL    HW132385   4.284   1.233   6.566
 5081SOL    HW232386   4.414   1.211   6.493
 5082SOL     OW32387   2.268   0.392   1.233
 5082SOL    HW132388   2.265   0.462   1.298
 5082SOL    HW232389   2.313   0.320   1.277
 5083SOL     OW32390   6.409   0.876   0.358
 5083SOL    HW132391   6.449   0.852   0.442
 5083SOL    HW232392   6.438   0.966   0.341
 5084SOL     OW32393   5.579   5.484   7.258
 5084SOL    HW132394   5.508   5.485   7.194
 5084SOL    HW232395   5.549   5.424   7.326
 5085SOL     OW32396   1.498   0.580   7.360
 5085SOL    HW132397   1.469   0.504   7.309
 5085SOL    HW232398   1.458   0.568   7.446
 5086SOL     OW32399   5.835   1.925   0.972
 5086SOL    HW132400   5.875   1.861   0.912
 5086SOL    HW232401   5.910   1.974   1.007
 5087SOL     OW32402   6.191   1.613   7.285
 5087SOL    HW132403   6.252   1.539   7.285
 5087SOL    HW232404   6.110   1.576   7.321
 5088SOL     OW32405   3.179   4.441   0.562
 5088SOL    HW132406   3.160   4.462   0.471
 5088SOL    HW232407   3.222   4.519   0.596
 5089SOL     OW32408   1.446   5.285   7.739
 5089SOL    HW132409   1.400   5.353   7.789
 5089SOL    HW232410   1.379   5.221   7.718
 5090SOL     OW32411   3.398   0.126   0.131
 5090SOL    HW132412   3.471   0.188   0.138
 5090SOL    HW232413   3.429   0.061   0.068
 5091SOL     OW32414   0.120   6.372   6.424
 5091SOL    HW132415   0.172   6.293   6.439
 5091SOL    HW232416   0.032   6.349   6.456
 5092SOL     OW32417   1.548   1.733   0.606
 5092SOL    HW132418   1.585   1.647   0.582
 5092SOL    HW232419   1.515   1.768   0.523
 5093SOL     OW32420   4.557   6.372   1.408
 5093SOL    HW132421   4.465   6.387   1.388
 5093SOL    HW232422   4.556   6.301   1.473
 5094SOL     OW32423   3.864   3.844   0.689
 5094SOL    HW132424   3.864   3.875   0.599
 5094SOL    HW232425   3.923   3.769   0.689
 5095SOL     OW32426   0.700   3.729   1.890
 5095SOL    HW132427   0.643   3.725   1.966
 5095SOL    HW232428   0.672   3.657   1.834
 5096SOL     OW32429   4.771   0.422   7.611
 5096SOL    HW132430   4.785   0.354   7.545
 5096SOL    HW232431   4.857   0.463   7.622
 5097SOL     OW32432   0.165   2.627   7.021
 5097SOL    HW132433   0.095   2.565   7.036
 5097SOL    HW232434   0.154   2.693   7.090
 5098SOL     OW32435   5.437   4.136   6.618
 5098SOL    HW132436   5.348   4.160   6.594
 5098SOL    HW232437   5.491   4.164   6.544
 5099SOL     OW32438   1.884   2.386   7.360
 5099SOL    HW132439   1.819   2.442   7.317
 5099SOL    HW232440   1.879   2.412   7.452
 5100SOL     OW32441   0.422   3.761   2.893
 5100SOL    HW132442   0.457   3.691   2.838
 5100SOL    HW232443   0.464   3.748   2.978
 5101SOL     OW32444   6.093   4.737   7.428
 5101SOL    HW132445   6.122   4.783   7.349
 5101SOL    HW232446   6.107   4.645   7.410
 5102SOL     OW32447   2.438   0.135   1.098
 5102SOL    HW132448   2.498   0.169   1.031
 5102SOL    HW232449   2.354   0.125   1.052
 5103SOL     OW32450   5.671   2.704   7.482
 5103SOL    HW132451   5.680   2.611   7.465
 5103SOL    HW232452   5.726   2.746   7.416
 5104SOL     OW32453   5.436   4.767   6.447
 5104SOL    HW132454   5.526   4.736   6.432
 5104SOL    HW232455   5.446   4.842   6.506
 5105SOL     OW32456   1.095   0.034   6.516
 5105SOL    HW132457   1.053  -0.032   6.461
 5105SOL    HW232458   1.029   0.055   6.582
 5106SOL     OW32459   5.686   4.207   1.220
 5106SOL    HW132460   5.604   4.257   1.213
 5106SOL    HW232461   5.694   4.186   1.313
 5107SOL     OW32462   4.968   1.640   0.424
 5107SOL    HW132463   5.047   1.678   0.462
 5107SOL    HW232464   4.896   1.676   0.476
 5108SOL     OW32465   0.275   4.145   5.462
 5108SOL    HW132466   0.232   4.187   5.536
 5108SOL    HW232467   0.347   4.095   5.502
 5109SOL     OW32468   6.196   0.031   6.698
 5109SOL    HW132469   6.105   0.009   6.678
 5109SOL    HW232470   6.215   0.107   6.643
 5110SOL     OW32471   4.691   3.254   7.502
 5110SOL    HW132472   4.635   3.205   7.441
 5110SOL    HW232473   4.776   3.210   7.498
 5111SOL     OW32474   0.185   5.976   7.099
 5111SOL    HW132475   0.264   5.954   7.050
 5111SOL    HW232476   0.188   6.072   7.107
 5112SOL     OW32477   2.656   4.155   7.035
 5112SOL    HW132478   2.605   4.080   7.003
 5112SOL    HW232479   2.747   4.125   7.031
 5113SOL     OW32480   5.282  -0.003   0.671
 5113SOL    HW132481   5.243   0.063   0.614
 5113SOL    HW232482   5.376   0.005   0.656
 5114SOL     OW32483   6.155   3.479   0.030
 5114SOL    HW132484   6.157   3.462   0.124
 5114SOL    HW232485   6.070   3.521   0.014
 5115SOL     OW32486   5.173   3.606   5.885
 5115SOL    HW132487   5.123   3.579   5.808
 5115SOL    HW232488   5.263   3.578   5.866
 5116SOL     OW32489   2.196   4.500   6.238
 5116SOL    HW132490   2.240   4.456   6.311
 5116SOL    HW232491   2.265   4.511   6.172
 5117SOL     OW32492   6.437   5.636   5.871
 5117SOL    HW132493   6.352   5.661   5.834
 5117SOL    HW232494   6.489   5.609   5.796
 5118SOL     OW32495   0.882   5.257   6.592
 5118SOL    HW132496   0.969   5.273   6.556
 5118SOL    HW232497   0.856   5.341   6.631
 5119SOL     OW32498   3.072   0.742   2.315
 5119SOL    HW132499   3.005   0.682   2.349
 5119SOL    HW232500   3.146   0.685   2.294
 5120SOL     OW32501   2.704   5.410   7.255
 5120SOL    HW132502   2.650   5.403   7.177
 5120SOL    HW232503   2.673   5.339   7.312
 5121SOL     OW32504   2.426   4.901   7.689
 5121SOL    HW132505   2.473   4.919   7.608
 5121SOL    HW232506   2.352   4.962   7.689
 5122SOL     OW32507   3.016   6.065   5.937
 5122SOL    HW132508   2.970   5.999   5.989
 5122SOL    HW232509   3.061   6.015   5.869
 5123SOL     OW32510   1.081   5.774   7.247
 5123SOL    HW132511   1.163   5.822   7.232
 5123SOL    HW232512   1.021   5.840   7.282
 5124SOL     OW32513   1.792   2.773   1.507
 5124SOL    HW132514   1.748   2.721   1.440
 5124SOL    HW232515   1.885   2.751   1.498
 5125SOL     OW32516   2.009   1.404   1.079
 5125SOL    HW132517   2.015   1.309   1.085
 5125SOL    HW232518   2.099   1.435   1.084
 5126SOL     OW32519   2.399   6.357   6.646
 5126SOL    HW132520   2.316   6.376   6.691
 5126SOL    HW232521   2.435   6.443   6.624
 5127SOL     OW32522   3.889   4.243   7.451
 5127SOL    HW132523   3.868   4.170   7.393
 5127SOL    HW232524   3.854   4.216   7.536
 5128SOL     OW32525   4.660   3.544   6.078
 5128SOL    HW132526   4.652   3.578   5.989
 5128SOL    HW232527   4.601   3.599   6.130
 5129SOL     OW32528   2.242   2.340   6.542
 5129SOL    HW132529   2.332   2.359   6.571
 5129SOL    HW232530   2.187   2.396   6.598
 5130SOL     OW32531   3.934   4.326   6.909
 5130SOL    HW132532   3.895   4.238   6.905
 5130SOL    HW232533   4.028   4.311   6.899
 5131SOL     OW32534   6.360   3.629   0.720
 5131SOL    HW132535   6.316   3.589   0.645
 5131SOL    HW232536   6.350   3.724   0.707
 5132SOL     OW32537   4.241   0.372   1.512
 5132SOL    HW132538   4.272   0.408   1.595
 5132SOL    HW232539   4.319   0.365   1.457
 5133SOL     OW32540   3.237   1.587   6.890
 5133SOL    HW132541   3.243   1.509   6.834
 5133SOL    HW232542   3.148   1.585   6.923
 5134SOL     OW32543   4.890   3.873   6.566
 5134SOL    HW132544   4.891   3.844   6.657
 5134SOL    HW232545   4.981   3.867   6.537
 5135SOL     OW32546   5.788   1.137   1.437
 5135SOL    HW132547   5.794   1.129   1.342
 5135SOL    HW232548   5.811   1.228   1.456
 5136SOL     OW32549   3.647   5.740   0.195
 5136SOL    HW132550   3.670   5.662   0.246
 5136SOL    HW232551   3.709   5.741   0.122
 5137SOL     OW32552   0.102   4.782   0.800
 5137SOL    HW132553   0.171   4.723   0.830
 5137SOL    HW232554   0.093   4.764   0.707
 5138SOL     OW32555   0.033   3.478   5.713
 5138SOL    HW132556   0.066   3.442   5.631
 5138SOL    HW232557  -0.050   3.520   5.690
 5139SOL     OW32558   5.258   3.813   0.064
 5139SOL    HW132559   5.185   3.767   0.105
 5139SOL    HW232560   5.273   3.889   0.121
 5140SOL     OW32561   0.004   3.609   6.881
 5140SOL    HW132562  -0.080   3.584   6.841
 5140SOL    HW232563   0.056   3.529   6.878
 5141SOL     OW32564   2.221   3.066   1.948
 5141SOL    HW132565   2.249   3.016   2.025
 5141SOL    HW232566   2.185   3.147   1.985
 5142SOL     OW32567   1.738   5.598   5.827
 5142SOL    HW132568   1.732   5.685   5.866
 5142SOL    HW232569   1.715   5.611   5.735
 5143SOL     OW32570   0.573   1.618   1.404
 5143SOL    HW132571   0.534   1.701   1.376
 5143SOL    HW232572   0.499   1.566   1.434
 5144SOL     OW32573   0.458   0.840   6.931
 5144SOL    HW132574   0.498   0.880   7.008
 5144SOL    HW232575   0.466   0.746   6.946
 5145SOL     OW32576   3.288   6.097   1.924
 5145SOL    HW132577   3.231   6.172   1.942
 5145SOL    HW232578   3.233   6.020   1.942
 5146SOL     OW32579   2.766   3.665   1.725
 5146SOL    HW132580   2.751   3.606   1.651
 5146SOL    HW232581   2.778   3.607   1.800
 5147SOL     OW32582   1.181   4.797   1.322
 5147SOL    HW132583   1.146   4.791   1.411
 5147SOL    HW232584   1.269   4.831   1.334
 5148SOL     OW32585   3.668   1.757   7.346
 5148SOL    HW132586   3.577   1.779   7.328
 5148SOL    HW232587   3.695   1.818   7.415
 5149SOL     OW32588   0.906   0.639   0.827
 5149SOL    HW132589   0.998   0.613   0.833
 5149SOL    HW232590   0.863   0.563   0.788
 5150SOL     OW32591   3.093   3.760   0.903
 5150SOL    HW132592   3.088   3.820   0.829
 5150SOL    HW232593   3.062   3.811   0.978
 5151SOL     OW32594   4.016   0.107   0.652
 5151SOL    HW132595   4.028   0.196   0.617
 5151SOL    HW232596   4.022   0.119   0.747
 5152SOL     OW32597   0.122   5.029   0.435
 5152SOL    HW132598   0.088   5.099   0.380
 5152SOL    HW232599   0.172   4.973   0.375
 5153SOL     OW32600   4.580   1.841   0.894
 5153SOL    HW132601   4.545   1.820   0.808
 5153SOL    HW232602   4.502   1.854   0.949
 5154SOL     OW32603   1.957   0.886   0.261
 5154SOL    HW132604   1.971   0.972   0.304
 5154SOL    HW232605   1.984   0.901   0.170
 5155SOL     OW32606   4.009   5.819   1.883
 5155SOL    HW132607   3.959   5.783   1.956
 5155SOL    HW232608   4.098   5.787   1.898
 5156SOL     OW32609   6.401   0.571   6.257
 5156SOL    HW132610   6.444   0.496   6.297
 5156SOL    HW232611   6.388   0.546   6.166
 5157SOL     OW32612   3.953   6.029   1.707
 5157SOL    HW132613   3.973   5.941   1.738
 5157SOL    HW232614   3.973   6.086   1.782
 5158SOL     OW32615   3.043   5.874   0.046
 5158SOL    HW132616   2.996   5.890  -0.036
 5158SOL    HW232617   2.990   5.917   0.114
 5159SOL     OW32618   2.521   6.338   7.153
 5159SOL    HW132619   2.489   6.428   7.158
 5159SOL    HW232620   2.516   6.315   7.060
 5160SOL     OW32621   3.308   4.286   1.474
 5160SOL    HW132622   3.330   4.343   1.547
 5160SOL    HW232623   3.311   4.197   1.510
 5161SOL     OW32624   0.649   3.040   0.240
 5161SOL    HW132625   0.743   3.024   0.248
 5161SOL    HW232626   0.620   3.061   0.329
 5162SOL     OW32627   5.090   4.270   1.399
 5162SOL    HW132628   5.078   4.175   1.399
 5162SOL    HW232629   5.047   4.299   1.479
 5163SOL     OW32630   3.818   0.600   5.958
 5163SOL    HW132631   3.807   0.622   6.051
 5163SOL    HW232632   3.749   0.650   5.913
 5164SOL     OW32633   3.418   1.772   6.595
 5164SOL    HW132634   3.425   1.677   6.587
 5164SOL    HW232635   3.391   1.786   6.685
 5165SOL     OW32636   3.476   3.454   6.765
 5165SOL    HW132637   3.392   3.500   6.764
 5165SOL    HW232638   3.542   3.523   6.756
 5166SOL     OW32639   6.012   0.442   1.206
 5166SOL    HW132640   6.099   0.422   1.241
 5166SOL    HW232641   6.017   0.534   1.182
 5167SOL     OW32642   3.233   5.813   0.877
 5167SOL    HW132643   3.232   5.759   0.798
 5167SOL    HW232644   3.215   5.902   0.846
 5168SOL     OW32645   1.591   6.389   6.361
 5168SOL    HW132646   1.575   6.348   6.447
 5168SOL    HW232647   1.683   6.371   6.343
 5169SOL     OW32648   5.349   3.070   1.021
 5169SOL    HW132649   5.299   3.007   0.970
 5169SOL    HW232650   5.383   3.019   1.095
 5170SOL     OW32651   1.410   4.382   0.650
 5170SOL    HW132652   1.383   4.328   0.576
 5170SOL    HW232653   1.493   4.342   0.679
 5171SOL     OW32654   5.217   6.134   6.908
 5171SOL    HW132655   5.187   6.192   6.838
 5171SOL    HW232656   5.245   6.194   6.978
 5172SOL     OW32657   5.784   5.283   7.226
 5172SOL    HW132658   5.692   5.303   7.208
 5172SOL    HW232659   5.824   5.275   7.139
 5173SOL     OW32660   2.537   4.070   1.222
 5173SOL    HW132661   2.566   3.980   1.232
 5173SOL    HW232662   2.574   4.117   1.297
 5174SOL     OW32663   5.990   1.036   1.595
 5174SOL    HW132664   6.004   1.122   1.635
 5174SOL    HW232665   5.923   1.052   1.528
 5175SOL     OW32666   4.599   3.274   6.017
 5175SOL    HW132667   4.579   3.274   5.923
 5175SOL    HW232668   4.626   3.364   6.035
 5176SOL     OW32669   4.457   5.553   1.527
 5176SOL    HW132670   4.546   5.522   1.507
 5176SOL    HW232671   4.400   5.489   1.484
 5177SOL     OW32672   1.529   4.241   6.866
 5177SOL    HW132673   1.535   4.335   6.849
 5177SOL    HW232674   1.487   4.204   6.789
 5178SOL     OW32675   5.302   2.752   6.670
 5178SOL    HW132676   5.396   2.739   6.663
 5178SOL    HW232677   5.286   2.838   6.632
 5179SOL     OW32678   0.456   2.721   5.559
 5179SOL    HW132679   0.458   2.648   5.621
 5179SOL    HW232680   0.544   2.725   5.523
 5180SOL     OW32681   4.824   2.628   5.856
 5180SOL    HW132682   4.757   2.695   5.868
 5180SOL    HW232683   4.794   2.577   5.782
 5181SOL     OW32684   0.616   1.331   6.905
 5181SOL    HW132685   0.699   1.305   6.863
 5181SOL    HW232686   0.611   1.277   6.984
 5182SOL     OW32687   1.674   3.955   5.737
 5182SOL    HW132688   1.712   3.874   5.704
 5182SOL    HW232689   1.604   3.926   5.796
 5183SOL     OW32690   2.994   4.446   6.491
 5183SOL    HW132691   3.013   4.515   6.428
 5183SOL    HW232692   3.059   4.457   6.560
 5184SOL     OW32693   4.715   0.890   2.188
 5184SOL    HW132694   4.662   0.810   2.186
 5184SOL    HW232695   4.806   0.859   2.186
 5185SOL     OW32696   1.249   1.276   7.129
 5185SOL    HW132697   1.329   1.323   7.152
 5185SOL    HW232698   1.219   1.317   7.048
 5186SOL     OW32699   5.848   0.401   5.924
 5186SOL    HW132700   5.760   0.434   5.941
 5186SOL    HW232701   5.835   0.308   5.904
 5187SOL     OW32702   4.509   3.288   0.044
 5187SOL    HW132703   4.506   3.383   0.031
 5187SOL    HW232704   4.428   3.255   0.006
 5188SOL     OW32705   4.472   3.551   0.978
 5188SOL    HW132706   4.393   3.576   1.025
 5188SOL    HW232707   4.454   3.463   0.944
 5189SOL     OW32708   4.992   2.812   7.303
 5189SOL    HW132709   5.033   2.881   7.251
 5189SOL    HW232710   4.977   2.741   7.240
 5190SOL     OW32711   0.474   4.493   2.465
 5190SOL    HW132712   0.502   4.487   2.373
 5190SOL    HW232713   0.380   4.513   2.460
 5191SOL     OW32714   4.937   5.386   5.896
 5191SOL    HW132715   4.842   5.375   5.889
 5191SOL    HW232716   4.960   5.345   5.979
 5192SOL     OW32717   4.880   4.123   7.157
 5192SOL    HW132718   4.893   4.077   7.240
 5192SOL    HW232719   4.962   4.111   7.110
 5193SOL     OW32720   1.085   2.465   0.131
 5193SOL    HW132721   1.101   2.379   0.093
 5193SOL    HW232722   0.995   2.461   0.164
 5194SOL     OW32723   2.797   3.014   6.360
 5194SOL    HW132724   2.814   3.095   6.312
 5194SOL    HW232725   2.859   2.951   6.325
 5195SOL     OW32726   0.333   4.322   6.768
 5195SOL    HW132727   0.301   4.289   6.852
 5195SOL    HW232728   0.275   4.395   6.747
 5196SOL     OW32729   6.356   5.577   6.484
 5196SOL    HW132730   6.294   5.559   6.555
 5196SOL    HW232731   6.353   5.672   6.473
 5197SOL     OW32732   0.772   5.881   7.767
 5197SOL    HW132733   0.806   5.804   7.723
 5197SOL    HW232734   0.714   5.846   7.835
 5198SOL     OW32735   2.926   0.282   1.444
 5198SOL    HW132736   2.882   0.241   1.369
 5198SOL    HW232737   2.857   0.332   1.488
 5199SOL     OW32738   2.805   2.762   1.719
 5199SOL    HW132739   2.804   2.696   1.789
 5199SOL    HW232740   2.848   2.718   1.645
 5200SOL     OW32741   1.491   3.371   6.257
 5200SOL    HW132742   1.508   3.439   6.321
 5200SOL    HW232743   1.567   3.373   6.198
 5201SOL     OW32744   0.543   1.467   5.965
 5201SOL    HW132745   0.451   1.492   5.960
 5201SOL    HW232746   0.584   1.513   5.892
 5202SOL     OW32747   4.508   4.345   6.291
 5202SOL    HW132748   4.543   4.325   6.378
 5202SOL    HW232749   4.473   4.434   6.299
 5203SOL     OW32750   3.645   1.425   5.659
 5203SOL    HW132751   3.674   1.469   5.579
 5203SOL    HW232752   3.719   1.433   5.719
 5204SOL     OW32753   1.953   1.656   0.963
 5204SOL    HW132754   2.044   1.682   0.952
 5204SOL    HW232755   1.957   1.572   1.010
 5205SOL     OW32756   4.457   1.129   7.146
 5205SOL    HW132757   4.467   1.139   7.051
 5205SOL    HW232758   4.397   1.198   7.172
 5206SOL     OW32759   2.673   5.515   2.230
 5206SOL    HW132760   2.761   5.507   2.266
 5206SOL    HW232761   2.685   5.508   2.136
 5207SOL     OW32762   0.814   5.631   6.692
 5207SOL    HW132763   0.783   5.598   6.607
 5207SOL    HW232764   0.871   5.561   6.725
 5208SOL     OW32765   4.013   4.414   2.096
 5208SOL    HW132766   4.054   4.490   2.055
 5208SOL    HW232767   4.049   4.412   2.185
 5209SOL     OW32768   2.035   0.978   1.614
 5209SOL    HW132769   2.023   0.893   1.570
 5209SOL    HW232770   1.949   1.020   1.608
 5210SOL     OW32771   2.550   5.005   2.442
 5210SOL    HW132772   2.508   5.090   2.456
 5210SOL    HW232773   2.481   4.941   2.462
 5211SOL     OW32774   4.299   0.259   7.325
 5211SOL    HW132775   4.265   0.317   7.393
 5211SOL    HW232776   4.383   0.229   7.359
 5212SOL     OW32777   3.530   1.131   0.515
 5212SOL    HW132778   3.489   1.216   0.500
 5212SOL    HW232779   3.522   1.117   0.609
 5213SOL     OW32780   1.703   5.142   2.350
 5213SOL    HW132781   1.725   5.234   2.367
 5213SOL    HW232782   1.636   5.121   2.415
 5214SOL     OW32783   5.907   1.006   0.223
 5214SOL    HW132784   5.813   1.023   0.217
 5214SOL    HW232785   5.914   0.912   0.241
 5215SOL     OW32786   1.719   0.595   2.441
 5215SOL    HW132787   1.634   0.583   2.484
 5215SOL    HW232788   1.713   0.681   2.400
 5216SOL     OW32789   4.810   2.171   1.100
 5216SOL    HW132790   4.818   2.238   1.031
 5216SOL    HW232791   4.818   2.088   1.053
 5217SOL     OW32792   3.689   3.537   7.794
 5217SOL    HW132793   3.670   3.463   7.851
 5217SOL    HW232794   3.657   3.613   7.842
 5218SOL     OW32795   5.881   1.395   1.545
 5218SOL    HW132796   5.923   1.348   1.617
 5218SOL    HW232797   5.832   1.466   1.587
 5219SOL     OW32798   0.649   5.860   0.510
 5219SOL    HW132799   0.621   5.893   0.424
 5219SOL    HW232800   0.630   5.766   0.507
 5220SOL     OW32801   4.932   5.506   6.663
 5220SOL    HW132802   4.923   5.543   6.575
 5220SOL    HW232803   5.015   5.458   6.660
 5221SOL     OW32804   1.035   4.881   6.468
 5221SOL    HW132805   1.047   4.900   6.375
 5221SOL    HW232806   0.940   4.877   6.480
 5222SOL     OW32807   4.441   4.892   7.561
 5222SOL    HW132808   4.416   4.835   7.489
 5222SOL    HW232809   4.362   4.944   7.579
 5223SOL     OW32810   2.652   1.958   7.555
 5223SOL    HW132811   2.711   1.896   7.513
 5223SOL    HW232812   2.699   2.042   7.552
 5224SOL     OW32813   6.061   6.417   0.227
 5224SOL    HW132814   5.980   6.418   0.176
 5224SOL    HW232815   6.100   6.332   0.210
 5225SOL     OW32816   5.396   2.435   0.186
 5225SOL    HW132817   5.406   2.340   0.188
 5225SOL    HW232818   5.305   2.449   0.158
 5226SOL     OW32819   3.109   5.106   7.087
 5226SOL    HW132820   3.179   5.148   7.137
 5226SOL    HW232821   3.030   5.152   7.114
 5227SOL     OW32822   4.481   2.747   1.788
 5227SOL    HW132823   4.469   2.840   1.773
 5227SOL    HW232824   4.561   2.742   1.841
 5228SOL     OW32825   0.943   0.956   6.280
 5228SOL    HW132826   0.862   0.968   6.230
 5228SOL    HW232827   1.003   0.913   6.218
 5229SOL     OW32828   0.036   0.004   6.157
 5229SOL    HW132829   0.026  -0.011   6.251
 5229SOL    HW232830   0.053   0.098   6.149
 5230SOL     OW32831   0.284   6.345   0.290
 5230SOL    HW132832   0.208   6.386   0.332
 5230SOL    HW232833   0.358   6.398   0.319
 5231SOL     OW32834   1.565   0.599   7.733
 5231SOL    HW132835   1.584   0.685   7.772
 5231SOL    HW232836   1.652   0.562   7.715
 5232SOL     OW32837   2.319   3.319   0.365
 5232SOL    HW132838   2.234   3.333   0.408
 5232SOL    HW232839   2.372   3.394   0.392
 5233SOL     OW32840   6.194   5.726   5.459
 5233SOL    HW132841   6.151   5.801   5.420
 5233SOL    HW232842   6.248   5.763   5.529
 5234SOL     OW32843   2.722   5.715   1.449
 5234SOL    HW132844   2.677   5.707   1.534
 5234SOL    HW232845   2.792   5.778   1.465
 5235SOL     OW32846   1.334   2.556   6.594
 5235SOL    HW132847   1.414   2.591   6.556
 5235SOL    HW232848   1.318   2.610   6.672
 5236SOL     OW32849   5.442   4.246   7.673
 5236SOL    HW132850   5.474   4.209   7.590
 5236SOL    HW232851   5.473   4.337   7.671
 5237SOL     OW32852   6.056   4.625   1.199
 5237SOL    HW132853   5.994   4.552   1.207
 5237SOL    HW232854   6.086   4.640   1.288
 5238SOL     OW32855   6.324   5.374   5.136
 5238SOL    HW132856   6.359   5.422   5.211
 5238SOL    HW232857   6.354   5.422   5.059
 5239SOL     OW32858   0.768   4.313   2.262
 5239SOL    HW132859   0.688   4.366   2.263
 5239SOL    HW232860   0.755   4.252   2.189
 5240SOL     OW32861   6.295   0.603   7.451
 5240SOL    HW132862   6.362   0.582   7.515
 5240SOL    HW232863   6.235   0.662   7.497
 5241SOL     OW32864   2.159   3.478   0.137
 5241SOL    HW132865   2.143   3.447   0.226
 5241SOL    HW232866   2.088   3.540   0.120
 5242SOL     OW32867   2.810   4.383   0.699
 5242SOL    HW132868   2.900   4.357   0.682
 5242SOL    HW232869   2.757   4.316   0.657
 5243SOL     OW32870   3.829   6.035   7.536
 5243SOL    HW132871   3.840   6.031   7.631
 5243SOL    HW232872   3.863   5.951   7.504
 5244SOL     OW32873   0.817   4.073   0.377
 5244SOL    HW132874   0.828   4.157   0.421
 5244SOL    HW232875   0.805   4.010   0.447
 5245SOL     OW32876   4.019   3.903   5.632
 5245SOL    HW132877   4.050   3.883   5.544
 5245SOL    HW232878   3.954   3.971   5.620
 5246SOL     OW32879   0.119   5.184   2.084
 5246SOL    HW132880   0.172   5.136   2.148
 5246SOL    HW232881   0.178   5.199   2.011
 5247SOL     OW32882   5.710   1.120   7.075
 5247SOL    HW132883   5.675   1.045   7.025
 5247SOL    HW232884   5.712   1.089   7.165
 5248SOL     OW32885   3.036   0.360   6.662
 5248SOL    HW132886   3.100   0.293   6.637
 5248SOL    HW232887   2.986   0.321   6.733
 5249SOL     OW32888   5.732   5.261   0.522
 5249SOL    HW132889   5.642   5.291   0.509
 5249SOL    HW232890   5.786   5.323   0.473
 5250SOL     OW32891   0.361   5.415   0.445
 5250SOL    HW132892   0.328   5.356   0.513
 5250SOL    HW232893   0.404   5.357   0.382
 5251SOL     OW32894   2.790   5.220   6.495
 5251SOL    HW132895   2.726   5.235   6.425
 5251SOL    HW232896   2.860   5.169   6.454
 5252SOL     OW32897   1.863   5.364   7.262
 5252SOL    HW132898   1.897   5.275   7.262
 5252SOL    HW232899   1.769   5.354   7.245
 5253SOL     OW32900   4.393   1.415   1.535
 5253SOL    HW132901   4.335   1.491   1.544
 5253SOL    HW232902   4.398   1.378   1.623
 5254SOL     OW32903   0.599   0.017   7.695
 5254SOL    HW132904   0.532   0.028   7.762
 5254SOL    HW232905   0.649   0.099   7.697
 5255SOL     OW32906   1.043   1.884   6.915
 5255SOL    HW132907   0.949   1.889   6.897
 5255SOL    HW232908   1.050   1.893   7.010
 5256SOL     OW32909   6.307   6.331   6.496
 5256SOL    HW132910   6.281   6.239   6.491
 5256SOL    HW232911   6.283   6.357   6.585
 5257SOL     OW32912   2.983   0.535   0.132
 5257SOL    HW132913   2.931   0.616   0.129
 5257SOL    HW232914   3.074   0.565   0.128
 5258SOL     OW32915   4.638   3.235   0.519
 5258SOL    HW132916   4.575   3.164   0.526
 5258SOL    HW232917   4.595   3.301   0.465
 5259SOL     OW32918   2.973   0.265   1.732
 5259SOL    HW132919   2.893   0.299   1.769
 5259SOL    HW232920   2.974   0.297   1.642
 5260SOL     OW32921   1.762   1.776   5.772
 5260SOL    HW132922   1.837   1.751   5.719
 5260SOL    HW232923   1.689   1.779   5.710
 5261SOL     OW32924   3.627   3.227   1.507
 5261SOL    HW132925   3.683   3.234   1.584
 5261SOL    HW232926   3.624   3.316   1.471
 5262SOL     OW32927   0.746   3.104   0.505
 5262SOL    HW132928   0.731   3.195   0.531
 5262SOL    HW232929   0.671   3.056   0.540
 5263SOL     OW32930   4.325   0.161   5.503
 5263SOL    HW132931   4.325   0.067   5.518
 5263SOL    HW232932   4.410   0.191   5.536
 5264SOL     OW32933   1.403   0.455   0.397
 5264SOL    HW132934   1.423   0.472   0.489
 5264SOL    HW232935   1.377   0.363   0.394
 5265SOL     OW32936   1.656   1.217   7.555
 5265SOL    HW132937   1.704   1.299   7.568
 5265SOL    HW232938   1.572   1.244   7.519
 5266SOL     OW32939   0.493   4.797   7.291
 5266SOL    HW132940   0.448   4.713   7.299
 5266SOL    HW232941   0.584   4.773   7.269
 5267SOL     OW32942   2.835   3.061   0.780
 5267SOL    HW132943   2.894   3.134   0.792
 5267SOL    HW232944   2.870   3.013   0.705
 5268SOL     OW32945   6.320   0.350   0.971
 5268SOL    HW132946   6.295   0.345   0.879
 5268SOL    HW232947   6.407   0.310   0.974
 5269SOL     OW32948   4.507   3.042   0.192
 5269SOL    HW132949   4.496   2.992   0.111
 5269SOL    HW232950   4.504   3.134   0.165
 5270SOL     OW32951   3.384   1.436   0.458
 5270SOL    HW132952   3.413   1.467   0.544
 5270SOL    HW232953   3.322   1.365   0.478
 5271SOL     OW32954   4.316   3.138   7.706
 5271SOL    HW132955   4.351   3.129   7.618
 5271SOL    HW232956   4.329   3.052   7.746
 5272SOL     OW32957   1.270   5.485   7.796
 5272SOL    HW132958   1.176   5.488   7.776
 5272SOL    HW232959   1.293   5.576   7.815
 5273SOL     OW32960   1.716   0.376   6.890
 5273SOL    HW132961   1.797   0.323   6.885
 5273SOL    HW232962   1.665   0.347   6.815
 5274SOL     OW32963   1.155   5.067   6.669
 5274SOL    HW132964   1.102   5.015   6.608
 5274SOL    HW232965   1.234   5.014   6.682
 5275SOL     OW32966   3.849   4.683   0.348
 5275SOL    HW132967   3.846   4.767   0.303
 5275SOL    HW232968   3.872   4.620   0.280
 5276SOL     OW32969   1.173   2.008   7.162
 5276SOL    HW132970   1.214   2.050   7.238
 5276SOL    HW232971   1.230   1.934   7.142
 5277SOL     OW32972   0.391   2.108   0.521
 5277SOL    HW132973   0.380   2.198   0.551
 5277SOL    HW232974   0.469   2.110   0.466
 5278SOL     OW32975   0.413   0.628   0.488
 5278SOL    HW132976   0.384   0.630   0.579
 5278SOL    HW232977   0.502   0.595   0.492
 5279SOL     OW32978   2.839   2.505   2.274
 5279SOL    HW132979   2.769   2.559   2.309
 5279SOL    HW232980   2.894   2.484   2.349
 5280SOL     OW32981   1.878   3.999   1.794
 5280SOL    HW132982   1.827   3.965   1.720
 5280SOL    HW232983   1.823   4.068   1.831
 5281SOL     OW32984   4.320   2.247   5.453
 5281SOL    HW132985   4.389   2.182   5.461
 5281SOL    HW232986   4.354   2.324   5.498
 5282SOL     OW32987   2.130   1.121   0.913
 5282SOL    HW132988   2.153   1.039   0.869
 5282SOL    HW232989   2.074   1.094   0.986
 5283SOL     OW32990   5.343   5.008   7.126
 5283SOL    HW132991   5.271   4.992   7.186
 5283SOL    HW232992   5.355   4.925   7.080
 5284SOL     OW32993   0.579   5.694   0.054
 5284SOL    HW132994   0.555   5.634  -0.017
 5284SOL    HW232995   0.505   5.691   0.114
 5285SOL     OW32996   1.388   3.276   1.431
 5285SOL    HW132997   1.310   3.287   1.485
 5285SOL    HW232998   1.452   3.338   1.467
 5286SOL     OW32999   3.590   0.535   6.598
 5286SOL    HW133000   3.608   0.456   6.546
 5286SOL    HW233001   3.528   0.506   6.665
 5287SOL     OW33002   3.719   3.116   6.016
 5287SOL    HW133003   3.628   3.092   5.996
 5287SOL    HW233004   3.763   3.116   5.931
 5288SOL     OW33005   3.094   1.697   1.203
 5288SOL    HW133006   3.151   1.771   1.183
 5288SOL    HW233007   3.149   1.639   1.256
 5289SOL     OW33008   2.589   3.847   2.431
 5289SOL    HW133009   2.578   3.752   2.443
 5289SOL    HW233010   2.655   3.872   2.496
 5290SOL     OW33011   5.905   6.165   0.605
 5290SOL    HW133012   5.879   6.157   0.697
 5290SOL    HW233013   5.995   6.198   0.609
 5291SOL     OW33014   2.290   4.403   5.753
 5291SOL    HW133015   2.307   4.309   5.763
 5291SOL    HW233016   2.297   4.419   5.659
 5292SOL     OW33017   3.472   1.519   6.397
 5292SOL    HW133018   3.542   1.533   6.461
 5292SOL    HW233019   3.510   1.459   6.333
 5293SOL     OW33020   2.059   1.089   7.538
 5293SOL    HW133021   1.987   1.064   7.480
 5293SOL    HW233022   2.087   1.175   7.506
 5294SOL     OW33023   6.022   4.110   1.932
 5294SOL    HW133024   6.055   4.192   1.967
 5294SOL    HW233025   6.028   4.120   1.837
 5295SOL     OW33026   4.190   3.392   6.207
 5295SOL    HW133027   4.129   3.433   6.268
 5295SOL    HW233028   4.186   3.447   6.128
 5296SOL     OW33029   4.934   6.346   7.035
 5296SOL    HW133030   4.974   6.387   6.958
 5296SOL    HW233031   5.000   6.354   7.104
 5297SOL     OW33032   4.645   2.789   0.488
 5297SOL    HW133033   4.719   2.762   0.541
 5297SOL    HW233034   4.680   2.795   0.399
 5298SOL     OW33035   5.354   2.522   6.439
 5298SOL    HW133036   5.291   2.522   6.367
 5298SOL    HW233037   5.303   2.495   6.515
 5299SOL     OW33038   0.188   2.925   6.371
 5299SOL    HW133039   0.153   3.011   6.348
 5299SOL    HW233040   0.238   2.898   6.294
 5300SOL     OW33041   0.073   4.830   1.980
 5300SOL    HW133042   0.032   4.770   1.918
 5300SOL    HW233043   0.063   4.788   2.065
 5301SOL     OW33044   3.945   4.866   0.547
 5301SOL    HW133045   4.015   4.830   0.493
 5301SOL    HW233046   3.981   4.869   0.635
 5302SOL     OW33047   3.861   2.450   0.250
 5302SOL    HW133048   3.924   2.495   0.307
 5302SOL    HW233049   3.844   2.514   0.180
 5303SOL     OW33050   1.673   3.305   1.285
 5303SOL    HW133051   1.590   3.353   1.288
 5303SOL    HW233052   1.715   3.335   1.205
 5304SOL     OW33053   0.306   0.813   7.279
 5304SOL    HW133054   0.249   0.882   7.310
 5304SOL    HW233055   0.247   0.745   7.246
 5305SOL     OW33056   2.207   2.867   7.503
 5305SOL    HW133057   2.184   2.942   7.448
 5305SOL    HW233058   2.262   2.813   7.447
 5306SOL     OW33059   0.908   2.771   1.785
 5306SOL    HW133060   0.900   2.801   1.694
 5306SOL    HW233061   0.968   2.696   1.780
 5307SOL     OW33062   1.367   3.320   5.767
 5307SOL    HW133063   1.445   3.371   5.744
 5307SOL    HW233064   1.307   3.385   5.804
 5308SOL     OW33065   1.354   2.691   1.631
 5308SOL    HW133066   1.419   2.639   1.584
 5308SOL    HW233067   1.382   2.687   1.722
 5309SOL     OW33068   1.620   1.434   2.097
 5309SOL    HW133069   1.675   1.363   2.064
 5309SOL    HW233070   1.628   1.428   2.192
 5310SOL     OW33071   3.663   4.833   1.093
 5310SOL    HW133072   3.600   4.763   1.105
 5310SOL    HW233073   3.639   4.899   1.158
 5311SOL     OW33074   3.316   5.399   7.042
 5311SOL    HW133075   3.291   5.355   6.961
 5311SOL    HW233076   3.368   5.474   7.014
 5312SOL     OW33077   3.767   4.425   5.721
 5312SOL    HW133078   3.693   4.369   5.699
 5312SOL    HW233079   3.837   4.365   5.745
 5313SOL     OW33080   3.181   6.198   1.524
 5313SOL    HW133081   3.173   6.235   1.436
 5313SOL    HW233082   3.224   6.114   1.510
 5314SOL     OW33083   6.305   0.436   0.447
 5314SOL    HW133084   6.267   0.427   0.360
 5314SOL    HW233085   6.351   0.354   0.462
 5315SOL     OW33086   1.475   0.318   6.691
 5315SOL    HW133087   1.472   0.223   6.698
 5315SOL    HW233088   1.384   0.346   6.703
 5316SOL     OW33089   3.118   0.004   1.310
 5316SOL    HW133090   3.127   0.036   1.400
 5316SOL    HW233091   3.091   0.080   1.259
 5317SOL     OW33092   5.869   0.155   0.488
 5317SOL    HW133093   5.789   0.110   0.458
 5317SOL    HW233094   5.843   0.246   0.498
 5318SOL     OW33095   1.257   1.877   0.623
 5318SOL    HW133096   1.251   1.790   0.584
 5318SOL    HW233097   1.231   1.937   0.552
 5319SOL     OW33098   4.335   1.088   0.257
 5319SOL    HW133099   4.375   1.048   0.180
 5319SOL    HW233100   4.394   1.067   0.329
 5320SOL     OW33101   6.369   0.738   6.472
 5320SOL    HW133102   6.365   0.681   6.395
 5320SOL    HW233103   6.439   0.701   6.526
 5321SOL     OW33104   5.279   4.830   0.472
 5321SOL    HW133105   5.188   4.811   0.495
 5321SOL    HW233106   5.322   4.745   0.473
 5322SOL     OW33107   0.049   0.635   6.695
 5322SOL    HW133108   0.132   0.681   6.709
 5322SOL    HW233109   0.072   0.542   6.698
 5323SOL     OW33110   6.238   5.496   7.625
 5323SOL    HW133111   6.195   5.436   7.686
 5323SOL    HW233112   6.330   5.469   7.625
 5324SOL     OW33113   5.442   2.720   7.057
 5324SOL    HW133114   5.353   2.684   7.049
 5324SOL    HW233115   5.453   2.737   7.150
 5325SOL     OW33116   0.961   3.513   0.898
 5325SOL    HW133117   1.030   3.535   0.960
 5325SOL    HW233118   1.005   3.510   0.813
 5326SOL     OW33119   5.221   1.783   6.773
 5326SOL    HW133120   5.256   1.761   6.687
 5326SOL    HW233121   5.183   1.871   6.762
 5327SOL     OW33122   5.649   6.194   0.255
 5327SOL    HW133123   5.732   6.177   0.299
 5327SOL    HW233124   5.592   6.228   0.323
 5328SOL     OW33125   2.152   5.668   1.588
 5328SOL    HW133126   2.090   5.655   1.517
 5328SOL    HW233127   2.124   5.606   1.656
 5329SOL     OW33128   0.233   1.815   5.829
 5329SOL    HW133129   0.180   1.842   5.904
 5329SOL    HW233130   0.228   1.888   5.768
 5330SOL     OW33131   1.731   1.559   7.157
 5330SOL    HW133132   1.741   1.654   7.147
 5330SOL    HW233133   1.668   1.534   7.090
 5331SOL     OW33134   3.138   2.387   7.694
 5331SOL    HW133135   3.159   2.330   7.768
 5331SOL    HW233136   3.077   2.451   7.730
 5332SOL     OW33137   4.304   1.180   7.496
 5332SOL    HW133138   4.395   1.197   7.469
 5332SOL    HW233139   4.291   1.239   7.571
 5333SOL     OW33140   4.043   0.363   6.189
 5333SOL    HW133141   4.008   0.326   6.270
 5333SOL    HW233142   4.136   0.377   6.208
 5334SOL     OW33143   2.029   2.637   0.295
 5334SOL    HW133144   1.992   2.655   0.381
 5334SOL    HW233145   2.074   2.718   0.270
 5335SOL     OW33146   0.901   0.060   6.993
 5335SOL    HW133147   0.812   0.081   7.022
 5335SOL    HW233148   0.956   0.126   7.033
 5336SOL     OW33149   2.522   5.399   7.036
 5336SOL    HW133150   2.429   5.413   7.020
 5336SOL    HW233151   2.566   5.462   6.978
 5337SOL     OW33152   5.981   4.825   6.087
 5337SOL    HW133153   6.001   4.804   5.996
 5337SOL    HW233154   6.053   4.787   6.137
 5338SOL     OW33155   0.181   4.672   5.971
 5338SOL    HW133156   0.160   4.761   5.942
 5338SOL    HW233157   0.098   4.639   6.006
 5339SOL     OW33158   0.545   5.323   6.928
 5339SOL    HW133159   0.456   5.327   6.963
 5339SOL    HW233160   0.564   5.412   6.899
 5340SOL     OW33161   4.295   3.891   1.626
 5340SOL    HW133162   4.247   3.974   1.627
 5340SOL    HW233163   4.227   3.824   1.625
 5341SOL     OW33164   1.165   0.005   7.647
 5341SOL    HW133165   1.199  -0.041   7.724
 5341SOL    HW233166   1.235   0.064   7.621
 5342SOL     OW33167   4.446   3.495   6.631
 5342SOL    HW133168   4.449   3.466   6.540
 5342SOL    HW233169   4.490   3.580   6.631
 5343SOL     OW33170   0.928   3.059   0.117
 5343SOL    HW133171   0.983   3.088   0.043
 5343SOL    HW233172   0.839   3.089   0.094
 5344SOL     OW33173   2.243   0.362   0.721
 5344SOL    HW133174   2.172   0.317   0.674
 5344SOL    HW233175   2.284   0.417   0.654
 5345SOL     OW33176   5.035   6.416   6.742
 5345SOL    HW133177   5.096   6.449   6.676
 5345SOL    HW233178   4.950   6.454   6.718
 5346SOL     OW33179   4.784   0.764   7.060
 5346SOL    HW133180   4.870   0.780   7.099
 5346SOL    HW233181   4.799   0.772   6.966
 5347SOL     OW33182   2.623   2.076   6.687
 5347SOL    HW133183   2.670   2.074   6.770
 5347SOL    HW233184   2.627   2.168   6.659
 5348SOL     OW33185   2.017   2.958   1.256
 5348SOL    HW133186   2.042   2.872   1.221
 5348SOL    HW233187   1.964   2.998   1.187
 5349SOL     OW33188   1.631   3.379   6.886
 5349SOL    HW133189   1.562   3.421   6.939
 5349SOL    HW233190   1.697   3.447   6.874
 5350SOL     OW33191   3.454   0.992   7.226
 5350SOL    HW133192   3.372   0.944   7.240
 5350SOL    HW233193   3.426   1.079   7.196
 5351SOL     OW33194   3.412   6.160   2.154
 5351SOL    HW133195   3.381   6.251   2.146
 5351SOL    HW233196   3.393   6.122   2.068
 5352SOL     OW33197   1.218   1.396   1.288
 5352SOL    HW133198   1.264   1.327   1.239
 5352SOL    HW233199   1.220   1.366   1.379
 5353SOL     OW33200   1.718   6.029   2.024
 5353SOL    HW133201   1.678   6.110   1.993
 5353SOL    HW233202   1.711   6.034   2.120
 5354SOL     OW33203   5.697   2.718   6.917
 5354SOL    HW133204   5.617   2.665   6.915
 5354SOL    HW233205   5.666   2.808   6.902
 5355SOL     OW33206   4.017   3.469   1.268
 5355SOL    HW133207   4.106   3.475   1.305
 5355SOL    HW233208   3.962   3.513   1.333
 5356SOL     OW33209   2.771   4.370   6.613
 5356SOL    HW133210   2.785   4.335   6.701
 5356SOL    HW233211   2.858   4.378   6.576
 5357SOL     OW33212   1.012   6.364   7.417
 5357SOL    HW133213   1.007   6.309   7.494
 5357SOL    HW233214   1.088   6.421   7.432
 5358SOL     OW33215   3.395   2.306   7.594
 5358SOL    HW133216   3.306   2.336   7.608
 5358SOL    HW233217   3.394   2.267   7.506
 5359SOL     OW33218   2.104   1.318   0.695
 5359SOL    HW133219   2.122   1.267   0.774
 5359SOL    HW233220   2.185   1.312   0.644
 5360SOL     OW33221   2.445   2.866   0.031
 5360SOL    HW133222   2.373   2.806   0.051
 5360SOL    HW233223   2.460   2.856  -0.063
 5361SOL     OW33224   1.924   6.213   0.117
 5361SOL    HW133225   1.956   6.142   0.172
 5361SOL    HW233226   1.933   6.292   0.170
 5362SOL     OW33227   5.288   1.929   6.183
 5362SOL    HW133228   5.241   2.006   6.151
 5362SOL    HW233229   5.278   1.865   6.112
 5363SOL     OW33230   3.006   3.978   7.510
 5363SOL    HW133231   3.054   3.982   7.428
 5363SOL    HW233232   2.916   3.960   7.485
 5364SOL     OW33233   2.251   2.628   5.569
 5364SOL    HW133234   2.181   2.625   5.504
 5364SOL    HW233235   2.325   2.669   5.523
 5365SOL     OW33236   2.228   2.281   0.040
 5365SOL    HW133237   2.283   2.263   0.116
 5365SOL    HW233238   2.215   2.196  -0.002
 5366SOL     OW33239   0.870   5.544   7.767
 5366SOL    HW133240   0.930   5.604   7.812
 5366SOL    HW233241   0.888   5.459   7.806
 5367SOL     OW33242   2.667   6.067   1.309
 5367SOL    HW133243   2.594   6.126   1.289
 5367SOL    HW233244   2.630   5.979   1.294
 5368SOL     OW33245   0.957   5.429   6.832
 5368SOL    HW133246   0.966   5.351   6.887
 5368SOL    HW233247   1.046   5.466   6.829
 5369SOL     OW33248   1.385   2.779   0.551
 5369SOL    HW133249   1.316   2.786   0.485
 5369SOL    HW233250   1.347   2.822   0.628
 5370SOL     OW33251   1.536   0.314   0.690
 5370SOL    HW133252   1.491   0.398   0.699
 5370SOL    HW233253   1.471   0.249   0.719
 5371SOL     OW33254   5.159   0.541   0.105
 5371SOL    HW133255   5.084   0.505   0.056
 5371SOL    HW233256   5.166   0.486   0.182
 5372SOL     OW33257   1.796   3.653   7.179
 5372SOL    HW133258   1.728   3.622   7.119
 5372SOL    HW233259   1.805   3.582   7.243
 5373SOL     OW33260   6.057   0.945   1.212
 5373SOL    HW133261   6.045   1.040   1.216
 5373SOL    HW233262   6.147   0.932   1.241
 5374SOL     OW33263   5.744   4.544   5.980
 5374SOL    HW133264   5.837   4.539   5.960
 5374SOL    HW233265   5.729   4.636   6.001
 5375SOL     OW33266   2.148   6.024   0.265
 5375SOL    HW133267   2.187   6.093   0.318
 5375SOL    HW233268   2.206   6.015   0.190
 5376SOL     OW33269   3.899   2.765   0.971
 5376SOL    HW133270   3.851   2.810   1.040
 5376SOL    HW233271   3.955   2.833   0.933
 5377SOL     OW33272   3.246   5.886   7.368
 5377SOL    HW133273   3.197   5.826   7.424
 5377SOL    HW233274   3.204   5.970   7.380
 5378SOL     OW33275   1.365   5.887   0.117
 5378SOL    HW133276   1.299   5.956   0.105
 5378SOL    HW233277   1.380   5.854   0.028
 5379SOL     OW33278   1.658   1.329   1.030
 5379SOL    HW133279   1.670   1.240   0.998
 5379SOL    HW233280   1.708   1.383   0.968
 5380SOL     OW33281   4.932   4.161   6.286
 5380SOL    HW133282   5.021   4.185   6.258
 5380SOL    HW233283   4.874   4.209   6.226
 5381SOL     OW33284   5.887   3.284   7.664
 5381SOL    HW133285   5.867   3.199   7.624
 5381SOL    HW233286   5.959   3.319   7.612
 5382SOL     OW33287   3.133   1.041   6.795
 5382SOL    HW133288   3.048   1.026   6.754
 5382SOL    HW233289   3.121   1.012   6.885
 5383SOL     OW33290   5.127   6.415   5.487
 5383SOL    HW133291   5.109   6.340   5.544
 5383SOL    HW233292   5.222   6.422   5.486
 5384SOL     OW33293   4.841   1.266   6.292
 5384SOL    HW133294   4.772   1.329   6.314
 5384SOL    HW233295   4.857   1.279   6.199
 5385SOL     OW33296   2.719   4.452   7.313
 5385SOL    HW133297   2.649   4.418   7.257
 5385SOL    HW233298   2.675   4.514   7.372
 5386SOL     OW33299   2.052   5.158   0.643
 5386SOL    HW133300   2.031   5.117   0.559
 5386SOL    HW233301   2.019   5.097   0.709
 5387SOL     OW33302   5.239   5.550   7.709
 5387SOL    HW133303   5.206   5.463   7.733
 5387SOL    HW233304   5.311   5.532   7.648
 5388SOL     OW33305   5.245   0.838   1.188
 5388SOL    HW133306   5.290   0.859   1.106
 5388SOL    HW233307   5.152   0.834   1.165
 5389SOL     OW33308   1.641   4.615   0.641
 5389SOL    HW133309   1.610   4.578   0.724
 5389SOL    HW233310   1.563   4.619   0.586
 5390SOL     OW33311   3.970   0.462   2.074
 5390SOL    HW133312   3.953   0.477   1.981
 5390SOL    HW233313   3.997   0.371   2.079
 5391SOL     OW33314   2.440   0.807   0.689
 5391SOL    HW133315   2.500   0.757   0.744
 5391SOL    HW233316   2.467   0.786   0.599
 5392SOL     OW33317   1.284   2.068   6.811
 5392SOL    HW133318   1.188   2.066   6.808
 5392SOL    HW233319   1.307   2.150   6.768
 5393SOL     OW33320   3.168   0.081   7.735
 5393SOL    HW133321   3.143   0.119   7.819
 5393SOL    HW233322   3.128   0.138   7.669
 5394SOL     OW33323   3.998   4.564   7.030
 5394SOL    HW133324   3.988   4.477   6.993
 5394SOL    HW233325   3.984   4.553   7.124
 5395SOL     OW33326   4.700   4.083   6.795
 5395SOL    HW133327   4.692   4.116   6.705
 5395SOL    HW233328   4.794   4.065   6.805
 5396SOL     OW33329   5.963   1.469   7.365
 5396SOL    HW133330   5.892   1.533   7.362
 5396SOL    HW233331   5.980   1.456   7.459
 5397SOL     OW33332   0.345   0.336   6.796
 5397SOL    HW133333   0.375   0.298   6.714
 5397SOL    HW233334   0.422   0.333   6.854
 5398SOL     OW33335   4.260   0.785   1.423
 5398SOL    HW133336   4.317   0.726   1.472
 5398SOL    HW233337   4.261   0.750   1.334
 5399SOL     OW33338   0.742   4.915   0.324
 5399SOL    HW133339   0.679   4.955   0.384
 5399SOL    HW233340   0.691   4.890   0.247
 5400SOL     OW33341   4.816   6.307   7.522
 5400SOL    HW133342   4.869   6.381   7.492
 5400SOL    HW233343   4.732   6.318   7.478
 5401SOL     OW33344   2.121   2.516   1.242
 5401SOL    HW133345   2.186   2.550   1.180
 5401SOL    HW233346   2.037   2.525   1.197
 5402SOL     OW33347   3.763   5.507   0.336
 5402SOL    HW133348   3.793   5.519   0.426
 5402SOL    HW233349   3.819   5.437   0.302
 5403SOL     OW33350   3.914   4.672   1.531
 5403SOL    HW133351   3.978   4.672   1.602
 5403SOL    HW233352   3.946   4.739   1.470
 5404SOL     OW33353   2.455   2.434   0.821
 5404SOL    HW133354   2.369   2.392   0.820
 5404SOL    HW233355   2.470   2.459   0.730
 5405SOL     OW33356   2.837   2.315   0.463
 5405SOL    HW133357   2.902   2.266   0.413
 5405SOL    HW233358   2.842   2.278   0.552
 5406SOL     OW33359   4.727   5.736   0.760
 5406SOL    HW133360   4.768   5.791   0.827
 5406SOL    HW233361   4.786   5.740   0.685
 5407SOL     OW33362   0.895   5.768   5.391
 5407SOL    HW133363   0.891   5.863   5.383
 5407SOL    HW233364   0.804   5.739   5.374
 5408SOL     OW33365   1.628   4.227   0.716
 5408SOL    HW133366   1.661   4.307   0.757
 5408SOL    HW233367   1.636   4.161   0.784
 5409SOL     OW33368   2.416   3.903   5.848
 5409SOL    HW133369   2.480   3.970   5.826
 5409SOL    HW233370   2.464   3.841   5.903
 5410SOL     OW33371   2.407   2.285   7.109
 5410SOL    HW133372   2.324   2.332   7.100
 5410SOL    HW233373   2.382   2.197   7.137
 5411SOL     OW33374   6.326   1.443   0.108
 5411SOL    HW133375   6.382   1.516   0.081
 5411SOL    HW233376   6.386   1.372   0.126
 5412SOL     OW33377   5.843   2.646   6.519
 5412SOL    HW133378   5.747   2.649   6.517
 5412SOL    HW233379   5.864   2.624   6.610
 5413SOL     OW33380   5.667   3.493   1.114
 5413SOL    HW133381   5.630   3.544   1.186
 5413SOL    HW233382   5.762   3.495   1.130
 5414SOL     OW33383   3.478   6.298   2.482
 5414SOL    HW133384   3.461   6.318   2.390
 5414SOL    HW233385   3.394   6.309   2.525
 5415SOL     OW33386   5.239   3.016   6.142
 5415SOL    HW133387   5.182   2.939   6.139
 5415SOL    HW233388   5.286   3.014   6.059
 5416SOL     OW33389   4.305   4.481   1.092
 5416SOL    HW133390   4.351   4.415   1.041
 5416SOL    HW233391   4.345   4.564   1.066
 5417SOL     OW33392   5.842   1.463   6.677
 5417SOL    HW133393   5.920   1.499   6.633
 5417SOL    HW233394   5.873   1.442   6.766
 5418SOL     OW33395   2.268   6.234   0.446
 5418SOL    HW133396   2.258   6.267   0.536
 5418SOL    HW233397   2.267   6.313   0.392
 5419SOL     OW33398   3.117   3.186   1.845
 5419SOL    HW133399   3.050   3.140   1.794
 5419SOL    HW233400   3.084   3.184   1.935
 5420SOL     OW33401   4.432   0.559   0.174
 5420SOL    HW133402   4.506   0.535   0.118
 5420SOL    HW233403   4.364   0.496   0.152
 5421SOL     OW33404   4.445   5.665   0.010
 5421SOL    HW133405   4.450   5.695  -0.080
 5421SOL    HW233406   4.476   5.740   0.062
 5422SOL     OW33407   3.863   2.718   2.116
 5422SOL    HW133408   3.797   2.666   2.162
 5422SOL    HW233409   3.920   2.751   2.185
 5423SOL     OW33410   1.169   0.282   6.437
 5423SOL    HW133411   1.131   0.195   6.448
 5423SOL    HW233412   1.139   0.311   6.351
 5424SOL     OW33413   5.624   3.397   7.753
 5424SOL    HW133414   5.628   3.399   7.848
 5424SOL    HW233415   5.652   3.309   7.729
 5425SOL     OW33416   0.060   3.209   0.831
 5425SOL    HW133417   0.079   3.303   0.824
 5425SOL    HW233418  -0.009   3.203   0.896
 5426SOL     OW33419   5.201   3.895   6.031
 5426SOL    HW133420   5.208   3.829   5.963
 5426SOL    HW233421   5.121   3.872   6.079
 5427SOL     OW33422   1.461   2.433   7.133
 5427SOL    HW133423   1.478   2.341   7.114
 5427SOL    HW233424   1.385   2.455   7.079
 5428SOL     OW33425   5.897   1.482   5.785
 5428SOL    HW133426   5.839   1.418   5.744
 5428SOL    HW233427   5.937   1.529   5.711
 5429SOL     OW33428   3.617   3.810   1.449
 5429SOL    HW133429   3.581   3.860   1.376
 5429SOL    HW233430   3.587   3.857   1.527
 5430SOL     OW33431   6.366   1.138   1.079
 5430SOL    HW133432   6.358   1.117   0.986
 5430SOL    HW233433   6.359   1.054   1.124
 5431SOL     OW33434   5.138   1.266   1.585
 5431SOL    HW133435   5.170   1.338   1.639
 5431SOL    HW233436   5.151   1.295   1.495
 5432SOL     OW33437   2.837   1.162   0.243
 5432SOL    HW133438   2.792   1.197   0.320
 5432SOL    HW233439   2.818   1.224   0.173
 5433SOL     OW33440   2.383   0.050   0.528
 5433SOL    HW133441   2.445  -0.019   0.503
 5433SOL    HW233442   2.327   0.062   0.451
 5434SOL     OW33443   2.699   3.299   0.884
 5434SOL    HW133444   2.649   3.333   0.809
 5434SOL    HW233445   2.633   3.275   0.949
 5435SOL     OW33446   0.441   4.016   1.687
 5435SOL    HW133447   0.373   4.063   1.639
 5435SOL    HW233448   0.448   3.932   1.642
 5436SOL     OW33449   0.151   6.034   5.991
 5436SOL    HW133450   0.134   6.034   5.897
 5436SOL    HW233451   0.189   5.948   6.009
 5437SOL     OW33452   1.435   1.031   0.829
 5437SOL    HW133453   1.434   1.114   0.782
 5437SOL    HW233454   1.365   1.041   0.895
 5438SOL     OW33455   1.385   1.312   0.821
 5438SOL    HW133456   1.337   1.391   0.796
 5438SOL    HW233457   1.475   1.328   0.793
 5439SOL     OW33458   6.368   5.929   0.876
 5439SOL    HW133459   6.338   5.851   0.923
 5439SOL    HW233460   6.331   6.003   0.925
 5440SOL     OW33461   4.004   4.510   0.550
 5440SOL    HW133462   3.934   4.554   0.501
 5440SOL    HW233463   3.960   4.437   0.593
 5441SOL     OW33464   5.209   2.434   5.772
 5441SOL    HW133465   5.153   2.508   5.747
 5441SOL    HW233466   5.161   2.391   5.843
 5442SOL     OW33467   3.637   0.747   6.429
 5442SOL    HW133468   3.729   0.759   6.405
 5442SOL    HW233469   3.640   0.698   6.511
 5443SOL     OW33470   5.841   3.461   0.337
 5443SOL    HW133471   5.748   3.463   0.313
 5443SOL    HW233472   5.882   3.411   0.267
 5444SOL     OW33473   0.978   5.350   7.114
 5444SOL    HW133474   0.895   5.367   7.069
 5444SOL    HW233475   0.973   5.402   7.195
 5445SOL     OW33476   4.129   2.605   5.900
 5445SOL    HW133477   4.220   2.631   5.886
 5445SOL    HW233478   4.094   2.593   5.812
 5446SOL     OW33479   2.253   4.986   5.645
 5446SOL    HW133480   2.249   5.006   5.739
 5446SOL    HW233481   2.342   5.012   5.619
 5447SOL     OW33482   2.151   0.437   7.212
 5447SOL    HW133483   2.110   0.521   7.190
 5447SOL    HW233484   2.244   0.450   7.191
 5448SOL     OW33485   2.286   5.822   0.703
 5448SOL    HW133486   2.356   5.802   0.641
 5448SOL    HW233487   2.241   5.739   0.716
 5449SOL     OW33488   0.928   3.471   7.630
 5449SOL    HW133489   0.965   3.517   7.554
 5449SOL    HW233490   0.961   3.520   7.706
 5450SOL     OW33491   6.111   5.273   5.274
 5450SOL    HW133492   6.165   5.298   5.199
 5450SOL    HW233493   6.125   5.178   5.283
 5451SOL     OW33494   5.993   0.075   7.746
 5451SOL    HW133495   5.961   0.003   7.692
 5451SOL    HW233496   5.944   0.067   7.828
 5452SOL     OW33497   4.488   5.205   0.544
 5452SOL    HW133498   4.574   5.165   0.553
 5452SOL    HW233499   4.505   5.292   0.509
 5453SOL     OW33500   0.749   1.084   6.802
 5453SOL    HW133501   0.776   0.994   6.814
 5453SOL    HW233502   0.830   1.134   6.797
 5454SOL     OW33503   5.430   5.243   2.053
 5454SOL    HW133504   5.353   5.257   1.998
 5454SOL    HW233505   5.503   5.273   1.999
 5455SOL     OW33506   3.527   4.471   7.592
 5455SOL    HW133507   3.487   4.411   7.655
 5455SOL    HW233508   3.463   4.542   7.582
 5456SOL     OW33509   4.757   5.110   0.599
 5456SOL    HW133510   4.726   5.060   0.675
 5456SOL    HW233511   4.754   5.048   0.527
 5457SOL     OW33512   3.072   0.432   6.228
 5457SOL    HW133513   3.024   0.473   6.300
 5457SOL    HW233514   3.138   0.498   6.203
 5458SOL     OW33515   5.291   4.256   6.902
 5458SOL    HW133516   5.380   4.249   6.937
 5458SOL    HW233517   5.238   4.201   6.960
 5459SOL     OW33518   1.371   2.301   6.705
 5459SOL    HW133519   1.358   2.384   6.659
 5459SOL    HW233520   1.443   2.318   6.765
 5460SOL     OW33521   3.431   2.959   6.715
 5460SOL    HW133522   3.464   2.911   6.639
 5460SOL    HW233523   3.436   3.051   6.688
 5461SOL     OW33524   4.392   4.426   7.683
 5461SOL    HW133525   4.448   4.357   7.647
 5461SOL    HW233526   4.344   4.459   7.607
 5462SOL     OW33527   6.372   6.198   6.910
 5462SOL    HW133528   6.281   6.178   6.888
 5462SOL    HW233529   6.379   6.178   7.003
 5463SOL     OW33530   4.881   1.254   1.105
 5463SOL    HW133531   4.962   1.218   1.142
 5463SOL    HW233532   4.830   1.280   1.182
 5464SOL     OW33533   2.525   0.581   2.187
 5464SOL    HW133534   2.598   0.641   2.196
 5464SOL    HW233535   2.538   0.539   2.102
 5465SOL     OW33536   2.169   3.370   1.777
 5465SOL    HW133537   2.085   3.340   1.812
 5465SOL    HW233538   2.234   3.318   1.823
 5466SOL     OW33539   6.027   0.456   7.126
 5466SOL    HW133540   6.085   0.492   7.059
 5466SOL    HW233541   5.958   0.412   7.077
 5467SOL     OW33542   2.588   2.799   7.622
 5467SOL    HW133543   2.615   2.739   7.553
 5467SOL    HW233544   2.668   2.815   7.673
 5468SOL     OW33545   4.438   2.376   6.435
 5468SOL    HW133546   4.452   2.428   6.515
 5468SOL    HW233547   4.448   2.285   6.463
 5469SOL     OW33548   6.141   4.339   6.678
 5469SOL    HW133549   6.121   4.245   6.670
 5469SOL    HW233550   6.058   4.379   6.702
 5470SOL     OW33551   5.533   3.540   1.366
 5470SOL    HW133552   5.579   3.523   1.449
 5470SOL    HW233553   5.492   3.456   1.344
 5471SOL     OW33554   4.631   4.707   5.993
 5471SOL    HW133555   4.579   4.633   5.960
 5471SOL    HW233556   4.580   4.741   6.067
 5472SOL     OW33557   3.959   0.332   7.655
 5472SOL    HW133558   3.956   0.254   7.599
 5472SOL    HW233559   3.944   0.404   7.594
 5473SOL     OW33560   6.074   0.738   7.562
 5473SOL    HW133561   6.006   0.675   7.538
 5473SOL    HW233562   6.038   0.823   7.539
 5474SOL     OW33563   3.948   3.672   0.990
 5474SOL    HW133564   3.978   3.659   0.900
 5474SOL    HW233565   3.878   3.608   1.002
 5475SOL     OW33566   5.015   1.432   6.650
 5475SOL    HW133567   4.969   1.355   6.618
 5475SOL    HW233568   5.083   1.397   6.708
 5476SOL     OW33569   2.915   4.841   0.595
 5476SOL    HW133570   2.838   4.872   0.547
 5476SOL    HW233571   2.918   4.747   0.578
 5477SOL     OW33572   3.211   4.837   2.003
 5477SOL    HW133573   3.301   4.805   2.002
 5477SOL    HW233574   3.215   4.918   2.053
 5478SOL     OW33575   1.688   4.630   7.356
 5478SOL    HW133576   1.720   4.560   7.300
 5478SOL    HW233577   1.768   4.669   7.392
 5479SOL     OW33578   0.633   2.892   2.045
 5479SOL    HW133579   0.559   2.919   1.990
 5479SOL    HW233580   0.707   2.943   2.013
 5480SOL     OW33581   0.779   4.871   7.709
 5480SOL    HW133582   0.779   4.853   7.615
 5480SOL    HW233583   0.741   4.959   7.718
 5481SOL     OW33584   2.205   2.933   0.439
 5481SOL    HW133585   2.119   2.900   0.465
 5481SOL    HW233586   2.187   2.988   0.363
 5482SOL     OW33587   0.078   2.248   1.240
 5482SOL    HW133588   0.113   2.167   1.202
 5482SOL    HW233589   0.039   2.295   1.167
 5483SOL     OW33590   1.147   4.318   0.019
 5483SOL    HW133591   1.106   4.283   0.099
 5483SOL    HW233592   1.152   4.243  -0.041
 5484SOL     OW33593   0.891   2.432   7.107
 5484SOL    HW133594   0.800   2.421   7.137
 5484SOL    HW233595   0.942   2.435   7.188
 5485SOL     OW33596   5.876   2.967   6.196
 5485SOL    HW133597   5.926   3.048   6.208
 5485SOL    HW233598   5.918   2.924   6.122
 5486SOL     OW33599   3.547   5.740   6.723
 5486SOL    HW133600   3.590   5.806   6.777
 5486SOL    HW233601   3.619   5.686   6.690
 5487SOL     OW33602   3.879   1.145   2.105
 5487SOL    HW133603   3.841   1.058   2.123
 5487SOL    HW233604   3.819   1.206   2.148
 5488SOL     OW33605   2.150   0.212   6.694
 5488SOL    HW133606   2.152   0.268   6.771
 5488SOL    HW233607   2.214   0.251   6.634
 5489SOL     OW33608   4.807   3.634   0.427
 5489SOL    HW133609   4.857   3.586   0.361
 5489SOL    HW233610   4.782   3.569   0.492
 5490SOL     OW33611   0.035   3.025   7.056
 5490SOL    HW133612  -0.005   3.090   6.998
 5490SOL    HW233613   0.117   3.001   7.012
 5491SOL     OW33614   5.829   0.832   6.114
 5491SOL    HW133615   5.756   0.874   6.069
 5491SOL    HW233616   5.857   0.896   6.179
 5492SOL     OW33617   4.144   6.398   1.020
 5492SOL    HW133618   4.113   6.485   0.998
 5492SOL    HW233619   4.149   6.397   1.116
 5493SOL     OW33620   0.819   4.453   5.468
 5493SOL    HW133621   0.731   4.418   5.474
 5493SOL    HW233622   0.819   4.527   5.529
 5494SOL     OW33623   3.758   1.858   1.546
 5494SOL    HW133624   3.847   1.834   1.519
 5494SOL    HW233625   3.768   1.887   1.637
 5495SOL     OW33626   0.882   2.999   1.978
 5495SOL    HW133627   0.945   2.974   2.045
 5495SOL    HW233628   0.906   2.946   1.902
 5496SOL     OW33629   6.296   2.956   7.241
 5496SOL    HW133630   6.205   2.936   7.218
 5496SOL    HW233631   6.330   3.004   7.165
 5497SOL     OW33632   2.481   4.958   0.768
 5497SOL    HW133633   2.395   4.988   0.736
 5497SOL    HW233634   2.460   4.901   0.842
 5498SOL     OW33635   0.856   0.152   6.370
 5498SOL    HW133636   0.769   0.123   6.340
 5498SOL    HW233637   0.839   0.238   6.410
 5499SOL     OW33638   5.669   3.130   6.103
 5499SOL    HW133639   5.753   3.096   6.136
 5499SOL    HW233640   5.658   3.087   6.018
 5500SOL     OW33641   0.023   6.141   0.357
 5500SOL    HW133642   0.054   6.080   0.424
 5500SOL    HW233643   0.028   6.091   0.276
 5501SOL     OW33644   2.905   0.517   2.375
 5501SOL    HW133645   2.964   0.454   2.416
 5501SOL    HW233646   2.821   0.471   2.367
 5502SOL     OW33647   5.466   3.931   7.477
 5502SOL    HW133648   5.451   3.836   7.475
 5502SOL    HW233649   5.383   3.969   7.446
 5503SOL     OW33650   0.966   4.769   0.329
 5503SOL    HW133651   0.901   4.823   0.375
 5503SOL    HW233652   0.914   4.712   0.272
 5504SOL     OW33653   0.531   0.309   1.111
 5504SOL    HW133654   0.438   0.290   1.124
 5504SOL    HW233655   0.569   0.225   1.083
 5505SOL     OW33656   3.841   4.047   6.874
 5505SOL    HW133657   3.846   3.954   6.852
 5505SOL    HW233658   3.811   4.049   6.965
 5506SOL     OW33659   6.417   0.387   7.806
 5506SOL    HW133660   6.355   0.361   7.738
 5506SOL    HW233661   6.490   0.427   7.759
 5507SOL     OW33662   1.431   4.879   1.201
 5507SOL    HW133663   1.461   4.886   1.111
 5507SOL    HW233664   1.459   4.791   1.229
 5508SOL     OW33665   3.492   0.666   1.261
 5508SOL    HW133666   3.422   0.649   1.324
 5508SOL    HW233667   3.540   0.583   1.255
 5509SOL     OW33668   4.082   2.454   7.133
 5509SOL    HW133669   4.015   2.442   7.200
 5509SOL    HW233670   4.143   2.381   7.145
 5510SOL     OW33671   3.807   4.854   6.677
 5510SOL    HW133672   3.810   4.841   6.583
 5510SOL    HW233673   3.733   4.913   6.691
 5511SOL     OW33674   6.228   4.880   1.302
 5511SOL    HW133675   6.256   4.944   1.368
 5511SOL    HW233676   6.176   4.817   1.352
 5512SOL     OW33677   3.217   3.288   0.920
 5512SOL    HW133678   3.181   3.374   0.901
 5512SOL    HW233679   3.312   3.298   0.909
 5513SOL     OW33680   1.026   3.949   2.215
 5513SOL    HW133681   0.976   3.948   2.133
 5513SOL    HW233682   1.071   3.864   2.216
 5514SOL     OW33683   0.112   2.784   1.995
 5514SOL    HW133684   0.055   2.861   1.998
 5514SOL    HW233685   0.052   2.711   1.982
 5515SOL     OW33686   1.281   6.166   2.438
 5515SOL    HW133687   1.303   6.076   2.463
 5515SOL    HW233688   1.366   6.210   2.429
 5516SOL     OW33689   0.718   2.160   1.213
 5516SOL    HW133690   0.704   2.117   1.297
 5516SOL    HW233691   0.718   2.254   1.233
 5517SOL     OW33692   0.425   5.065   6.244
 5517SOL    HW133693   0.356   5.053   6.179
 5517SOL    HW233694   0.394   5.136   6.300
 5518SOL     OW33695   6.329   0.715   6.907
 5518SOL    HW133696   6.395   0.777   6.938
 5518SOL    HW233697   6.373   0.667   6.836
 5519SOL     OW33698   3.735   2.555   0.952
 5519SOL    HW133699   3.800   2.621   0.976
 5519SOL    HW233700   3.781   2.472   0.959
 5520SOL     OW33701   2.821   1.319   6.413
 5520SOL    HW133702   2.881   1.244   6.417
 5520SOL    HW233703   2.736   1.284   6.438
 5521SOL     OW33704   2.405   1.532   7.555
 5521SOL    HW133705   2.437   1.456   7.603
 5521SOL    HW233706   2.451   1.529   7.471
 5522SOL     OW33707   5.657   0.630   0.026
 5522SOL    HW133708   5.653   0.711  -0.026
 5522SOL    HW233709   5.571   0.590   0.015
 5523SOL     OW33710   1.016   3.733   0.353
 5523SOL    HW133711   0.923   3.716   0.370
 5523SOL    HW233712   1.061   3.694   0.428
 5524SOL     OW33713   2.045   2.103   7.542
 5524SOL    HW133714   1.973   2.129   7.599
 5524SOL    HW233715   2.055   2.176   7.480
 5525SOL     OW33716   3.388   0.002   6.194
 5525SOL    HW133717   3.349   0.083   6.228
 5525SOL    HW233718   3.462  -0.015   6.253
 5526SOL     OW33719   4.874   3.814   2.392
 5526SOL    HW133720   4.844   3.725   2.372
 5526SOL    HW233721   4.846   3.828   2.483
 5527SOL     OW33722   4.591   1.370   6.595
 5527SOL    HW133723   4.522   1.399   6.655
 5527SOL    HW233724   4.647   1.313   6.648
 5528SOL     OW33725   2.408   4.837   0.993
 5528SOL    HW133726   2.328   4.847   1.044
 5528SOL    HW233727   2.415   4.743   0.975
 5529SOL     OW33728   3.718   2.701   1.331
 5529SOL    HW133729   3.622   2.699   1.335
 5529SOL    HW233730   3.737   2.738   1.245
 5530SOL     OW33731   1.672   4.459   0.908
 5530SOL    HW133732   1.747   4.518   0.909
 5530SOL    HW233733   1.676   4.414   0.992
 5531SOL     OW33734   0.455   3.783   1.561
 5531SOL    HW133735   0.387   3.730   1.520
 5531SOL    HW233736   0.456   3.756   1.653
 5532SOL     OW33737   1.786   2.425   6.068
 5532SOL    HW133738   1.725   2.370   6.020
 5532SOL    HW233739   1.811   2.493   6.005
 5533SOL     OW33740   4.247   1.909   7.606
 5533SOL    HW133741   4.330   1.873   7.576
 5533SOL    HW233742   4.181   1.844   7.579
 5534SOL     OW33743   4.576   1.132   6.812
 5534SOL    HW133744   4.484   1.121   6.788
 5534SOL    HW233745   4.609   1.043   6.823
 5535SOL     OW33746   0.554   2.695   7.045
 5535SOL    HW133747   0.606   2.769   7.075
 5535SOL    HW233748   0.473   2.699   7.097
 5536SOL     OW33749   5.676   0.326   6.930
 5536SOL    HW133750   5.756   0.305   6.881
 5536SOL    HW233751   5.676   0.421   6.935
 5537SOL     OW33752   0.087   5.219   1.056
 5537SOL    HW133753   0.055   5.150   0.998
 5537SOL    HW233754   0.107   5.175   1.138
 5538SOL     OW33755   4.186   4.154   7.711
 5538SOL    HW133756   4.270   4.131   7.749
 5538SOL    HW233757   4.142   4.071   7.696
 5539SOL     OW33758   3.876   3.456   7.594
 5539SOL    HW133759   3.953   3.431   7.645
 5539SOL    HW233760   3.814   3.487   7.659
 5540SOL     OW33761   0.078   0.370   1.561
 5540SOL    HW133762   0.071   0.408   1.649
 5540SOL    HW233763   0.171   0.348   1.552
 5541SOL     OW33764   0.193   2.101   7.028
 5541SOL    HW133765   0.224   2.174   6.975
 5541SOL    HW233766   0.102   2.089   7.001
 5542SOL     OW33767   2.597   3.670   5.658
 5542SOL    HW133768   2.653   3.611   5.608
 5542SOL    HW233769   2.652   3.702   5.729
 5543SOL     OW33770   4.155   2.453   0.951
 5543SOL    HW133771   4.191   2.528   0.999
 5543SOL    HW233772   4.201   2.454   0.867
 5544SOL     OW33773   2.009   0.562   6.168
 5544SOL    HW133774   1.971   0.475   6.157
 5544SOL    HW233775   1.997   0.605   6.083
 5545SOL     OW33776   4.790   3.106   6.468
 5545SOL    HW133777   4.728   3.118   6.396
 5545SOL    HW233778   4.750   3.038   6.522
 5546SOL     OW33779   5.472   1.371   1.046
 5546SOL    HW133780   5.452   1.462   1.026
 5546SOL    HW233781   5.500   1.372   1.138
 5547SOL     OW33782   5.214   2.851   0.905
 5547SOL    HW133783   5.180   2.809   0.827
 5547SOL    HW233784   5.227   2.779   0.967
 5548SOL     OW33785   0.321   5.154   0.573
 5548SOL    HW133786   0.261   5.097   0.526
 5548SOL    HW233787   0.297   5.143   0.665
 5549SOL     OW33788   4.057   3.324   5.755
 5549SOL    HW133789   4.055   3.417   5.735
 5549SOL    HW233790   3.970   3.292   5.728
 5550SOL     OW33791   1.834   1.755   6.814
 5550SOL    HW133792   1.781   1.741   6.736
 5550SOL    HW233793   1.784   1.817   6.867
 5551SOL     OW33794   3.365   6.228   7.056
 5551SOL    HW133795   3.270   6.237   7.043
 5551SOL    HW233796   3.386   6.292   7.125
 5552SOL     OW33797   0.553   2.440   1.111
 5552SOL    HW133798   0.458   2.439   1.127
 5552SOL    HW233799   0.590   2.479   1.190
 5553SOL     OW33800   3.533   4.293   5.887
 5553SOL    HW133801   3.497   4.293   5.975
 5553SOL    HW233802   3.571   4.205   5.877
 5554SOL     OW33803   2.214   5.375   7.533
 5554SOL    HW133804   2.184   5.457   7.573
 5554SOL    HW233805   2.140   5.315   7.543
 5555SOL     OW33806   0.063   3.923   0.442
 5555SOL    HW133807   0.062   3.829   0.423
 5555SOL    HW233808   0.037   3.964   0.360
 5556SOL     OW33809   0.186   0.683   5.446
 5556SOL    HW133810   0.167   0.777   5.453
 5556SOL    HW233811   0.251   0.676   5.376
 5557SOL     OW33812   0.604   2.518   0.854
 5557SOL    HW133813   0.595   2.513   0.949
 5557SOL    HW233814   0.676   2.459   0.833
 5558SOL     OW33815   4.466   1.428   1.282
 5558SOL    HW133816   4.428   1.427   1.369
 5558SOL    HW233817   4.404   1.380   1.227
 5559SOL     OW33818   2.120   2.875   7.771
 5559SOL    HW133819   2.130   2.782   7.795
 5559SOL    HW233820   2.180   2.888   7.698
 5560SOL     OW33821   5.073   4.936   0.268
 5560SOL    HW133822   5.151   4.913   0.319
 5560SOL    HW233823   5.102   4.932   0.177
 5561SOL     OW33824   2.679   2.159   0.998
 5561SOL    HW133825   2.695   2.093   1.065
 5561SOL    HW233826   2.643   2.234   1.045
 5562SOL     OW33827   3.231   1.212   0.478
 5562SOL    HW133828   3.237   1.148   0.549
 5562SOL    HW233829   3.141   1.243   0.481
 5563SOL     OW33830   1.025   1.832   0.212
 5563SOL    HW133831   1.067   1.749   0.232
 5563SOL    HW233832   1.067   1.896   0.269
 5564SOL     OW33833   5.277   5.793   7.608
 5564SOL    HW133834   5.370   5.792   7.629
 5564SOL    HW233835   5.242   5.713   7.648
 5565SOL     OW33836   4.105   5.699   6.463
 5565SOL    HW133837   4.144   5.755   6.530
 5565SOL    HW233838   4.064   5.627   6.512
 5566SOL     OW33839   1.112   1.190   6.105
 5566SOL    HW133840   1.114   1.192   6.009
 5566SOL    HW233841   1.175   1.122   6.128
 5567SOL     OW33842   4.917   1.103   1.500
 5567SOL    HW133843   5.008   1.119   1.525
 5567SOL    HW233844   4.882   1.049   1.571
 5568SOL     OW33845   1.880   2.520   6.534
 5568SOL    HW133846   1.943   2.593   6.532
 5568SOL    HW233847   1.881   2.486   6.444
 5569SOL     OW33848   4.085   3.734   1.606
 5569SOL    HW133849   4.027   3.728   1.531
 5569SOL    HW233850   4.058   3.662   1.663
 5570SOL     OW33851   2.198   0.880   0.820
 5570SOL    HW133852   2.123   0.821   0.821
 5570SOL    HW233853   2.273   0.823   0.804
 5571SOL     OW33854   0.667   3.260   2.471
 5571SOL    HW133855   0.626   3.286   2.554
 5571SOL    HW233856   0.621   3.180   2.445
 5572SOL     OW33857   0.469   5.835   0.868
 5572SOL    HW133858   0.561   5.830   0.892
 5572SOL    HW233859   0.446   5.928   0.880
 5573SOL     OW33860   2.760   3.610   2.528
 5573SOL    HW133861   2.702   3.547   2.485
 5573SOL    HW233862   2.847   3.592   2.490
 5574SOL     OW33863   1.761   4.134   5.930
 5574SOL    HW133864   1.850   4.125   5.964
 5574SOL    HW233865   1.760   4.083   5.849
 5575SOL     OW33866   1.079   0.084   0.217
 5575SOL    HW133867   1.054  -0.008   0.208
 5575SOL    HW233868   1.005   0.124   0.263
 5576SOL     OW33869   3.866   2.271   6.046
 5576SOL    HW133870   3.840   2.216   5.972
 5576SOL    HW233871   3.842   2.360   6.021
 5577SOL     OW33872   1.823   6.281   6.344
 5577SOL    HW133873   1.918   6.287   6.352
 5577SOL    HW233874   1.808   6.200   6.296
 5578SOL     OW33875   1.555   5.021   0.214
 5578SOL    HW133876   1.579   4.985   0.299
 5578SOL    HW233877   1.499   5.096   0.234
 5579SOL     OW33878   6.400   2.479   7.115
 5579SOL    HW133879   6.320   2.531   7.110
 5579SOL    HW233880   6.406   2.453   7.207
 5580SOL     OW33881   1.830   0.088   2.501
 5580SOL    HW133882   1.816   0.181   2.518
 5580SOL    HW233883   1.788   0.043   2.574
 5581SOL     OW33884   5.307   5.032   5.970
 5581SOL    HW133885   5.290   4.941   5.947
 5581SOL    HW233886   5.403   5.038   5.973
 5582SOL     OW33887   2.528   0.850   6.840
 5582SOL    HW133888   2.608   0.902   6.850
 5582SOL    HW233889   2.459   0.915   6.832
 5583SOL     OW33890   5.124   0.665   6.689
 5583SOL    HW133891   5.042   0.616   6.697
 5583SOL    HW233892   5.124   0.694   6.598
 5584SOL     OW33893   3.544   5.879   7.063
 5584SOL    HW133894   3.591   5.961   7.044
 5584SOL    HW233895   3.605   5.810   7.035
 5585SOL     OW33896   5.313   2.612   7.702
 5585SOL    HW133897   5.246   2.570   7.756
 5585SOL    HW233898   5.264   2.650   7.629
 5586SOL     OW33899   5.853   3.856   7.108
 5586SOL    HW133900   5.871   3.794   7.179
 5586SOL    HW233901   5.914   3.832   7.039
 5587SOL     OW33902   2.151   1.493   5.904
 5587SOL    HW133903   2.110   1.423   5.855
 5587SOL    HW233904   2.237   1.458   5.928
 5588SOL     OW33905   0.450   6.096   5.945
 5588SOL    HW133906   0.499   6.178   5.946
 5588SOL    HW233907   0.358   6.122   5.949
 5589SOL     OW33908   5.404   5.323   7.441
 5589SOL    HW133909   5.315   5.359   7.446
 5589SOL    HW233910   5.395   5.232   7.469
 5590SOL     OW33911   0.602   6.430   7.209
 5590SOL    HW133912   0.541   6.384   7.267
 5590SOL    HW233913   0.575   6.405   7.121
 5591SOL     OW33914   1.337   4.233   1.325
 5591SOL    HW133915   1.353   4.158   1.382
 5591SOL    HW233916   1.247   4.220   1.293
 5592SOL     OW33917   3.960   3.452   7.330
 5592SOL    HW133918   4.046   3.423   7.361
 5592SOL    HW233919   3.900   3.426   7.400
 5593SOL     OW33920   0.482   4.059   0.040
 5593SOL    HW133921   0.505   4.062   0.133
 5593SOL    HW233922   0.403   4.114   0.033
 5594SOL     OW33923   2.709   1.293   0.701
 5594SOL    HW133924   2.679   1.203   0.698
 5594SOL    HW233925   2.762   1.304   0.623
 5595SOL     OW33926   4.739   0.706   6.464
 5595SOL    HW133927   4.689   0.691   6.544
 5595SOL    HW233928   4.743   0.621   6.422
 5596SOL     OW33929   2.590   5.109   6.967
 5596SOL    HW133930   2.556   5.117   6.878
 5596SOL    HW233931   2.566   5.192   7.010
 5597SOL     OW33932   0.562   6.341   6.942
 5597SOL    HW133933   0.602   6.255   6.953
 5597SOL    HW233934   0.589   6.369   6.854
 5598SOL     OW33935   1.872   3.990   2.517
 5598SOL    HW133936   1.892   3.942   2.597
 5598SOL    HW233937   1.952   3.983   2.464
 5599SOL     OW33938  -0.005   6.163   5.149
 5599SOL    HW133939   0.066   6.100   5.161
 5599SOL    HW233940   0.021   6.238   5.202
 5600SOL     OW33941   4.656   2.067   7.106
 5600SOL    HW133942   4.629   1.984   7.069
 5600SOL    HW233943   4.651   2.129   7.033
 5601SOL     OW33944   3.488   3.675   1.737
 5601SOL    HW133945   3.467   3.768   1.737
 5601SOL    HW233946   3.425   3.636   1.676
 5602SOL     OW33947   0.911   5.114   0.220
 5602SOL    HW133948   0.886   5.188   0.275
 5602SOL    HW233949   0.889   5.037   0.271
 5603SOL     OW33950   4.489   6.007   7.446
 5603SOL    HW133951   4.437   6.086   7.427
 5603SOL    HW233952   4.427   5.935   7.436
 5604SOL     OW33953   3.775   0.974   1.033
 5604SOL    HW133954   3.806   1.042   0.974
 5604SOL    HW233955   3.697   0.939   0.991
 5605SOL     OW33956   1.727   3.697   1.051
 5605SOL    HW133957   1.685   3.749   1.119
 5605SOL    HW233958   1.680   3.720   0.971
 5606SOL     OW33959   3.885   1.723   6.954
 5606SOL    HW133960   3.922   1.804   6.919
 5606SOL    HW233961   3.903   1.658   6.886
 5607SOL     OW33962   0.883   3.427   1.258
 5607SOL    HW133963   0.801   3.403   1.303
 5607SOL    HW233964   0.855   3.451   1.170
 5608SOL     OW33965   3.309   3.809   5.971
 5608SOL    HW133966   3.336   3.771   5.887
 5608SOL    HW233967   3.249   3.745   6.009
 5609SOL     OW33968   2.151   0.193   7.012
 5609SOL    HW133969   2.127   0.274   7.058
 5609SOL    HW233970   2.221   0.156   7.066
 5610SOL     OW33971   1.973   5.739   1.888
 5610SOL    HW133972   1.940   5.657   1.852
 5610SOL    HW233973   1.897   5.780   1.929
 5611SOL     OW33974   3.135   2.218   2.416
 5611SOL    HW133975   3.201   2.244   2.352
 5611SOL    HW233976   3.186   2.191   2.493
 5612SOL     OW33977   1.434   1.119   6.209
 5612SOL    HW133978   1.382   1.160   6.278
 5612SOL    HW233979   1.508   1.178   6.196
 5613SOL     OW33980   3.596   3.508   1.452
 5613SOL    HW133981   3.600   3.603   1.453
 5613SOL    HW233982   3.508   3.487   1.421
 5614SOL     OW33983   3.741   3.912   6.274
 5614SOL    HW133984   3.761   3.996   6.232
 5614SOL    HW233985   3.654   3.890   6.242
 5615SOL     OW33986   0.769   4.054   7.296
 5615SOL    HW133987   0.689   4.018   7.259
 5615SOL    HW233988   0.755   4.149   7.295
 5616SOL     OW33989   5.343   0.963   0.676
 5616SOL    HW133990   5.428   0.994   0.645
 5616SOL    HW233991   5.304   0.919   0.600
 5617SOL     OW33992   1.917   0.202   6.862
 5617SOL    HW133993   1.952   0.208   6.774
 5617SOL    HW233994   1.994   0.188   6.918
 5618SOL     OW33995   1.596   6.089   5.684
 5618SOL    HW133996   1.607   6.184   5.678
 5618SOL    HW233997   1.659   6.053   5.622
 5619SOL     OW33998   1.671   3.596   1.955
 5619SOL    HW133999   1.710   3.593   1.867
 5619SOL    HW234000   1.578   3.579   1.941
 5620SOL     OW34001   0.479   1.994   0.787
 5620SOL    HW134002   0.487   2.001   0.691
 5620SOL    HW234003   0.514   2.077   0.820
 5621SOL     OW34004   4.076   1.195   7.358
 5621SOL    HW134005   4.147   1.188   7.422
 5621SOL    HW234006   4.037   1.108   7.354
 5622SOL     OW34007   4.832   1.880   2.476
 5622SOL    HW134008   4.741   1.877   2.504
 5622SOL    HW234009   4.837   1.816   2.404
 5623SOL     OW34010   4.688   3.087   0.824
 5623SOL    HW134011   4.764   3.093   0.882
 5623SOL    HW234012   4.725   3.094   0.736
 5624SOL     OW34013   2.372   5.194   0.518
 5624SOL    HW134014   2.305   5.196   0.451
 5624SOL    HW234015   2.426   5.118   0.497
 5625SOL     OW34016   4.900   5.008   1.035
 5625SOL    HW134017   4.933   5.035   1.121
 5625SOL    HW234018   4.911   4.913   1.033
 5626SOL     OW34019   5.639   1.121   2.033
 5626SOL    HW134020   5.566   1.060   2.020
 5626SOL    HW234021   5.686   1.119   1.949
 5627SOL     OW34022   3.201   2.253   0.610
 5627SOL    HW134023   3.266   2.184   0.621
 5627SOL    HW234024   3.208   2.307   0.689
 5628SOL     OW34025   1.065   2.487   6.551
 5628SOL    HW134026   1.134   2.501   6.617
 5628SOL    HW234027   0.984   2.482   6.601
 5629SOL     OW34028   0.535   5.933   6.153
 5629SOL    HW134029   0.515   6.003   6.091
 5629SOL    HW234030   0.454   5.919   6.202
 5630SOL     OW34031   4.327   1.717   7.272
 5630SOL    HW134032   4.247   1.673   7.301
 5630SOL    HW234033   4.396   1.678   7.325
 5631SOL     OW34034   5.878   5.503   7.436
 5631SOL    HW134035   5.849   5.594   7.428
 5631SOL    HW234036   5.834   5.457   7.365
 5632SOL     OW34037   0.206   3.292   5.799
 5632SOL    HW134038   0.139   3.358   5.780
 5632SOL    HW234039   0.252   3.280   5.715
 5633SOL     OW34040   1.952   1.277   6.671
 5633SOL    HW134041   1.983   1.342   6.734
 5633SOL    HW234042   1.880   1.321   6.625
 5634SOL     OW34043   5.589   1.885   1.074
 5634SOL    HW134044   5.675   1.908   1.038
 5634SOL    HW234045   5.581   1.937   1.154
 5635SOL     OW34046   2.811   1.737   5.470
 5635SOL    HW134047   2.776   1.824   5.487
 5635SOL    HW234048   2.899   1.752   5.435
 5636SOL     OW34049   2.894   2.573   7.511
 5636SOL    HW134050   2.987   2.576   7.533
 5636SOL    HW234051   2.849   2.588   7.594
 5637SOL     OW34052   1.206   4.648   0.761
 5637SOL    HW134053   1.142   4.625   0.828
 5637SOL    HW234054   1.281   4.682   0.811
 5638SOL     OW34055   0.689   0.926   7.426
 5638SOL    HW134056   0.670   0.916   7.519
 5638SOL    HW234057   0.783   0.910   7.418
 5639SOL     OW34058   1.339   0.775   0.607
 5639SOL    HW134059   1.380   0.807   0.527
 5639SOL    HW234060   1.361   0.840   0.674
 5640SOL     OW34061   3.006   5.257   0.766
 5640SOL    HW134062   2.951   5.317   0.817
 5640SOL    HW234063   2.962   5.250   0.681
 5641SOL     OW34064   0.590   2.774   0.334
 5641SOL    HW134065   0.639   2.851   0.306
 5641SOL    HW234066   0.516   2.809   0.383
 5642SOL     OW34067   6.238   4.445   7.002
 5642SOL    HW134068   6.159   4.485   7.040
 5642SOL    HW234069   6.310   4.490   7.045
 5643SOL     OW34070   0.999   4.236   2.455
 5643SOL    HW134071   0.937   4.254   2.384
 5643SOL    HW234072   0.946   4.193   2.522
 5644SOL     OW34073   6.335   4.193   0.064
 5644SOL    HW134074   6.307   4.272   0.111
 5644SOL    HW234075   6.399   4.224   0.000
 5645SOL     OW34076   6.246   3.589   1.494
 5645SOL    HW134077   6.263   3.619   1.404
 5645SOL    HW234078   6.323   3.617   1.543
 5646SOL     OW34079   4.988   3.682   5.521
 5646SOL    HW134080   4.952   3.657   5.606
 5646SOL    HW234081   4.913   3.679   5.461
 5647SOL     OW34082   6.107   2.630   6.712
 5647SOL    HW134083   6.047   2.664   6.778
 5647SOL    HW234084   6.194   2.652   6.744
 5648SOL     OW34085   4.465   3.026   1.799
 5648SOL    HW134086   4.549   3.063   1.825
 5648SOL    HW234087   4.411   3.031   1.879
 5649SOL     OW34088   2.392   1.606   0.856
 5649SOL    HW134089   2.435   1.523   0.838
 5649SOL    HW234090   2.464   1.668   0.868
 5650SOL     OW34091   3.232   3.839   7.389
 5650SOL    HW134092   3.174   3.773   7.428
 5650SOL    HW234093   3.320   3.800   7.395
 5651SOL     OW34094   0.298   5.097   0.847
 5651SOL    HW134095   0.266   5.186   0.863
 5651SOL    HW234096   0.283   5.050   0.929
 5652SOL     OW34097   3.589   1.743   5.714
 5652SOL    HW134098   3.676   1.780   5.728
 5652SOL    HW234099   3.600   1.649   5.728
 5653SOL     OW34100   0.065   1.638   0.031
 5653SOL    HW134101   0.082   1.716   0.084
 5653SOL    HW234102   0.139   1.634  -0.029
 5654SOL     OW34103   3.482   3.170   2.358
 5654SOL    HW134104   3.566   3.143   2.322
 5654SOL    HW234105   3.504   3.225   2.433
 5655SOL     OW34106   4.484   2.200   0.879
 5655SOL    HW134107   4.444   2.126   0.925
 5655SOL    HW234108   4.501   2.265   0.948
 5656MOL     C134109   4.137   2.935   7.372
 5656MOL     C234110   4.271   2.996   7.384
 5656MOL     N134111   4.218   2.717   7.275
 5656MOL     N234112   4.377   2.931   7.418
 5656MOL     C334113   4.341   2.696   7.335
 5656MOL     C434114   4.382   2.788   7.449
 5656MOL     H134115   4.305   2.771   7.526
 5656MOL     H234116   4.475   2.764   7.503
 5656MOL     C534117   3.989   2.769   7.279
 5656MOL     C634118   3.877   2.851   7.293
 5656MOL     C734119   4.119   2.810   7.312
 5656MOL     C834120   3.896   2.975   7.356
 5656MOL     C934121   4.025   3.015   7.394
 5656MOL     H334122   3.781   2.820   7.254
 5656MOL     H434123   4.032   3.117   7.430
 5656MOL     H534124   3.983   2.683   7.212
 5656MOL     O134125   4.409   2.599   7.307
 5656MOL    C1034126   4.284   3.128   7.321
 5656MOL    C1134127   4.218   3.162   7.203
 5656MOL     N334128   4.344   3.218   7.401
 5656MOL    C1234129   4.215   3.296   7.163
 5656MOL    C1334130   4.341   3.346   7.361
 5656MOL    C1434131   4.284   3.390   7.241
 5656MOL     H634132   4.159   3.090   7.146
 5656MOL     H734133   4.166   3.325   7.071
 5656MOL     H834134   4.404   3.409   7.424
 5656MOL     H934135   4.299   3.490   7.202
 5656MOL    H1034136   4.188   2.653   7.202
 5656MOL    BR134137   3.755   3.103   7.361
 5656MOL     EP34138   3.606   3.239   7.366
   6.44530   6.44530   7.81570
