POPC bilayer and 5FIBZ with EP hydrated t= 77210.00000 step= 105000
34138
    1PA    C116    1   2.967   5.633   3.834
    1PA    H16R    2   3.055   5.679   3.879
    1PA    H16S    3   2.889   5.693   3.880
    1PA    H16T    4   2.972   5.653   3.727
    1PA    C115    5   2.954   5.482   3.863
    1PA    H15R    6   2.883   5.440   3.791
    1PA    H15S    7   3.050   5.435   3.842
    1PA    C114    8   2.904   5.441   4.002
    1PA    H14R    9   2.803   5.479   4.020
    1PA    H14S   10   2.902   5.332   4.012
    1PA    C113   11   3.001   5.492   4.109
    1PA    H13R   12   3.105   5.471   4.080
    1PA    H13S   13   2.976   5.598   4.099
    1PA    C112   14   2.965   5.444   4.250
    1PA    H12R   15   2.865   5.480   4.273
    1PA    H12S   16   2.967   5.335   4.243
    1PA    C111   17   3.058   5.500   4.358
    1PA    H11R   18   3.158   5.476   4.321
    1PA    H11S   19   3.052   5.609   4.359
    1PA    C110   20   3.028   5.429   4.491
    1PA    H10R   21   2.936   5.478   4.523
    1PA    H10S   22   3.020   5.321   4.476
    1PA     C19   23   3.131   5.453   4.602
    1PA     H9R   24   3.120   5.387   4.689
    1PA     H9S   25   3.228   5.425   4.561
    1PA     C18   26   3.125   5.595   4.661
    1PA     H8R   27   3.157   5.661   4.580
    1PA     H8S   28   3.023   5.621   4.687
    1PA     C17   29   3.226   5.622   4.773
    1PA     H7R   30   3.199   5.568   4.864
    1PA     H7S   31   3.331   5.600   4.753
    1PA     C16   32   3.217   5.773   4.801
    1PA     H6R   33   3.279   5.830   4.731
    1PA     H6S   34   3.110   5.793   4.792
    1PA     C15   35   3.265   5.802   4.944
    1PA     H5R   36   3.219   5.734   5.017
    1PA     H5S   37   3.370   5.772   4.951
    1PA     C14   38   3.239   5.950   4.976
    1PA     H4R   39   3.283   6.021   4.907
    1PA     H4S   40   3.134   5.973   4.958
    1PA     C13   41   3.294   5.992   5.113
    1PA     H3R   42   3.262   5.926   5.194
    1PA     H3S   43   3.403   5.996   5.103
    1PA     C12   44   3.263   6.136   5.157
    1PA     H2R   45   3.301   6.211   5.087
    1PA     H2S   46   3.157   6.153   5.173
    2PC     C11   47   3.343   6.168   5.280
    2PC     O12   48   3.451   6.122   5.313
    2PC     O11   49   3.284   6.262   5.356
    2PC      C1   50   3.354   6.330   5.462
    2PC      HR   51   3.379   6.255   5.538
    2PC      HS   52   3.448   6.374   5.428
    2PC      C2   53   3.265   6.442   5.516
    2PC      HX   54   3.316   6.498   5.595
    2PC      C3   55   3.138   6.387   5.584
    2PC      HA   56   3.068   6.463   5.617
    2PC      HB   57   3.084   6.316   5.521
    2PC     O31   58   3.179   6.332   5.710
    2PC     P31   59   3.082   6.229   5.787
    2PC     O32   60   3.006   6.336   5.878
    2PC     C31   61   3.073   6.408   5.983
    2PC     H1A   62   3.136   6.336   6.037
    2PC     H1B   63   3.137   6.483   5.936
    2PC     C32   64   2.970   6.476   6.075
    2PC     H2A   65   2.928   6.561   6.021
    2PC     H2B   66   2.890   6.404   6.090
    2PC     N31   67   3.026   6.532   6.202
    2PC     C33   68   2.904   6.561   6.284
    2PC     H3A   69   2.936   6.625   6.367
    2PC     H3B   70   2.840   6.606   6.208
    2PC     H3C   71   2.858   6.472   6.327
    2PC     C34   72   3.124   6.446   6.276
    2PC     H4A   73   3.196   6.402   6.208
    2PC     H4B   74   3.167   6.500   6.360
    2PC     H4C   75   3.065   6.369   6.326
    2PC     C35   76   3.087   6.664   6.166
    2PC     H5A   77   3.100   6.730   6.252
    2PC     H5B   78   3.017   6.717   6.101
    2PC     H5C   79   3.183   6.639   6.120
    2PC     O33   80   2.991   6.161   5.692
    2PC     O34   81   3.144   6.122   5.869
    2PC     O21   82   3.232   6.539   5.415
    2PC     C21   83   3.329   6.601   5.346
    2PC     O22   84   3.446   6.604   5.377
    3OL     C12   85   3.277   6.659   5.217
    3OL     H2R   86   3.178   6.692   5.247
    3OL     H2S   87   3.266   6.579   5.143
    3OL     C13   88   3.357   6.776   5.158
    3OL     H3R   89   3.457   6.738   5.135
    3OL     H3S   90   3.346   6.857   5.230
    3OL     C14   91   3.286   6.821   5.029
    3OL     H4R   92   3.181   6.833   5.056
    3OL     H4S   93   3.285   6.737   4.959
    3OL     C15   94   3.341   6.948   4.963
    3OL     H5R   95   3.446   6.927   4.940
    3OL     H5S   96   3.339   7.035   5.029
    3OL     C16   97   3.276   6.988   4.831
    3OL     H6R   98   3.298   7.095   4.831
    3OL     H6S   99   3.167   6.988   4.832
    3OL     C17  100   3.326   6.909   4.709
    3OL     H7R  101   3.314   6.802   4.728
    3OL     H7S  102   3.435   6.916   4.701
    3OL     C18  103   3.260   6.958   4.580
    3OL     H8R  104   3.309   7.051   4.551
    3OL     H8S  105   3.159   6.994   4.603
    3OL     C19  106   3.256   6.866   4.461
    3OL     H9R  107   3.263   6.760   4.484
    3OL    C110  108   3.245   6.906   4.335
    3OL    H10R  109   3.249   6.841   4.249
    3OL    C111  110   3.230   7.051   4.296
    3OL    H11R  111   3.319   7.105   4.326
    3OL    H11S  112   3.146   7.089   4.356
    3OL    C112  113   3.214   7.058   4.144
    3OL    H12R  114   3.295   7.002   4.096
    3OL    H12S  115   3.225   7.163   4.118
    3OL    C113  116   3.072   7.015   4.105
    3OL    H13R  117   3.049   6.916   4.145
    3OL    H13S  118   3.061   7.001   3.997
    3OL    C114  119   2.981   7.133   4.144
    3OL    H14R  120   3.014   7.218   4.084
    3OL    H14S  121   2.993   7.159   4.250
    3OL    C115  122   2.842   7.089   4.099
    3OL    H15R  123   2.840   7.066   3.992
    3OL    H15S  124   2.768   7.168   4.114
    3OL    C116  125   2.788   6.971   4.181
    3OL    H16R  126   2.815   6.976   4.287
    3OL    H16S  127   2.832   6.882   4.137
    3OL    C117  128   2.636   6.959   4.159
    3OL    H17R  129   2.614   6.947   4.052
    3OL    H17S  130   2.584   7.052   4.184
    3OL    C118  131   2.576   6.846   4.243
    3OL    H18R  132   2.625   6.752   4.218
    3OL    H18S  133   2.471   6.821   4.226
    3OL    H18T  134   2.591   6.859   4.350
    1PA    C116  135   1.290   4.770   3.272
    1PA    H16R  136   1.309   4.871   3.235
    1PA    H16S  137   1.189   4.749   3.236
    1PA    H16T  138   1.375   4.713   3.234
    1PA    C115  139   1.290   4.765   3.425
    1PA    H15R  140   1.384   4.801   3.468
    1PA    H15S  141   1.204   4.825   3.454
    1PA    C114  142   1.261   4.621   3.469
    1PA    H14R  143   1.157   4.592   3.448
    1PA    H14S  144   1.324   4.556   3.408
    1PA    C113  145   1.296   4.595   3.616
    1PA    H13R  146   1.374   4.519   3.625
    1PA    H13S  147   1.350   4.684   3.651
    1PA    C112  148   1.164   4.561   3.686
    1PA    H12R  149   1.100   4.648   3.673
    1PA    H12S  150   1.119   4.474   3.637
    1PA    C111  151   1.186   4.540   3.836
    1PA    H11R  152   1.231   4.633   3.872
    1PA    H11S  153   1.087   4.532   3.883
    1PA    C110  154   1.278   4.421   3.868
    1PA    H10R  155   1.246   4.333   3.812
    1PA    H10S  156   1.376   4.449   3.830
    1PA     C19  157   1.278   4.390   4.019
    1PA     H9R  158   1.176   4.379   4.056
    1PA     H9S  159   1.326   4.293   4.033
    1PA     C18  160   1.347   4.499   4.101
    1PA     H8R  161   1.441   4.537   4.061
    1PA     H8S  162   1.277   4.583   4.100
    1PA     C17  163   1.365   4.450   4.245
    1PA     H7R  164   1.261   4.428   4.270
    1PA     H7S  165   1.422   4.358   4.255
    1PA     C16  166   1.422   4.562   4.335
    1PA     H6R  167   1.519   4.602   4.307
    1PA     H6S  168   1.353   4.646   4.333
    1PA     C15  169   1.430   4.538   4.486
    1PA     H5R  170   1.461   4.633   4.531
    1PA     H5S  171   1.331   4.515   4.526
    1PA     C14  172   1.534   4.435   4.532
    1PA     H4R  173   1.513   4.344   4.475
    1PA     H4S  174   1.633   4.473   4.504
    1PA     C13  175   1.523   4.414   4.684
    1PA     H3R  176   1.415   4.419   4.699
    1PA     H3S  177   1.554   4.309   4.690
    1PA     C12  178   1.609   4.498   4.779
    1PA     H2R  179   1.717   4.481   4.770
    1PA     H2S  180   1.584   4.600   4.748
    2PC     C11  181   1.584   4.466   4.924
    2PC     O12  182   1.593   4.358   4.979
    2PC     O11  183   1.533   4.570   4.993
    2PC      C1  184   1.507   4.554   5.133
    2PC      HR  185   1.444   4.638   5.165
    2PC      HS  186   1.458   4.459   5.153
    2PC      C2  187   1.642   4.553   5.207
    2PC      HX  188   1.687   4.458   5.180
    2PC      C3  189   1.622   4.575   5.358
    2PC      HA  190   1.561   4.491   5.395
    2PC      HB  191   1.712   4.578   5.419
    2PC     O31  192   1.552   4.700   5.370
    2PC     P31  193   1.519   4.754   5.517
    2PC     O32  194   1.378   4.820   5.481
    2PC     C31  195   1.284   4.868   5.578
    2PC     H1A  196   1.189   4.893   5.530
    2PC     H1B  197   1.280   4.782   5.645
    2PC     C32  198   1.332   4.984   5.667
    2PC     H2A  199   1.422   4.946   5.716
    2PC     H2B  200   1.365   5.069   5.607
    2PC     N31  201   1.241   5.041   5.771
    2PC     C33  202   1.225   4.942   5.882
    2PC     H3A  203   1.156   4.985   5.955
    2PC     H3B  204   1.195   4.844   5.844
    2PC     H3C  205   1.324   4.931   5.926
    2PC     C34  206   1.302   5.164   5.831
    2PC     H4A  207   1.407   5.142   5.852
    2PC     H4B  208   1.308   5.240   5.754
    2PC     H4C  209   1.250   5.201   5.919
    2PC     C35  210   1.104   5.071   5.716
    2PC     H5A  211   1.070   5.152   5.780
    2PC     H5B  212   1.043   4.981   5.715
    2PC     H5C  213   1.119   5.114   5.617
    2PC     O33  214   1.505   4.639   5.609
    2PC     O34  215   1.619   4.845   5.579
    2PC     O21  216   1.719   4.665   5.158
    2PC     C21  217   1.854   4.661   5.158
    2PC     O22  218   1.919   4.571   5.207
    3OL     C12  219   1.910   4.782   5.088
    3OL     H2R  220   1.903   4.873   5.149
    3OL     H2S  221   1.870   4.783   4.986
    3OL     C13  222   2.058   4.758   5.054
    3OL     H3R  223   2.069   4.674   4.985
    3OL     H3S  224   2.105   4.734   5.149
    3OL     C14  225   2.110   4.885   4.984
    3OL     H4R  226   2.094   4.976   5.041
    3OL     H4S  227   2.060   4.890   4.887
    3OL     C15  228   2.258   4.859   4.954
    3OL     H5R  229   2.262   4.770   4.890
    3OL     H5S  230   2.315   4.854   5.047
    3OL     C16  231   2.316   4.980   4.879
    3OL     H6R  232   2.423   4.982   4.900
    3OL     H6S  233   2.276   5.064   4.936
    3OL     C17  234   2.284   4.982   4.729
    3OL     H7R  235   2.176   4.989   4.719
    3OL     H7S  236   2.305   4.882   4.690
    3OL     C18  237   2.356   5.094   4.652
    3OL     H8R  238   2.464   5.081   4.659
    3OL     H8S  239   2.335   5.193   4.695
    3OL     C19  240   2.325   5.091   4.504
    3OL     H9R  241   2.327   4.990   4.464
    3OL    C110  242   2.288   5.189   4.424
    3OL    H10R  243   2.272   5.172   4.318
    3OL    C111  244   2.275   5.333   4.470
    3OL    H11R  245   2.232   5.355   4.567
    3OL    H11S  246   2.208   5.377   4.396
    3OL    C112  247   2.417   5.392   4.473
    3OL    H12R  248   2.475   5.338   4.549
    3OL    H12S  249   2.400   5.490   4.519
    3OL    C113  250   2.493   5.407   4.341
    3OL    H13R  251   2.544   5.312   4.321
    3OL    H13S  252   2.576   5.478   4.340
    3OL    C114  253   2.400   5.450   4.226
    3OL    H14R  254   2.341   5.538   4.247
    3OL    H14S  255   2.338   5.367   4.191
    3OL    C115  256   2.490   5.499   4.112
    3OL    H15R  257   2.568   5.424   4.094
    3OL    H15S  258   2.533   5.595   4.139
    3OL    C116  259   2.413   5.531   3.983
    3OL    H16R  260   2.351   5.621   3.992
    3OL    H16S  261   2.340   5.452   3.962
    3OL    C117  262   2.495   5.567   3.859
    3OL    H17R  263   2.557   5.652   3.887
    3OL    H17S  264   2.435   5.611   3.779
    3OL    C118  265   2.572   5.444   3.808
    3OL    H18R  266   2.642   5.413   3.886
    3OL    H18S  267   2.628   5.487   3.724
    3OL    H18T  268   2.506   5.365   3.772
    1PA    C116  269   1.775   3.719   3.150
    1PA    H16R  270   1.702   3.671   3.084
    1PA    H16S  271   1.871   3.669   3.138
    1PA    H16T  272   1.791   3.823   3.120
    1PA    C115  273   1.717   3.707   3.292
    1PA    H15R  274   1.701   3.601   3.315
    1PA    H15S  275   1.784   3.745   3.369
    1PA    C114  276   1.581   3.778   3.302
    1PA    H14R  277   1.598   3.886   3.291
    1PA    H14S  278   1.509   3.757   3.223
    1PA    C113  279   1.524   3.746   3.441
    1PA    H13R  280   1.504   3.639   3.444
    1PA    H13S  281   1.601   3.775   3.513
    1PA    C112  282   1.390   3.819   3.453
    1PA    H12R  283   1.408   3.925   3.435
    1PA    H12S  284   1.312   3.777   3.388
    1PA    C111  285   1.333   3.805   3.596
    1PA    H11R  286   1.227   3.827   3.585
    1PA    H11S  287   1.360   3.702   3.621
    1PA    C110  288   1.381   3.899   3.707
    1PA    H10R  289   1.489   3.915   3.702
    1PA    H10S  290   1.339   3.999   3.691
    1PA     C19  291   1.338   3.856   3.848
    1PA     H9R  292   1.230   3.841   3.844
    1PA     H9S  293   1.391   3.766   3.881
    1PA     C18  294   1.364   3.966   3.952
    1PA     H8R  295   1.467   3.953   3.984
    1PA     H8S  296   1.351   4.066   3.909
    1PA     C17  297   1.278   3.950   4.079
    1PA     H7R  298   1.173   3.963   4.054
    1PA     H7S  299   1.280   3.848   4.116
    1PA     C16  300   1.318   4.040   4.197
    1PA     H6R  301   1.422   4.023   4.223
    1PA     H6S  302   1.302   4.142   4.159
    1PA     C15  303   1.240   4.011   4.326
    1PA     H5R  304   1.135   4.018   4.297
    1PA     H5S  305   1.256   3.908   4.358
    1PA     C14  306   1.271   4.113   4.437
    1PA     H4R  307   1.376   4.114   4.468
    1PA     H4S  308   1.261   4.214   4.396
    1PA     C13  309   1.165   4.093   4.546
    1PA     H3R  310   1.070   4.123   4.501
    1PA     H3S  311   1.152   3.987   4.571
    1PA     C12  312   1.197   4.174   4.672
    1PA     H2R  313   1.284   4.131   4.723
    1PA     H2S  314   1.224   4.279   4.660
    2PC     C11  315   1.078   4.168   4.765
    2PC     O12  316   1.043   4.062   4.813
    2PC     O11  317   1.011   4.284   4.770
    2PC      C1  318   0.907   4.293   4.869
    2PC      HR  319   0.828   4.220   4.848
    2PC      HS  320   0.936   4.270   4.972
    2PC      C2  321   0.857   4.438   4.863
    2PC      HX  322   0.938   4.511   4.860
    2PC      C3  323   0.770   4.468   4.986
    2PC      HA  324   0.819   4.447   5.082
    2PC      HB  325   0.740   4.573   4.987
    2PC     O31  326   0.652   4.386   4.982
    2PC     P31  327   0.531   4.416   5.083
    2PC     O32  328   0.593   4.355   5.218
    2PC     C31  329   0.608   4.442   5.332
    2PC     H1A  330   0.692   4.509   5.313
    2PC     H1B  331   0.514   4.497   5.344
    2PC     C32  332   0.646   4.364   5.458
    2PC     H2A  333   0.566   4.291   5.465
    2PC     H2B  334   0.744   4.318   5.443
    2PC     N31  335   0.660   4.449   5.581
    2PC     C33  336   0.730   4.576   5.544
    2PC     H3A  337   0.815   4.553   5.479
    2PC     H3B  338   0.667   4.640   5.481
    2PC     H3C  339   0.769   4.631   5.630
    2PC     C34  340   0.523   4.481   5.634
    2PC     H4A  341   0.529   4.513   5.738
    2PC     H4B  342   0.490   4.558   5.564
    2PC     H4C  343   0.464   4.390   5.633
    2PC     C35  344   0.745   4.374   5.678
    2PC     H5A  345   0.745   4.407   5.782
    2PC     H5B  346   0.843   4.387   5.633
    2PC     H5C  347   0.723   4.267   5.670
    2PC     O33  348   0.511   4.560   5.111
    2PC     O34  349   0.400   4.364   5.037
    2PC     O21  350   0.771   4.452   4.749
    2PC     C21  351   0.722   4.575   4.722
    2PC     O22  352   0.768   4.674   4.774
    3OL     C12  353   0.618   4.573   4.612
    3OL     H2R  354   0.591   4.674   4.580
    3OL     H2S  355   0.529   4.531   4.659
    3OL     C13  356   0.657   4.493   4.487
    3OL     H3R  357   0.708   4.405   4.526
    3OL     H3S  358   0.728   4.552   4.429
    3OL     C14  359   0.530   4.458   4.409
    3OL     H4R  360   0.483   4.548   4.370
    3OL     H4S  361   0.453   4.417   4.475
    3OL     C15  362   0.550   4.356   4.295
    3OL     H5R  363   0.606   4.272   4.336
    3OL     H5S  364   0.610   4.409   4.221
    3OL     C16  365   0.421   4.313   4.226
    3OL     H6R  366   0.363   4.388   4.172
    3OL     H6S  367   0.353   4.283   4.307
    3OL     C17  368   0.476   4.204   4.133
    3OL     H7R  369   0.548   4.144   4.190
    3OL     H7S  370   0.526   4.251   4.048
    3OL     C18  371   0.359   4.121   4.080
    3OL     H8R  372   0.309   4.184   4.006
    3OL     H8S  373   0.293   4.086   4.159
    3OL     C19  374   0.407   4.000   4.005
    3OL     H9R  375   0.510   3.973   4.027
    3OL    C110  376   0.335   3.939   3.912
    3OL    H10R  377   0.383   3.876   3.837
    3OL    C111  378   0.197   3.974   3.862
    3OL    H11R  379   0.201   3.968   3.753
    3OL    H11S  380   0.165   4.074   3.891
    3OL    C112  381   0.093   3.865   3.889
    3OL    H12R  382   0.110   3.778   3.825
    3OL    H12S  383  -0.011   3.887   3.864
    3OL    C113  384   0.090   3.813   4.034
    3OL    H13R  385   0.191   3.776   4.055
    3OL    H13S  386   0.025   3.725   4.043
    3OL    C114  387   0.047   3.927   4.126
    3OL    H14R  388  -0.047   3.970   4.091
    3OL    H14S  389   0.122   4.007   4.115
    3OL    C115  390   0.023   3.886   4.272
    3OL    H15R  391   0.011   3.980   4.326
    3OL    H15S  392   0.113   3.851   4.324
    3OL    C116  393  -0.084   3.777   4.289
    3OL    H16R  394  -0.088   3.758   4.397
    3OL    H16S  395  -0.058   3.683   4.239
    3OL    C117  396  -0.219   3.819   4.230
    3OL    H17R  397  -0.222   3.804   4.122
    3OL    H17S  398  -0.239   3.924   4.249
    3OL    C118  399  -0.333   3.734   4.288
    3OL    H18R  400  -0.430   3.767   4.248
    3OL    H18S  401  -0.335   3.748   4.397
    3OL    H18T  402  -0.324   3.629   4.262
    1PA    C116  403   1.527   6.162   4.191
    1PA    H16R  404   1.491   6.190   4.290
    1PA    H16S  405   1.510   6.055   4.177
    1PA    H16T  406   1.472   6.223   4.119
    1PA    C115  407   1.675   6.201   4.175
    1PA    H15R  408   1.699   6.170   4.073
    1PA    H15S  409   1.680   6.309   4.188
    1PA    C114  410   1.766   6.126   4.273
    1PA    H14R  411   1.738   6.146   4.377
    1PA    H14S  412   1.753   6.019   4.260
    1PA    C113  413   1.913   6.170   4.258
    1PA    H13R  414   1.975   6.087   4.295
    1PA    H13S  415   1.927   6.190   4.152
    1PA    C112  416   1.957   6.292   4.340
    1PA    H12R  417   1.882   6.369   4.321
    1PA    H12S  418   1.946   6.269   4.446
    1PA    C111  419   2.096   6.347   4.304
    1PA    H11R  420   2.174   6.271   4.308
    1PA    H11S  421   2.090   6.396   4.207
    1PA    C110  422   2.138   6.452   4.408
    1PA    H10R  423   2.064   6.534   4.411
    1PA    H10S  424   2.132   6.412   4.509
    1PA     C19  425   2.280   6.506   4.385
    1PA     H9R  426   2.292   6.535   4.280
    1PA     H9S  427   2.293   6.594   4.448
    1PA     C18  428   2.390   6.400   4.397
    1PA     H8R  429   2.370   6.311   4.336
    1PA     H8S  430   2.481   6.451   4.364
    1PA     C17  431   2.421   6.364   4.543
    1PA     H7R  432   2.435   6.460   4.593
    1PA     H7S  433   2.335   6.314   4.587
    1PA     C16  434   2.533   6.259   4.558
    1PA     H6R  435   2.528   6.175   4.488
    1PA     H6S  436   2.627   6.308   4.532
    1PA     C15  437   2.547   6.215   4.704
    1PA     H5R  438   2.555   6.304   4.768
    1PA     H5S  439   2.464   6.148   4.730
    1PA     C14  440   2.678   6.140   4.731
    1PA     H4R  441   2.686   6.059   4.659
    1PA     H4S  442   2.759   6.212   4.723
    1PA     C13  443   2.674   6.087   4.875
    1PA     H3R  444   2.656   6.173   4.939
    1PA     H3S  445   2.591   6.018   4.891
    1PA     C12  446   2.800   6.009   4.917
    1PA     H2R  447   2.836   5.934   4.846
    1PA     H2S  448   2.887   6.072   4.939
    2PC     C11  449   2.783   5.930   5.044
    2PC     O12  450   2.679   5.920   5.105
    2PC     O11  451   2.897   5.863   5.068
    2PC      C1  452   2.914   5.766   5.173
    2PC      HR  453   3.013   5.720   5.176
    2PC      HS  454   2.901   5.818   5.268
    2PC      C2  455   2.804   5.660   5.155
    2PC      HX  456   2.714   5.704   5.110
    2PC      C3  457   2.759   5.593   5.285
    2PC      HA  458   2.837   5.532   5.330
    2PC      HB  459   2.739   5.667   5.363
    2PC     O31  460   2.637   5.519   5.265
    2PC     P31  461   2.563   5.442   5.384
    2PC     O32  462   2.450   5.351   5.316
    2PC     C31  463   2.478   5.210   5.300
    2PC     H1A  464   2.556   5.198   5.225
    2PC     H1B  465   2.521   5.176   5.394
    2PC     C32  466   2.347   5.137   5.270
    2PC     H2A  467   2.299   5.199   5.194
    2PC     H2B  468   2.368   5.039   5.227
    2PC     N31  469   2.235   5.126   5.369
    2PC     C33  470   2.287   5.066   5.497
    2PC     H3A  471   2.351   5.145   5.537
    2PC     H3B  472   2.203   5.053   5.566
    2PC     H3C  473   2.334   4.972   5.467
    2PC     C34  474   2.181   5.264   5.392
    2PC     H4A  475   2.157   5.321   5.302
    2PC     H4B  476   2.091   5.253   5.453
    2PC     H4C  477   2.259   5.315   5.450
    2PC     C35  478   2.140   5.022   5.319
    2PC     H5A  479   2.197   4.932   5.297
    2PC     H5B  480   2.089   5.057   5.229
    2PC     H5C  481   2.072   4.995   5.400
    2PC     O33  482   2.659   5.366   5.467
    2PC     O34  483   2.483   5.527   5.475
    2PC     O21  484   2.854   5.555   5.071
    2PC     C21  485   2.829   5.552   4.939
    2PC     O22  486   2.778   5.644   4.880
    3OL     C12  487   2.868   5.417   4.884
    3OL     H2R  488   2.870   5.339   4.960
    3OL     H2S  489   2.971   5.412   4.847
    3OL     C13  490   2.786   5.380   4.759
    3OL     H3R  491   2.800   5.459   4.684
    3OL     H3S  492   2.679   5.378   4.778
    3OL     C14  493   2.835   5.243   4.712
    3OL     H4R  494   2.825   5.181   4.801
    3OL     H4S  495   2.943   5.250   4.699
    3OL     C15  496   2.758   5.208   4.584
    3OL     H5R  497   2.746   5.300   4.525
    3OL     H5S  498   2.664   5.172   4.626
    3OL     C16  499   2.821   5.095   4.501
    3OL     H6R  500   2.776   5.008   4.549
    3OL     H6S  501   2.930   5.092   4.491
    3OL     C17  502   2.777   5.105   4.354
    3OL     H7R  503   2.816   5.194   4.304
    3OL     H7S  504   2.670   5.115   4.373
    3OL     C18  505   2.808   4.979   4.272
    3OL     H8R  506   2.783   4.898   4.340
    3OL     H8S  507   2.917   4.980   4.266
    3OL     C19  508   2.726   4.987   4.146
    3OL     H9R  509   2.621   5.013   4.160
    3OL    C110  510   2.772   4.978   4.022
    3OL    H10R  511   2.714   5.009   3.935
    3OL    C111  512   2.910   4.930   3.988
    3OL    H11R  513   2.898   4.863   3.903
    3OL    H11S  514   2.939   4.863   4.070
    3OL    C112  515   3.025   5.029   3.967
    3OL    H12R  516   3.027   5.099   4.052
    3OL    H12S  517   3.017   5.093   3.879
    3OL    C113  518   3.165   4.966   3.964
    3OL    H13R  519   3.163   4.896   3.880
    3OL    H13S  520   3.179   4.896   4.046
    3OL    C114  521   3.289   5.056   3.950
    3OL    H14R  522   3.296   5.116   3.859
    3OL    H14S  523   3.370   4.986   3.927
    3OL    C115  524   3.315   5.136   4.078
    3OL    H15R  525   3.227   5.175   4.130
    3OL    H15S  526   3.373   5.223   4.046
    3OL    C116  527   3.401   5.055   4.176
    3OL    H16R  528   3.494   5.031   4.124
    3OL    H16S  529   3.360   4.958   4.204
    3OL    C117  530   3.438   5.141   4.298
    3OL    H17R  531   3.343   5.165   4.347
    3OL    H17S  532   3.492   5.232   4.267
    3OL    C118  533   3.531   5.063   4.391
    3OL    H18R  534   3.559   5.134   4.470
    3OL    H18S  535   3.631   5.046   4.350
    3OL    H18T  536   3.490   4.968   4.427
    1PA    C116  537   1.261   2.958   3.748
    1PA    H16R  538   1.297   2.910   3.839
    1PA    H16S  539   1.291   2.898   3.662
    1PA    H16T  540   1.154   2.977   3.761
    1PA    C115  541   1.319   3.100   3.739
    1PA    H15R  542   1.425   3.098   3.714
    1PA    H15S  543   1.271   3.155   3.658
    1PA    C114  544   1.288   3.176   3.869
    1PA    H14R  545   1.180   3.192   3.878
    1PA    H14S  546   1.333   3.125   3.954
    1PA    C113  547   1.367   3.307   3.864
    1PA    H13R  548   1.475   3.290   3.867
    1PA    H13S  549   1.350   3.369   3.775
    1PA    C112  550   1.338   3.392   3.988
    1PA    H12R  551   1.372   3.493   3.965
    1PA    H12S  552   1.230   3.390   4.005
    1PA    C111  553   1.409   3.331   4.110
    1PA    H11R  554   1.360   3.234   4.119
    1PA    H11S  555   1.513   3.304   4.093
    1PA    C110  556   1.389   3.412   4.238
    1PA    H10R  557   1.308   3.486   4.231
    1PA    H10S  558   1.364   3.343   4.319
    1PA     C19  559   1.516   3.494   4.268
    1PA     H9R  560   1.577   3.418   4.317
    1PA     H9S  561   1.555   3.519   4.169
    1PA     C18  562   1.499   3.615   4.361
    1PA     H8R  563   1.590   3.673   4.378
    1PA     H8S  564   1.425   3.678   4.310
    1PA     C17  565   1.445   3.572   4.498
    1PA     H7R  566   1.342   3.541   4.478
    1PA     H7S  567   1.504   3.496   4.550
    1PA     C16  568   1.428   3.690   4.595
    1PA     H6R  569   1.388   3.780   4.548
    1PA     H6S  570   1.355   3.657   4.670
    1PA     C15  571   1.561   3.720   4.667
    1PA     H5R  572   1.589   3.638   4.733
    1PA     H5S  573   1.636   3.727   4.588
    1PA     C14  574   1.569   3.851   4.747
    1PA     H4R  575   1.569   3.933   4.674
    1PA     H4S  576   1.479   3.866   4.808
    1PA     C13  577   1.707   3.868   4.811
    1PA     H3R  578   1.730   3.784   4.878
    1PA     H3S  579   1.785   3.864   4.734
    1PA     C12  580   1.725   4.004   4.881
    1PA     H2R  581   1.742   4.084   4.809
    1PA     H2S  582   1.644   4.036   4.946
    2PC     C11  583   1.854   3.992   4.957
    2PC     O12  584   1.881   3.901   5.033
    2PC     O11  585   1.930   4.102   4.945
    2PC      C1  586   2.055   4.109   5.015
    2PC      HR  587   2.088   4.214   5.011
    2PC      HS  588   2.049   4.088   5.122
    2PC      C2  589   2.155   4.004   4.965
    2PC      HX  590   2.110   3.924   4.906
    2PC      C3  591   2.225   3.930   5.080
    2PC      HA  592   2.148   3.868   5.126
    2PC      HB  593   2.300   3.860   5.044
    2PC     O31  594   2.292   4.024   5.166
    2PC     P31  595   2.346   3.971   5.307
    2PC     O32  596   2.494   4.032   5.298
    2PC     C31  597   2.540   4.102   5.415
    2PC     H1A  598   2.486   4.196   5.434
    2PC     H1B  599   2.531   4.035   5.501
    2PC     C32  600   2.690   4.128   5.396
    2PC     H2A  601   2.728   4.167   5.490
    2PC     H2B  602   2.747   4.037   5.376
    2PC     N31  603   2.736   4.238   5.305
    2PC     C33  604   2.675   4.205   5.172
    2PC     H3A  605   2.708   4.109   5.133
    2PC     H3B  606   2.566   4.203   5.184
    2PC     H3C  607   2.701   4.286   5.104
    2PC     C34  608   2.700   4.374   5.358
    2PC     H4A  609   2.763   4.400   5.443
    2PC     H4B  610   2.729   4.444   5.280
    2PC     H4C  611   2.592   4.378   5.372
    2PC     C35  612   2.884   4.234   5.283
    2PC     H5A  613   2.909   4.317   5.217
    2PC     H5B  614   2.910   4.135   5.245
    2PC     H5C  615   2.929   4.244   5.383
    2PC     O33  616   2.269   4.033   5.417
    2PC     O34  617   2.329   3.826   5.331
    2PC     O21  618   2.259   4.079   4.900
    2PC     C21  619   2.372   4.027   4.848
    2PC     O22  620   2.398   3.908   4.844
    3OL     C12  621   2.463   4.129   4.786
    3OL     H2R  622   2.566   4.101   4.811
    3OL     H2S  623   2.440   4.231   4.820
    3OL     C13  624   2.446   4.143   4.635
    3OL     H3R  625   2.339   4.158   4.616
    3OL     H3S  626   2.479   4.054   4.580
    3OL     C14  627   2.524   4.259   4.572
    3OL     H4R  628   2.629   4.246   4.600
    3OL     H4S  629   2.491   4.356   4.611
    3OL     C15  630   2.495   4.267   4.421
    3OL     H5R  631   2.508   4.366   4.379
    3OL     H5S  632   2.388   4.248   4.412
    3OL     C16  633   2.568   4.172   4.326
    3OL     H6R  634   2.548   4.067   4.351
    3OL     H6S  635   2.675   4.195   4.334
    3OL     C17  636   2.498   4.200   4.193
    3OL     H7R  637   2.487   4.306   4.170
    3OL     H7S  638   2.403   4.146   4.194
    3OL     C18  639   2.573   4.137   4.075
    3OL     H8R  640   2.590   4.033   4.102
    3OL     H8S  641   2.671   4.185   4.071
    3OL     C19  642   2.494   4.149   3.947
    3OL     H9R  643   2.386   4.144   3.955
    3OL    C110  644   2.547   4.149   3.826
    3OL    H10R  645   2.488   4.140   3.735
    3OL    C111  646   2.696   4.144   3.802
    3OL    H11R  647   2.734   4.066   3.868
    3OL    H11S  648   2.752   4.235   3.827
    3OL    C112  649   2.708   4.092   3.658
    3OL    H12R  650   2.811   4.090   3.622
    3OL    H12S  651   2.660   4.160   3.588
    3OL    C113  652   2.639   3.957   3.635
    3OL    H13R  653   2.530   3.950   3.637
    3OL    H13S  654   2.676   3.880   3.704
    3OL    C114  655   2.676   3.902   3.497
    3OL    H14R  656   2.778   3.864   3.503
    3OL    H14S  657   2.671   3.976   3.417
    3OL    C115  658   2.586   3.783   3.459
    3OL    H15R  659   2.488   3.831   3.454
    3OL    H15S  660   2.598   3.711   3.540
    3OL    C116  661   2.612   3.718   3.322
    3OL    H16R  662   2.720   3.704   3.310
    3OL    H16S  663   2.586   3.792   3.245
    3OL    C117  664   2.532   3.588   3.309
    3OL    H17R  665   2.526   3.568   3.202
    3OL    H17S  666   2.427   3.606   3.334
    3OL    C118  667   2.609   3.471   3.373
    3OL    H18R  668   2.562   3.373   3.357
    3OL    H18S  669   2.631   3.486   3.479
    3OL    H18T  670   2.707   3.454   3.328
    1PA    C116  671   1.098   4.389   3.148
    1PA    H16R  672   1.065   4.467   3.079
    1PA    H16S  673   1.176   4.339   3.089
    1PA    H16T  674   1.138   4.423   3.243
    1PA    C115  675   0.982   4.295   3.186
    1PA    H15R  676   0.902   4.348   3.237
    1PA    H15S  677   0.934   4.269   3.091
    1PA    C114  678   1.012   4.168   3.267
    1PA    H14R  679   0.931   4.096   3.253
    1PA    H14S  680   1.102   4.117   3.232
    1PA    C113  681   1.010   4.206   3.416
    1PA    H13R  682   1.089   4.278   3.438
    1PA    H13S  683   0.914   4.257   3.427
    1PA    C112  684   1.033   4.077   3.495
    1PA    H12R  685   0.951   4.007   3.476
    1PA    H12S  686   1.128   4.037   3.458
    1PA    C111  687   1.064   4.102   3.643
    1PA    H11R  688   1.128   4.025   3.687
    1PA    H11S  689   1.117   4.196   3.661
    1PA    C110  690   0.936   4.102   3.728
    1PA    H10R  691   0.861   4.176   3.699
    1PA    H10S  692   0.890   4.004   3.719
    1PA     C19  693   0.972   4.124   3.876
    1PA     H9R  694   1.051   4.051   3.892
    1PA     H9S  695   1.016   4.224   3.884
    1PA     C18  696   0.849   4.108   3.966
    1PA     H8R  697   0.770   4.178   3.940
    1PA     H8S  698   0.818   4.003   3.958
    1PA     C17  699   0.886   4.126   4.114
    1PA     H7R  700   0.804   4.090   4.176
    1PA     H7S  701   0.976   4.068   4.138
    1PA     C16  702   0.904   4.274   4.151
    1PA     H6R  703   0.979   4.312   4.080
    1PA     H6S  704   0.812   4.328   4.128
    1PA     C15  705   0.955   4.299   4.293
    1PA     H5R  706   0.893   4.251   4.370
    1PA     H5S  707   1.059   4.265   4.298
    1PA     C14  708   0.962   4.449   4.326
    1PA     H4R  709   1.021   4.509   4.257
    1PA     H4S  710   0.861   4.487   4.311
    1PA     C13  711   1.009   4.470   4.470
    1PA     H3R  712   0.947   4.413   4.539
    1PA     H3S  713   1.109   4.425   4.472
    1PA     C12  714   1.010   4.618   4.512
    1PA     H2R  715   1.059   4.678   4.435
    1PA     H2S  716   0.909   4.657   4.516
    2PC     C11  717   1.074   4.642   4.647
    2PC     O12  718   1.131   4.556   4.711
    2PC     O11  719   1.073   4.768   4.692
    2PC      C1  720   1.121   4.791   4.825
    2PC      HR  721   1.061   4.742   4.902
    2PC      HS  722   1.218   4.742   4.834
    2PC      C2  723   1.156   4.940   4.839
    2PC      HX  724   1.221   4.957   4.925
    2PC      C3  725   1.028   5.026   4.844
    2PC      HA  726   0.973   5.023   4.750
    2PC      HB  727   0.964   4.989   4.924
    2PC     O31  728   1.056   5.159   4.892
    2PC     P31  729   1.058   5.185   5.050
    2PC     O32  730   1.204   5.136   5.094
    2PC     C31  731   1.322   5.218   5.093
    2PC     H1A  732   1.320   5.288   5.009
    2PC     H1B  733   1.314   5.277   5.185
    2PC     C32  734   1.448   5.130   5.084
    2PC     H2A  735   1.448   5.079   4.987
    2PC     H2B  736   1.535   5.194   5.082
    2PC     N31  737   1.491   5.030   5.187
    2PC     C33  738   1.501   5.083   5.327
    2PC     H3A  739   1.586   5.151   5.327
    2PC     H3B  740   1.409   5.141   5.338
    2PC     H3C  741   1.511   5.001   5.399
    2PC     C34  742   1.392   4.919   5.175
    2PC     H4A  743   1.397   4.884   5.072
    2PC     H4B  744   1.427   4.841   5.243
    2PC     H4C  745   1.292   4.959   5.195
    2PC     C35  746   1.624   4.973   5.146
    2PC     H5A  747   1.700   5.049   5.165
    2PC     H5B  748   1.631   4.945   5.041
    2PC     H5C  749   1.638   4.878   5.197
    2PC     O33  750   1.044   5.330   5.077
    2PC     O34  751   0.953   5.131   5.141
    2PC     O21  752   1.229   4.994   4.728
    2PC     C21  753   1.354   4.948   4.716
    2PC     O22  754   1.415   4.880   4.796
    3OL     C12  755   1.423   4.992   4.589
    3OL     H2R  756   1.459   4.903   4.538
    3OL     H2S  757   1.510   5.052   4.618
    3OL     C13  758   1.339   5.082   4.497
    3OL     H3R  759   1.324   5.177   4.549
    3OL     H3S  760   1.242   5.039   4.473
    3OL     C14  761   1.417   5.117   4.370
    3OL     H4R  762   1.420   5.029   4.305
    3OL     H4S  763   1.522   5.147   4.377
    3OL     C15  764   1.346   5.225   4.288
    3OL     H5R  765   1.314   5.318   4.337
    3OL     H5S  766   1.254   5.185   4.245
    3OL     C16  767   1.428   5.286   4.174
    3OL     H6R  768   1.497   5.216   4.125
    3OL     H6S  769   1.506   5.349   4.217
    3OL     C17  770   1.346   5.380   4.085
    3OL     H7R  771   1.301   5.450   4.155
    3OL     H7S  772   1.263   5.335   4.028
    3OL     C18  773   1.433   5.452   3.981
    3OL     H8R  774   1.483   5.379   3.918
    3OL     H8S  775   1.509   5.512   4.032
    3OL     C19  776   1.354   5.537   3.885
    3OL     H9R  777   1.252   5.501   3.869
    3OL    C110  778   1.391   5.646   3.821
    3OL    H10R  779   1.319   5.696   3.755
    3OL    C111  780   1.524   5.717   3.831
    3OL    H11R  781   1.595   5.663   3.895
    3OL    H11S  782   1.507   5.816   3.873
    3OL    C112  783   1.591   5.744   3.696
    3OL    H12R  784   1.591   5.660   3.627
    3OL    H12S  785   1.692   5.777   3.722
    3OL    C113  786   1.523   5.859   3.620
    3OL    H13R  787   1.521   5.949   3.682
    3OL    H13S  788   1.418   5.834   3.604
    3OL    C114  789   1.590   5.883   3.484
    3OL    H14R  790   1.590   5.786   3.434
    3OL    H14S  791   1.693   5.918   3.493
    3OL    C115  792   1.504   5.984   3.407
    3OL    H15R  793   1.512   6.083   3.452
    3OL    H15S  794   1.398   5.961   3.421
    3OL    C116  795   1.534   5.984   3.257
    3OL    H16R  796   1.510   5.886   3.216
    3OL    H16S  797   1.642   5.999   3.243
    3OL    C117  798   1.444   6.089   3.188
    3OL    H17R  799   1.456   6.187   3.234
    3OL    H17S  800   1.341   6.062   3.210
    3OL    C118  801   1.464   6.117   3.039
    3OL    H18R  802   1.567   6.148   3.015
    3OL    H18S  803   1.394   6.191   3.000
    3OL    H18T  804   1.441   6.023   2.988
    1PA    C116  805   0.814   2.362   3.512
    1PA    H16R  806   0.895   2.366   3.439
    1PA    H16S  807   0.790   2.459   3.556
    1PA    H16T  808   0.726   2.341   3.452
    1PA    C115  809   0.851   2.258   3.619
    1PA    H15R  810   0.789   2.267   3.708
    1PA    H15S  811   0.870   2.160   3.575
    1PA    C114  812   0.984   2.295   3.686
    1PA    H14R  813   1.070   2.304   3.619
    1PA    H14S  814   0.981   2.399   3.720
    1PA    C113  815   1.034   2.196   3.792
    1PA    H13R  816   0.952   2.175   3.862
    1PA    H13S  817   1.066   2.102   3.747
    1PA    C112  818   1.155   2.262   3.858
    1PA    H12R  819   1.230   2.282   3.781
    1PA    H12S  820   1.139   2.362   3.901
    1PA    C111  821   1.209   2.174   3.971
    1PA    H11R  822   1.213   2.076   3.924
    1PA    H11S  823   1.308   2.216   3.993
    1PA    C110  824   1.120   2.177   4.096
    1PA    H10R  825   1.017   2.190   4.064
    1PA    H10S  826   1.122   2.079   4.144
    1PA     C19  827   1.147   2.288   4.200
    1PA     H9R  828   1.236   2.258   4.255
    1PA     H9S  829   1.166   2.384   4.153
    1PA     C18  830   1.028   2.291   4.297
    1PA     H8R  831   0.978   2.196   4.317
    1PA     H8S  832   1.054   2.338   4.392
    1PA     C17  833   0.918   2.386   4.249
    1PA     H7R  834   0.964   2.482   4.225
    1PA     H7S  835   0.877   2.331   4.164
    1PA     C16  836   0.807   2.404   4.353
    1PA     H6R  837   0.716   2.419   4.294
    1PA     H6S  838   0.788   2.312   4.409
    1PA     C15  839   0.843   2.517   4.450
    1PA     H5R  840   0.944   2.502   4.489
    1PA     H5S  841   0.836   2.619   4.411
    1PA     C14  842   0.755   2.499   4.574
    1PA     H4R  843   0.652   2.481   4.541
    1PA     H4S  844   0.796   2.415   4.629
    1PA     C13  845   0.761   2.625   4.661
    1PA     H3R  846   0.724   2.603   4.762
    1PA     H3S  847   0.858   2.673   4.667
    1PA     C12  848   0.657   2.733   4.628
    1PA     H2R  849   0.656   2.779   4.529
    1PA     H2S  850   0.564   2.679   4.650
    2PC     C11  851   0.668   2.845   4.728
    2PC     O12  852   0.577   2.870   4.806
    2PC     O11  853   0.781   2.917   4.723
    2PC      C1  854   0.804   3.012   4.828
    2PC      HR  855   0.893   3.076   4.818
    2PC      HS  856   0.711   3.067   4.845
    2PC      C2  857   0.829   2.932   4.957
    2PC      HX  858   0.741   2.870   4.976
    2PC      C3  859   0.875   3.023   5.072
    2PC      HA  860   0.981   3.047   5.055
    2PC      HB  861   0.817   3.115   5.065
    2PC     O31  862   0.851   2.962   5.200
    2PC     P31  863   0.732   3.017   5.292
    2PC     O32  864   0.611   2.992   5.190
    2PC     C31  865   0.499   3.077   5.222
    2PC     H1A  866   0.448   3.036   5.310
    2PC     H1B  867   0.531   3.179   5.243
    2PC     C32  868   0.416   3.094   5.094
    2PC     H2A  869   0.341   3.173   5.106
    2PC     H2B  870   0.487   3.105   5.013
    2PC     N31  871   0.320   2.984   5.057
    2PC     C33  872   0.193   2.971   5.136
    2PC     H3A  873   0.138   2.884   5.100
    2PC     H3B  874   0.208   2.948   5.241
    2PC     H3C  875   0.129   3.057   5.115
    2PC     C34  876   0.280   3.013   4.916
    2PC     H4A  877   0.357   2.979   4.846
    2PC     H4B  878   0.185   2.961   4.899
    2PC     H4C  879   0.249   3.117   4.903
    2PC     C35  880   0.379   2.846   5.062
    2PC     H5A  881   0.467   2.843   4.999
    2PC     H5B  882   0.307   2.771   5.030
    2PC     H5C  883   0.400   2.823   5.167
    2PC     O33  884   0.724   2.921   5.403
    2PC     O34  885   0.762   3.156   5.333
    2PC     O21  886   0.936   2.841   4.927
    2PC     C21  887   0.945   2.727   4.997
    2PC     O22  888   0.868   2.696   5.086
    3OL     C12  889   1.074   2.658   4.962
    3OL     H2R  890   1.104   2.598   5.048
    3OL     H2S  891   1.148   2.737   4.950
    3OL     C13  892   1.058   2.577   4.832
    3OL     H3R  893   1.041   2.637   4.742
    3OL     H3S  894   0.986   2.497   4.849
    3OL     C14  895   1.191   2.502   4.817
    3OL     H4R  896   1.151   2.412   4.769
    3OL     H4S  897   1.236   2.466   4.910
    3OL     C15  898   1.277   2.555   4.701
    3OL     H5R  899   1.283   2.660   4.730
    3OL     H5S  900   1.215   2.543   4.612
    3OL     C16  901   1.409   2.476   4.693
    3OL     H6R  902   1.385   2.373   4.667
    3OL     H6S  903   1.460   2.487   4.789
    3OL     C17  904   1.500   2.528   4.580
    3OL     H7R  905   1.597   2.479   4.577
    3OL     H7S  906   1.521   2.635   4.584
    3OL     C18  907   1.441   2.502   4.441
    3OL     H8R  908   1.360   2.574   4.431
    3OL     H8S  909   1.394   2.403   4.432
    3OL     C19  910   1.538   2.526   4.328
    3OL     H9R  911   1.545   2.631   4.302
    3OL    C110  912   1.600   2.437   4.252
    3OL    H10R  913   1.663   2.477   4.172
    3OL    C111  914   1.590   2.289   4.280
    3OL    H11R  915   1.565   2.236   4.188
    3OL    H11S  916   1.522   2.257   4.359
    3OL    C112  917   1.733   2.238   4.300
    3OL    H12R  918   1.799   2.275   4.222
    3OL    H12S  919   1.730   2.129   4.298
    3OL    C113  920   1.784   2.288   4.436
    3OL    H13R  921   1.735   2.224   4.510
    3OL    H13S  922   1.745   2.388   4.454
    3OL    C114  923   1.935   2.278   4.465
    3OL    H14R  924   1.946   2.310   4.568
    3OL    H14S  925   1.999   2.350   4.414
    3OL    C115  926   2.001   2.143   4.437
    3OL    H15R  927   2.109   2.153   4.452
    3OL    H15S  928   1.983   2.111   4.334
    3OL    C116  929   1.945   2.034   4.530
    3OL    H16R  930   1.855   1.998   4.482
    3OL    H16S  931   1.912   2.069   4.628
    3OL    C117  932   2.053   1.925   4.528
    3OL    H17R  933   2.147   1.970   4.559
    3OL    H17S  934   2.060   1.883   4.427
    3OL    C118  935   2.022   1.815   4.631
    3OL    H18R  936   2.106   1.746   4.620
    3OL    H18S  937   1.929   1.762   4.613
    3OL    H18T  938   2.018   1.871   4.725
    1PA    C116  939   3.823   4.276   3.781
    1PA    H16R  940   3.921   4.308   3.746
    1PA    H16S  941   3.753   4.360   3.782
    1PA    H16T  942   3.793   4.188   3.723
    1PA    C115  943   3.844   4.248   3.931
    1PA    H15R  944   3.937   4.190   3.935
    1PA    H15S  945   3.869   4.339   3.985
    1PA    C114  946   3.731   4.167   3.996
    1PA    H14R  947   3.702   4.080   3.937
    1PA    H14S  948   3.769   4.129   4.091
    1PA    C113  949   3.608   4.251   4.031
    1PA    H13R  950   3.570   4.294   3.937
    1PA    H13S  951   3.530   4.181   4.062
    1PA    C112  952   3.628   4.363   4.133
    1PA    H12R  953   3.653   4.325   4.232
    1PA    H12S  954   3.698   4.445   4.113
    1PA    C111  955   3.493   4.436   4.135
    1PA    H11R  956   3.474   4.473   4.034
    1PA    H11S  957   3.413   4.366   4.160
    1PA    C110  958   3.500   4.556   4.231
    1PA    H10R  959   3.548   4.523   4.323
    1PA    H10S  960   3.560   4.641   4.198
    1PA     C19  961   3.358   4.604   4.264
    1PA     H9R  962   3.316   4.654   4.177
    1PA     H9S  963   3.286   4.522   4.276
    1PA     C18  964   3.359   4.702   4.383
    1PA     H8R  965   3.440   4.672   4.450
    1PA     H8S  966   3.385   4.803   4.351
    1PA     C17  967   3.229   4.710   4.464
    1PA     H7R  968   3.151   4.748   4.398
    1PA     H7S  969   3.216   4.611   4.508
    1PA     C16  970   3.247   4.814   4.575
    1PA     H6R  971   3.316   4.786   4.655
    1PA     H6S  972   3.283   4.908   4.532
    1PA     C15  973   3.115   4.830   4.652
    1PA     H5R  974   3.044   4.885   4.590
    1PA     H5S  975   3.069   4.732   4.664
    1PA     C14  976   3.130   4.909   4.783
    1PA     H4R  977   3.214   4.976   4.766
    1PA     H4S  978   3.041   4.968   4.806
    1PA     C13  979   3.163   4.819   4.902
    1PA     H3R  980   3.082   4.746   4.907
    1PA     H3S  981   3.260   4.769   4.894
    1PA     C12  982   3.161   4.908   5.027
    1PA     H2R  983   3.243   4.980   5.022
    1PA     H2S  984   3.072   4.970   5.039
    2PC     C11  985   3.169   4.820   5.149
    2PC     O12  986   3.154   4.700   5.137
    2PC     O11  987   3.207   4.883   5.262
    2PC      C1  988   3.241   4.805   5.377
    2PC      HR  989   3.151   4.748   5.403
    2PC      HS  990   3.325   4.736   5.363
    2PC      C2  991   3.277   4.891   5.499
    2PC      HX  992   3.329   4.843   5.583
    2PC      C3  993   3.155   4.972   5.544
    2PC      HA  994   3.196   5.045   5.613
    2PC      HB  995   3.102   5.020   5.461
    2PC     O31  996   3.062   4.893   5.621
    2PC     P31  997   2.942   4.979   5.684
    2PC     O32  998   3.033   5.087   5.761
    2PC     C31  999   3.007   5.227   5.739
    2PC     H1A 1000   3.037   5.263   5.641
    2PC     H1B 1001   2.899   5.241   5.745
    2PC     C32 1002   3.076   5.317   5.843
    2PC     H2A 1003   3.174   5.273   5.860
    2PC     H2B 1004   3.088   5.420   5.809
    2PC     N31 1005   3.014   5.335   5.978
    2PC     C33 1006   2.896   5.428   5.970
    2PC     H3A 1007   2.878   5.464   6.072
    2PC     H3B 1008   2.917   5.520   5.914
    2PC     H3C 1009   2.801   5.389   5.936
    2PC     C34 1010   2.977   5.211   6.054
    2PC     H4A 1011   2.966   5.232   6.160
    2PC     H4B 1012   2.880   5.168   6.026
    2PC     H4C 1013   3.050   5.135   6.028
    2PC     C35 1014   3.112   5.403   6.069
    2PC     H5A 1015   3.144   5.496   6.022
    2PC     H5B 1016   3.197   5.335   6.080
    2PC     H5C 1017   3.067   5.424   6.166
    2PC     O33 1018   2.839   5.028   5.590
    2PC     O34 1019   2.869   4.903   5.788
    2PC     O21 1020   3.377   4.988   5.461
    2PC     C21 1021   3.498   4.938   5.431
    2PC     O22 1022   3.539   4.825   5.448
    3OL     C12 1023   3.590   5.044   5.378
    3OL     H2R 1024   3.599   5.124   5.451
    3OL     H2S 1025   3.545   5.082   5.286
    3OL     C13 1026   3.732   4.996   5.342
    3OL     H3R 1027   3.733   4.927   5.258
    3OL     H3S 1028   3.788   4.943   5.419
    3OL     C14 1029   3.815   5.114   5.289
    3OL     H4R 1030   3.833   5.190   5.365
    3OL     H4S 1031   3.751   5.158   5.212
    3OL     C15 1032   3.948   5.070   5.226
    3OL     H5R 1033   3.921   5.007   5.141
    3OL     H5S 1034   4.002   5.011   5.300
    3OL     C16 1035   4.032   5.186   5.169
    3OL     H6R 1036   4.123   5.135   5.137
    3OL     H6S 1037   4.057   5.262   5.243
    3OL     C17 1038   3.970   5.257   5.048
    3OL     H7R 1039   3.995   5.363   5.052
    3OL     H7S 1040   3.861   5.253   5.044
    3OL     C18 1041   4.033   5.212   4.916
    3OL     H8R 1042   3.981   5.254   4.829
    3OL     H8S 1043   4.038   5.103   4.911
    3OL     C19 1044   4.175   5.264   4.915
    3OL     H9R 1045   4.209   5.311   5.006
    3OL    C110 1046   4.260   5.274   4.814
    3OL    H10R 1047   4.360   5.313   4.828
    3OL    C111 1048   4.237   5.242   4.668
    3OL    H11R 1049   4.135   5.205   4.658
    3OL    H11S 1050   4.300   5.166   4.622
    3OL    C112 1051   4.263   5.364   4.579
    3OL    H12R 1052   4.367   5.395   4.593
    3OL    H12S 1053   4.192   5.438   4.617
    3OL    C113 1054   4.233   5.337   4.431
    3OL    H13R 1055   4.222   5.435   4.383
    3OL    H13S 1056   4.135   5.291   4.422
    3OL    C114 1057   4.350   5.263   4.365
    3OL    H14R 1058   4.342   5.162   4.407
    3OL    H14S 1059   4.446   5.309   4.389
    3OL    C115 1060   4.325   5.248   4.214
    3OL    H15R 1061   4.421   5.219   4.170
    3OL    H15S 1062   4.305   5.345   4.169
    3OL    C116 1063   4.218   5.142   4.187
    3OL    H16R 1064   4.222   5.055   4.253
    3OL    H16S 1065   4.122   5.191   4.204
    3OL    C117 1066   4.212   5.100   4.040
    3OL    H17R 1067   4.207   5.187   3.973
    3OL    H17S 1068   4.113   5.055   4.028
    3OL    C118 1069   4.316   4.992   4.007
    3OL    H18R 1070   4.309   4.969   3.901
    3OL    H18S 1071   4.422   5.019   4.019
    3OL    H18T 1072   4.295   4.894   4.050
    1PA    C116 1073   0.302   4.533   3.528
    1PA    H16R 1074   0.193   4.546   3.528
    1PA    H16S 1075   0.339   4.536   3.426
    1PA    H16T 1076   0.353   4.612   3.585
    1PA    C115 1077   0.330   4.394   3.587
    1PA    H15R 1078   0.299   4.399   3.691
    1PA    H15S 1079   0.284   4.316   3.527
    1PA    C114 1080   0.480   4.362   3.595
    1PA    H14R 1081   0.498   4.268   3.649
    1PA    H14S 1082   0.522   4.349   3.495
    1PA    C113 1083   0.556   4.469   3.676
    1PA    H13R 1084   0.662   4.447   3.667
    1PA    H13S 1085   0.550   4.568   3.630
    1PA    C112 1086   0.509   4.474   3.822
    1PA    H12R 1087   0.402   4.482   3.844
    1PA    H12S 1088   0.535   4.382   3.875
    1PA    C111 1089   0.574   4.593   3.895
    1PA    H11R 1090   0.593   4.671   3.821
    1PA    H11S 1091   0.508   4.635   3.971
    1PA    C110 1092   0.702   4.540   3.961
    1PA    H10R 1093   0.681   4.463   4.034
    1PA    H10S 1094   0.761   4.490   3.884
    1PA     C19 1095   0.783   4.654   4.026
    1PA     H9R 1096   0.867   4.610   4.080
    1PA     H9S 1097   0.829   4.721   3.952
    1PA     C18 1098   0.695   4.743   4.115
    1PA     H8R 1099   0.620   4.795   4.054
    1PA     H8S 1100   0.636   4.684   4.185
    1PA     C17 1101   0.777   4.846   4.193
    1PA     H7R 1102   0.707   4.894   4.262
    1PA     H7S 1103   0.850   4.787   4.248
    1PA     C16 1104   0.833   4.958   4.104
    1PA     H6R 1105   0.903   4.909   4.035
    1PA     H6S 1106   0.762   5.002   4.035
    1PA     C15 1107   0.899   5.065   4.192
    1PA     H5R 1108   0.959   5.030   4.276
    1PA     H5S 1109   0.980   5.112   4.134
    1PA     C14 1110   0.799   5.173   4.236
    1PA     H4R 1111   0.757   5.216   4.144
    1PA     H4S 1112   0.717   5.131   4.293
    1PA     C13 1113   0.872   5.279   4.320
    1PA     H3R 1114   0.957   5.328   4.271
    1PA     H3S 1115   0.786   5.346   4.328
    1PA     C12 1116   0.904   5.219   4.457
    1PA     H2R 1117   0.842   5.133   4.485
    1PA     H2S 1118   1.005   5.178   4.467
    2PC     C11 1119   0.892   5.320   4.568
    2PC     O12 1120   0.784   5.370   4.590
    2PC     O11 1121   1.008   5.350   4.629
    2PC      C1 1122   1.020   5.459   4.722
    2PC      HR 1123   0.970   5.548   4.682
    2PC      HS 1124   0.963   5.445   4.814
    2PC      C2 1125   1.168   5.492   4.747
    2PC      HX 1126   1.218   5.395   4.746
    2PC      C3 1127   1.205   5.568   4.875
    2PC      HA 1128   1.189   5.675   4.857
    2PC      HB 1129   1.146   5.534   4.960
    2PC     O31 1130   1.343   5.552   4.909
    2PC     P31 1131   1.394   5.602   5.052
    2PC     O32 1132   1.491   5.729   5.037
    2PC     C31 1133   1.443   5.858   5.079
    2PC     H1A 1134   1.365   5.898   5.013
    2PC     H1B 1135   1.405   5.845   5.181
    2PC     C32 1136   1.566   5.949   5.081
    2PC     H2A 1137   1.628   5.927   4.994
    2PC     H2B 1138   1.531   6.052   5.073
    2PC     N31 1139   1.641   5.956   5.212
    2PC     C33 1140   1.563   6.035   5.313
    2PC     H3A 1141   1.636   6.061   5.390
    2PC     H3B 1142   1.519   6.123   5.265
    2PC     H3C 1143   1.486   5.973   5.358
    2PC     C34 1144   1.666   5.822   5.273
    2PC     H4A 1145   1.572   5.775   5.305
    2PC     H4B 1146   1.709   5.755   5.198
    2PC     H4C 1147   1.736   5.842   5.355
    2PC     C35 1148   1.772   6.026   5.192
    2PC     H5A 1149   1.835   5.966   5.127
    2PC     H5B 1150   1.812   6.032   5.294
    2PC     H5C 1151   1.752   6.128   5.157
    2PC     O33 1152   1.290   5.639   5.151
    2PC     O34 1153   1.464   5.486   5.110
    2PC     O21 1154   1.215   5.569   4.635
    2PC     C21 1155   1.343   5.551   4.600
    2PC     O22 1156   1.415   5.463   4.644
    3OL     C12 1157   1.385   5.651   4.495
    3OL     H2R 1158   1.382   5.752   4.537
    3OL     H2S 1159   1.306   5.650   4.420
    3OL     C13 1160   1.525   5.624   4.439
    3OL     H3R 1161   1.553   5.525   4.403
    3OL     H3S 1162   1.595   5.651   4.518
    3OL     C14 1163   1.546   5.726   4.326
    3OL     H4R 1164   1.536   5.828   4.364
    3OL     H4S 1165   1.473   5.717   4.245
    3OL     C15 1166   1.682   5.704   4.260
    3OL     H5R 1167   1.701   5.773   4.177
    3OL     H5S 1168   1.689   5.603   4.219
    3OL     C16 1169   1.799   5.723   4.357
    3OL     H6R 1170   1.806   5.659   4.446
    3OL     H6S 1171   1.797   5.827   4.391
    3OL     C17 1172   1.929   5.688   4.284
    3OL     H7R 1173   1.920   5.745   4.192
    3OL     H7S 1174   1.909   5.583   4.263
    3OL     C18 1175   2.067   5.709   4.348
    3OL     H8R 1176   2.143   5.673   4.277
    3OL     H8S 1177   2.068   5.634   4.428
    3OL     C19 1178   2.090   5.842   4.415
    3OL     H9R 1179   2.043   5.858   4.511
    3OL    C110 1180   2.161   5.939   4.359
    3OL    H10R 1181   2.173   6.033   4.412
    3OL    C111 1182   2.249   5.926   4.237
    3OL    H11R 1183   2.270   5.819   4.227
    3OL    H11S 1184   2.345   5.973   4.257
    3OL    C112 1185   2.181   5.985   4.112
    3OL    H12R 1186   2.164   6.091   4.128
    3OL    H12S 1187   2.084   5.937   4.103
    3OL    C113 1188   2.263   5.949   3.987
    3OL    H13R 1189   2.206   5.986   3.902
    3OL    H13S 1190   2.275   5.841   3.971
    3OL    C114 1191   2.401   6.014   3.981
    3OL    H14R 1192   2.468   5.992   4.065
    3OL    H14S 1193   2.382   6.122   3.978
    3OL    C115 1194   2.468   5.977   3.848
    3OL    H15R 1195   2.450   6.049   3.768
    3OL    H15S 1196   2.443   5.880   3.804
    3OL    C116 1197   2.621   5.978   3.861
    3OL    H16R 1198   2.653   5.891   3.918
    3OL    H16S 1199   2.644   6.071   3.914
    3OL    C117 1200   2.690   5.982   3.724
    3OL    H17R 1201   2.785   6.034   3.729
    3OL    H17S 1202   2.628   6.036   3.652
    3OL    C118 1203   2.707   5.842   3.663
    3OL    H18R 1204   2.611   5.816   3.618
    3OL    H18S 1205   2.740   5.767   3.735
    3OL    H18T 1206   2.780   5.849   3.583
    1PA    C116 1207  -1.007   4.494   3.609
    1PA    H16R 1208  -1.001   4.400   3.554
    1PA    H16S 1209  -0.993   4.577   3.540
    1PA    H16T 1210  -1.100   4.508   3.664
    1PA    C115 1211  -0.905   4.497   3.724
    1PA    H15R 1212  -0.917   4.419   3.799
    1PA    H15S 1213  -0.807   4.486   3.677
    1PA    C114 1214  -0.906   4.638   3.785
    1PA    H14R 1215  -0.885   4.715   3.710
    1PA    H14S 1216  -1.005   4.662   3.823
    1PA    C113 1217  -0.807   4.647   3.902
    1PA    H13R 1218  -0.832   4.734   3.962
    1PA    H13S 1219  -0.823   4.560   3.966
    1PA    C112 1220  -0.659   4.650   3.860
    1PA    H12R 1221  -0.646   4.566   3.791
    1PA    H12S 1222  -0.638   4.741   3.803
    1PA    C111 1223  -0.560   4.633   3.976
    1PA    H11R 1224  -0.568   4.715   4.048
    1PA    H11S 1225  -0.590   4.543   4.029
    1PA    C110 1226  -0.413   4.635   3.932
    1PA    H10R 1227  -0.392   4.721   3.867
    1PA    H10S 1228  -0.350   4.640   4.021
    1PA     C19 1229  -0.366   4.517   3.845
    1PA     H9R 1230  -0.395   4.427   3.901
    1PA     H9S 1231  -0.414   4.518   3.747
    1PA     C18 1232  -0.215   4.513   3.822
    1PA     H8R 1233  -0.189   4.587   3.746
    1PA     H8S 1234  -0.161   4.541   3.913
    1PA     C17 1235  -0.163   4.375   3.779
    1PA     H7R 1236  -0.237   4.338   3.708
    1PA     H7S 1237  -0.069   4.385   3.724
    1PA     C16 1238  -0.143   4.273   3.892
    1PA     H6R 1239  -0.237   4.249   3.941
    1PA     H6S 1240  -0.114   4.190   3.827
    1PA     C15 1241  -0.040   4.314   3.998
    1PA     H5R 1242   0.013   4.225   4.033
    1PA     H5S 1243   0.036   4.375   3.948
    1PA     C14 1244  -0.086   4.388   4.125
    1PA     H4R 1245  -0.164   4.464   4.112
    1PA     H4S 1246  -0.130   4.306   4.181
    1PA     C13 1247   0.031   4.444   4.206
    1PA     H3R 1248   0.090   4.360   4.243
    1PA     H3S 1249   0.094   4.514   4.150
    1PA     C12 1250  -0.009   4.527   4.328
    1PA     H2R 1251  -0.028   4.629   4.294
    1PA     H2S 1252  -0.103   4.491   4.369
    2PC     C11 1253   0.096   4.523   4.437
    2PC     O12 1254   0.174   4.432   4.452
    2PC     O11 1255   0.099   4.639   4.504
    2PC      C1 1256   0.205   4.670   4.597
    2PC      HR 1257   0.197   4.611   4.688
    2PC      HS 1258   0.302   4.657   4.548
    2PC      C2 1259   0.199   4.819   4.633
    2PC      HX 1260   0.286   4.835   4.698
    2PC      C3 1261   0.068   4.845   4.709
    2PC      HA 1262  -0.014   4.869   4.641
    2PC      HB 1263   0.043   4.755   4.767
    2PC     O31 1264   0.085   4.957   4.798
    2PC     P31 1265   0.166   4.947   4.935
    2PC     O32 1266   0.313   4.988   4.887
    2PC     C31 1267   0.379   5.090   4.964
    2PC     H1A 1268   0.325   5.184   4.945
    2PC     H1B 1269   0.375   5.069   5.071
    2PC     C32 1270   0.529   5.095   4.930
    2PC     H2A 1271   0.581   5.001   4.942
    2PC     H2B 1272   0.531   5.132   4.827
    2PC     N31 1273   0.613   5.199   4.998
    2PC     C33 1274   0.663   5.156   5.133
    2PC     H3A 1275   0.581   5.118   5.195
    2PC     H3B 1276   0.732   5.072   5.119
    2PC     H3C 1277   0.712   5.247   5.166
    2PC     C34 1278   0.736   5.214   4.914
    2PC     H4A 1279   0.805   5.275   4.973
    2PC     H4B 1280   0.779   5.116   4.896
    2PC     H4C 1281   0.712   5.261   4.819
    2PC     C35 1282   0.542   5.330   5.004
    2PC     H5A 1283   0.621   5.405   4.998
    2PC     H5B 1284   0.495   5.341   5.102
    2PC     H5C 1285   0.471   5.335   4.921
    2PC     O33 1286   0.105   5.028   5.043
    2PC     O34 1287   0.167   4.807   4.985
    2PC     O21 1288   0.202   4.903   4.516
    2PC     C21 1289   0.317   4.908   4.447
    2PC     O22 1290   0.421   4.861   4.488
    3OL     C12 1291   0.291   4.971   4.312
    3OL     H2R 1292   0.320   5.075   4.331
    3OL     H2S 1293   0.187   4.953   4.285
    3OL     C13 1294   0.384   4.900   4.212
    3OL     H3R 1295   0.486   4.891   4.250
    3OL     H3S 1296   0.388   4.957   4.119
    3OL     C14 1297   0.328   4.759   4.190
    3OL     H4R 1298   0.245   4.736   4.258
    3OL     H4S 1299   0.410   4.690   4.208
    3OL     C15 1300   0.272   4.738   4.049
    3OL     H5R 1301   0.267   4.632   4.024
    3OL     H5S 1302   0.350   4.779   3.984
    3OL     C16 1303   0.140   4.805   4.010
    3OL     H6R 1304   0.152   4.911   4.034
    3OL     H6S 1305   0.062   4.754   4.067
    3OL     C17 1306   0.107   4.783   3.861
    3OL     H7R 1307   0.131   4.682   3.826
    3OL     H7S 1308   0.174   4.858   3.818
    3OL     C18 1309  -0.037   4.824   3.829
    3OL     H8R 1310  -0.044   4.926   3.868
    3OL     H8S 1311  -0.102   4.759   3.887
    3OL     C19 1312  -0.065   4.818   3.681
    3OL     H9R 1313  -0.070   4.722   3.631
    3OL    C110 1314  -0.116   4.912   3.604
    3OL    H10R 1315  -0.145   4.878   3.505
    3OL    C111 1316  -0.141   5.055   3.645
    3OL    H11R 1317  -0.176   5.051   3.748
    3OL    H11S 1318  -0.229   5.088   3.588
    3OL    C112 1319  -0.020   5.145   3.618
    3OL    H12R 1320   0.006   5.132   3.512
    3OL    H12S 1321   0.063   5.096   3.669
    3OL    C113 1322  -0.048   5.291   3.654
    3OL    H13R 1323  -0.120   5.338   3.586
    3OL    H13S 1324   0.049   5.339   3.638
    3OL    C114 1325  -0.083   5.307   3.803
    3OL    H14R 1326  -0.028   5.227   3.852
    3OL    H14S 1327  -0.191   5.308   3.820
    3OL    C115 1328  -0.035   5.443   3.854
    3OL    H15R 1329  -0.080   5.530   3.805
    3OL    H15S 1330   0.066   5.464   3.820
    3OL    C116 1331  -0.041   5.457   4.007
    3OL    H16R 1332   0.015   5.545   4.039
    3OL    H16S 1333   0.006   5.367   4.049
    3OL    C117 1334  -0.183   5.487   4.056
    3OL    H17R 1335  -0.251   5.411   4.017
    3OL    H17S 1336  -0.221   5.584   4.024
    3OL    C118 1337  -0.189   5.489   4.210
    3OL    H18R 1338  -0.178   5.387   4.249
    3OL    H18S 1339  -0.279   5.533   4.252
    3OL    H18T 1340  -0.110   5.549   4.257
    1PA    C116 1341   0.592   4.127   3.169
    1PA    H16R 1342   0.641   4.074   3.086
    1PA    H16S 1343   0.635   4.227   3.170
    1PA    H16T 1344   0.484   4.121   3.156
    1PA    C115 1345   0.631   4.054   3.299
    1PA    H15R 1346   0.649   3.950   3.271
    1PA    H15S 1347   0.729   4.088   3.333
    1PA    C114 1348   0.523   4.045   3.408
    1PA    H14R 1349   0.479   4.144   3.419
    1PA    H14S 1350   0.437   3.986   3.377
    1PA    C113 1351   0.569   3.992   3.544
    1PA    H13R 1352   0.659   4.048   3.573
    1PA    H13S 1353   0.484   4.015   3.609
    1PA    C112 1354   0.596   3.841   3.532
    1PA    H12R 1355   0.507   3.793   3.492
    1PA    H12S 1356   0.683   3.817   3.471
    1PA    C111 1357   0.614   3.766   3.665
    1PA    H11R 1358   0.694   3.817   3.720
    1PA    H11S 1359   0.519   3.776   3.718
    1PA    C110 1360   0.646   3.616   3.659
    1PA    H10R 1361   0.586   3.562   3.585
    1PA    H10S 1362   0.749   3.612   3.624
    1PA     C19 1363   0.643   3.552   3.799
    1PA     H9R 1364   0.722   3.477   3.806
    1PA     H9S 1365   0.658   3.627   3.877
    1PA     C18 1366   0.511   3.484   3.837
    1PA     H8R 1367   0.435   3.562   3.829
    1PA     H8S 1368   0.489   3.399   3.772
    1PA     C17 1369   0.517   3.439   3.983
    1PA     H7R 1370   0.468   3.342   3.994
    1PA     H7S 1371   0.620   3.422   4.018
    1PA     C16 1372   0.467   3.549   4.078
    1PA     H6R 1373   0.542   3.628   4.079
    1PA     H6S 1374   0.374   3.584   4.032
    1PA     C15 1375   0.455   3.498   4.223
    1PA     H5R 1376   0.400   3.404   4.226
    1PA     H5S 1377   0.558   3.484   4.258
    1PA     C14 1378   0.387   3.608   4.306
    1PA     H4R 1379   0.417   3.711   4.285
    1PA     H4S 1380   0.280   3.595   4.288
    1PA     C13 1381   0.401   3.579   4.456
    1PA     H3R 1382   0.361   3.477   4.466
    1PA     H3S 1383   0.502   3.589   4.496
    1PA     C12 1384   0.309   3.669   4.541
    1PA     H2R 1385   0.360   3.766   4.544
    1PA     H2S 1386   0.211   3.678   4.495
    2PC     C11 1387   0.298   3.620   4.683
    2PC     O12 1388   0.353   3.518   4.720
    2PC     O11 1389   0.222   3.699   4.761
    2PC      C1 1390   0.205   3.669   4.900
    2PC      HR 1391   0.129   3.737   4.941
    2PC      HS 1392   0.176   3.565   4.917
    2PC      C2 1393   0.338   3.694   4.973
    2PC      HX 1394   0.400   3.607   4.948
    2PC      C3 1395   0.331   3.726   5.123
    2PC      HA 1396   0.297   3.645   5.189
    2PC      HB 1397   0.431   3.757   5.156
    2PC     O31 1398   0.252   3.843   5.149
    2PC     P31 1399   0.255   3.902   5.298
    2PC     O32 1400   0.106   3.957   5.319
    2PC     C31 1401  -0.003   3.863   5.320
    2PC     H1A 1402   0.003   3.804   5.229
    2PC     H1B 1403   0.022   3.795   5.402
    2PC     C32 1404  -0.138   3.934   5.339
    2PC     H2A 1405  -0.125   4.025   5.280
    2PC     H2B 1406  -0.211   3.875   5.283
    2PC     N31 1407  -0.190   3.971   5.474
    2PC     C33 1408  -0.300   4.070   5.453
    2PC     H3A 1409  -0.366   4.039   5.373
    2PC     H3B 1410  -0.354   4.084   5.547
    2PC     H3C 1411  -0.249   4.163   5.427
    2PC     C34 1412  -0.240   3.853   5.552
    2PC     H4A 1413  -0.163   3.779   5.578
    2PC     H4B 1414  -0.290   3.888   5.643
    2PC     H4C 1415  -0.312   3.793   5.496
    2PC     C35 1416  -0.090   4.037   5.565
    2PC     H5A 1417  -0.005   3.971   5.585
    2PC     H5B 1418  -0.127   4.047   5.667
    2PC     H5C 1419  -0.049   4.129   5.523
    2PC     O33 1420   0.285   3.803   5.404
    2PC     O34 1421   0.362   4.002   5.320
    2PC     O21 1422   0.389   3.811   4.907
    2PC     C21 1423   0.522   3.830   4.913
    2PC     O22 1424   0.588   3.739   4.959
    3OL     C12 1425   0.572   3.953   4.842
    3OL     H2R 1426   0.679   3.934   4.828
    3OL     H2S 1427   0.568   4.052   4.887
    3OL     C13 1428   0.520   3.954   4.698
    3OL     H3R 1429   0.418   3.994   4.702
    3OL     H3S 1430   0.520   3.853   4.656
    3OL     C14 1431   0.590   4.053   4.605
    3OL     H4R 1432   0.615   4.144   4.661
    3OL     H4S 1433   0.529   4.088   4.522
    3OL     C15 1434   0.722   3.989   4.562
    3OL     H5R 1435   0.775   3.935   4.641
    3OL     H5S 1436   0.785   4.070   4.523
    3OL     C16 1437   0.693   3.894   4.445
    3OL     H6R 1438   0.616   3.942   4.384
    3OL     H6S 1439   0.656   3.799   4.485
    3OL     C17 1440   0.826   3.870   4.372
    3OL     H7R 1441   0.875   3.964   4.349
    3OL     H7S 1442   0.808   3.826   4.274
    3OL     C18 1443   0.918   3.780   4.457
    3OL     H8R 1444   0.863   3.702   4.511
    3OL     H8S 1445   0.963   3.843   4.535
    3OL     C19 1446   1.032   3.714   4.385
    3OL     H9R 1447   1.127   3.712   4.438
    3OL    C110 1448   1.029   3.637   4.277
    3OL    H10R 1449   1.123   3.599   4.237
    3OL    C111 1450   0.914   3.597   4.189
    3OL    H11R 1451   0.817   3.612   4.237
    3OL    H11S 1452   0.902   3.491   4.167
    3OL    C112 1453   0.905   3.669   4.054
    3OL    H12R 1454   0.927   3.775   4.069
    3OL    H12S 1455   0.801   3.661   4.020
    3OL    C113 1456   1.004   3.611   3.952
    3OL    H13R 1457   0.980   3.504   3.946
    3OL    H13S 1458   1.101   3.639   3.993
    3OL    C114 1459   0.979   3.684   3.819
    3OL    H14R 1460   1.015   3.787   3.830
    3OL    H14S 1461   0.872   3.698   3.801
    3OL    C115 1462   1.056   3.615   3.705
    3OL    H15R 1463   1.158   3.612   3.744
    3OL    H15S 1464   1.054   3.686   3.623
    3OL    C116 1465   1.015   3.472   3.664
    3OL    H16R 1466   0.908   3.461   3.650
    3OL    H16S 1467   1.034   3.402   3.746
    3OL    C117 1468   1.085   3.411   3.542
    3OL    H17R 1469   1.189   3.387   3.564
    3OL    H17S 1470   1.092   3.490   3.466
    3OL    C118 1471   1.011   3.282   3.503
    3OL    H18R 1472   1.021   3.211   3.585
    3OL    H18S 1473   1.056   3.235   3.415
    3OL    H18T 1474   0.905   3.297   3.480
    1PA    C116 1475   1.662   2.929   3.741
    1PA    H16R 1476   1.706   2.842   3.790
    1PA    H16S 1477   1.604   2.904   3.652
    1PA    H16T 1478   1.586   2.975   3.805
    1PA    C115 1479   1.761   3.033   3.687
    1PA    H15R 1480   1.843   2.984   3.634
    1PA    H15S 1481   1.710   3.109   3.628
    1PA    C114 1482   1.839   3.091   3.806
    1PA    H14R 1483   1.767   3.127   3.879
    1PA    H14S 1484   1.896   3.008   3.850
    1PA    C113 1485   1.926   3.207   3.756
    1PA    H13R 1486   1.984   3.196   3.664
    1PA    H13S 1487   1.856   3.287   3.732
    1PA    C112 1488   2.024   3.255   3.864
    1PA    H12R 1489   2.093   3.174   3.889
    1PA    H12S 1490   2.066   3.348   3.827
    1PA    C111 1491   1.955   3.289   3.997
    1PA    H11R 1492   1.860   3.341   3.980
    1PA    H11S 1493   1.927   3.198   4.051
    1PA    C110 1494   2.039   3.379   4.088
    1PA    H10R 1495   2.129   3.334   4.130
    1PA    H10S 1496   2.068   3.463   4.024
    1PA     C19 1497   1.939   3.421   4.197
    1PA     H9R 1498   1.863   3.490   4.161
    1PA     H9S 1499   1.887   3.330   4.228
    1PA     C18 1500   2.015   3.479   4.317
    1PA     H8R 1501   2.123   3.485   4.302
    1PA     H8S 1502   1.991   3.585   4.326
    1PA     C17 1503   1.987   3.408   4.450
    1PA     H7R 1504   2.004   3.301   4.437
    1PA     H7S 1505   2.070   3.445   4.512
    1PA     C16 1506   1.847   3.423   4.511
    1PA     H6R 1507   1.832   3.531   4.525
    1PA     H6S 1508   1.771   3.387   4.441
    1PA     C15 1509   1.823   3.347   4.642
    1PA     H5R 1510   1.923   3.336   4.686
    1PA     H5S 1511   1.764   3.408   4.711
    1PA     C14 1512   1.769   3.205   4.623
    1PA     H4R 1513   1.667   3.223   4.588
    1PA     H4S 1514   1.828   3.146   4.553
    1PA     C13 1515   1.751   3.138   4.760
    1PA     H3R 1516   1.851   3.111   4.792
    1PA     H3S 1517   1.715   3.203   4.840
    1PA     C12 1518   1.688   2.999   4.746
    1PA     H2R 1519   1.581   3.010   4.725
    1PA     H2S 1520   1.734   2.951   4.659
    2PC     C11 1521   1.712   2.913   4.868
    2PC     O12 1522   1.810   2.842   4.877
    2PC     O11 1523   1.625   2.941   4.967
    2PC      C1 1524   1.650   2.882   5.096
    2PC      HR 1525   1.755   2.903   5.115
    2PC      HS 1526   1.593   2.936   5.171
    2PC      C2 1527   1.604   2.735   5.104
    2PC      HX 1528   1.508   2.717   5.055
    2PC      C3 1529   1.597   2.691   5.250
    2PC      HA 1530   1.513   2.737   5.302
    2PC      HB 1531   1.575   2.584   5.258
    2PC     O31 1532   1.725   2.715   5.311
    2PC     P31 1533   1.753   2.690   5.467
    2PC     O32 1534   1.740   2.838   5.527
    2PC     C31 1535   1.859   2.915   5.502
    2PC     H1A 1536   1.948   2.879   5.555
    2PC     H1B 1537   1.887   2.910   5.397
    2PC     C32 1538   1.829   3.060   5.539
    2PC     H2A 1539   1.892   3.129   5.483
    2PC     H2B 1540   1.726   3.080   5.509
    2PC     N31 1541   1.848   3.101   5.682
    2PC     C33 1542   1.994   3.105   5.715
    2PC     H3A 1543   2.001   3.142   5.817
    2PC     H3B 1544   2.046   3.011   5.699
    2PC     H3C 1545   2.043   3.183   5.656
    2PC     C34 1546   1.796   3.239   5.708
    2PC     H4A 1547   1.843   3.270   5.802
    2PC     H4B 1548   1.835   3.296   5.624
    2PC     H4C 1549   1.687   3.233   5.705
    2PC     C35 1550   1.773   3.006   5.771
    2PC     H5A 1551   1.796   3.025   5.876
    2PC     H5B 1552   1.816   2.911   5.739
    2PC     H5C 1553   1.666   3.018   5.759
    2PC     O33 1554   1.665   2.589   5.530
    2PC     O34 1555   1.892   2.639   5.464
    2PC     O21 1556   1.703   2.651   5.041
    2PC     C21 1557   1.668   2.523   5.019
    2PC     O22 1558   1.557   2.479   5.043
    3OL     C12 1559   1.787   2.434   4.992
    3OL     H2R 1560   1.864   2.456   5.067
    3OL     H2S 1561   1.836   2.466   4.900
    3OL     C13 1562   1.756   2.283   4.991
    3OL     H3R 1563   1.684   2.263   5.071
    3OL     H3S 1564   1.850   2.232   5.010
    3OL     C14 1565   1.698   2.237   4.857
    3OL     H4R 1566   1.771   2.245   4.776
    3OL     H4S 1567   1.618   2.303   4.824
    3OL     C15 1568   1.641   2.094   4.850
    3OL     H5R 1569   1.626   2.072   4.744
    3OL     H5S 1570   1.548   2.086   4.906
    3OL     C16 1571   1.741   1.990   4.902
    3OL     H6R 1572   1.777   2.004   5.004
    3OL     H6S 1573   1.831   2.008   4.844
    3OL     C17 1574   1.685   1.848   4.894
    3OL     H7R 1575   1.610   1.840   4.973
    3OL     H7S 1576   1.760   1.772   4.919
    3OL     C18 1577   1.607   1.808   4.768
    3OL     H8R 1578   1.673   1.818   4.680
    3OL     H8S 1579   1.522   1.876   4.756
    3OL     C19 1580   1.567   1.664   4.789
    3OL     H9R 1581   1.501   1.642   4.872
    3OL    C110 1582   1.600   1.558   4.718
    3OL    H10R 1583   1.563   1.460   4.745
    3OL    C111 1584   1.673   1.558   4.585
    3OL    H11R 1585   1.778   1.579   4.604
    3OL    H11S 1586   1.625   1.643   4.535
    3OL    C112 1587   1.652   1.437   4.493
    3OL    H12R 1588   1.725   1.438   4.411
    3OL    H12S 1589   1.554   1.450   4.447
    3OL    C113 1590   1.657   1.299   4.560
    3OL    H13R 1591   1.578   1.300   4.635
    3OL    H13S 1592   1.750   1.295   4.617
    3OL    C114 1593   1.637   1.188   4.456
    3OL    H14R 1594   1.706   1.202   4.373
    3OL    H14S 1595   1.535   1.189   4.418
    3OL    C115 1596   1.673   1.048   4.509
    3OL    H15R 1597   1.594   1.003   4.570
    3OL    H15S 1598   1.771   1.055   4.555
    3OL    C116 1599   1.686   0.956   4.387
    3OL    H16R 1600   1.605   0.963   4.314
    3OL    H16S 1601   1.683   0.854   4.426
    3OL    C117 1602   1.825   0.977   4.327
    3OL    H17R 1603   1.908   0.963   4.397
    3OL    H17S 1604   1.845   1.076   4.283
    3OL    C118 1605   1.849   0.875   4.215
    3OL    H18R 1606   1.788   0.907   4.130
    3OL    H18S 1607   1.813   0.773   4.236
    3OL    H18T 1608   1.953   0.871   4.185
    1PA    C116 1609   0.643   0.550   3.629
    1PA    H16R 1610   0.539   0.567   3.658
    1PA    H16S 1611   0.651   0.468   3.558
    1PA    H16T 1612   0.677   0.641   3.579
    1PA    C115 1613   0.730   0.518   3.751
    1PA    H15R 1614   0.745   0.612   3.804
    1PA    H15S 1615   0.673   0.444   3.807
    1PA    C114 1616   0.863   0.455   3.706
    1PA    H14R 1617   0.844   0.379   3.630
    1PA    H14S 1618   0.917   0.535   3.654
    1PA    C113 1619   0.950   0.388   3.813
    1PA    H13R 1620   0.897   0.301   3.851
    1PA    H13S 1621   1.042   0.351   3.766
    1PA    C112 1622   0.982   0.491   3.923
    1PA    H12R 1623   0.999   0.588   3.875
    1PA    H12S 1624   0.892   0.507   3.983
    1PA    C111 1625   1.110   0.449   3.997
    1PA    H11R 1626   1.104   0.347   4.034
    1PA    H11S 1627   1.194   0.450   3.926
    1PA    C110 1628   1.132   0.538   4.120
    1PA    H10R 1629   1.132   0.642   4.086
    1PA    H10S 1630   1.045   0.520   4.184
    1PA     C19 1631   1.269   0.504   4.182
    1PA     H9R 1632   1.280   0.404   4.225
    1PA     H9S 1633   1.351   0.521   4.112
    1PA     C18 1634   1.276   0.592   4.307
    1PA     H8R 1635   1.274   0.697   4.279
    1PA     H8S 1636   1.193   0.567   4.373
    1PA     C17 1637   1.403   0.553   4.384
    1PA     H7R 1638   1.397   0.445   4.404
    1PA     H7S 1639   1.493   0.567   4.324
    1PA     C16 1640   1.416   0.638   4.511
    1PA     H6R 1641   1.436   0.742   4.486
    1PA     H6S 1642   1.331   0.618   4.577
    1PA     C15 1643   1.543   0.603   4.591
    1PA     H5R 1644   1.527   0.496   4.599
    1PA     H5S 1645   1.630   0.628   4.529
    1PA     C14 1646   1.535   0.680   4.724
    1PA     H4R 1647   1.544   0.785   4.693
    1PA     H4S 1648   1.434   0.676   4.766
    1PA     C13 1649   1.640   0.655   4.834
    1PA     H3R 1650   1.745   0.665   4.805
    1PA     H3S 1651   1.639   0.733   4.910
    1PA     C12 1652   1.621   0.517   4.897
    1PA     H2R 1653   1.520   0.523   4.940
    1PA     H2S 1654   1.614   0.448   4.813
    2PC     C11 1655   1.732   0.475   4.990
    2PC     O12 1656   1.801   0.560   5.043
    2PC     O11 1657   1.727   0.345   5.024
    2PC      C1 1658   1.819   0.296   5.123
    2PC      HR 1659   1.921   0.299   5.082
    2PC      HS 1660   1.819   0.359   5.212
    2PC      C2 1661   1.812   0.143   5.135
    2PC      HX 1662   1.708   0.129   5.168
    2PC      C3 1663   1.900   0.100   5.253
    2PC      HA 1664   2.005   0.104   5.221
    2PC      HB 1665   1.873   0.159   5.341
    2PC     O31 1666   1.875  -0.035   5.295
    2PC     P31 1667   1.946  -0.107   5.420
    2PC     O32 1668   2.095  -0.138   5.370
    2PC     C31 1669   2.198  -0.044   5.406
    2PC     H1A 1670   2.275  -0.027   5.331
    2PC     H1B 1671   2.160   0.054   5.434
    2PC     C32 1672   2.266  -0.109   5.528
    2PC     H2A 1673   2.190  -0.135   5.602
    2PC     H2B 1674   2.315  -0.201   5.498
    2PC     N31 1675   2.372  -0.027   5.595
    2PC     C33 1676   2.303   0.076   5.679
    2PC     H3A 1677   2.232   0.127   5.615
    2PC     H3B 1678   2.258   0.016   5.758
    2PC     H3C 1679   2.384   0.138   5.719
    2PC     C34 1680   2.450  -0.122   5.680
    2PC     H4A 1681   2.391  -0.198   5.731
    2PC     H4B 1682   2.509  -0.186   5.613
    2PC     H4C 1683   2.524  -0.066   5.738
    2PC     C35 1684   2.472   0.039   5.504
    2PC     H5A 1685   2.559   0.069   5.561
    2PC     H5B 1686   2.413   0.125   5.474
    2PC     H5C 1687   2.494  -0.029   5.421
    2PC     O33 1688   1.932  -0.020   5.539
    2PC     O34 1689   1.874  -0.229   5.465
    2PC     O21 1690   1.848   0.079   5.012
    2PC     C21 1691   1.752   0.079   4.918
    2PC     O22 1692   1.633   0.081   4.943
    3OL     C12 1693   1.813   0.084   4.781
    3OL     H2R 1694   1.817  -0.018   4.741
    3OL     H2S 1695   1.910   0.136   4.783
    3OL     C13 1696   1.723   0.172   4.693
    3OL     H3R 1697   1.715   0.269   4.743
    3OL     H3S 1698   1.627   0.123   4.686
    3OL     C14 1699   1.771   0.199   4.550
    3OL     H4R 1700   1.797   0.105   4.500
    3OL     H4S 1701   1.872   0.242   4.555
    3OL     C15 1702   1.690   0.296   4.463
    3OL     H5R 1703   1.734   0.396   4.460
    3OL     H5S 1704   1.590   0.318   4.500
    3OL     C16 1705   1.672   0.254   4.317
    3OL     H6R 1706   1.592   0.309   4.266
    3OL     H6S 1707   1.643   0.149   4.308
    3OL     C17 1708   1.802   0.284   4.241
    3OL     H7R 1709   1.890   0.229   4.276
    3OL     H7S 1710   1.825   0.389   4.260
    3OL     C18 1711   1.798   0.251   4.091
    3OL     H8R 1712   1.785   0.144   4.075
    3OL     H8S 1713   1.893   0.277   4.044
    3OL     C19 1714   1.693   0.334   4.022
    3OL     H9R 1715   1.718   0.440   4.027
    3OL    C110 1716   1.586   0.282   3.963
    3OL    H10R 1717   1.507   0.341   3.918
    3OL    C111 1718   1.566   0.134   3.944
    3OL    H11R 1719   1.495   0.100   4.019
    3OL    H11S 1720   1.652   0.066   3.946
    3OL    C112 1721   1.505   0.106   3.806
    3OL    H12R 1722   1.581   0.139   3.735
    3OL    H12S 1723   1.420   0.171   3.784
    3OL    C113 1724   1.473  -0.043   3.786
    3OL    H13R 1725   1.392  -0.063   3.857
    3OL    H13S 1726   1.560  -0.101   3.817
    3OL    C114 1727   1.435  -0.079   3.642
    3OL    H14R 1728   1.405  -0.184   3.634
    3OL    H14S 1729   1.529  -0.073   3.587
    3OL    C115 1730   1.337   0.007   3.561
    3OL    H15R 1731   1.354  -0.029   3.460
    3OL    H15S 1732   1.361   0.113   3.555
    3OL    C116 1733   1.188  -0.009   3.593
    3OL    H16R 1734   1.164   0.029   3.692
    3OL    H16S 1735   1.139  -0.107   3.598
    3OL    C117 1736   1.106   0.077   3.495
    3OL    H17R 1737   1.108   0.036   3.394
    3OL    H17S 1738   1.151   0.176   3.484
    3OL    C118 1739   0.961   0.099   3.540
    3OL    H18R 1740   0.905   0.164   3.473
    3OL    H18S 1741   0.965   0.161   3.630
    3OL    H18T 1742   0.902   0.010   3.565
    1PA    C116 1743   0.324   0.948   4.694
    1PA    H16R 1744   0.269   1.042   4.701
    1PA    H16S 1745   0.366   0.921   4.791
    1PA    H16T 1746   0.252   0.868   4.671
    1PA    C115 1747   0.428   0.942   4.581
    1PA    H15R 1748   0.513   1.009   4.598
    1PA    H15S 1749   0.475   0.845   4.600
    1PA    C114 1750   0.376   0.956   4.438
    1PA    H14R 1751   0.291   0.890   4.418
    1PA    H14S 1752   0.322   1.051   4.425
    1PA    C113 1753   0.485   0.934   4.332
    1PA    H13R 1754   0.573   0.997   4.340
    1PA    H13S 1755   0.518   0.830   4.340
    1PA    C112 1756   0.422   0.957   4.194
    1PA    H12R 1757   0.492   0.902   4.129
    1PA    H12S 1758   0.327   0.905   4.184
    1PA    C111 1759   0.432   1.101   4.141
    1PA    H11R 1760   0.532   1.142   4.159
    1PA    H11S 1761   0.405   1.094   4.036
    1PA    C110 1762   0.332   1.201   4.200
    1PA    H10R 1763   0.347   1.198   4.308
    1PA    H10S 1764   0.351   1.301   4.161
    1PA     C19 1765   0.189   1.158   4.167
    1PA     H9R 1766   0.177   1.170   4.060
    1PA     H9S 1767   0.182   1.052   4.195
    1PA     C18 1768   0.088   1.234   4.255
    1PA     H8R 1769  -0.014   1.216   4.222
    1PA     H8S 1770   0.109   1.187   4.351
    1PA     C17 1771   0.106   1.385   4.273
    1PA     H7R 1772   0.202   1.408   4.319
    1PA     H7S 1773   0.116   1.423   4.171
    1PA     C16 1774  -0.008   1.457   4.347
    1PA     H6R 1775   0.002   1.565   4.334
    1PA     H6S 1776  -0.104   1.425   4.306
    1PA     C15 1777  -0.022   1.430   4.498
    1PA     H5R 1778  -0.120   1.470   4.525
    1PA     H5S 1779  -0.022   1.323   4.520
    1PA     C14 1780   0.090   1.489   4.585
    1PA     H4R 1781   0.183   1.439   4.557
    1PA     H4S 1782   0.109   1.595   4.570
    1PA     C13 1783   0.061   1.453   4.731
    1PA     H3R 1784   0.135   1.509   4.789
    1PA     H3S 1785  -0.037   1.490   4.763
    1PA     C12 1786   0.077   1.303   4.756
    1PA     H2R 1787  -0.005   1.242   4.717
    1PA     H2S 1788   0.168   1.264   4.710
    2PC     C11 1789   0.102   1.273   4.902
    2PC     O12 1790   0.077   1.346   4.995
    2PC     O11 1791   0.162   1.153   4.910
    2PC      C1 1792   0.195   1.090   5.035
    2PC      HR 1793   0.240   0.994   5.008
    2PC      HS 1794   0.266   1.158   5.082
    2PC      C2 1795   0.065   1.068   5.113
    2PC      HX 1796  -0.012   1.143   5.094
    2PC      C3 1797   0.068   1.063   5.267
    2PC      HA 1798   0.038   1.159   5.309
    2PC      HB 1799  -0.006   0.987   5.294
    2PC     O31 1800   0.191   1.010   5.320
    2PC     P31 1801   0.210   1.028   5.478
    2PC     O32 1802   0.363   1.076   5.488
    2PC     C31 1803   0.382   1.210   5.440
    2PC     H1A 1804   0.327   1.241   5.351
    2PC     H1B 1805   0.349   1.282   5.516
    2PC     C32 1806   0.532   1.233   5.414
    2PC     H2A 1807   0.590   1.175   5.484
    2PC     H2B 1808   0.548   1.189   5.315
    2PC     N31 1809   0.571   1.377   5.429
    2PC     C33 1810   0.510   1.464   5.323
    2PC     H3A 1811   0.546   1.567   5.330
    2PC     H3B 1812   0.549   1.424   5.230
    2PC     H3C 1813   0.403   1.447   5.332
    2PC     C34 1814   0.535   1.429   5.565
    2PC     H4A 1815   0.558   1.348   5.633
    2PC     H4B 1816   0.602   1.510   5.594
    2PC     H4C 1817   0.428   1.451   5.567
    2PC     C35 1818   0.719   1.389   5.408
    2PC     H5A 1819   0.771   1.330   5.484
    2PC     H5B 1820   0.759   1.489   5.421
    2PC     H5C 1821   0.730   1.342   5.310
    2PC     O33 1822   0.099   1.099   5.544
    2PC     O34 1823   0.219   0.894   5.539
    2PC     O21 1824   0.004   0.945   5.068
    2PC     C21 1825  -0.094   0.954   4.978
    2PC     O22 1826  -0.132   1.054   4.919
    3OL     C12 1827  -0.132   0.814   4.937
    3OL     H2R 1828  -0.241   0.813   4.929
    3OL     H2S 1829  -0.110   0.760   5.029
    3OL     C13 1830  -0.055   0.753   4.818
    3OL     H3R 1831  -0.067   0.644   4.820
    3OL     H3S 1832   0.050   0.780   4.829
    3OL     C14 1833  -0.123   0.811   4.693
    3OL     H4R 1834  -0.118   0.920   4.690
    3OL     H4S 1835  -0.231   0.796   4.694
    3OL     C15 1836  -0.061   0.746   4.569
    3OL     H5R 1837  -0.069   0.637   4.560
    3OL     H5S 1838   0.045   0.771   4.567
    3OL     C16 1839  -0.121   0.793   4.435
    3OL     H6R 1840  -0.112   0.902   4.432
    3OL     H6S 1841  -0.227   0.768   4.441
    3OL     C17 1842  -0.064   0.719   4.314
    3OL     H7R 1843  -0.062   0.612   4.338
    3OL     H7S 1844   0.039   0.754   4.301
    3OL     C18 1845  -0.153   0.750   4.193
    3OL     H8R 1846  -0.163   0.858   4.179
    3OL     H8S 1847  -0.254   0.713   4.213
    3OL     C19 1848  -0.101   0.683   4.068
    3OL     H9R 1849  -0.037   0.746   4.008
    3OL    C110 1850  -0.124   0.558   4.030
    3OL    H10R 1851  -0.067   0.519   3.947
    3OL    C111 1852  -0.212   0.457   4.100
    3OL    H11R 1853  -0.295   0.430   4.034
    3OL    H11S 1854  -0.260   0.490   4.192
    3OL    C112 1855  -0.131   0.330   4.129
    3OL    H12R 1856  -0.088   0.288   4.038
    3OL    H12S 1857  -0.202   0.256   4.168
    3OL    C113 1858  -0.027   0.347   4.241
    3OL    H13R 1859  -0.085   0.378   4.328
    3OL    H13S 1860   0.050   0.423   4.223
    3OL    C114 1861   0.048   0.217   4.269
    3OL    H14R 1862   0.143   0.247   4.314
    3OL    H14S 1863   0.078   0.161   4.180
    3OL    C115 1864  -0.019   0.121   4.369
    3OL    H15R 1865  -0.116   0.102   4.322
    3OL    H15S 1866  -0.032   0.166   4.468
    3OL    C116 1867   0.059  -0.010   4.384
    3OL    H16R 1868   0.158   0.016   4.424
    3OL    H16S 1869   0.051  -0.048   4.282
    3OL    C117 1870  -0.008  -0.117   4.472
    3OL    H17R 1871   0.047  -0.208   4.447
    3OL    H17S 1872  -0.116  -0.119   4.455
    3OL    C118 1873   0.005  -0.098   4.624
    3OL    H18R 1874  -0.040  -0.007   4.665
    3OL    H18S 1875   0.110  -0.097   4.651
    3OL    H18T 1876  -0.045  -0.184   4.670
    1PA    C116 1877   4.289   3.362   3.656
    1PA    H16R 1878   4.214   3.427   3.610
    1PA    H16S 1879   4.312   3.280   3.588
    1PA    H16T 1880   4.375   3.430   3.656
    1PA    C115 1881   4.263   3.315   3.800
    1PA    H15R 1882   4.184   3.240   3.798
    1PA    H15S 1883   4.359   3.280   3.838
    1PA    C114 1884   4.203   3.429   3.883
    1PA    H14R 1885   4.282   3.500   3.909
    1PA    H14S 1886   4.131   3.480   3.819
    1PA    C113 1887   4.145   3.370   4.013
    1PA    H13R 1888   4.084   3.452   4.052
    1PA    H13S 1889   4.076   3.291   3.984
    1PA    C112 1890   4.242   3.330   4.125
    1PA    H12R 1891   4.298   3.243   4.088
    1PA    H12S 1892   4.314   3.404   4.159
    1PA    C111 1893   4.157   3.275   4.241
    1PA    H11R 1894   4.091   3.351   4.284
    1PA    H11S 1895   4.095   3.189   4.215
    1PA    C110 1896   4.243   3.226   4.358
    1PA    H10R 1897   4.280   3.129   4.325
    1PA    H10S 1898   4.329   3.293   4.368
    1PA     C19 1899   4.167   3.197   4.488
    1PA     H9R 1900   4.073   3.145   4.468
    1PA     H9S 1901   4.217   3.123   4.550
    1PA     C18 1902   4.137   3.320   4.575
    1PA     H8R 1903   4.227   3.374   4.603
    1PA     H8S 1904   4.090   3.393   4.508
    1PA     C17 1905   4.033   3.272   4.677
    1PA     H7R 1906   3.939   3.243   4.629
    1PA     H7S 1907   4.072   3.189   4.736
    1PA     C16 1908   3.980   3.374   4.779
    1PA     H6R 1909   3.978   3.472   4.732
    1PA     H6S 1910   3.882   3.356   4.823
    1PA     C15 1911   4.076   3.390   4.898
    1PA     H5R 1912   4.089   3.296   4.953
    1PA     H5S 1913   4.169   3.440   4.869
    1PA     C14 1914   4.017   3.490   4.999
    1PA     H4R 1915   3.981   3.580   4.949
    1PA     H4S 1916   3.930   3.434   5.034
    1PA     C13 1917   4.114   3.524   5.112
    1PA     H3R 1918   4.167   3.432   5.138
    1PA     H3S 1919   4.194   3.593   5.085
    1PA     C12 1920   4.030   3.565   5.234
    1PA     H2R 1921   3.977   3.658   5.212
    1PA     H2S 1922   3.958   3.484   5.250
    2PC     C11 1923   4.122   3.584   5.352
    2PC     O12 1924   4.192   3.505   5.413
    2PC     O11 1925   4.127   3.714   5.385
    2PC      C1 1926   4.168   3.768   5.511
    2PC      HR 1927   4.134   3.871   5.523
    2PC      HS 1928   4.127   3.702   5.588
    2PC      C2 1929   4.321   3.777   5.515
    2PC      HX 1930   4.359   3.683   5.474
    2PC      C3 1931   4.374   3.820   5.652
    2PC      HA 1932   4.334   3.917   5.681
    2PC      HB 1933   4.327   3.750   5.722
    2PC     O31 1934   4.517   3.830   5.662
    2PC     P31 1935   4.572   3.900   5.796
    2PC     O32 1936   4.708   3.963   5.742
    2PC     C31 1937   4.827   3.882   5.740
    2PC     H1A 1938   4.841   3.834   5.837
    2PC     H1B 1939   4.802   3.800   5.672
    2PC     C32 1940   4.947   3.961   5.686
    2PC     H2A 1941   5.034   3.896   5.686
    2PC     H2B 1942   4.928   4.001   5.586
    2PC     N31 1943   4.997   4.078   5.765
    2PC     C33 1944   4.902   4.192   5.781
    2PC     H3A 1945   4.870   4.214   5.679
    2PC     H3B 1946   4.817   4.160   5.841
    2PC     H3C 1947   4.946   4.282   5.824
    2PC     C34 1948   5.030   4.025   5.902
    2PC     H4A 1949   5.108   3.953   5.880
    2PC     H4B 1950   5.075   4.104   5.962
    2PC     H4C 1951   4.935   3.986   5.938
    2PC     C35 1952   5.121   4.124   5.694
    2PC     H5A 1953   5.150   4.209   5.757
    2PC     H5B 1954   5.101   4.155   5.592
    2PC     H5C 1955   5.198   4.047   5.694
    2PC     O33 1956   4.489   4.015   5.839
    2PC     O34 1957   4.593   3.805   5.908
    2PC     O21 1958   4.362   3.883   5.426
    2PC     C21 1959   4.487   3.879   5.378
    2PC     O22 1960   4.547   3.775   5.359
    3OL     C12 1961   4.536   4.015   5.334
    3OL     H2R 1962   4.620   4.030   5.402
    3OL     H2S 1963   4.457   4.088   5.348
    3OL     C13 1964   4.559   4.027   5.182
    3OL     H3R 1965   4.469   3.990   5.133
    3OL     H3S 1966   4.644   3.963   5.159
    3OL     C14 1967   4.577   4.169   5.126
    3OL     H4R 1968   4.664   4.203   5.182
    3OL     H4S 1969   4.488   4.227   5.150
    3OL     C15 1970   4.614   4.173   4.977
    3OL     H5R 1971   4.523   4.137   4.929
    3OL     H5S 1972   4.702   4.116   4.949
    3OL     C16 1973   4.642   4.322   4.952
    3OL     H6R 1974   4.566   4.380   5.004
    3OL     H6S 1975   4.623   4.331   4.845
    3OL     C17 1976   4.787   4.366   4.974
    3OL     H7R 1977   4.854   4.284   4.947
    3OL     H7S 1978   4.796   4.375   5.083
    3OL     C18 1979   4.805   4.505   4.911
    3OL     H8R 1980   4.896   4.549   4.952
    3OL     H8S 1981   4.722   4.569   4.939
    3OL     C19 1982   4.814   4.496   4.760
    3OL     H9R 1983   4.747   4.427   4.709
    3OL    C110 1984   4.900   4.558   4.682
    3OL    H10R 1985   4.899   4.530   4.577
    3OL    C111 1986   4.997   4.664   4.729
    3OL    H11R 1987   5.095   4.616   4.727
    3OL    H11S 1988   4.967   4.699   4.828
    3OL    C112 1989   5.013   4.781   4.631
    3OL    H12R 1990   5.090   4.836   4.685
    3OL    H12S 1991   4.923   4.842   4.636
    3OL    C113 1992   5.057   4.738   4.491
    3OL    H13R 1993   4.982   4.667   4.454
    3OL    H13S 1994   5.148   4.681   4.507
    3OL    C114 1995   5.076   4.850   4.388
    3OL    H14R 1996   5.161   4.909   4.424
    3OL    H14S 1997   4.983   4.908   4.388
    3OL    C115 1998   5.107   4.810   4.243
    3OL    H15R 1999   5.136   4.900   4.188
    3OL    H15S 2000   5.018   4.778   4.188
    3OL    C116 2001   5.218   4.704   4.247
    3OL    H16R 2002   5.173   4.608   4.272
    3OL    H16S 2003   5.294   4.728   4.322
    3OL    C117 2004   5.288   4.681   4.113
    3OL    H17R 2005   5.359   4.598   4.125
    3OL    H17S 2006   5.347   4.767   4.081
    3OL    C118 2007   5.186   4.656   4.001
    3OL    H18R 2008   5.243   4.626   3.912
    3OL    H18S 2009   5.127   4.744   3.976
    3OL    H18T 2010   5.123   4.569   4.019
    1PA    C116 2011   3.223  -0.397   4.314
    1PA    H16R 2012   3.192  -0.474   4.243
    1PA    H16S 2013   3.331  -0.405   4.330
    1PA    H16T 2014   3.198  -0.298   4.276
    1PA    C115 2015   3.153  -0.419   4.449
    1PA    H15R 2016   3.050  -0.388   4.434
    1PA    H15S 2017   3.158  -0.527   4.469
    1PA    C114 2018   3.221  -0.345   4.565
    1PA    H14R 2019   3.193  -0.396   4.658
    1PA    H14S 2020   3.330  -0.354   4.562
    1PA    C113 2021   3.170  -0.200   4.561
    1PA    H13R 2022   3.162  -0.156   4.461
    1PA    H13S 2023   3.068  -0.194   4.600
    1PA    C112 2024   3.265  -0.104   4.634
    1PA    H12R 2025   3.368  -0.129   4.608
    1PA    H12S 2026   3.254  -0.001   4.601
    1PA    C111 2027   3.237  -0.092   4.784
    1PA    H11R 2028   3.130  -0.099   4.802
    1PA    H11S 2029   3.274  -0.177   4.842
    1PA    C110 2030   3.309   0.025   4.853
    1PA    H10R 2031   3.276   0.120   4.811
    1PA    H10S 2032   3.286   0.030   4.959
    1PA     C19 2033   3.462   0.016   4.843
    1PA     H9R 2034   3.498  -0.082   4.875
    1PA     H9S 2035   3.487   0.024   4.737
    1PA     C18 2036   3.538   0.125   4.919
    1PA     H8R 2037   3.527   0.223   4.872
    1PA     H8S 2038   3.492   0.133   5.018
    1PA     C17 2039   3.685   0.083   4.920
    1PA     H7R 2040   3.708   0.051   4.818
    1PA     H7S 2041   3.752   0.169   4.929
    1PA     C16 2042   3.720  -0.018   5.031
    1PA     H6R 2043   3.641  -0.092   5.035
    1PA     H6S 2044   3.816  -0.059   4.999
    1PA     C15 2045   3.746   0.040   5.170
    1PA     H5R 2046   3.844   0.090   5.173
    1PA     H5S 2047   3.670   0.114   5.195
    1PA     C14 2048   3.744  -0.066   5.281
    1PA     H4R 2049   3.646  -0.114   5.277
    1PA     H4S 2050   3.819  -0.144   5.266
    1PA     C13 2051   3.758   0.005   5.417
    1PA     H3R 2052   3.853   0.056   5.433
    1PA     H3S 2053   3.686   0.085   5.435
    1PA     C12 2054   3.736  -0.103   5.524
    1PA     H2R 2055   3.647  -0.162   5.502
    1PA     H2S 2056   3.823  -0.169   5.535
    2PC     C11 2057   3.714  -0.043   5.660
    2PC     O12 2058   3.607  -0.004   5.703
    2PC     O11 2059   3.825  -0.009   5.728
    2PC      C1 2060   3.814   0.055   5.856
    2PC      HR 2061   3.727   0.121   5.865
    2PC      HS 2062   3.818  -0.025   5.930
    2PC      C2 2063   3.934   0.150   5.865
    2PC      HX 2064   4.029   0.101   5.843
    2PC      C3 2065   3.948   0.205   6.008
    2PC      HA 2066   3.966   0.128   6.083
    2PC      HB 2067   4.023   0.284   6.004
    2PC     O31 2068   3.825   0.267   6.048
    2PC     P31 2069   3.800   0.327   6.194
    2PC     O32 2070   3.796   0.487   6.180
    2PC     C31 2071   3.924   0.552   6.167
    2PC     H1A 2072   3.996   0.507   6.236
    2PC     H1B 2073   3.970   0.534   6.070
    2PC     C32 2074   3.907   0.699   6.208
    2PC     H2A 2075   4.001   0.739   6.170
    2PC     H2B 2076   3.823   0.744   6.156
    2PC     N31 2077   3.894   0.734   6.353
    2PC     C33 2078   3.831   0.870   6.361
    2PC     H3A 2079   3.730   0.868   6.321
    2PC     H3B 2080   3.822   0.906   6.463
    2PC     H3C 2081   3.883   0.944   6.300
    2PC     C34 2082   3.803   0.645   6.433
    2PC     H4A 2083   3.841   0.543   6.430
    2PC     H4B 2084   3.800   0.678   6.537
    2PC     H4C 2085   3.700   0.645   6.397
    2PC     C35 2086   4.028   0.734   6.420
    2PC     H5A 2087   4.048   0.635   6.462
    2PC     H5B 2088   4.042   0.802   6.503
    2PC     H5C 2089   4.099   0.768   6.344
    2PC     O33 2090   3.673   0.278   6.252
    2PC     O34 2091   3.917   0.280   6.272
    2PC     O21 2092   3.911   0.267   5.784
    2PC     C21 2093   3.961   0.271   5.660
    2PC     O22 2094   4.043   0.190   5.620
    3OL     C12 2095   3.929   0.398   5.585
    3OL     H2R 2096   4.020   0.455   5.569
    3OL     H2S 2097   3.862   0.452   5.652
    3OL     C13 2098   3.858   0.364   5.453
    3OL     H3R 2099   3.759   0.324   5.473
    3OL     H3S 2100   3.910   0.281   5.404
    3OL     C14 2101   3.847   0.483   5.357
    3OL     H4R 2102   3.946   0.497   5.312
    3OL     H4S 2103   3.817   0.575   5.407
    3OL     C15 2104   3.749   0.456   5.242
    3OL     H5R 2105   3.647   0.461   5.279
    3OL     H5S 2106   3.769   0.356   5.203
    3OL     C16 2107   3.757   0.553   5.123
    3OL     H6R 2108   3.695   0.520   5.039
    3OL     H6S 2109   3.862   0.556   5.095
    3OL     C17 2110   3.718   0.697   5.157
    3OL     H7R 2111   3.789   0.730   5.233
    3OL     H7S 2112   3.621   0.710   5.206
    3OL     C18 2113   3.727   0.781   5.028
    3OL     H8R 2114   3.830   0.771   4.993
    3OL     H8S 2115   3.719   0.886   5.057
    3OL     C19 2116   3.617   0.742   4.933
    3OL     H9R 2117   3.528   0.712   4.987
    3OL    C110 2118   3.617   0.713   4.804
    3OL    H10R 2119   3.525   0.677   4.760
    3OL    C111 2120   3.727   0.750   4.706
    3OL    H11R 2121   3.764   0.654   4.671
    3OL    H11S 2122   3.811   0.799   4.756
    3OL    C112 2123   3.660   0.841   4.603
    3OL    H12R 2124   3.735   0.906   4.557
    3OL    H12S 2125   3.596   0.907   4.663
    3OL    C113 2126   3.587   0.773   4.486
    3OL    H13R 2127   3.517   0.836   4.432
    3OL    H13S 2128   3.525   0.696   4.533
    3OL    C114 2129   3.680   0.706   4.383
    3OL    H14R 2130   3.739   0.626   4.429
    3OL    H14S 2131   3.755   0.783   4.362
    3OL    C115 2132   3.606   0.652   4.261
    3OL    H15R 2133   3.544   0.735   4.229
    3OL    H15S 2134   3.546   0.563   4.281
    3OL    C116 2135   3.708   0.616   4.151
    3OL    H16R 2136   3.776   0.544   4.197
    3OL    H16S 2137   3.764   0.708   4.130
    3OL    C117 2138   3.645   0.557   4.024
    3OL    H17R 2139   3.559   0.616   3.992
    3OL    H17S 2140   3.604   0.461   4.057
    3OL    C118 2141   3.748   0.530   3.914
    3OL    H18R 2142   3.802   0.620   3.886
    3OL    H18S 2143   3.693   0.499   3.825
    3OL    H18T 2144   3.830   0.463   3.939
    1PA    C116 2145   4.408   5.888   3.519
    1PA    H16R 2146   4.481   5.809   3.504
    1PA    H16S 2147   4.433   5.970   3.451
    1PA    H16T 2148   4.311   5.855   3.480
    1PA    C115 2149   4.400   5.935   3.665
    1PA    H15R 2150   4.492   5.985   3.697
    1PA    H15S 2151   4.325   6.015   3.663
    1PA    C114 2152   4.347   5.827   3.760
    1PA    H14R 2153   4.247   5.791   3.735
    1PA    H14S 2154   4.410   5.738   3.758
    1PA    C113 2155   4.350   5.888   3.901
    1PA    H13R 2156   4.448   5.931   3.924
    1PA    H13S 2157   4.271   5.961   3.916
    1PA    C112 2158   4.321   5.774   4.000
    1PA    H12R 2159   4.215   5.756   3.979
    1PA    H12S 2160   4.388   5.691   3.976
    1PA    C111 2161   4.338   5.813   4.147
    1PA    H11R 2162   4.442   5.835   4.174
    1PA    H11S 2163   4.280   5.900   4.181
    1PA    C110 2164   4.278   5.700   4.232
    1PA    H10R 2165   4.169   5.696   4.221
    1PA    H10S 2166   4.313   5.604   4.194
    1PA     C19 2167   4.313   5.716   4.380
    1PA     H9R 2168   4.326   5.614   4.418
    1PA     H9S 2169   4.405   5.772   4.399
    1PA     C18 2170   4.200   5.774   4.465
    1PA     H8R 2171   4.179   5.876   4.433
    1PA     H8S 2172   4.108   5.717   4.452
    1PA     C17 2173   4.237   5.772   4.614
    1PA     H7R 2174   4.284   5.675   4.631
    1PA     H7S 2175   4.301   5.851   4.654
    1PA     C16 2176   4.116   5.772   4.710
    1PA     H6R 2177   4.065   5.866   4.687
    1PA     H6S 2178   4.044   5.693   4.689
    1PA     C15 2179   4.156   5.772   4.858
    1PA     H5R 2180   4.234   5.846   4.875
    1PA     H5S 2181   4.063   5.812   4.900
    1PA     C14 2182   4.199   5.640   4.924
    1PA     H4R 2183   4.123   5.564   4.903
    1PA     H4S 2184   4.289   5.605   4.873
    1PA     C13 2185   4.233   5.656   5.073
    1PA     H3R 2186   4.334   5.696   5.080
    1PA     H3S 2187   4.168   5.725   5.129
    1PA     C12 2188   4.223   5.526   5.153
    1PA     H2R 2189   4.123   5.481   5.144
    1PA     H2S 2190   4.293   5.454   5.109
    2PC     C11 2191   4.253   5.536   5.300
    2PC     O12 2192   4.159   5.541   5.377
    2PC     O11 2193   4.379   5.507   5.335
    2PC      C1 2194   4.401   5.460   5.469
    2PC      HR 2195   4.507   5.470   5.494
    2PC      HS 2196   4.345   5.525   5.538
    2PC      C2 2197   4.366   5.312   5.484
    2PC      HX 2198   4.257   5.304   5.480
    2PC      C3 2199   4.395   5.255   5.624
    2PC      HA 2200   4.502   5.248   5.647
    2PC      HB 2201   4.353   5.320   5.701
    2PC     O31 2202   4.335   5.126   5.646
    2PC     P31 2203   4.354   5.043   5.782
    2PC     O32 2204   4.232   5.069   5.883
    2PC     C31 2205   4.202   5.205   5.922
    2PC     H1A 2206   4.294   5.248   5.963
    2PC     H1B 2207   4.172   5.260   5.833
    2PC     C32 2208   4.103   5.214   6.039
    2PC     H2A 2209   4.127   5.143   6.118
    2PC     H2B 2210   4.106   5.316   6.077
    2PC     N31 2211   3.959   5.183   6.008
    2PC     C33 2212   3.887   5.285   5.924
    2PC     H3A 2213   3.929   5.288   5.824
    2PC     H3B 2214   3.785   5.246   5.925
    2PC     H3C 2215   3.879   5.386   5.965
    2PC     C34 2216   3.964   5.049   5.942
    2PC     H4A 2217   3.863   5.019   5.914
    2PC     H4B 2218   4.023   5.054   5.850
    2PC     H4C 2219   4.000   4.985   6.023
    2PC     C35 2220   3.890   5.174   6.140
    2PC     H5A 2221   3.955   5.123   6.212
    2PC     H5B 2222   3.793   5.124   6.128
    2PC     H5C 2223   3.870   5.273   6.181
    2PC     O33 2224   4.387   4.906   5.739
    2PC     O34 2225   4.490   5.066   5.836
    2PC     O21 2226   4.430   5.242   5.375
    2PC     C21 2227   4.393   5.121   5.332
    2PC     O22 2228   4.296   5.059   5.371
    3OL     C12 2229   4.480   5.075   5.218
    3OL     H2R 2230   4.554   5.009   5.265
    3OL     H2S 2231   4.527   5.149   5.154
    3OL     C13 2232   4.396   4.990   5.122
    3OL     H3R 2233   4.326   5.052   5.067
    3OL     H3S 2234   4.340   4.920   5.185
    3OL     C14 2235   4.478   4.921   5.012
    3OL     H4R 2236   4.560   4.865   5.058
    3OL     H4S 2237   4.529   4.990   4.945
    3OL     C15 2238   4.379   4.828   4.940
    3OL     H5R 2239   4.304   4.893   4.897
    3OL     H5S 2240   4.335   4.773   5.023
    3OL     C16 2241   4.449   4.735   4.840
    3OL     H6R 2242   4.520   4.672   4.894
    3OL     H6S 2243   4.506   4.793   4.767
    3OL     C17 2244   4.348   4.642   4.771
    3OL     H7R 2245   4.281   4.702   4.709
    3OL     H7S 2246   4.290   4.586   4.844
    3OL     C18 2247   4.416   4.540   4.678
    3OL     H8R 2248   4.475   4.466   4.732
    3OL     H8S 2249   4.492   4.593   4.620
    3OL     C19 2250   4.312   4.479   4.586
    3OL     H9R 2251   4.271   4.548   4.514
    3OL    C110 2252   4.260   4.359   4.607
    3OL    H10R 2253   4.176   4.330   4.545
    3OL    C111 2254   4.315   4.249   4.695
    3OL    H11R 2255   4.221   4.205   4.728
    3OL    H11S 2256   4.353   4.288   4.790
    3OL    C112 2257   4.392   4.135   4.625
    3OL    H12R 2258   4.343   4.096   4.536
    3OL    H12S 2259   4.400   4.058   4.702
    3OL    C113 2260   4.532   4.185   4.586
    3OL    H13R 2261   4.588   4.213   4.675
    3OL    H13S 2262   4.532   4.277   4.527
    3OL    C114 2263   4.599   4.071   4.508
    3OL    H14R 2264   4.549   4.066   4.411
    3OL    H14S 2265   4.583   3.976   4.559
    3OL    C115 2266   4.749   4.098   4.490
    3OL    H15R 2267   4.809   4.080   4.580
    3OL    H15S 2268   4.772   4.202   4.464
    3OL    C116 2269   4.810   3.995   4.394
    3OL    H16R 2270   4.741   3.983   4.310
    3OL    H16S 2271   4.803   3.892   4.431
    3OL    C117 2272   4.953   4.024   4.347
    3OL    H17R 2273   5.007   4.051   4.438
    3OL    H17S 2274   4.950   4.111   4.280
    3OL    C118 2275   5.013   3.909   4.266
    3OL    H18R 2276   5.109   3.930   4.219
    3OL    H18S 2277   4.940   3.879   4.190
    3OL    H18T 2278   5.032   3.824   4.332
    1PA    C116 2279   0.346   5.942   3.323
    1PA    H16R 2280   0.377   5.930   3.219
    1PA    H16S 2281   0.242   5.973   3.311
    1PA    H16T 2282   0.348   5.848   3.378
    1PA    C115 2283   0.427   6.057   3.385
    1PA    H15R 2284   0.529   6.021   3.404
    1PA    H15S 2285   0.436   6.147   3.325
    1PA    C114 2286   0.388   6.084   3.531
    1PA    H14R 2287   0.282   6.111   3.530
    1PA    H14S 2288   0.397   5.993   3.591
    1PA    C113 2289   0.478   6.188   3.600
    1PA    H13R 2290   0.481   6.269   3.527
    1PA    H13S 2291   0.434   6.212   3.697
    1PA    C112 2292   0.622   6.138   3.617
    1PA    H12R 2293   0.631   6.049   3.679
    1PA    H12S 2294   0.669   6.108   3.523
    1PA    C111 2295   0.712   6.245   3.682
    1PA    H11R 2296   0.817   6.226   3.660
    1PA    H11S 2297   0.694   6.348   3.651
    1PA    C110 2298   0.712   6.241   3.836
    1PA    H10R 2299   0.758   6.331   3.878
    1PA    H10S 2300   0.612   6.246   3.880
    1PA     C19 2301   0.781   6.115   3.889
    1PA     H9R 2302   0.716   6.028   3.900
    1PA     H9S 2303   0.857   6.087   3.815
    1PA     C18 2304   0.850   6.122   4.026
    1PA     H8R 2305   0.881   6.021   4.055
    1PA     H8S 2306   0.941   6.179   4.007
    1PA     C17 2307   0.773   6.203   4.131
    1PA     H7R 2308   0.733   6.298   4.094
    1PA     H7S 2309   0.691   6.146   4.174
    1PA     C16 2310   0.871   6.237   4.244
    1PA     H6R 2311   0.927   6.145   4.262
    1PA     H6S 2312   0.946   6.306   4.203
    1PA     C15 2313   0.807   6.298   4.369
    1PA     H5R 2314   0.892   6.347   4.417
    1PA     H5S 2315   0.733   6.369   4.332
    1PA     C14 2316   0.737   6.198   4.462
    1PA     H4R 2317   0.669   6.137   4.402
    1PA     H4S 2318   0.808   6.122   4.496
    1PA     C13 2319   0.650   6.260   4.573
    1PA     H3R 2320   0.704   6.338   4.626
    1PA     H3S 2321   0.561   6.311   4.535
    1PA     C12 2322   0.598   6.152   4.670
    1PA     H2R 2323   0.511   6.096   4.633
    1PA     H2S 2324   0.678   6.078   4.677
    2PC     C11 2325   0.553   6.201   4.805
    2PC     O12 2326   0.535   6.319   4.827
    2PC     O11 2327   0.517   6.094   4.878
    2PC      C1 2328   0.465   6.105   5.012
    2PC      HR 2329   0.480   6.004   5.051
    2PC      HS 2330   0.537   6.169   5.066
    2PC      C2 2331   0.318   6.148   5.018
    2PC      HX 2332   0.306   6.242   4.964
    2PC      C3 2333   0.261   6.155   5.160
    2PC      HA 2334   0.306   6.240   5.211
    2PC      HB 2335   0.153   6.167   5.167
    2PC     O31 2336   0.288   6.030   5.226
    2PC     P31 2337   0.225   6.016   5.373
    2PC     O32 2338   0.282   6.135   5.463
    2PC     C31 2339   0.372   6.101   5.571
    2PC     H1A 2340   0.330   6.029   5.642
    2PC     H1B 2341   0.456   6.046   5.527
    2PC     C32 2342   0.426   6.233   5.627
    2PC     H2A 2343   0.529   6.258   5.602
    2PC     H2B 2344   0.370   6.315   5.583
    2PC     N31 2345   0.421   6.250   5.776
    2PC     C33 2346   0.519   6.159   5.845
    2PC     H3A 2347   0.493   6.149   5.950
    2PC     H3B 2348   0.523   6.063   5.793
    2PC     H3C 2349   0.621   6.196   5.835
    2PC     C34 2350   0.453   6.391   5.816
    2PC     H4A 2351   0.438   6.386   5.924
    2PC     H4B 2352   0.557   6.413   5.792
    2PC     H4C 2353   0.389   6.466   5.770
    2PC     C35 2354   0.283   6.214   5.821
    2PC     H5A 2355   0.214   6.277   5.765
    2PC     H5B 2356   0.266   6.233   5.927
    2PC     H5C 2357   0.256   6.111   5.796
    2PC     O33 2358   0.078   6.034   5.368
    2PC     O34 2359   0.256   5.886   5.437
    2PC     O21 2360   0.239   6.048   4.949
    2PC     C21 2361   0.115   6.075   4.908
    2PC     O22 2362   0.058   6.177   4.941
    3OL     C12 2363   0.047   5.968   4.826
    3OL     H2R 2364  -0.049   6.005   4.791
    3OL     H2S 2365   0.038   5.874   4.881
    3OL     C13 2366   0.139   5.945   4.705
    3OL     H3R 2367   0.217   5.871   4.726
    3OL     H3S 2368   0.188   6.042   4.695
    3OL     C14 2369   0.063   5.902   4.579
    3OL     H4R 2370   0.009   5.990   4.543
    3OL     H4S 2371  -0.007   5.820   4.595
    3OL     C15 2372   0.170   5.867   4.475
    3OL     H5R 2373   0.246   5.945   4.489
    3OL     H5S 2374   0.140   5.883   4.371
    3OL     C16 2375   0.237   5.730   4.486
    3OL     H6R 2376   0.281   5.714   4.585
    3OL     H6S 2377   0.309   5.733   4.404
    3OL     C17 2378   0.152   5.614   4.432
    3OL     H7R 2379   0.126   5.649   4.332
    3OL     H7S 2380   0.066   5.609   4.500
    3OL     C18 2381   0.229   5.481   4.432
    3OL     H8R 2382   0.236   5.446   4.535
    3OL     H8S 2383   0.334   5.500   4.407
    3OL     C19 2384   0.168   5.384   4.334
    3OL     H9R 2385   0.066   5.360   4.363
    3OL    C110 2386   0.208   5.323   4.224
    3OL    H10R 2387   0.136   5.264   4.167
    3OL    C111 2388   0.342   5.349   4.160
    3OL    H11R 2389   0.410   5.266   4.182
    3OL    H11S 2390   0.383   5.439   4.205
    3OL    C112 2391   0.332   5.385   4.011
    3OL    H12R 2392   0.415   5.449   3.980
    3OL    H12S 2393   0.243   5.446   4.000
    3OL    C113 2394   0.324   5.262   3.919
    3OL    H13R 2395   0.290   5.299   3.823
    3OL    H13S 2396   0.255   5.187   3.957
    3OL    C114 2397   0.467   5.209   3.899
    3OL    H14R 2398   0.519   5.202   3.995
    3OL    H14S 2399   0.527   5.285   3.848
    3OL    C115 2400   0.480   5.071   3.834
    3OL    H15R 2401   0.396   5.013   3.874
    3OL    H15S 2402   0.575   5.027   3.863
    3OL    C116 2403   0.464   5.067   3.681
    3OL    H16R 2404   0.562   5.090   3.638
    3OL    H16S 2405   0.387   5.131   3.637
    3OL    C117 2406   0.430   4.927   3.629
    3OL    H17R 2407   0.330   4.909   3.668
    3OL    H17S 2408   0.496   4.851   3.672
    3OL    C118 2409   0.427   4.929   3.476
    3OL    H18R 2410   0.359   5.010   3.446
    3OL    H18S 2411   0.407   4.831   3.433
    3OL    H18T 2412   0.522   4.962   3.434
    1PA    C116 2413   5.943   3.920   3.893
    1PA    H16R 2414   6.027   3.852   3.908
    1PA    H16S 2415   5.891   3.908   3.797
    1PA    H16T 2416   5.880   3.890   3.977
    1PA    C115 2417   5.996   4.063   3.910
    1PA    H15R 2418   6.070   4.070   3.990
    1PA    H15S 2419   6.046   4.098   3.820
    1PA    C114 2420   5.882   4.164   3.930
    1PA    H14R 2421   5.925   4.265   3.932
    1PA    H14S 2422   5.814   4.165   3.845
    1PA    C113 2423   5.802   4.138   4.058
    1PA    H13R 2424   5.752   4.045   4.031
    1PA    H13S 2425   5.855   4.112   4.150
    1PA    C112 2426   5.692   4.240   4.089
    1PA    H12R 2427   5.744   4.320   4.142
    1PA    H12S 2428   5.649   4.278   3.995
    1PA    C111 2429   5.584   4.184   4.183
    1PA    H11R 2430   5.505   4.142   4.122
    1PA    H11S 2431   5.622   4.095   4.234
    1PA    C110 2432   5.530   4.291   4.280
    1PA    H10R 2433   5.613   4.307   4.349
    1PA    H10S 2434   5.522   4.388   4.230
    1PA     C19 2435   5.401   4.256   4.355
    1PA     H9R 2436   5.314   4.245   4.290
    1PA     H9S 2437   5.401   4.162   4.409
    1PA     C18 2438   5.374   4.370   4.454
    1PA     H8R 2439   5.453   4.365   4.529
    1PA     H8S 2440   5.388   4.466   4.403
    1PA     C17 2441   5.232   4.367   4.513
    1PA     H7R 2442   5.222   4.462   4.566
    1PA     H7S 2443   5.151   4.361   4.441
    1PA     C16 2444   5.217   4.256   4.618
    1PA     H6R 2445   5.233   4.160   4.568
    1PA     H6S 2446   5.297   4.262   4.692
    1PA     C15 2447   5.073   4.257   4.672
    1PA     H5R 2448   5.056   4.355   4.717
    1PA     H5S 2449   5.006   4.245   4.587
    1PA     C14 2450   5.046   4.144   4.773
    1PA     H4R 2451   4.940   4.129   4.791
    1PA     H4S 2452   5.075   4.048   4.731
    1PA     C13 2453   5.112   4.168   4.910
    1PA     H3R 2454   5.159   4.266   4.919
    1PA     H3S 2455   5.037   4.163   4.988
    1PA     C12 2456   5.230   4.074   4.938
    1PA     H2R 2457   5.192   3.973   4.947
    1PA     H2S 2458   5.303   4.069   4.857
    2PC     C11 2459   5.291   4.113   5.071
    2PC     O12 2460   5.271   4.217   5.130
    2PC     O11 2461   5.371   4.015   5.117
    2PC      C1 2462   5.439   4.040   5.241
    2PC      HR 2463   5.519   3.966   5.242
    2PC      HS 2464   5.483   4.139   5.249
    2PC      C2 2465   5.349   4.020   5.364
    2PC      HX 2466   5.270   4.096   5.362
    2PC      C3 2467   5.439   4.029   5.488
    2PC      HA 2468   5.519   3.957   5.470
    2PC      HB 2469   5.479   4.130   5.503
    2PC     O31 2470   5.368   3.986   5.605
    2PC     P31 2471   5.446   3.963   5.743
    2PC     O32 2472   5.419   4.104   5.814
    2PC     C31 2473   5.514   4.134   5.919
    2PC     H1A 2474   5.521   4.043   5.978
    2PC     H1B 2475   5.613   4.149   5.875
    2PC     C32 2476   5.482   4.263   5.996
    2PC     H2A 2477   5.376   4.258   6.018
    2PC     H2B 2478   5.537   4.272   6.090
    2PC     N31 2479   5.507   4.393   5.925
    2PC     C33 2480   5.494   4.499   6.031
    2PC     H3A 2481   5.537   4.597   6.007
    2PC     H3B 2482   5.387   4.515   6.040
    2PC     H3C 2483   5.555   4.472   6.117
    2PC     C34 2484   5.644   4.409   5.865
    2PC     H4A 2485   5.725   4.382   5.932
    2PC     H4B 2486   5.634   4.353   5.772
    2PC     H4C 2487   5.637   4.515   5.839
    2PC     C35 2488   5.408   4.416   5.816
    2PC     H5A 2489   5.410   4.520   5.781
    2PC     H5B 2490   5.309   4.407   5.861
    2PC     H5C 2491   5.417   4.342   5.736
    2PC     O33 2492   5.394   3.850   5.823
    2PC     O34 2493   5.590   3.929   5.737
    2PC     O21 2494   5.299   3.885   5.359
    2PC     C21 2495   5.170   3.862   5.387
    2PC     O22 2496   5.089   3.945   5.422
    3OL     C12 2497   5.136   3.715   5.382
    3OL     H2R 2498   5.173   3.665   5.472
    3OL     H2S 2499   5.198   3.670   5.305
    3OL     C13 2500   4.989   3.679   5.359
    3OL     H3R 2501   4.926   3.706   5.444
    3OL     H3S 2502   4.991   3.570   5.350
    3OL     C14 2503   4.923   3.748   5.238
    3OL     H4R 2504   4.919   3.855   5.261
    3OL     H4S 2505   4.827   3.696   5.237
    3OL     C15 2506   4.995   3.720   5.106
    3OL     H5R 2507   5.025   3.616   5.090
    3OL     H5S 2508   5.096   3.761   5.101
    3OL     C16 2509   4.907   3.759   4.987
    3OL     H6R 2510   4.886   3.866   4.986
    3OL     H6S 2511   4.813   3.703   4.995
    3OL     C17 2512   4.973   3.723   4.853
    3OL     H7R 2513   5.011   3.621   4.863
    3OL     H7S 2514   5.061   3.786   4.835
    3OL     C18 2515   4.880   3.731   4.731
    3OL     H8R 2516   4.863   3.835   4.703
    3OL     H8S 2517   4.784   3.686   4.759
    3OL     C19 2518   4.932   3.661   4.608
    3OL     H9R 2519   5.037   3.677   4.583
    3OL    C110 2520   4.858   3.594   4.521
    3OL    H10R 2521   4.913   3.553   4.436
    3OL    C111 2522   4.715   3.551   4.543
    3OL    H11R 2523   4.649   3.627   4.501
    3OL    H11S 2524   4.695   3.546   4.650
    3OL    C112 2525   4.674   3.411   4.498
    3OL    H12R 2526   4.588   3.387   4.561
    3OL    H12S 2527   4.745   3.330   4.516
    3OL    C113 2528   4.618   3.400   4.355
    3OL    H13R 2529   4.546   3.481   4.335
    3OL    H13S 2530   4.563   3.307   4.340
    3OL    C114 2531   4.733   3.393   4.254
    3OL    H14R 2532   4.797   3.307   4.272
    3OL    H14S 2533   4.800   3.478   4.262
    3OL    C115 2534   4.668   3.392   4.115
    3OL    H15R 2535   4.610   3.481   4.090
    3OL    H15S 2536   4.591   3.316   4.101
    3OL    C116 2537   4.776   3.368   4.009
    3OL    H16R 2538   4.844   3.289   4.042
    3OL    H16S 2539   4.844   3.453   4.006
    3OL    C117 2540   4.719   3.321   3.874
    3OL    H17R 2541   4.653   3.234   3.886
    3OL    H17S 2542   4.800   3.284   3.811
    3OL    C118 2543   4.660   3.437   3.793
    3OL    H18R 2544   4.590   3.496   3.853
    3OL    H18S 2545   4.606   3.411   3.702
    3OL    H18T 2546   4.736   3.508   3.759
    1PA    C116 2547   6.237   1.680   3.001
    1PA    H16R 2548   6.168   1.603   2.968
    1PA    H16S 2549   6.335   1.666   2.956
    1PA    H16T 2550   6.197   1.777   2.972
    1PA    C115 2551   6.255   1.677   3.154
    1PA    H15R 2552   6.323   1.757   3.185
    1PA    H15S 2553   6.168   1.694   3.217
    1PA    C114 2554   6.328   1.548   3.191
    1PA    H14R 2555   6.281   1.460   3.145
    1PA    H14S 2556   6.430   1.540   3.153
    1PA    C113 2557   6.331   1.524   3.343
    1PA    H13R 2558   6.238   1.561   3.387
    1PA    H13S 2559   6.345   1.417   3.362
    1PA    C112 2560   6.450   1.583   3.418
    1PA    H12R 2561   6.476   1.531   3.511
    1PA    H12S 2562   6.534   1.574   3.349
    1PA    C111 2563   6.427   1.730   3.458
    1PA    H11R 2564   6.420   1.787   3.365
    1PA    H11S 2565   6.336   1.738   3.517
    1PA    C110 2566   6.537   1.796   3.542
    1PA    H10R 2567   6.636   1.759   3.513
    1PA    H10S 2568   6.542   1.902   3.516
    1PA     C19 2569   6.518   1.782   3.693
    1PA     H9R 2570   6.411   1.793   3.714
    1PA     H9S 2571   6.549   1.684   3.729
    1PA     C18 2572   6.609   1.893   3.748
    1PA     H8R 2573   6.712   1.882   3.714
    1PA     H8S 2574   6.568   1.989   3.715
    1PA     C17 2575   6.605   1.901   3.902
    1PA     H7R 2576   6.646   2.000   3.924
    1PA     H7S 2577   6.505   1.896   3.946
    1PA     C16 2578   6.685   1.790   3.971
    1PA     H6R 2579   6.647   1.689   3.956
    1PA     H6S 2580   6.788   1.779   3.937
    1PA     C15 2581   6.690   1.824   4.121
    1PA     H5R 2582   6.753   1.913   4.128
    1PA     H5S 2583   6.593   1.854   4.162
    1PA     C14 2584   6.758   1.708   4.195
    1PA     H4R 2585   6.710   1.614   4.165
    1PA     H4S 2586   6.863   1.699   4.166
    1PA     C13 2587   6.757   1.718   4.348
    1PA     H3R 2588   6.781   1.820   4.381
    1PA     H3S 2589   6.658   1.685   4.379
    1PA     C12 2590   6.850   1.626   4.427
    1PA     H2R 2591   6.828   1.524   4.396
    1PA     H2S 2592   6.956   1.647   4.409
    2PC     C11 2593   6.824   1.636   4.576
    2PC     O12 2594   6.864   1.551   4.652
    2PC     O11 2595   6.766   1.750   4.618
    2PC      C1 2596   6.711   1.767   4.749
    2PC      HR 2597   6.627   1.704   4.778
    2PC      HS 2598   6.783   1.742   4.828
    2PC      C2 2599   6.666   1.914   4.759
    2PC      HX 2600   6.744   1.982   4.725
    2PC      C3 2601   6.649   1.955   4.906
    2PC      HA 2602   6.747   1.947   4.954
    2PC      HB 2603   6.608   2.056   4.918
    2PC     O31 2604   6.568   1.852   4.966
    2PC     P31 2605   6.519   1.870   5.118
    2PC     O32 2606   6.381   1.788   5.128
    2PC     C31 2607   6.393   1.650   5.087
    2PC     H1A 2608   6.419   1.642   4.981
    2PC     H1B 2609   6.469   1.601   5.149
    2PC     C32 2610   6.249   1.597   5.101
    2PC     H2A 2611   6.185   1.663   5.042
    2PC     H2B 2612   6.246   1.493   5.069
    2PC     N31 2613   6.196   1.583   5.240
    2PC     C33 2614   6.078   1.491   5.237
    2PC     H3A 2615   6.025   1.506   5.143
    2PC     H3B 2616   6.112   1.387   5.243
    2PC     H3C 2617   6.005   1.528   5.309
    2PC     C34 2618   6.300   1.533   5.336
    2PC     H4A 2619   6.365   1.463   5.283
    2PC     H4B 2620   6.364   1.621   5.347
    2PC     H4C 2621   6.258   1.483   5.423
    2PC     C35 2622   6.151   1.720   5.281
    2PC     H5A 2623   6.095   1.710   5.374
    2PC     H5B 2624   6.089   1.771   5.207
    2PC     H5C 2625   6.243   1.777   5.293
    2PC     O33 2626   6.621   1.810   5.207
    2PC     O34 2627   6.521   2.007   5.173
    2PC     O21 2628   6.537   1.933   4.699
    2PC     C21 2629   6.528   1.950   4.566
    2PC     O22 2630   6.627   1.967   4.498
    3OL     C12 2631   6.384   1.951   4.521
    3OL     H2R 2632   6.329   2.042   4.548
    3OL     H2S 2633   6.330   1.867   4.564
    3OL     C13 2634   6.384   1.936   4.368
    3OL     H3R 2635   6.436   1.842   4.346
    3OL     H3S 2636   6.438   2.014   4.315
    3OL     C14 2637   6.241   1.933   4.312
    3OL     H4R 2638   6.187   2.013   4.363
    3OL     H4S 2639   6.204   1.834   4.339
    3OL     C15 2640   6.235   1.941   4.159
    3OL     H5R 2641   6.312   2.009   4.121
    3OL     H5S 2642   6.137   1.984   4.137
    3OL     C16 2643   6.236   1.799   4.101
    3OL     H6R 2644   6.161   1.740   4.152
    3OL     H6S 2645   6.338   1.761   4.109
    3OL     C17 2646   6.203   1.795   3.951
    3OL     H7R 2647   6.209   1.694   3.909
    3OL     H7S 2648   6.268   1.860   3.892
    3OL     C18 2649   6.054   1.827   3.933
    3OL     H8R 2650   6.034   1.933   3.950
    3OL     H8S 2651   6.001   1.767   4.008
    3OL     C19 2652   6.010   1.801   3.791
    3OL     H9R 2653   6.087   1.756   3.729
    3OL    C110 2654   5.888   1.823   3.746
    3OL    H10R 2655   5.868   1.808   3.640
    3OL    C111 2656   5.776   1.889   3.822
    3OL    H11R 2657   5.818   1.972   3.879
    3OL    H11S 2658   5.734   1.821   3.896
    3OL    C112 2659   5.651   1.905   3.733
    3OL    H12R 2660   5.609   1.815   3.689
    3OL    H12S 2661   5.690   1.969   3.654
    3OL    C113 2662   5.545   1.992   3.802
    3OL    H13R 2663   5.568   2.095   3.831
    3OL    H13S 2664   5.534   1.946   3.900
    3OL    C114 2665   5.415   2.011   3.723
    3OL    H14R 2666   5.367   1.914   3.720
    3OL    H14S 2667   5.450   2.039   3.624
    3OL    C115 2668   5.330   2.120   3.791
    3OL    H15R 2669   5.380   2.216   3.778
    3OL    H15S 2670   5.331   2.095   3.897
    3OL    C116 2671   5.188   2.118   3.731
    3OL    H16R 2672   5.134   2.197   3.784
    3OL    H16S 2673   5.140   2.024   3.759
    3OL    C117 2674   5.199   2.133   3.579
    3OL    H17R 2675   5.223   2.038   3.530
    3OL    H17S 2676   5.264   2.215   3.549
    3OL    C118 2677   5.060   2.163   3.520
    3OL    H18R 2678   5.033   2.267   3.540
    3OL    H18S 2679   4.984   2.097   3.563
    3OL    H18T 2680   5.056   2.145   3.412
    1PA    C116 2681   1.166   5.063   3.852
    1PA    H16R 2682   1.082   5.049   3.784
    1PA    H16S 2683   1.224   5.151   3.827
    1PA    H16T 2684   1.123   5.085   3.950
    1PA    C115 2685   1.262   4.943   3.854
    1PA    H15R 2686   1.213   4.851   3.887
    1PA    H15S 2687   1.312   4.937   3.757
    1PA    C114 2688   1.355   4.971   3.973
    1PA    H14R 2689   1.408   5.066   3.960
    1PA    H14S 2690   1.299   4.969   4.067
    1PA    C113 2691   1.464   4.863   3.981
    1PA    H13R 2692   1.409   4.769   3.973
    1PA    H13S 2693   1.520   4.875   3.889
    1PA    C112 2694   1.552   4.874   4.106
    1PA    H12R 2695   1.605   4.970   4.105
    1PA    H12S 2696   1.494   4.854   4.196
    1PA    C111 2697   1.658   4.763   4.097
    1PA    H11R 2698   1.609   4.665   4.104
    1PA    H11S 2699   1.715   4.764   4.004
    1PA    C110 2700   1.752   4.767   4.218
    1PA    H10R 2701   1.797   4.866   4.225
    1PA    H10S 2702   1.690   4.761   4.308
    1PA     C19 2703   1.875   4.675   4.216
    1PA     H9R 2704   1.833   4.577   4.238
    1PA     H9S 2705   1.908   4.685   4.113
    1PA     C18 2706   1.975   4.718   4.325
    1PA     H8R 2707   1.991   4.826   4.323
    1PA     H8S 2708   1.935   4.703   4.425
    1PA     C17 2709   2.109   4.645   4.312
    1PA     H7R 2710   2.103   4.538   4.335
    1PA     H7S 2711   2.139   4.638   4.207
    1PA     C16 2712   2.221   4.711   4.394
    1PA     H6R 2713   2.229   4.818   4.371
    1PA     H6S 2714   2.195   4.693   4.498
    1PA     C15 2715   2.360   4.652   4.367
    1PA     H5R 2716   2.361   4.547   4.398
    1PA     H5S 2717   2.387   4.655   4.262
    1PA     C14 2718   2.467   4.738   4.436
    1PA     H4R 2719   2.558   4.720   4.378
    1PA     H4S 2720   2.447   4.845   4.433
    1PA     C13 2721   2.498   4.700   4.581
    1PA     H3R 2722   2.412   4.715   4.647
    1PA     H3S 2723   2.519   4.594   4.573
    1PA     C12 2724   2.623   4.777   4.627
    1PA     H2R 2725   2.719   4.751   4.582
    1PA     H2S 2726   2.596   4.878   4.598
    2PC     C11 2727   2.656   4.789   4.774
    2PC     O12 2728   2.686   4.896   4.822
    2PC     O11 2729   2.662   4.674   4.843
    2PC      C1 2730   2.674   4.675   4.986
    2PC      HR 2731   2.692   4.570   5.014
    2PC      HS 2732   2.739   4.757   5.017
    2PC      C2 2733   2.542   4.706   5.058
    2PC      HX 2734   2.516   4.805   5.021
    2PC      C3 2735   2.549   4.709   5.211
    2PC      HA 2736   2.600   4.621   5.251
    2PC      HB 2737   2.611   4.795   5.239
    2PC     O31 2738   2.418   4.716   5.271
    2PC     P31 2739   2.418   4.696   5.430
    2PC     O32 2740   2.261   4.700   5.461
    2PC     C31 2741   2.174   4.588   5.439
    2PC     H1A 2742   2.167   4.566   5.332
    2PC     H1B 2743   2.219   4.501   5.488
    2PC     C32 2744   2.037   4.609   5.505
    2PC     H2A 2745   1.978   4.682   5.450
    2PC     H2B 2746   1.987   4.512   5.497
    2PC     N31 2747   2.035   4.655   5.648
    2PC     C33 2748   2.119   4.566   5.735
    2PC     H3A 2749   2.098   4.465   5.698
    2PC     H3B 2750   2.224   4.593   5.730
    2PC     H3C 2751   2.097   4.578   5.841
    2PC     C34 2752   2.076   4.797   5.670
    2PC     H4A 2753   2.063   4.819   5.776
    2PC     H4B 2754   2.178   4.814   5.636
    2PC     H4C 2755   2.012   4.860   5.607
    2PC     C35 2756   1.889   4.647   5.680
    2PC     H5A 2757   1.862   4.542   5.692
    2PC     H5B 2758   1.833   4.701   5.603
    2PC     H5C 2759   1.860   4.693   5.775
    2PC     O33 2760   2.491   4.578   5.482
    2PC     O34 2761   2.485   4.815   5.488
    2PC     O21 2762   2.437   4.620   5.011
    2PC     C21 2763   2.428   4.491   5.047
    2PC     O22 2764   2.507   4.425   5.112
    3OL     C12 2765   2.298   4.431   5.000
    3OL     H2R 2766   2.216   4.479   5.054
    3OL     H2S 2767   2.287   4.324   5.018
    3OL     C13 2768   2.283   4.464   4.851
    3OL     H3R 2769   2.376   4.460   4.795
    3OL     H3S 2770   2.249   4.568   4.841
    3OL     C14 2771   2.171   4.380   4.788
    3OL     H4R 2772   2.080   4.387   4.847
    3OL     H4S 2773   2.202   4.276   4.778
    3OL     C15 2774   2.149   4.418   4.641
    3OL     H5R 2775   2.250   4.412   4.601
    3OL     H5S 2776   2.115   4.521   4.629
    3OL     C16 2777   2.053   4.332   4.557
    3OL     H6R 2778   2.103   4.242   4.521
    3OL     H6S 2779   2.014   4.389   4.473
    3OL     C17 2780   1.924   4.304   4.635
    3OL     H7R 2781   1.885   4.394   4.684
    3OL     H7S 2782   1.951   4.238   4.718
    3OL     C18 2783   1.812   4.227   4.563
    3OL     H8R 2784   1.778   4.277   4.472
    3OL     H8S 2785   1.725   4.208   4.626
    3OL     C19 2786   1.862   4.095   4.510
    3OL     H9R 2787   1.948   4.055   4.563
    3OL    C110 2788   1.825   4.048   4.392
    3OL    H10R 2789   1.886   3.968   4.351
    3OL    C111 2790   1.722   4.102   4.296
    3OL    H11R 2791   1.639   4.155   4.344
    3OL    H11S 2792   1.672   4.015   4.253
    3OL    C112 2793   1.786   4.196   4.194
    3OL    H12R 2794   1.856   4.141   4.131
    3OL    H12S 2795   1.838   4.280   4.241
    3OL    C113 2796   1.673   4.241   4.100
    3OL    H13R 2797   1.609   4.305   4.160
    3OL    H13S 2798   1.609   4.163   4.057
    3OL    C114 2799   1.727   4.326   3.984
    3OL    H14R 2800   1.823   4.364   4.021
    3OL    H14S 2801   1.659   4.409   3.964
    3OL    C115 2802   1.754   4.237   3.862
    3OL    H15R 2803   1.795   4.146   3.906
    3OL    H15S 2804   1.832   4.279   3.797
    3OL    C116 2805   1.634   4.204   3.773
    3OL    H16R 2806   1.544   4.193   3.835
    3OL    H16S 2807   1.647   4.110   3.718
    3OL    C117 2808   1.611   4.304   3.659
    3OL    H17R 2809   1.702   4.305   3.598
    3OL    H17S 2810   1.599   4.406   3.697
    3OL    C118 2811   1.486   4.277   3.575
    3OL    H18R 2812   1.501   4.175   3.539
    3OL    H18S 2813   1.464   4.357   3.503
    3OL    H18T 2814   1.390   4.287   3.627
    1PA    C116 2815   3.256   6.291   3.890
    1PA    H16R 2816   3.296   6.387   3.856
    1PA    H16S 2817   3.347   6.239   3.918
    1PA    H16T 2818   3.190   6.304   3.977
    1PA    C115 2819   3.174   6.212   3.787
    1PA    H15R 2820   3.087   6.273   3.759
    1PA    H15S 2821   3.238   6.196   3.701
    1PA    C114 2822   3.118   6.081   3.846
    1PA    H14R 2823   3.074   6.015   3.770
    1PA    H14S 2824   3.199   6.030   3.897
    1PA    C113 2825   3.017   6.104   3.959
    1PA    H13R 2826   3.071   6.156   4.038
    1PA    H13S 2827   2.936   6.171   3.928
    1PA    C112 2828   2.947   5.976   4.008
    1PA    H12R 2829   2.866   5.952   3.939
    1PA    H12S 2830   3.017   5.893   4.014
    1PA    C111 2831   2.879   5.997   4.144
    1PA    H11R 2832   2.954   6.048   4.204
    1PA    H11S 2833   2.798   6.069   4.127
    1PA    C110 2834   2.828   5.865   4.204
    1PA    H10R 2835   2.752   5.821   4.138
    1PA    H10S 2836   2.899   5.785   4.226
    1PA     C19 2837   2.751   5.892   4.334
    1PA     H9R 2838   2.827   5.922   4.406
    1PA     H9S 2839   2.679   5.972   4.321
    1PA     C18 2840   2.685   5.762   4.383
    1PA     H8R 2841   2.599   5.733   4.323
    1PA     H8S 2842   2.764   5.686   4.386
    1PA     C17 2843   2.646   5.775   4.531
    1PA     H7R 2844   2.652   5.672   4.567
    1PA     H7S 2845   2.716   5.834   4.591
    1PA     C16 2846   2.501   5.824   4.539
    1PA     H6R 2847   2.507   5.923   4.494
    1PA     H6S 2848   2.436   5.765   4.473
    1PA     C15 2849   2.445   5.819   4.682
    1PA     H5R 2850   2.519   5.870   4.744
    1PA     H5S 2851   2.364   5.892   4.676
    1PA     C14 2852   2.406   5.682   4.737
    1PA     H4R 2853   2.342   5.631   4.665
    1PA     H4S 2854   2.496   5.625   4.762
    1PA     C13 2855   2.334   5.708   4.871
    1PA     H3R 2856   2.273   5.796   4.852
    1PA     H3S 2857   2.266   5.627   4.894
    1PA     C12 2858   2.434   5.728   4.986
    1PA     H2R 2859   2.495   5.639   4.997
    1PA     H2S 2860   2.483   5.824   4.970
    2PC     C11 2861   2.360   5.740   5.117
    2PC     O12 2862   2.335   5.841   5.180
    2PC     O11 2863   2.325   5.612   5.143
    2PC      C1 2864   2.233   5.597   5.252
    2PC      HR 2865   2.229   5.489   5.270
    2PC      HS 2866   2.281   5.654   5.332
    2PC      C2 2867   2.093   5.660   5.234
    2PC      HX 2868   2.099   5.768   5.222
    2PC      C3 2869   2.006   5.649   5.360
    2PC      HA 2870   2.050   5.705   5.443
    2PC      HB 2871   1.903   5.680   5.336
    2PC     O31 2872   1.991   5.512   5.399
    2PC     P31 2873   1.861   5.464   5.479
    2PC     O32 2874   1.864   5.561   5.607
    2PC     C31 2875   1.965   5.546   5.707
    2PC     H1A 2876   1.948   5.454   5.765
    2PC     H1B 2877   2.059   5.542   5.651
    2PC     C32 2878   1.951   5.662   5.807
    2PC     H2A 2879   2.049   5.684   5.847
    2PC     H2B 2880   1.914   5.747   5.749
    2PC     N31 2881   1.859   5.641   5.923
    2PC     C33 2882   1.846   5.771   5.997
    2PC     H3A 2883   1.817   5.850   5.928
    2PC     H3B 2884   1.762   5.764   6.067
    2PC     H3C 2885   1.941   5.790   6.045
    2PC     C34 2886   1.722   5.601   5.877
    2PC     H4A 2887   1.656   5.603   5.964
    2PC     H4B 2888   1.691   5.675   5.803
    2PC     H4C 2889   1.738   5.500   5.839
    2PC     C35 2890   1.905   5.524   6.005
    2PC     H5A 2891   2.014   5.528   6.012
    2PC     H5B 2892   1.885   5.439   5.938
    2PC     H5C 2893   1.854   5.517   6.101
    2PC     O33 2894   1.742   5.495   5.396
    2PC     O34 2895   1.855   5.321   5.514
    2PC     O21 2896   2.029   5.604   5.118
    2PC     C21 2897   1.923   5.656   5.055
    2PC     O22 2898   1.886   5.769   5.080
    3OL     C12 2899   1.867   5.566   4.948
    3OL     H2R 2900   1.769   5.603   4.916
    3OL     H2S 2901   1.873   5.462   4.982
    3OL     C13 2902   1.967   5.580   4.832
    3OL     H3R 2903   2.056   5.519   4.846
    3OL     H3S 2904   2.017   5.677   4.821
    3OL     C14 2905   1.917   5.530   4.696
    3OL     H4R 2906   1.981   5.570   4.617
    3OL     H4S 2907   1.818   5.572   4.678
    3OL     C15 2908   1.922   5.378   4.682
    3OL     H5R 2909   1.835   5.338   4.735
    3OL     H5S 2910   2.013   5.336   4.727
    3OL     C16 2911   1.912   5.350   4.531
    3OL     H6R 2912   1.976   5.422   4.481
    3OL     H6S 2913   1.804   5.360   4.518
    3OL     C17 2914   1.949   5.204   4.502
    3OL     H7R 2915   1.875   5.141   4.553
    3OL     H7S 2916   2.044   5.182   4.552
    3OL     C18 2917   1.949   5.168   4.353
    3OL     H8R 2918   1.947   5.059   4.355
    3OL     H8S 2919   2.032   5.208   4.295
    3OL     C19 2920   1.820   5.214   4.288
    3OL     H9R 2921   1.737   5.201   4.357
    3OL    C110 2922   1.801   5.271   4.170
    3OL    H10R 2923   1.704   5.312   4.143
    3OL    C111 2924   1.908   5.296   4.067
    3OL    H11R 2925   2.008   5.319   4.104
    3OL    H11S 2926   1.866   5.384   4.019
    3OL    C112 2927   1.908   5.190   3.956
    3OL    H12R 2928   1.936   5.091   3.993
    3OL    H12S 2929   1.979   5.237   3.888
    3OL    C113 2930   1.775   5.168   3.883
    3OL    H13R 2931   1.747   5.269   3.850
    3OL    H13S 2932   1.703   5.137   3.958
    3OL    C114 2933   1.786   5.067   3.768
    3OL    H14R 2934   1.687   5.037   3.736
    3OL    H14S 2935   1.826   4.971   3.804
    3OL    C115 2936   1.876   5.118   3.654
    3OL    H15R 2937   1.976   5.129   3.695
    3OL    H15S 2938   1.830   5.208   3.612
    3OL    C116 2939   1.881   5.014   3.542
    3OL    H16R 2940   1.782   5.005   3.497
    3OL    H16S 2941   1.910   4.919   3.589
    3OL    C117 2942   1.972   5.045   3.422
    3OL    H17R 2943   1.935   5.139   3.381
    3OL    H17S 2944   1.962   4.968   3.346
    3OL    C118 2945   2.122   5.055   3.453
    3OL    H18R 2946   2.147   4.955   3.491
    3OL    H18S 2947   2.151   5.125   3.531
    3OL    H18T 2948   2.170   5.085   3.360
    1PA    C116 2949   4.783   4.959   4.088
    1PA    H16R 2950   4.831   4.877   4.036
    1PA    H16S 2951   4.679   4.934   4.111
    1PA    H16T 2952   4.833   4.977   4.184
    1PA    C115 2953   4.787   5.078   3.991
    1PA    H15R 2954   4.734   5.048   3.901
    1PA    H15S 2955   4.733   5.162   4.034
    1PA    C114 2956   4.932   5.119   3.961
    1PA    H14R 2957   4.979   5.141   4.057
    1PA    H14S 2958   4.985   5.032   3.923
    1PA    C113 2959   4.936   5.238   3.864
    1PA    H13R 2960   4.860   5.218   3.789
    1PA    H13S 2961   4.903   5.327   3.918
    1PA    C112 2962   5.071   5.263   3.795
    1PA    H12R 2963   5.123   5.168   3.782
    1PA    H12S 2964   5.047   5.304   3.697
    1PA    C111 2965   5.149   5.370   3.873
    1PA    H11R 2966   5.233   5.398   3.809
    1PA    H11S 2967   5.095   5.464   3.877
    1PA    C110 2968   5.210   5.334   4.009
    1PA    H10R 2969   5.127   5.295   4.070
    1PA    H10S 2970   5.287   5.257   4.005
    1PA     C19 2971   5.271   5.455   4.081
    1PA     H9R 2972   5.363   5.484   4.031
    1PA     H9S 2973   5.203   5.541   4.076
    1PA     C18 2974   5.311   5.407   4.221
    1PA     H8R 2975   5.222   5.369   4.271
    1PA     H8S 2976   5.371   5.318   4.199
    1PA     C17 2977   5.390   5.506   4.307
    1PA     H7R 2978   5.486   5.537   4.265
    1PA     H7S 2979   5.322   5.590   4.323
    1PA     C16 2980   5.411   5.455   4.450
    1PA     H6R 2981   5.322   5.417   4.499
    1PA     H6S 2982   5.475   5.367   4.444
    1PA     C15 2983   5.478   5.560   4.540
    1PA     H5R 2984   5.561   5.613   4.493
    1PA     H5S 2985   5.404   5.639   4.553
    1PA     C14 2986   5.534   5.510   4.674
    1PA     H4R 2987   5.459   5.460   4.736
    1PA     H4S 2988   5.606   5.431   4.653
    1PA     C13 2989   5.600   5.624   4.753
    1PA     H3R 2990   5.663   5.686   4.688
    1PA     H3S 2991   5.535   5.704   4.790
    1PA     C12 2992   5.680   5.557   4.866
    1PA     H2R 2993   5.611   5.493   4.921
    1PA     H2S 2994   5.748   5.483   4.824
    2PC     C11 2995   5.764   5.644   4.955
    2PC     O12 2996   5.858   5.590   5.011
    2PC     O11 2997   5.708   5.765   4.969
    2PC      C1 2998   5.766   5.853   5.067
    2PC      HR 2999   5.698   5.939   5.074
    2PC      HS 3000   5.769   5.807   5.166
    2PC      C2 3001   5.905   5.898   5.021
    2PC      HX 3002   5.959   5.816   4.973
    2PC      C3 3003   5.993   5.940   5.139
    2PC      HA 3004   6.014   5.855   5.204
    2PC      HB 3005   6.094   5.975   5.113
    2PC     O31 3006   5.930   6.045   5.215
    2PC     P31 3007   5.957   6.049   5.373
    2PC     O32 3008   5.838   5.955   5.424
    2PC     C31 3009   5.736   6.011   5.510
    2PC     H1A 3010   5.776   6.064   5.597
    2PC     H1B 3011   5.676   6.079   5.450
    2PC     C32 3012   5.643   5.906   5.573
    2PC     H2A 3013   5.562   5.966   5.616
    2PC     H2B 3014   5.609   5.837   5.497
    2PC     N31 3015   5.699   5.817   5.679
    2PC     C33 3016   5.843   5.787   5.651
    2PC     H3A 3017   5.855   5.747   5.550
    2PC     H3B 3018   5.896   5.882   5.658
    2PC     H3C 3019   5.886   5.708   5.712
    2PC     C34 3020   5.700   5.871   5.819
    2PC     H4A 3021   5.594   5.881   5.844
    2PC     H4B 3022   5.759   5.812   5.888
    2PC     H4C 3023   5.739   5.973   5.815
    2PC     C35 3024   5.640   5.679   5.689
    2PC     H5A 3025   5.700   5.624   5.761
    2PC     H5B 3026   5.637   5.632   5.591
    2PC     H5C 3027   5.540   5.687   5.732
    2PC     O33 3028   6.088   5.992   5.413
    2PC     O34 3029   5.951   6.186   5.427
    2PC     O21 3030   5.879   6.001   4.925
    2PC     C21 3031   5.979   6.040   4.844
    2PC     O22 3032   6.090   5.993   4.833
    3OL     C12 3033   5.959   6.163   4.759
    3OL     H2R 3034   5.953   6.255   4.818
    3OL     H2S 3035   5.857   6.153   4.722
    3OL     C13 3036   6.063   6.189   4.649
    3OL     H3R 3037   6.067   6.111   4.574
    3OL     H3S 3038   6.156   6.202   4.706
    3OL     C14 3039   6.034   6.323   4.580
    3OL     H4R 3040   6.127   6.357   4.534
    3OL     H4S 3041   6.018   6.388   4.667
    3OL     C15 3042   5.920   6.328   4.477
    3OL     H5R 3043   5.831   6.292   4.529
    3OL     H5S 3044   5.933   6.256   4.396
    3OL     C16 3045   5.885   6.464   4.415
    3OL     H6R 3046   5.870   6.541   4.491
    3OL     H6S 3047   5.788   6.451   4.368
    3OL     C17 3048   5.978   6.515   4.305
    3OL     H7R 3049   6.012   6.432   4.243
    3OL     H7S 3050   6.061   6.563   4.357
    3OL     C18 3051   5.924   6.626   4.214
    3OL     H8R 3052   5.828   6.593   4.172
    3OL     H8S 3053   5.994   6.630   4.130
    3OL     C19 3054   5.896   6.759   4.279
    3OL     H9R 3055   5.949   6.776   4.373
    3OL    C110 3056   5.816   6.851   4.228
    3OL    H10R 3057   5.794   6.936   4.293
    3OL    C111 3058   5.743   6.852   4.097
    3OL    H11R 3059   5.653   6.914   4.103
    3OL    H11S 3060   5.709   6.751   4.072
    3OL    C112 3061   5.832   6.902   3.982
    3OL    H12R 3062   5.769   6.897   3.892
    3OL    H12S 3063   5.916   6.836   3.962
    3OL    C113 3064   5.887   7.044   3.996
    3OL    H13R 3065   5.968   7.047   3.923
    3OL    H13S 3066   5.934   7.059   4.094
    3OL    C114 3067   5.780   7.148   3.960
    3OL    H14R 3068   5.706   7.151   4.040
    3OL    H14S 3069   5.715   7.110   3.881
    3OL    C115 3070   5.840   7.289   3.951
    3OL    H15R 3071   5.924   7.284   3.882
    3OL    H15S 3072   5.872   7.339   4.043
    3OL    C116 3073   5.739   7.378   3.876
    3OL    H16R 3074   5.656   7.393   3.945
    3OL    H16S 3075   5.700   7.333   3.785
    3OL    C117 3076   5.789   7.520   3.844
    3OL    H17R 3077   5.851   7.508   3.755
    3OL    H17S 3078   5.851   7.565   3.922
    3OL    C118 3079   5.661   7.599   3.814
    3OL    H18R 3080   5.613   7.566   3.722
    3OL    H18S 3081   5.690   7.703   3.795
    3OL    H18T 3082   5.601   7.602   3.906
    1PA    C116 3083  -0.958   5.084   3.791
    1PA    H16R 3084  -1.038   5.081   3.866
    1PA    H16S 3085  -0.952   4.999   3.722
    1PA    H16T 3086  -0.991   5.167   3.729
    1PA    C115 3087  -0.830   5.114   3.870
    1PA    H15R 3088  -0.827   5.213   3.916
    1PA    H15S 3089  -0.824   5.040   3.950
    1PA    C114 3090  -0.715   5.105   3.769
    1PA    H14R 3091  -0.704   5.002   3.734
    1PA    H14S 3092  -0.732   5.173   3.686
    1PA    C113 3093  -0.581   5.155   3.825
    1PA    H13R 3094  -0.507   5.152   3.745
    1PA    H13S 3095  -0.581   5.263   3.836
    1PA    C112 3096  -0.537   5.083   3.953
    1PA    H12R 3097  -0.579   5.126   4.045
    1PA    H12S 3098  -0.564   4.979   3.933
    1PA    C111 3099  -0.388   5.098   3.984
    1PA    H11R 3100  -0.330   5.058   3.900
    1PA    H11S 3101  -0.368   5.205   3.992
    1PA    C110 3102  -0.349   5.030   4.116
    1PA    H10R 3103  -0.416   5.064   4.195
    1PA    H10S 3104  -0.354   4.921   4.103
    1PA     C19 3105  -0.209   5.066   4.168
    1PA     H9R 3106  -0.128   5.038   4.101
    1PA     H9S 3107  -0.204   5.170   4.199
    1PA     C18 3108  -0.179   4.985   4.295
    1PA     H8R 3109  -0.267   4.990   4.360
    1PA     H8S 3110  -0.156   4.881   4.268
    1PA     C17 3111  -0.059   5.042   4.373
    1PA     H7R 3112  -0.009   4.972   4.440
    1PA     H7S 3113   0.012   5.086   4.303
    1PA     C16 3114  -0.106   5.155   4.465
    1PA     H6R 3115  -0.122   5.247   4.407
    1PA     H6S 3116  -0.202   5.135   4.511
    1PA     C15 3117  -0.011   5.201   4.577
    1PA     H5R 3118  -0.001   5.129   4.659
    1PA     H5S 3119   0.084   5.207   4.523
    1PA     C14 3120  -0.049   5.340   4.629
    1PA     H4R 3121  -0.061   5.419   4.555
    1PA     H4S 3122  -0.148   5.344   4.676
    1PA     C13 3123   0.051   5.385   4.737
    1PA     H3R 3124   0.052   5.306   4.813
    1PA     H3S 3125   0.152   5.402   4.701
    1PA     C12 3126  -0.001   5.512   4.805
    1PA     H2R 3127   0.004   5.601   4.741
    1PA     H2S 3128  -0.105   5.492   4.833
    2PC     C11 3129   0.081   5.536   4.929
    2PC     O12 3130   0.124   5.447   5.000
    2PC     O11 3131   0.108   5.665   4.954
    2PC      C1 3132   0.176   5.699   5.077
    2PC      HR 3133   0.175   5.807   5.092
    2PC      HS 3134   0.128   5.654   5.164
    2PC      C2 3135   0.322   5.652   5.071
    2PC      HX 3136   0.329   5.550   5.033
    2PC      C3 3137   0.393   5.657   5.207
    2PC      HA 3138   0.413   5.761   5.237
    2PC      HB 3139   0.329   5.618   5.287
    2PC     O31 3140   0.514   5.581   5.203
    2PC     P31 3141   0.636   5.607   5.303
    2PC     O32 3142   0.707   5.739   5.245
    2PC     C31 3143   0.697   5.864   5.315
    2PC     H1A 3144   0.735   5.941   5.247
    2PC     H1B 3145   0.593   5.897   5.323
    2PC     C32 3146   0.773   5.853   5.448
    2PC     H2A 3147   0.755   5.949   5.497
    2PC     H2B 3148   0.748   5.770   5.514
    2PC     N31 3149   0.922   5.839   5.432
    2PC     C33 3150   0.987   5.858   5.565
    2PC     H3A 3151   0.941   5.789   5.636
    2PC     H3B 3152   1.096   5.847   5.561
    2PC     H3C 3153   0.961   5.960   5.593
    2PC     C34 3154   0.973   5.702   5.402
    2PC     H4A 3155   0.934   5.672   5.304
    2PC     H4B 3156   1.080   5.718   5.397
    2PC     H4C 3157   0.951   5.639   5.488
    2PC     C35 3158   0.974   5.945   5.339
    2PC     H5A 3159   0.957   5.927   5.233
    2PC     H5B 3160   1.082   5.953   5.351
    2PC     H5C 3161   0.925   6.041   5.357
    2PC     O33 3162   0.578   5.636   5.436
    2PC     O34 3163   0.727   5.490   5.312
    2PC     O21 3164   0.390   5.724   4.967
    2PC     C21 3165   0.452   5.661   4.866
    2PC     O22 3166   0.442   5.543   4.839
    3OL     C12 3167   0.524   5.757   4.774
    3OL     H2R 3168   0.594   5.811   4.838
    3OL     H2S 3169   0.458   5.835   4.737
    3OL     C13 3170   0.601   5.693   4.658
    3OL     H3R 3171   0.526   5.656   4.588
    3OL     H3S 3172   0.671   5.616   4.693
    3OL     C14 3173   0.688   5.790   4.577
    3OL     H4R 3174   0.750   5.846   4.648
    3OL     H4S 3175   0.628   5.868   4.530
    3OL     C15 3176   0.780   5.734   4.467
    3OL     H5R 3177   0.839   5.657   4.517
    3OL     H5S 3178   0.854   5.807   4.432
    3OL     C16 3179   0.715   5.657   4.351
    3OL     H6R 3180   0.658   5.579   4.401
    3OL     H6S 3181   0.797   5.604   4.302
    3OL     C17 3182   0.636   5.745   4.253
    3OL     H7R 3183   0.702   5.822   4.211
    3OL     H7S 3184   0.560   5.800   4.309
    3OL     C18 3185   0.569   5.665   4.141
    3OL     H8R 3186   0.545   5.564   4.176
    3OL     H8S 3187   0.640   5.652   4.059
    3OL     C19 3188   0.440   5.732   4.102
    3OL     H9R 3189   0.351   5.707   4.161
    3OL    C110 3190   0.417   5.803   3.993
    3OL    H10R 3191   0.315   5.833   3.969
    3OL    C111 3192   0.528   5.846   3.901
    3OL    H11R 3193   0.623   5.833   3.953
    3OL    H11S 3194   0.516   5.954   3.887
    3OL    C112 3195   0.548   5.774   3.767
    3OL    H12R 3196   0.643   5.800   3.721
    3OL    H12S 3197   0.476   5.814   3.694
    3OL    C113 3198   0.532   5.622   3.781
    3OL    H13R 3199   0.432   5.599   3.817
    3OL    H13S 3200   0.616   5.599   3.847
    3OL    C114 3201   0.553   5.546   3.649
    3OL    H14R 3202   0.570   5.441   3.674
    3OL    H14S 3203   0.639   5.585   3.595
    3OL    C115 3204   0.433   5.560   3.554
    3OL    H15R 3205   0.425   5.666   3.534
    3OL    H15S 3206   0.342   5.527   3.605
    3OL    C116 3207   0.437   5.484   3.421
    3OL    H16R 3208   0.538   5.490   3.379
    3OL    H16S 3209   0.363   5.535   3.360
    3OL    C117 3210   0.410   5.334   3.444
    3OL    H17R 3211   0.315   5.316   3.494
    3OL    H17S 3212   0.498   5.293   3.495
    3OL    C118 3213   0.405   5.267   3.306
    3OL    H18R 3214   0.495   5.290   3.249
    3OL    H18S 3215   0.323   5.304   3.244
    3OL    H18T 3216   0.391   5.160   3.324
    1PA    C116 3217   2.178   2.525   3.606
    1PA    H16R 3218   2.216   2.427   3.635
    1PA    H16S 3219   2.260   2.596   3.597
    1PA    H16T 3220   2.141   2.510   3.504
    1PA    C115 3221   2.074   2.584   3.702
    1PA    H15R 3222   2.018   2.668   3.661
    1PA    H15S 3223   2.002   2.505   3.723
    1PA    C114 3224   2.127   2.639   3.835
    1PA    H14R 3225   2.047   2.639   3.909
    1PA    H14S 3226   2.203   2.572   3.876
    1PA    C113 3227   2.183   2.782   3.824
    1PA    H13R 3228   2.292   2.780   3.834
    1PA    H13S 3229   2.171   2.824   3.724
    1PA    C112 3230   2.143   2.878   3.936
    1PA    H12R 3231   2.191   2.974   3.917
    1PA    H12S 3232   2.036   2.899   3.937
    1PA    C111 3233   2.211   2.845   4.070
    1PA    H11R 3234   2.167   2.754   4.111
    1PA    H11S 3235   2.318   2.826   4.064
    1PA    C110 3236   2.184   2.966   4.161
    1PA    H10R 3237   2.244   3.051   4.129
    1PA    H10S 3238   2.080   2.999   4.164
    1PA     C19 3239   2.229   2.932   4.304
    1PA     H9R 3240   2.171   2.846   4.338
    1PA     H9S 3241   2.334   2.907   4.318
    1PA     C18 3242   2.213   3.051   4.399
    1PA     H8R 3243   2.115   3.097   4.389
    1PA     H8S 3244   2.219   3.010   4.501
    1PA     C17 3245   2.324   3.156   4.388
    1PA     H7R 3246   2.415   3.097   4.376
    1PA     H7S 3247   2.324   3.218   4.298
    1PA     C16 3248   2.336   3.242   4.515
    1PA     H6R 3249   2.244   3.300   4.513
    1PA     H6S 3250   2.341   3.183   4.606
    1PA     C15 3251   2.441   3.355   4.513
    1PA     H5R 3252   2.546   3.326   4.509
    1PA     H5S 3253   2.420   3.410   4.421
    1PA     C14 3254   2.435   3.449   4.634
    1PA     H4R 3255   2.491   3.538   4.604
    1PA     H4S 3256   2.334   3.472   4.667
    1PA     C13 3257   2.514   3.384   4.749
    1PA     H3R 3258   2.459   3.299   4.790
    1PA     H3S 3259   2.611   3.349   4.713
    1PA     C12 3260   2.529   3.484   4.864
    1PA     H2R 3261   2.574   3.580   4.837
    1PA     H2S 3262   2.433   3.509   4.909
    2PC     C11 3263   2.620   3.438   4.975
    2PC     O12 3264   2.626   3.490   5.085
    2PC     O11 3265   2.711   3.347   4.937
    2PC      C1 3266   2.786   3.288   5.045
    2PC      HR 3267   2.851   3.209   5.006
    2PC      HS 3268   2.844   3.371   5.085
    2PC      C2 3269   2.696   3.220   5.149
    2PC      HX 3270   2.614   3.281   5.189
    2PC      C3 3271   2.769   3.176   5.276
    2PC      HA 3272   2.793   3.264   5.336
    2PC      HB 3273   2.703   3.103   5.323
    2PC     O31 3274   2.897   3.120   5.242
    2PC     P31 3275   2.990   3.060   5.357
    2PC     O32 3276   3.053   2.936   5.277
    2PC     C31 3277   3.174   2.949   5.200
    2PC     H1A 3278   3.184   2.872   5.123
    2PC     H1B 3279   3.156   3.036   5.137
    2PC     C32 3280   3.304   2.972   5.279
    2PC     H2A 3281   3.393   2.987   5.219
    2PC     H2B 3282   3.287   3.053   5.350
    2PC     N31 3283   3.344   2.862   5.373
    2PC     C33 3284   3.369   2.730   5.306
    2PC     H3A 3285   3.278   2.670   5.302
    2PC     H3B 3286   3.414   2.750   5.209
    2PC     H3C 3287   3.440   2.682   5.373
    2PC     C34 3288   3.468   2.903   5.446
    2PC     H4A 3289   3.450   3.009   5.469
    2PC     H4B 3290   3.477   2.847   5.539
    2PC     H4C 3291   3.551   2.890   5.376
    2PC     C35 3292   3.241   2.832   5.478
    2PC     H5A 3293   3.285   2.747   5.529
    2PC     H5B 3294   3.140   2.812   5.442
    2PC     H5C 3295   3.224   2.920   5.540
    2PC     O33 3296   3.094   3.158   5.396
    2PC     O34 3297   2.909   3.031   5.477
    2PC     O21 3298   2.632   3.101   5.099
    2PC     C21 3299   2.517   3.113   5.031
    2PC     O22 3300   2.452   3.213   5.009
    3OL     C12 3301   2.470   2.980   4.979
    3OL     H2R 3302   2.366   2.961   5.004
    3OL     H2S 3303   2.530   2.907   5.034
    3OL     C13 3304   2.475   2.961   4.826
    3OL     H3R 3305   2.401   3.029   4.783
    3OL     H3S 3306   2.423   2.866   4.812
    3OL     C14 3307   2.614   2.972   4.762
    3OL     H4R 3308   2.683   2.900   4.805
    3OL     H4S 3309   2.655   3.072   4.778
    3OL     C15 3310   2.600   2.951   4.610
    3OL     H5R 3311   2.587   3.050   4.568
    3OL     H5S 3312   2.512   2.889   4.590
    3OL     C16 3313   2.731   2.885   4.565
    3OL     H6R 3314   2.737   2.783   4.604
    3OL     H6S 3315   2.821   2.940   4.590
    3OL     C17 3316   2.735   2.876   4.411
    3OL     H7R 3317   2.714   2.975   4.369
    3OL     H7S 3318   2.651   2.819   4.371
    3OL     C18 3319   2.869   2.819   4.364
    3OL     H8R 3320   2.880   2.718   4.404
    3OL     H8S 3321   2.943   2.890   4.401
    3OL     C19 3322   2.873   2.821   4.213
    3OL     H9R 3323   2.837   2.913   4.168
    3OL    C110 3324   2.920   2.720   4.141
    3OL    H10R 3325   2.904   2.744   4.037
    3OL    C111 3326   2.990   2.594   4.184
    3OL    H11R 3327   2.926   2.505   4.184
    3OL    H11S 3328   3.028   2.621   4.283
    3OL    C112 3329   3.121   2.574   4.106
    3OL    H12R 3330   3.166   2.491   4.159
    3OL    H12S 3331   3.188   2.660   4.110
    3OL    C113 3332   3.099   2.526   3.962
    3OL    H13R 3333   3.040   2.606   3.917
    3OL    H13S 3334   3.049   2.429   3.953
    3OL    C114 3335   3.230   2.527   3.882
    3OL    H14R 3336   3.300   2.446   3.905
    3OL    H14S 3337   3.275   2.626   3.894
    3OL    C115 3338   3.209   2.520   3.730
    3OL    H15R 3339   3.308   2.542   3.689
    3OL    H15S 3340   3.157   2.612   3.703
    3OL    C116 3341   3.156   2.388   3.673
    3OL    H16R 3342   3.056   2.382   3.717
    3OL    H16S 3343   3.212   2.301   3.705
    3OL    C117 3344   3.137   2.396   3.520
    3OL    H17R 3345   3.186   2.309   3.475
    3OL    H17S 3346   3.191   2.484   3.484
    3OL    C118 3347   2.987   2.397   3.488
    3OL    H18R 3348   2.931   2.314   3.531
    3OL    H18S 3349   2.977   2.385   3.380
    3OL    H18T 3350   2.937   2.493   3.502
    1PA    C116 3351   3.724   1.986   3.713
    1PA    H16R 3352   3.774   2.030   3.800
    1PA    H16S 3353   3.807   1.958   3.647
    1PA    H16T 3354   3.661   1.902   3.740
    1PA    C115 3355   3.622   2.088   3.660
    1PA    H15R 3356   3.672   2.185   3.668
    1PA    H15S 3357   3.596   2.079   3.554
    1PA    C114 3358   3.488   2.081   3.733
    1PA    H14R 3359   3.405   2.136   3.689
    1PA    H14S 3360   3.463   1.977   3.757
    1PA    C113 3361   3.502   2.146   3.871
    1PA    H13R 3362   3.591   2.104   3.918
    1PA    H13S 3363   3.523   2.253   3.871
    1PA    C112 3364   3.375   2.123   3.955
    1PA    H12R 3365   3.344   2.209   4.014
    1PA    H12S 3366   3.293   2.095   3.889
    1PA    C111 3367   3.400   2.002   4.046
    1PA    H11R 3368   3.397   1.909   3.989
    1PA    H11S 3369   3.502   2.007   4.086
    1PA    C110 3370   3.311   2.010   4.170
    1PA    H10R 3371   3.332   1.926   4.237
    1PA    H10S 3372   3.332   2.102   4.226
    1PA     C19 3373   3.162   1.991   4.140
    1PA     H9R 3374   3.147   1.960   4.036
    1PA     H9S 3375   3.123   1.911   4.202
    1PA     C18 3376   3.077   2.117   4.163
    1PA     H8R 3377   3.134   2.196   4.113
    1PA     H8S 3378   2.977   2.109   4.122
    1PA     C17 3379   3.048   2.141   4.312
    1PA     H7R 3380   2.998   2.050   4.347
    1PA     H7S 3381   3.136   2.162   4.374
    1PA     C16 3382   2.949   2.256   4.333
    1PA     H6R 3383   3.003   2.349   4.310
    1PA     H6S 3384   2.855   2.243   4.279
    1PA     C15 3385   2.917   2.264   4.482
    1PA     H5R 3386   2.876   2.170   4.520
    1PA     H5S 3387   3.009   2.278   4.539
    1PA     C14 3388   2.823   2.381   4.515
    1PA     H4R 3389   2.867   2.477   4.487
    1PA     H4S 3390   2.734   2.371   4.452
    1PA     C13 3391   2.783   2.365   4.663
    1PA     H3R 3392   2.747   2.264   4.685
    1PA     H3S 3393   2.866   2.384   4.731
    1PA     C12 3394   2.675   2.465   4.706
    1PA     H2R 3395   2.719   2.564   4.690
    1PA     H2S 3396   2.583   2.454   4.649
    2PC     C11 3397   2.623   2.459   4.847
    2PC     O12 3398   2.555   2.550   4.892
    2PC     O11 3399   2.653   2.343   4.907
    2PC      C1 3400   2.606   2.318   5.041
    2PC      HR 3401   2.674   2.371   5.109
    2PC      HS 3402   2.500   2.343   5.049
    2PC      C2 3403   2.626   2.170   5.076
    2PC      HX 3404   2.562   2.108   5.013
    2PC      C3 3405   2.570   2.142   5.216
    2PC      HA 3406   2.462   2.153   5.220
    2PC      HB 3407   2.585   2.036   5.242
    2PC     O31 3408   2.636   2.224   5.314
    2PC     P31 3409   2.621   2.188   5.469
    2PC     O32 3410   2.676   2.331   5.515
    2PC     C31 3411   2.584   2.441   5.500
    2PC     H1A 3412   2.641   2.524   5.458
    2PC     H1B 3413   2.510   2.399   5.431
    2PC     C32 3414   2.525   2.468   5.639
    2PC     H2A 3415   2.422   2.504   5.643
    2PC     H2B 3416   2.512   2.369   5.684
    2PC     N31 3417   2.612   2.556   5.724
    2PC     C33 3418   2.544   2.550   5.857
    2PC     H3A 3419   2.611   2.602   5.927
    2PC     H3B 3420   2.440   2.583   5.853
    2PC     H3C 3421   2.541   2.448   5.894
    2PC     C34 3422   2.755   2.514   5.731
    2PC     H4A 3423   2.796   2.545   5.827
    2PC     H4B 3424   2.754   2.405   5.732
    2PC     H4C 3425   2.810   2.547   5.642
    2PC     C35 3426   2.609   2.698   5.677
    2PC     H5A 3427   2.506   2.734   5.683
    2PC     H5B 3428   2.636   2.695   5.571
    2PC     H5C 3429   2.672   2.770   5.730
    2PC     O33 3430   2.482   2.169   5.516
    2PC     O34 3431   2.691   2.065   5.515
    2PC     O21 3432   2.765   2.133   5.064
    2PC     C21 3433   2.795   2.004   5.041
    2PC     O22 3434   2.716   1.914   5.056
    3OL     C12 3435   2.935   1.986   4.986
    3OL     H2R 3436   3.002   1.991   5.072
    3OL     H2S 3437   2.948   2.078   4.928
    3OL     C13 3438   2.969   1.858   4.909
    3OL     H3R 3439   2.893   1.832   4.835
    3OL     H3S 3440   2.969   1.777   4.983
    3OL     C14 3441   3.104   1.862   4.837
    3OL     H4R 3442   3.121   1.758   4.812
    3OL     H4S 3443   3.186   1.891   4.903
    3OL     C15 3444   3.109   1.947   4.709
    3OL     H5R 3445   3.116   2.052   4.738
    3OL     H5S 3446   3.019   1.940   4.648
    3OL     C16 3447   3.229   1.924   4.616
    3OL     H6R 3448   3.228   1.984   4.526
    3OL     H6S 3449   3.239   1.820   4.583
    3OL     C17 3450   3.360   1.953   4.692
    3OL     H7R 3451   3.442   1.907   4.636
    3OL     H7S 3452   3.352   1.901   4.788
    3OL     C18 3453   3.388   2.103   4.693
    3OL     H8R 3454   3.317   2.164   4.751
    3OL     H8S 3455   3.378   2.151   4.595
    3OL     C19 3456   3.524   2.129   4.753
    3OL     H9R 3457   3.598   2.175   4.688
    3OL    C110 3458   3.547   2.114   4.882
    3OL    H10R 3459   3.650   2.129   4.914
    3OL    C111 3460   3.453   2.072   4.992
    3OL    H11R 3461   3.348   2.088   4.967
    3OL    H11S 3462   3.466   2.134   5.082
    3OL    C112 3463   3.479   1.932   5.050
    3OL    H12R 3464   3.465   1.854   4.975
    3OL    H12S 3465   3.403   1.916   5.127
    3OL    C113 3466   3.619   1.922   5.111
    3OL    H13R 3467   3.640   1.993   5.191
    3OL    H13S 3468   3.689   1.945   5.031
    3OL    C114 3469   3.659   1.778   5.144
    3OL    H14R 3470   3.766   1.766   5.163
    3OL    H14S 3471   3.617   1.717   5.063
    3OL    C115 3472   3.598   1.720   5.273
    3OL    H15R 3473   3.490   1.713   5.263
    3OL    H15S 3474   3.618   1.790   5.355
    3OL    C116 3475   3.665   1.588   5.312
    3OL    H16R 3476   3.770   1.600   5.339
    3OL    H16S 3477   3.653   1.520   5.227
    3OL    C117 3478   3.598   1.519   5.432
    3OL    H17R 3479   3.620   1.412   5.425
    3OL    H17S 3480   3.489   1.515   5.423
    3OL    C118 3481   3.651   1.573   5.565
    3OL    H18R 3482   3.601   1.530   5.652
    3OL    H18S 3483   3.625   1.679   5.563
    3OL    H18T 3484   3.760   1.565   5.566
    1PA    C116 3485  -0.126   6.283   3.821
    1PA    H16R 3486  -0.180   6.373   3.850
    1PA    H16S 3487  -0.200   6.213   3.781
    1PA    H16T 3488  -0.084   6.229   3.907
    1PA    C115 3489  -0.016   6.332   3.726
    1PA    H15R 3490   0.034   6.245   3.681
    1PA    H15S 3491  -0.072   6.377   3.643
    1PA    C114 3492   0.074   6.435   3.793
    1PA    H14R 3493   0.023   6.523   3.834
    1PA    H14S 3494   0.118   6.385   3.880
    1PA    C113 3495   0.182   6.459   3.687
    1PA    H13R 3496   0.221   6.360   3.665
    1PA    H13S 3497   0.126   6.497   3.601
    1PA    C112 3498   0.295   6.550   3.739
    1PA    H12R 3499   0.367   6.564   3.658
    1PA    H12S 3500   0.244   6.645   3.755
    1PA    C111 3501   0.375   6.504   3.862
    1PA    H11R 3502   0.305   6.517   3.945
    1PA    H11S 3503   0.406   6.402   3.840
    1PA    C110 3504   0.500   6.591   3.876
    1PA    H10R 3505   0.576   6.554   3.806
    1PA    H10S 3506   0.487   6.697   3.855
    1PA     C19 3507   0.567   6.579   4.013
    1PA     H9R 3508   0.491   6.599   4.088
    1PA     H9S 3509   0.588   6.474   4.035
    1PA     C18 3510   0.694   6.661   4.040
    1PA     H8R 3511   0.763   6.646   3.957
    1PA     H8S 3512   0.659   6.765   4.040
    1PA     C17 3513   0.761   6.624   4.173
    1PA     H7R 3514   0.680   6.597   4.241
    1PA     H7S 3515   0.829   6.541   4.151
    1PA     C16 3516   0.851   6.740   4.217
    1PA     H6R 3517   0.913   6.766   4.131
    1PA     H6S 3518   0.775   6.816   4.235
    1PA     C15 3519   0.932   6.704   4.343
    1PA     H5R 3520   1.005   6.624   4.329
    1PA     H5S 3521   0.988   6.792   4.373
    1PA     C14 3522   0.852   6.666   4.468
    1PA     H4R 3523   0.787   6.751   4.490
    1PA     H4S 3524   0.793   6.575   4.463
    1PA     C13 3525   0.946   6.629   4.584
    1PA     H3R 3526   0.881   6.627   4.672
    1PA     H3S 3527   0.984   6.530   4.559
    1PA     C12 3528   1.055   6.735   4.605
    1PA     H2R 3529   1.122   6.705   4.524
    1PA     H2S 3530   1.014   6.836   4.599
    2PC     C11 3531   1.123   6.716   4.739
    2PC     O12 3532   1.072   6.755   4.842
    2PC     O11 3533   1.241   6.653   4.733
    2PC      C1 3534   1.330   6.665   4.846
    2PC      HR 3535   1.427   6.623   4.820
    2PC      HS 3536   1.348   6.771   4.865
    2PC      C2 3537   1.272   6.604   4.974
    2PC      HX 3538   1.173   6.647   4.995
    2PC      C3 3539   1.362   6.634   5.094
    2PC      HA 3540   1.408   6.545   5.139
    2PC      HB 3541   1.449   6.693   5.067
    2PC     O31 3542   1.289   6.701   5.199
    2PC     P31 3543   1.350   6.727   5.345
    2PC     O32 3544   1.482   6.795   5.286
    2PC     C31 3545   1.580   6.824   5.388
    2PC     H1A 3546   1.606   6.736   5.447
    2PC     H1B 3547   1.670   6.849   5.329
    2PC     C32 3548   1.551   6.947   5.475
    2PC     H2A 3549   1.447   6.931   5.504
    2PC     H2B 3550   1.612   6.954   5.565
    2PC     N31 3551   1.561   7.083   5.415
    2PC     C33 3552   1.527   7.192   5.512
    2PC     H3A 3553   1.539   7.288   5.463
    2PC     H3B 3554   1.422   7.172   5.536
    2PC     H3C 3555   1.596   7.182   5.596
    2PC     C34 3556   1.698   7.110   5.359
    2PC     H4A 3557   1.771   7.115   5.440
    2PC     H4B 3558   1.727   7.028   5.292
    2PC     H4C 3559   1.694   7.209   5.314
    2PC     C35 3560   1.463   7.113   5.305
    2PC     H5A 3561   1.359   7.099   5.335
    2PC     H5B 3562   1.483   7.049   5.218
    2PC     H5C 3563   1.480   7.215   5.272
    2PC     O33 3564   1.266   6.822   5.421
    2PC     O34 3565   1.395   6.612   5.428
    2PC     O21 3566   1.270   6.461   4.952
    2PC     C21 3567   1.188   6.389   5.030
    2PC     O22 3568   1.101   6.435   5.100
    3OL     C12 3569   1.207   6.241   5.007
    3OL     H2R 3570   1.197   6.199   5.108
    3OL     H2S 3571   1.303   6.215   4.961
    3OL     C13 3572   1.098   6.182   4.918
    3OL     H3R 3573   1.096   6.235   4.823
    3OL     H3S 3574   1.000   6.201   4.964
    3OL     C14 3575   1.118   6.032   4.895
    3OL     H4R 3576   1.123   5.970   4.985
    3OL     H4S 3577   1.220   6.019   4.857
    3OL     C15 3578   1.030   5.956   4.795
    3OL     H5R 3579   0.930   5.971   4.838
    3OL     H5S 3580   1.050   5.849   4.798
    3OL     C16 3581   1.023   6.019   4.655
    3OL     H6R 3582   1.026   6.128   4.662
    3OL     H6S 3583   0.930   5.992   4.604
    3OL     C17 3584   1.139   5.971   4.567
    3OL     H7R 3585   1.123   5.865   4.550
    3OL     H7S 3586   1.228   5.971   4.631
    3OL     C18 3587   1.154   6.055   4.439
    3OL     H8R 3588   1.175   6.155   4.478
    3OL     H8S 3589   1.054   6.060   4.395
    3OL     C19 3590   1.272   6.005   4.359
    3OL     H9R 3591   1.366   6.026   4.409
    3OL    C110 3592   1.270   5.942   4.243
    3OL    H10R 3593   1.365   5.912   4.199
    3OL    C111 3594   1.143   5.909   4.170
    3OL    H11R 3595   1.127   5.972   4.082
    3OL    H11S 3596   1.053   5.918   4.231
    3OL    C112 3597   1.147   5.762   4.126
    3OL    H12R 3598   1.184   5.701   4.208
    3OL    H12S 3599   1.210   5.753   4.037
    3OL    C113 3600   1.011   5.711   4.075
    3OL    H13R 3601   0.962   5.781   4.008
    3OL    H13S 3602   0.945   5.705   4.162
    3OL    C114 3603   1.024   5.569   4.019
    3OL    H14R 3604   1.074   5.500   4.089
    3OL    H14S 3605   1.083   5.566   3.927
    3OL    C115 3606   0.879   5.532   3.986
    3OL    H15R 3607   0.848   5.622   3.933
    3OL    H15S 3608   0.823   5.518   4.078
    3OL    C116 3609   0.869   5.396   3.916
    3OL    H16R 3610   0.765   5.362   3.916
    3OL    H16S 3611   0.924   5.317   3.968
    3OL    C117 3612   0.905   5.399   3.767
    3OL    H17R 3613   1.014   5.403   3.758
    3OL    H17S 3614   0.859   5.486   3.720
    3OL    C118 3615   0.861   5.274   3.690
    3OL    H18R 3616   0.755   5.260   3.713
    3OL    H18S 3617   0.915   5.186   3.727
    3OL    H18T 3618   0.866   5.288   3.582
    1PA    C116 3619   1.695   3.516   3.719
    1PA    H16R 3620   1.797   3.495   3.689
    1PA    H16S 3621   1.634   3.515   3.628
    1PA    H16T 3622   1.661   3.437   3.785
    1PA    C115 3623   1.697   3.657   3.780
    1PA    H15R 3624   1.746   3.720   3.705
    1PA    H15S 3625   1.596   3.699   3.792
    1PA    C114 3626   1.779   3.654   3.909
    1PA    H14R 3627   1.735   3.589   3.984
    1PA    H14S 3628   1.874   3.613   3.873
    1PA    C113 3629   1.791   3.798   3.963
    1PA    H13R 3630   1.819   3.866   3.882
    1PA    H13S 3631   1.693   3.831   3.998
    1PA    C112 3632   1.891   3.825   4.076
    1PA    H12R 3633   1.860   3.915   4.129
    1PA    H12S 3634   1.890   3.737   4.141
    1PA    C111 3635   2.034   3.851   4.027
    1PA    H11R 3636   2.079   3.755   4.000
    1PA    H11S 3637   2.028   3.914   3.939
    1PA    C110 3638   2.117   3.933   4.128
    1PA    H10R 3639   2.203   3.981   4.080
    1PA    H10S 3640   2.053   4.005   4.180
    1PA     C19 3641   2.168   3.850   4.246
    1PA     H9R 3642   2.077   3.800   4.279
    1PA     H9S 3643   2.242   3.773   4.222
    1PA     C18 3644   2.229   3.947   4.348
    1PA     H8R 3645   2.327   3.986   4.317
    1PA     H8S 3646   2.162   4.031   4.369
    1PA     C17 3647   2.248   3.867   4.477
    1PA     H7R 3648   2.341   3.809   4.480
    1PA     H7S 3649   2.275   3.947   4.546
    1PA     C16 3650   2.128   3.791   4.536
    1PA     H6R 3651   2.048   3.865   4.539
    1PA     H6S 3652   2.099   3.717   4.461
    1PA     C15 3653   2.159   3.725   4.672
    1PA     H5R 3654   2.233   3.650   4.643
    1PA     H5S 3655   2.206   3.792   4.745
    1PA     C14 3656   2.032   3.666   4.735
    1PA     H4R 3657   1.972   3.743   4.784
    1PA     H4S 3658   1.976   3.624   4.652
    1PA     C13 3659   2.073   3.552   4.829
    1PA     H3R 3660   2.084   3.461   4.769
    1PA     H3S 3661   2.166   3.568   4.885
    1PA     C12 3662   1.956   3.513   4.921
    1PA     H2R 3663   1.863   3.542   4.872
    1PA     H2S 3664   1.942   3.406   4.936
    2PC     C11 3665   1.962   3.579   5.057
    2PC     O12 3666   2.058   3.583   5.132
    2PC     O11 3667   1.843   3.623   5.100
    2PC      C1 3668   1.818   3.645   5.240
    2PC      HR 3669   1.840   3.566   5.312
    2PC      HS 3670   1.878   3.730   5.273
    2PC      C2 3671   1.667   3.673   5.253
    2PC      HX 3672   1.643   3.745   5.175
    2PC      C3 3673   1.628   3.702   5.398
    2PC      HA 3674   1.657   3.613   5.454
    2PC      HB 3675   1.678   3.790   5.441
    2PC     O31 3676   1.487   3.732   5.403
    2PC     P31 3677   1.410   3.736   5.543
    2PC     O32 3678   1.403   3.577   5.559
    2PC     C31 3679   1.320   3.499   5.471
    2PC     H1A 3680   1.220   3.543   5.468
    2PC     H1B 3681   1.357   3.496   5.368
    2PC     C32 3682   1.302   3.352   5.513
    2PC     H2A 3683   1.211   3.310   5.471
    2PC     H2B 3684   1.389   3.295   5.478
    2PC     N31 3685   1.299   3.316   5.659
    2PC     C33 3686   1.234   3.182   5.674
    2PC     H3A 3687   1.240   3.161   5.781
    2PC     H3B 3688   1.134   3.172   5.632
    2PC     H3C 3689   1.297   3.108   5.624
    2PC     C34 3690   1.428   3.324   5.735
    2PC     H4A 3691   1.426   3.304   5.842
    2PC     H4B 3692   1.501   3.255   5.692
    2PC     H4C 3693   1.460   3.427   5.719
    2PC     C35 3694   1.218   3.419   5.731
    2PC     H5A 3695   1.194   3.377   5.829
    2PC     H5B 3696   1.123   3.435   5.679
    2PC     H5C 3697   1.278   3.507   5.756
    2PC     O33 3698   1.508   3.782   5.645
    2PC     O34 3699   1.290   3.821   5.558
    2PC     O21 3700   1.603   3.547   5.224
    2PC     C21 3701   1.538   3.533   5.107
    2PC     O22 3702   1.525   3.617   5.020
    3OL     C12 3703   1.490   3.391   5.090
    3OL     H2R 3704   1.412   3.370   5.163
    3OL     H2S 3705   1.577   3.330   5.113
    3OL     C13 3706   1.427   3.363   4.952
    3OL     H3R 3707   1.494   3.396   4.873
    3OL     H3S 3708   1.332   3.416   4.947
    3OL     C14 3709   1.394   3.214   4.930
    3OL     H4R 3710   1.343   3.177   5.019
    3OL     H4S 3711   1.489   3.162   4.915
    3OL     C15 3712   1.305   3.194   4.807
    3OL     H5R 3713   1.362   3.233   4.723
    3OL     H5S 3714   1.222   3.263   4.824
    3OL     C16 3715   1.243   3.055   4.781
    3OL     H6R 3716   1.179   3.024   4.864
    3OL     H6S 3717   1.321   2.983   4.755
    3OL     C17 3718   1.151   3.057   4.658
    3OL     H7R 3719   1.208   3.117   4.588
    3OL     H7S 3720   1.059   3.111   4.683
    3OL     C18 3721   1.111   2.922   4.595
    3OL     H8R 3722   1.069   2.860   4.674
    3OL     H8S 3723   1.205   2.870   4.579
    3OL     C19 3724   1.019   2.934   4.477
    3OL     H9R 3725   0.930   2.991   4.503
    3OL    C110 3726   1.028   2.876   4.358
    3OL    H10R 3727   0.953   2.897   4.283
    3OL    C111 3728   1.150   2.797   4.316
    3OL    H11R 3729   1.162   2.713   4.386
    3OL    H11S 3730   1.239   2.856   4.338
    3OL    C112 3731   1.145   2.737   4.175
    3OL    H12R 3732   1.124   2.823   4.111
    3OL    H12S 3733   1.061   2.671   4.154
    3OL    C113 3734   1.280   2.674   4.136
    3OL    H13R 3735   1.291   2.577   4.184
    3OL    H13S 3736   1.367   2.732   4.167
    3OL    C114 3737   1.264   2.641   3.988
    3OL    H14R 3738   1.249   2.732   3.930
    3OL    H14S 3739   1.172   2.585   3.970
    3OL    C115 3740   1.380   2.559   3.928
    3OL    H15R 3741   1.354   2.547   3.822
    3OL    H15S 3742   1.400   2.463   3.976
    3OL    C116 3743   1.507   2.643   3.915
    3OL    H16R 3744   1.522   2.669   4.020
    3OL    H16S 3745   1.489   2.729   3.850
    3OL    C117 3746   1.637   2.571   3.873
    3OL    H17R 3747   1.641   2.474   3.924
    3OL    H17S 3748   1.723   2.637   3.892
    3OL    C118 3749   1.623   2.540   3.724
    3OL    H18R 3750   1.584   2.621   3.662
    3OL    H18S 3751   1.561   2.451   3.709
    3OL    H18T 3752   1.712   2.506   3.671
    1PA    C116 3753   3.466   3.797   3.918
    1PA    H16R 3754   3.456   3.861   3.830
    1PA    H16S 3755   3.418   3.701   3.897
    1PA    H16T 3756   3.568   3.777   3.952
    1PA    C115 3757   3.390   3.866   4.033
    1PA    H15R 3758   3.426   3.968   4.048
    1PA    H15S 3759   3.284   3.868   4.007
    1PA    C114 3760   3.396   3.789   4.165
    1PA    H14R 3761   3.309   3.804   4.230
    1PA    H14S 3762   3.383   3.682   4.145
    1PA    C113 3763   3.526   3.811   4.244
    1PA    H13R 3764   3.533   3.732   4.320
    1PA    H13S 3765   3.616   3.802   4.183
    1PA    C112 3766   3.527   3.940   4.327
    1PA    H12R 3767   3.499   4.026   4.266
    1PA    H12S 3768   3.449   3.933   4.403
    1PA    C111 3769   3.662   3.975   4.391
    1PA    H11R 3770   3.744   3.972   4.318
    1PA    H11S 3771   3.666   4.074   4.437
    1PA    C110 3772   3.695   3.870   4.498
    1PA    H10R 3773   3.622   3.876   4.579
    1PA    H10S 3774   3.686   3.766   4.465
    1PA     C19 3775   3.831   3.907   4.560
    1PA     H9R 3776   3.900   3.913   4.475
    1PA     H9S 3777   3.841   4.007   4.602
    1PA     C18 3778   3.881   3.813   4.670
    1PA     H8R 3779   3.796   3.792   4.735
    1PA     H8S 3780   3.911   3.725   4.612
    1PA     C17 3781   3.995   3.868   4.757
    1PA     H7R 3782   4.059   3.784   4.785
    1PA     H7S 3783   4.058   3.943   4.707
    1PA     C16 3784   3.946   3.932   4.888
    1PA     H6R 3785   3.879   4.015   4.865
    1PA     H6S 3786   3.885   3.853   4.932
    1PA     C15 3787   4.057   3.978   4.984
    1PA     H5R 3788   4.121   3.897   5.017
    1PA     H5S 3789   4.117   4.060   4.943
    1PA     C14 3790   3.990   4.033   5.111
    1PA     H4R 3791   3.918   4.110   5.085
    1PA     H4S 3792   3.923   3.960   5.157
    1PA     C13 3793   4.098   4.072   5.214
    1PA     H3R 3794   4.167   3.988   5.225
    1PA     H3S 3795   4.163   4.143   5.163
    1PA     C12 3796   4.051   4.130   5.347
    1PA     H2R 3797   3.978   4.212   5.341
    1PA     H2S 3798   3.998   4.045   5.390
    2PC     C11 3799   4.166   4.160   5.440
    2PC     O12 3800   4.184   4.100   5.544
    2PC     O11 3801   4.244   4.258   5.393
    2PC      C1 3802   4.345   4.308   5.483
    2PC      HR 3803   4.379   4.224   5.544
    2PC      HS 3804   4.433   4.341   5.427
    2PC      C2 3805   4.291   4.422   5.571
    2PC      HX 3806   4.372   4.484   5.610
    2PC      C3 3807   4.207   4.364   5.686
    2PC      HA 3808   4.114   4.326   5.644
    2PC      HB 3809   4.267   4.285   5.731
    2PC     O31 3810   4.176   4.461   5.788
    2PC     P31 3811   4.103   4.419   5.924
    2PC     O32 3812   4.236   4.374   6.001
    2PC     C31 3813   4.218   4.277   6.105
    2PC     H1A 3814   4.164   4.322   6.189
    2PC     H1B 3815   4.165   4.189   6.068
    2PC     C32 3816   4.358   4.244   6.161
    2PC     H2A 3817   4.407   4.184   6.084
    2PC     H2B 3818   4.420   4.331   6.180
    2PC     N31 3819   4.365   4.156   6.282
    2PC     C33 3820   4.295   4.024   6.268
    2PC     H3A 3821   4.348   3.939   6.224
    2PC     H3B 3822   4.282   3.995   6.372
    2PC     H3C 3823   4.201   4.050   6.219
    2PC     C34 3824   4.513   4.149   6.305
    2PC     H4A 3825   4.551   4.251   6.309
    2PC     H4B 3826   4.542   4.103   6.399
    2PC     H4C 3827   4.555   4.095   6.219
    2PC     C35 3828   4.299   4.221   6.400
    2PC     H5A 3829   4.309   4.158   6.488
    2PC     H5B 3830   4.192   4.229   6.381
    2PC     H5C 3831   4.356   4.313   6.414
    2PC     O33 3832   4.040   4.536   5.990
    2PC     O34 3833   4.013   4.311   5.879
    2PC     O21 3834   4.217   4.515   5.491
    2PC     C21 3835   4.286   4.592   5.405
    2PC     O22 3836   4.407   4.592   5.399
    3OL     C12 3837   4.203   4.685   5.320
    3OL     H2R 3838   4.271   4.717   5.241
    3OL     H2S 3839   4.163   4.769   5.378
    3OL     C13 3840   4.078   4.621   5.258
    3OL     H3R 3841   4.026   4.708   5.218
    3OL     H3S 3842   4.015   4.567   5.329
    3OL     C14 3843   4.110   4.526   5.142
    3OL     H4R 3844   4.155   4.433   5.177
    3OL     H4S 3845   4.186   4.576   5.081
    3OL     C15 3846   3.984   4.489   5.063
    3OL     H5R 3847   3.933   4.574   5.017
    3OL     H5S 3848   3.907   4.458   5.134
    3OL     C16 3849   4.029   4.382   4.963
    3OL     H6R 3850   4.069   4.297   5.019
    3OL     H6S 3851   4.114   4.407   4.899
    3OL     C17 3852   3.918   4.312   4.881
    3OL     H7R 3853   3.838   4.284   4.950
    3OL     H7S 3854   3.961   4.223   4.835
    3OL     C18 3855   3.848   4.412   4.788
    3OL     H8R 3856   3.805   4.488   4.853
    3OL     H8S 3857   3.769   4.357   4.736
    3OL     C19 3858   3.945   4.484   4.697
    3OL     H9R 3859   4.006   4.561   4.744
    3OL    C110 3860   3.947   4.493   4.565
    3OL    H10R 3861   4.023   4.558   4.522
    3OL    C111 3862   3.847   4.433   4.469
    3OL    H11R 3863   3.820   4.512   4.397
    3OL    H11S 3864   3.755   4.402   4.518
    3OL    C112 3865   3.905   4.311   4.396
    3OL    H12R 3866   3.832   4.260   4.333
    3OL    H12S 3867   3.934   4.234   4.468
    3OL    C113 3868   4.026   4.348   4.310
    3OL    H13R 3869   4.096   4.404   4.371
    3OL    H13S 3870   3.987   4.420   4.238
    3OL    C114 3871   4.094   4.224   4.249
    3OL    H14R 3872   4.022   4.178   4.181
    3OL    H14S 3873   4.119   4.162   4.335
    3OL    C115 3874   4.225   4.266   4.182
    3OL    H15R 3875   4.276   4.328   4.256
    3OL    H15S 3876   4.203   4.336   4.101
    3OL    C116 3877   4.302   4.149   4.119
    3OL    H16R 3878   4.237   4.131   4.034
    3OL    H16S 3879   4.303   4.063   4.186
    3OL    C117 3880   4.446   4.194   4.087
    3OL    H17R 3881   4.489   4.241   4.176
    3OL    H17S 3882   4.453   4.261   4.001
    3OL    C118 3883   4.518   4.063   4.052
    3OL    H18R 3884   4.619   4.085   4.016
    3OL    H18S 3885   4.470   4.009   3.971
    3OL    H18T 3886   4.520   3.990   4.133
    1PA    C116 3887   2.598   1.288   3.559
    1PA    H16R 3888   2.639   1.316   3.656
    1PA    H16S 3889   2.520   1.364   3.550
    1PA    H16T 3890   2.680   1.295   3.488
    1PA    C115 3891   2.537   1.147   3.560
    1PA    H15R 3892   2.438   1.161   3.604
    1PA    H15S 3893   2.544   1.114   3.456
    1PA    C114 3894   2.608   1.060   3.664
    1PA    H14R 3895   2.708   1.035   3.627
    1PA    H14S 3896   2.630   1.115   3.756
    1PA    C113 3897   2.525   0.937   3.702
    1PA    H13R 3898   2.432   0.972   3.748
    1PA    H13S 3899   2.503   0.869   3.619
    1PA    C112 3900   2.601   0.850   3.802
    1PA    H12R 3901   2.696   0.826   3.754
    1PA    H12S 3902   2.623   0.903   3.895
    1PA    C111 3903   2.526   0.723   3.843
    1PA    H11R 3904   2.497   0.668   3.754
    1PA    H11S 3905   2.590   0.660   3.906
    1PA    C110 3906   2.392   0.755   3.911
    1PA    H10R 3907   2.411   0.821   3.996
    1PA    H10S 3908   2.325   0.807   3.842
    1PA     C19 3909   2.324   0.624   3.956
    1PA     H9R 3910   2.288   0.562   3.874
    1PA     H9S 3911   2.400   0.564   4.006
    1PA     C18 3912   2.220   0.668   4.060
    1PA     H8R 3913   2.271   0.687   4.154
    1PA     H8S 3914   2.174   0.761   4.025
    1PA     C17 3915   2.115   0.560   4.089
    1PA     H7R 3916   2.021   0.596   4.132
    1PA     H7S 3917   2.095   0.519   3.990
    1PA     C16 3918   2.168   0.450   4.182
    1PA     H6R 3919   2.106   0.362   4.163
    1PA     H6S 3920   2.265   0.427   4.136
    1PA     C15 3921   2.204   0.478   4.328
    1PA     H5R 3922   2.275   0.408   4.374
    1PA     H5S 3923   2.266   0.568   4.325
    1PA     C14 3924   2.077   0.491   4.413
    1PA     H4R 3925   2.017   0.574   4.376
    1PA     H4S 3926   2.031   0.392   4.411
    1PA     C13 3927   2.109   0.521   4.560
    1PA     H3R 3928   2.136   0.627   4.567
    1PA     H3S 3929   2.014   0.527   4.613
    1PA     C12 3930   2.207   0.430   4.635
    1PA     H2R 3931   2.175   0.327   4.618
    1PA     H2S 3932   2.308   0.449   4.598
    2PC     C11 3933   2.213   0.459   4.783
    2PC     O12 3934   2.141   0.539   4.840
    2PC     O11 3935   2.309   0.387   4.843
    2PC      C1 3936   2.322   0.397   4.985
    2PC      HR 3937   2.420   0.363   5.017
    2PC      HS 3938   2.316   0.502   5.015
    2PC      C2 3939   2.213   0.314   5.056
    2PC      HX 3940   2.114   0.341   5.017
    2PC      C3 3941   2.211   0.355   5.204
    2PC      HA 3942   2.255   0.273   5.260
    2PC      HB 3943   2.275   0.440   5.230
    2PC     O31 3944   2.076   0.382   5.243
    2PC     P31 3945   2.051   0.436   5.392
    2PC     O32 3946   2.024   0.593   5.373
    2PC     C31 3947   2.134   0.684   5.363
    2PC     H1A 3948   2.193   0.669   5.454
    2PC     H1B 3949   2.193   0.655   5.275
    2PC     C32 3950   2.077   0.826   5.358
    2PC     H2A 3951   1.993   0.828   5.288
    2PC     H2B 3952   2.047   0.855   5.458
    2PC     N31 3953   2.161   0.938   5.303
    2PC     C33 3954   2.084   1.066   5.290
    2PC     H3A 3955   2.153   1.145   5.257
    2PC     H3B 3956   2.011   1.042   5.213
    2PC     H3C 3957   2.032   1.084   5.384
    2PC     C34 3958   2.281   0.962   5.390
    2PC     H4A 3959   2.246   0.999   5.486
    2PC     H4B 3960   2.322   0.861   5.396
    2PC     H4C 3961   2.348   1.036   5.344
    2PC     C35 3962   2.203   0.906   5.162
    2PC     H5A 3963   2.118   0.878   5.100
    2PC     H5B 3964   2.289   0.840   5.176
    2PC     H5C 3965   2.235   1.007   5.135
    2PC     O33 3966   1.932   0.364   5.443
    2PC     O34 3967   2.166   0.403   5.480
    2PC     O21 3968   2.218   0.171   5.045
    2PC     C21 3969   2.311   0.083   5.087
    2PC     O22 3970   2.397   0.118   5.164
    3OL     C12 3971   2.315  -0.048   5.012
    3OL     H2R 3972   2.347  -0.116   5.092
    3OL     H2S 3973   2.393  -0.028   4.938
    3OL     C13 3974   2.175  -0.078   4.957
    3OL     H3R 3975   2.145  -0.004   4.883
    3OL     H3S 3976   2.100  -0.082   5.036
    3OL     C14 3977   2.172  -0.215   4.888
    3OL     H4R 3978   2.188  -0.300   4.956
    3OL     H4S 3979   2.257  -0.223   4.821
    3OL     C15 3980   2.035  -0.228   4.820
    3OL     H5R 3981   2.018  -0.154   4.742
    3OL     H5S 3982   1.963  -0.211   4.901
    3OL     C16 3983   2.021  -0.367   4.755
    3OL     H6R 3984   2.094  -0.438   4.794
    3OL     H6S 3985   2.050  -0.361   4.650
    3OL     C17 3986   1.876  -0.417   4.758
    3OL     H7R 3987   1.828  -0.371   4.844
    3OL     H7S 3988   1.879  -0.526   4.767
    3OL     C18 3989   1.792  -0.366   4.640
    3OL     H8R 3990   1.843  -0.391   4.547
    3OL     H8S 3991   1.775  -0.258   4.637
    3OL     C19 3992   1.659  -0.438   4.638
    3OL     H9R 3993   1.676  -0.545   4.625
    3OL    C110 3994   1.533  -0.402   4.655
    3OL    H10R 3995   1.461  -0.483   4.646
    3OL    C111 3996   1.498  -0.262   4.699
    3OL    H11R 3997   1.575  -0.230   4.769
    3OL    H11S 3998   1.406  -0.263   4.757
    3OL    C112 3999   1.485  -0.164   4.581
    3OL    H12R 4000   1.456  -0.214   4.488
    3OL    H12S 4001   1.583  -0.123   4.557
    3OL    C113 4002   1.389  -0.049   4.615
    3OL    H13R 4003   1.412   0.004   4.708
    3OL    H13S 4004   1.292  -0.095   4.632
    3OL    C114 4005   1.388   0.051   4.498
    3OL    H14R 4006   1.483   0.105   4.495
    3OL    H14S 4007   1.314   0.127   4.523
    3OL    C115 4008   1.353  -0.018   4.365
    3OL    H15R 4009   1.296  -0.107   4.392
    3OL    H15S 4010   1.449  -0.047   4.321
    3OL    C116 4011   1.282   0.078   4.268
    3OL    H16R 4012   1.350   0.158   4.237
    3OL    H16S 4013   1.201   0.131   4.317
    3OL    C117 4014   1.243  -0.006   4.146
    3OL    H17R 4015   1.165  -0.078   4.173
    3OL    H17S 4016   1.325  -0.066   4.106
    3OL    C118 4017   1.181   0.083   4.038
    3OL    H18R 4018   1.252   0.156   3.996
    3OL    H18S 4019   1.092   0.135   4.072
    3OL    H18T 4020   1.147   0.019   3.956
    1PA    C116 4021   3.552   3.277   3.381
    1PA    H16R 4022   3.453   3.302   3.342
    1PA    H16S 4023   3.581   3.176   3.352
    1PA    H16T 4024   3.628   3.342   3.338
    1PA    C115 4025   3.548   3.301   3.532
    1PA    H15R 4026   3.506   3.399   3.559
    1PA    H15S 4027   3.474   3.234   3.576
    1PA    C114 4028   3.681   3.283   3.607
    1PA    H14R 4029   3.723   3.190   3.570
    1PA    H14S 4030   3.747   3.368   3.588
    1PA    C113 4031   3.662   3.264   3.758
    1PA    H13R 4032   3.602   3.176   3.780
    1PA    H13S 4033   3.758   3.245   3.808
    1PA    C112 4034   3.598   3.389   3.821
    1PA    H12R 4035   3.648   3.472   3.771
    1PA    H12S 4036   3.491   3.391   3.800
    1PA    C111 4037   3.618   3.407   3.972
    1PA    H11R 4038   3.562   3.496   4.003
    1PA    H11S 4039   3.583   3.314   4.016
    1PA    C110 4040   3.764   3.418   4.019
    1PA    H10R 4041   3.815   3.322   4.023
    1PA    H10S 4042   3.805   3.486   3.944
    1PA     C19 4043   3.773   3.482   4.158
    1PA     H9R 4044   3.878   3.504   4.181
    1PA     H9S 4045   3.728   3.581   4.149
    1PA     C18 4046   3.719   3.402   4.277
    1PA     H8R 4047   3.615   3.376   4.257
    1PA     H8S 4048   3.774   3.308   4.280
    1PA     C17 4049   3.728   3.476   4.412
    1PA     H7R 4050   3.836   3.488   4.428
    1PA     H7S 4051   3.686   3.576   4.402
    1PA     C16 4052   3.664   3.391   4.522
    1PA     H6R 4053   3.560   3.380   4.493
    1PA     H6S 4054   3.713   3.293   4.532
    1PA     C15 4055   3.671   3.470   4.654
    1PA     H5R 4056   3.772   3.503   4.678
    1PA     H5S 4057   3.617   3.564   4.647
    1PA     C14 4058   3.611   3.387   4.769
    1PA     H4R 4059   3.511   3.361   4.735
    1PA     H4S 4060   3.664   3.291   4.776
    1PA     C13 4061   3.606   3.454   4.907
    1PA     H3R 4062   3.532   3.403   4.969
    1PA     H3S 4063   3.710   3.454   4.941
    1PA     C12 4064   3.557   3.598   4.895
    1PA     H2R 4065   3.623   3.655   4.829
    1PA     H2S 4066   3.457   3.609   4.852
    2PC     C11 4067   3.579   3.665   5.028
    2PC     O12 4068   3.674   3.634   5.098
    2PC     O11 4069   3.491   3.763   5.053
    2PC      C1 4070   3.499   3.853   5.165
    2PC      HR 4071   3.402   3.902   5.179
    2PC      HS 4072   3.512   3.787   5.251
    2PC      C2 4073   3.616   3.951   5.149
    2PC      HX 4074   3.706   3.902   5.111
    2PC      C3 4075   3.663   4.007   5.284
    2PC      HA 4076   3.723   3.932   5.337
    2PC      HB 4077   3.734   4.088   5.267
    2PC     O31 4078   3.554   4.052   5.367
    2PC     P31 4079   3.572   4.051   5.527
    2PC     O32 4080   3.679   4.169   5.551
    2PC     C31 4081   3.627   4.278   5.629
    2PC     H1A 4082   3.540   4.329   5.586
    2PC     H1B 4083   3.590   4.241   5.725
    2PC     C32 4084   3.738   4.380   5.657
    2PC     H2A 4085   3.710   4.423   5.753
    2PC     H2B 4086   3.837   4.336   5.667
    2PC     N31 4087   3.763   4.490   5.558
    2PC     C33 4088   3.791   4.438   5.420
    2PC     H3A 4089   3.882   4.379   5.433
    2PC     H3B 4090   3.713   4.365   5.401
    2PC     H3C 4091   3.804   4.512   5.341
    2PC     C34 4092   3.639   4.575   5.558
    2PC     H4A 4093   3.616   4.589   5.664
    2PC     H4B 4094   3.654   4.671   5.509
    2PC     H4C 4095   3.556   4.524   5.510
    2PC     C35 4096   3.880   4.571   5.605
    2PC     H5A 4097   3.884   4.593   5.711
    2PC     H5B 4098   3.881   4.669   5.557
    2PC     H5C 4099   3.965   4.504   5.586
    2PC     O33 4100   3.437   4.075   5.581
    2PC     O34 4101   3.618   3.922   5.581
    2PC     O21 4102   3.574   4.057   5.062
    2PC     C21 4103   3.564   4.035   4.930
    2PC     O22 4104   3.614   3.937   4.880
    3OL     C12 4105   3.493   4.144   4.854
    3OL     H2R 4106   3.497   4.243   4.901
    3OL     H2S 4107   3.390   4.112   4.847
    3OL     C13 4108   3.546   4.162   4.711
    3OL     H3R 4109   3.528   4.074   4.648
    3OL     H3S 4110   3.655   4.171   4.721
    3OL     C14 4111   3.497   4.289   4.641
    3OL     H4R 4112   3.563   4.312   4.557
    3OL     H4S 4113   3.515   4.368   4.715
    3OL     C15 4114   3.349   4.286   4.601
    3OL     H5R 4115   3.323   4.384   4.560
    3OL     H5S 4116   3.277   4.266   4.681
    3OL     C16 4117   3.323   4.182   4.490
    3OL     H6R 4118   3.350   4.083   4.528
    3OL     H6S 4119   3.383   4.200   4.401
    3OL     C17 4120   3.173   4.177   4.456
    3OL     H7R 4121   3.139   4.268   4.407
    3OL     H7S 4122   3.124   4.169   4.553
    3OL     C18 4123   3.133   4.058   4.368
    3OL     H8R 4124   3.149   3.959   4.412
    3OL     H8S 4125   3.182   4.054   4.270
    3OL     C19 4126   2.984   4.072   4.352
    3OL     H9R 4127   2.928   4.085   4.443
    3OL    C110 4128   2.914   4.080   4.240
    3OL    H10R 4129   2.806   4.094   4.246
    3OL    C111 4130   2.965   4.047   4.102
    3OL    H11R 4131   2.886   3.995   4.046
    3OL    H11S 4132   3.049   3.979   4.119
    3OL    C112 4133   2.998   4.167   4.011
    3OL    H12R 4134   2.923   4.245   4.012
    3OL    H12S 4135   2.996   4.142   3.905
    3OL    C113 4136   3.136   4.225   4.046
    3OL    H13R 4137   3.214   4.148   4.052
    3OL    H13S 4138   3.120   4.252   4.151
    3OL    C114 4139   3.179   4.347   3.964
    3OL    H14R 4140   3.163   4.323   3.859
    3OL    H14S 4141   3.284   4.365   3.992
    3OL    C115 4142   3.098   4.470   4.006
    3OL    H15R 4143   3.121   4.478   4.113
    3OL    H15S 4144   2.993   4.447   3.989
    3OL    C116 4145   3.140   4.608   3.953
    3OL    H16R 4146   3.239   4.639   3.987
    3OL    H16S 4147   3.076   4.681   4.004
    3OL    C117 4148   3.130   4.628   3.801
    3OL    H17R 4149   3.209   4.575   3.747
    3OL    H17S 4150   3.141   4.733   3.774
    3OL    C118 4151   2.996   4.581   3.744
    3OL    H18R 4152   2.959   4.479   3.757
    3OL    H18S 4153   2.992   4.610   3.639
    3OL    H18T 4154   2.916   4.647   3.781
    1PA    C116 4155   5.196   0.218   3.194
    1PA    H16R 4156   5.236   0.131   3.245
    1PA    H16S 4157   5.281   0.261   3.141
    1PA    H16T 4158   5.123   0.188   3.119
    1PA    C115 4159   5.145   0.326   3.291
    1PA    H15R 4160   5.181   0.425   3.261
    1PA    H15S 4161   5.036   0.326   3.294
    1PA    C114 4162   5.189   0.292   3.434
    1PA    H14R 4163   5.145   0.195   3.459
    1PA    H14S 4164   5.298   0.296   3.434
    1PA    C113 4165   5.146   0.395   3.539
    1PA    H13R 4166   5.205   0.487   3.535
    1PA    H13S 4167   5.039   0.416   3.544
    1PA    C112 4168   5.181   0.344   3.680
    1PA    H12R 4169   5.126   0.251   3.700
    1PA    H12S 4170   5.288   0.323   3.682
    1PA    C111 4171   5.150   0.453   3.783
    1PA    H11R 4172   5.213   0.542   3.771
    1PA    H11S 4173   5.049   0.489   3.761
    1PA    C110 4174   5.134   0.397   3.925
    1PA    H10R 4175   5.093   0.475   3.990
    1PA    H10S 4176   5.068   0.310   3.929
    1PA     C19 4177   5.269   0.362   3.989
    1PA     H9R 4178   5.311   0.283   3.926
    1PA     H9S 4179   5.328   0.454   3.992
    1PA     C18 4180   5.255   0.305   4.131
    1PA     H8R 4181   5.180   0.356   4.191
    1PA     H8S 4182   5.219   0.202   4.133
    1PA     C17 4183   5.387   0.291   4.209
    1PA     H7R 4184   5.454   0.217   4.165
    1PA     H7S 4185   5.438   0.387   4.209
    1PA     C16 4186   5.348   0.249   4.351
    1PA     H6R 4187   5.280   0.324   4.393
    1PA     H6S 4188   5.288   0.158   4.351
    1PA     C15 4189   5.473   0.235   4.439
    1PA     H5R 4190   5.446   0.142   4.490
    1PA     H5S 4191   5.567   0.227   4.385
    1PA     C14 4192   5.499   0.346   4.542
    1PA     H4R 4193   5.531   0.438   4.492
    1PA     H4S 4194   5.403   0.368   4.590
    1PA     C13 4195   5.611   0.307   4.639
    1PA     H3R 4196   5.586   0.210   4.684
    1PA     H3S 4197   5.705   0.307   4.585
    1PA     C12 4198   5.628   0.407   4.755
    1PA     H2R 4199   5.664   0.503   4.719
    1PA     H2S 4200   5.530   0.414   4.802
    2PC     C11 4201   5.728   0.364   4.859
    2PC     O12 4202   5.753   0.246   4.871
    2PC     O11 4203   5.778   0.456   4.944
    2PC      C1 4204   5.858   0.420   5.058
    2PC      HR 4205   5.919   0.338   5.020
    2PC      HS 4206   5.929   0.501   5.079
    2PC      C2 4207   5.774   0.377   5.179
    2PC      HX 4208   5.689   0.443   5.198
    2PC      C3 4209   5.862   0.368   5.304
    2PC      HA 4210   5.876   0.261   5.321
    2PC      HB 4211   5.956   0.423   5.297
    2PC     O31 4212   5.786   0.411   5.418
    2PC     P31 4213   5.842   0.428   5.567
    2PC     O32 4214   5.909   0.574   5.576
    2PC     C31 4215   5.821   0.679   5.620
    2PC     H1A 4216   5.850   0.769   5.565
    2PC     H1B 4217   5.715   0.665   5.597
    2PC     C32 4218   5.835   0.693   5.772
    2PC     H2A 4219   5.744   0.734   5.814
    2PC     H2B 4220   5.856   0.595   5.816
    2PC     N31 4221   5.946   0.782   5.820
    2PC     C33 4222   5.961   0.779   5.969
    2PC     H3A 4223   5.866   0.816   6.010
    2PC     H3B 4224   5.966   0.673   5.995
    2PC     H3C 4225   6.035   0.846   6.013
    2PC     C34 4226   6.079   0.745   5.762
    2PC     H4A 4227   6.103   0.644   5.794
    2PC     H4B 4228   6.061   0.741   5.654
    2PC     H4C 4229   6.161   0.814   5.782
    2PC     C35 4230   5.931   0.926   5.780
    2PC     H5A 4231   6.021   0.985   5.796
    2PC     H5B 4232   5.842   0.965   5.830
    2PC     H5C 4233   5.906   0.938   5.674
    2PC     O33 4234   5.746   0.402   5.677
    2PC     O34 4235   5.938   0.321   5.604
    2PC     O21 4236   5.730   0.241   5.161
    2PC     C21 4237   5.607   0.214   5.115
    2PC     O22 4238   5.526   0.295   5.074
    3OL     C12 4239   5.553   0.075   5.132
    3OL     H2R 4240   5.481   0.077   5.215
    3OL     H2S 4241   5.633   0.007   5.162
    3OL     C13 4242   5.480   0.026   5.006
    3OL     H3R 4243   5.551   0.015   4.923
    3OL     H3S 4244   5.404   0.100   4.979
    3OL     C14 4245   5.411  -0.108   5.034
    3OL     H4R 4246   5.332  -0.113   4.958
    3OL     H4S 4247   5.358  -0.100   5.129
    3OL     C15 4248   5.502  -0.231   5.038
    3OL     H5R 4249   5.444  -0.317   5.070
    3OL     H5S 4250   5.574  -0.215   5.118
    3OL     C16 4251   5.580  -0.260   4.909
    3OL     H6R 4252   5.665  -0.326   4.929
    3OL     H6S 4253   5.622  -0.164   4.876
    3OL     C17 4254   5.479  -0.318   4.810
    3OL     H7R 4255   5.392  -0.253   4.797
    3OL     H7S 4256   5.450  -0.414   4.854
    3OL     C18 4257   5.544  -0.355   4.676
    3OL     H8R 4258   5.639  -0.399   4.706
    3OL     H8S 4259   5.570  -0.265   4.618
    3OL     C19 4260   5.462  -0.448   4.590
    3OL     H9R 4261   5.387  -0.504   4.646
    3OL    C110 4262   5.478  -0.466   4.460
    3OL    H10R 4263   5.418  -0.541   4.410
    3OL    C111 4264   5.573  -0.404   4.361
    3OL    H11R 4265   5.645  -0.339   4.412
    3OL    H11S 4266   5.514  -0.349   4.287
    3OL    C112 4267   5.656  -0.505   4.280
    3OL    H12R 4268   5.712  -0.565   4.352
    3OL    H12S 4269   5.727  -0.454   4.215
    3OL    C113 4270   5.560  -0.592   4.197
    3OL    H13R 4271   5.486  -0.531   4.145
    3OL    H13S 4272   5.506  -0.662   4.260
    3OL    C114 4273   5.638  -0.681   4.100
    3OL    H14R 4274   5.680  -0.621   4.018
    3OL    H14S 4275   5.565  -0.744   4.049
    3OL    C115 4276   5.749  -0.762   4.168
    3OL    H15R 4277   5.707  -0.790   4.265
    3OL    H15S 4278   5.830  -0.692   4.191
    3OL    C116 4279   5.808  -0.877   4.086
    3OL    H16R 4280   5.912  -0.902   4.108
    3OL    H16S 4281   5.811  -0.845   3.982
    3OL    C117 4282   5.728  -1.007   4.106
    3OL    H17R 4283   5.755  -1.069   4.020
    3OL    H17S 4284   5.622  -0.983   4.104
    3OL    C118 4285   5.755  -1.091   4.231
    3OL    H18R 4286   5.699  -1.185   4.232
    3OL    H18S 4287   5.728  -1.036   4.322
    3OL    H18T 4288   5.862  -1.110   4.238
    1PA    C116 4289   3.725   1.127   3.822
    1PA    H16R 4290   3.828   1.162   3.834
    1PA    H16S 4291   3.660   1.214   3.819
    1PA    H16T 4292   3.727   1.067   3.731
    1PA    C115 4293   3.702   1.041   3.948
    1PA    H15R 4294   3.790   0.977   3.951
    1PA    H15S 4295   3.701   1.108   4.035
    1PA    C114 4296   3.580   0.952   3.921
    1PA    H14R 4297   3.587   0.884   3.836
    1PA    H14S 4298   3.571   0.888   4.009
    1PA    C113 4299   3.456   1.043   3.923
    1PA    H13R 4300   3.446   1.099   3.830
    1PA    H13S 4301   3.368   0.979   3.919
    1PA    C112 4302   3.436   1.144   4.037
    1PA    H12R 4303   3.530   1.193   4.064
    1PA    H12S 4304   3.363   1.220   4.008
    1PA    C111 4305   3.376   1.084   4.164
    1PA    H11R 4306   3.396   0.977   4.170
    1PA    H11S 4307   3.413   1.130   4.257
    1PA    C110 4308   3.224   1.099   4.184
    1PA    H10R 4309   3.211   1.206   4.202
    1PA    H10S 4310   3.171   1.068   4.093
    1PA     C19 4311   3.159   1.026   4.302
    1PA     H9R 4312   3.058   1.066   4.314
    1PA     H9S 4313   3.146   0.921   4.275
    1PA     C18 4314   3.228   1.029   4.439
    1PA     H8R 4315   3.320   0.970   4.449
    1PA     H8S 4316   3.249   1.135   4.459
    1PA     C17 4317   3.136   0.970   4.546
    1PA     H7R 4318   3.047   1.034   4.548
    1PA     H7S 4319   3.109   0.867   4.523
    1PA     C16 4320   3.202   0.976   4.684
    1PA     H6R 4321   3.292   0.914   4.685
    1PA     H6S 4322   3.227   1.081   4.699
    1PA     C15 4323   3.111   0.929   4.798
    1PA     H5R 4324   3.022   0.990   4.812
    1PA     H5S 4325   3.077   0.825   4.789
    1PA     C14 4326   3.172   0.955   4.936
    1PA     H4R 4327   3.262   0.895   4.946
    1PA     H4S 4328   3.200   1.060   4.937
    1PA     C13 4329   3.076   0.919   5.051
    1PA     H3R 4330   3.100   0.989   5.131
    1PA     H3S 4331   2.976   0.931   5.009
    1PA     C12 4332   3.104   0.775   5.095
    1PA     H2R 4333   3.060   0.704   5.025
    1PA     H2S 4334   3.210   0.751   5.084
    2PC     C11 4335   3.062   0.741   5.236
    2PC     O12 4336   3.019   0.823   5.315
    2PC     O11 4337   3.082   0.609   5.254
    2PC      C1 4338   3.067   0.546   5.383
    2PC      HR 4339   3.152   0.483   5.409
    2PC      HS 4340   3.073   0.632   5.450
    2PC      C2 4341   2.934   0.471   5.400
    2PC      HX 4342   2.845   0.523   5.362
    2PC      C3 4343   2.897   0.447   5.547
    2PC      HA 4344   2.864   0.542   5.591
    2PC      HB 4345   2.815   0.374   5.552
    2PC     O31 4346   3.014   0.401   5.616
    2PC     P31 4347   3.000   0.353   5.768
    2PC     O32 4348   3.150   0.309   5.806
    2PC     C31 4349   3.245   0.409   5.764
    2PC     H1A 4350   3.269   0.382   5.661
    2PC     H1B 4351   3.204   0.510   5.774
    2PC     C32 4352   3.369   0.403   5.854
    2PC     H2A 4353   3.330   0.408   5.955
    2PC     H2B 4354   3.413   0.303   5.847
    2PC     N31 4355   3.469   0.515   5.850
    2PC     C33 4356   3.526   0.548   5.716
    2PC     H3A 4357   3.573   0.454   5.685
    2PC     H3B 4358   3.453   0.569   5.637
    2PC     H3C 4359   3.607   0.619   5.734
    2PC     C34 4360   3.407   0.640   5.905
    2PC     H4A 4361   3.334   0.671   5.831
    2PC     H4B 4362   3.359   0.621   6.002
    2PC     H4C 4363   3.483   0.718   5.899
    2PC     C35 4364   3.569   0.470   5.953
    2PC     H5A 4365   3.651   0.540   5.964
    2PC     H5B 4366   3.606   0.368   5.940
    2PC     H5C 4367   3.514   0.469   6.048
    2PC     O33 4368   2.956   0.465   5.853
    2PC     O34 4369   2.896   0.253   5.800
    2PC     O21 4370   2.955   0.349   5.327
    2PC     C21 4371   2.857   0.258   5.311
    2PC     O22 4372   2.744   0.282   5.349
    3OL     C12 4373   2.913   0.136   5.243
    3OL     H2R 4374   2.929   0.058   5.317
    3OL     H2S 4375   3.004   0.163   5.189
    3OL     C13 4376   2.818   0.081   5.136
    3OL     H3R 4377   2.724   0.048   5.182
    3OL     H3S 4378   2.872  -0.009   5.105
    3OL     C14 4379   2.802   0.180   5.019
    3OL     H4R 4380   2.901   0.198   4.978
    3OL     H4S 4381   2.763   0.279   5.045
    3OL     C15 4382   2.726   0.114   4.903
    3OL     H5R 4383   2.622   0.096   4.929
    3OL     H5S 4384   2.773   0.021   4.871
    3OL     C16 4385   2.725   0.214   4.786
    3OL     H6R 4386   2.683   0.307   4.825
    3OL     H6S 4387   2.655   0.171   4.714
    3OL     C17 4388   2.856   0.230   4.707
    3OL     H7R 4389   2.903   0.132   4.696
    3OL     H7S 4390   2.933   0.287   4.760
    3OL     C18 4391   2.834   0.289   4.567
    3OL     H8R 4392   2.783   0.385   4.575
    3OL     H8S 4393   2.766   0.223   4.513
    3OL     C19 4394   2.959   0.313   4.487
    3OL     H9R 4395   3.012   0.405   4.510
    3OL    C110 4396   3.017   0.238   4.395
    3OL    H10R 4397   3.100   0.282   4.340
    3OL    C111 4398   2.962   0.106   4.345
    3OL    H11R 4399   2.900   0.063   4.424
    3OL    H11S 4400   3.040   0.032   4.326
    3OL    C112 4401   2.876   0.118   4.219
    3OL    H12R 4402   2.928   0.184   4.149
    3OL    H12S 4403   2.781   0.162   4.247
    3OL    C113 4404   2.854  -0.019   4.153
    3OL    H13R 4405   2.799  -0.078   4.228
    3OL    H13S 4406   2.946  -0.074   4.131
    3OL    C114 4407   2.777  -0.005   4.022
    3OL    H14R 4408   2.686   0.051   4.046
    3OL    H14S 4409   2.735  -0.104   4.003
    3OL    C115 4410   2.853   0.058   3.904
    3OL    H15R 4411   2.943   0.003   3.876
    3OL    H15S 4412   2.911   0.143   3.940
    3OL    C116 4413   2.771   0.088   3.777
    3OL    H16R 4414   2.745  -0.012   3.741
    3OL    H16S 4415   2.841   0.124   3.702
    3OL    C117 4416   2.649   0.178   3.795
    3OL    H17R 4417   2.566   0.127   3.845
    3OL    H17S 4418   2.612   0.197   3.694
    3OL    C118 4419   2.689   0.314   3.855
    3OL    H18R 4420   2.773   0.360   3.802
    3OL    H18S 4421   2.728   0.287   3.953
    3OL    H18T 4422   2.607   0.385   3.869
    1PA    C116 4423   4.237   0.229   4.193
    1PA    H16R 4424   4.140   0.188   4.218
    1PA    H16S 4425   4.300   0.242   4.281
    1PA    H16T 4426   4.289   0.163   4.123
    1PA    C115 4427   4.209   0.364   4.126
    1PA    H15R 4428   4.305   0.414   4.115
    1PA    H15S 4429   4.156   0.347   4.032
    1PA    C114 4430   4.106   0.449   4.202
    1PA    H14R 4431   4.065   0.518   4.127
    1PA    H14S 4432   4.020   0.387   4.228
    1PA    C113 4433   4.166   0.522   4.322
    1PA    H13R 4434   4.170   0.458   4.410
    1PA    H13S 4435   4.261   0.568   4.295
    1PA    C112 4436   4.081   0.645   4.360
    1PA    H12R 4437   4.071   0.715   4.276
    1PA    H12S 4438   3.986   0.596   4.381
    1PA    C111 4439   4.124   0.720   4.486
    1PA    H11R 4440   4.214   0.782   4.482
    1PA    H11S 4441   4.048   0.799   4.491
    1PA    C110 4442   4.132   0.635   4.614
    1PA    H10R 4443   4.046   0.567   4.615
    1PA    H10S 4444   4.215   0.565   4.607
    1PA     C19 4445   4.153   0.717   4.742
    1PA     H9R 4446   4.213   0.807   4.724
    1PA     H9S 4447   4.052   0.752   4.764
    1PA     C18 4448   4.224   0.643   4.855
    1PA     H8R 4449   4.307   0.582   4.818
    1PA     H8S 4450   4.265   0.712   4.929
    1PA     C17 4451   4.123   0.556   4.931
    1PA     H7R 4452   4.061   0.624   4.990
    1PA     H7S 4453   4.054   0.503   4.866
    1PA     C16 4454   4.203   0.459   5.020
    1PA     H6R 4455   4.282   0.398   4.974
    1PA     H6S 4456   4.257   0.513   5.098
    1PA     C15 4457   4.119   0.350   5.086
    1PA     H5R 4458   4.058   0.408   5.156
    1PA     H5S 4459   4.053   0.299   5.015
    1PA     C14 4460   4.204   0.234   5.141
    1PA     H4R 4461   4.120   0.184   5.190
    1PA     H4S 4462   4.245   0.184   5.053
    1PA     C13 4463   4.307   0.267   5.250
    1PA     H3R 4464   4.364   0.175   5.268
    1PA     H3S 4465   4.377   0.338   5.207
    1PA     C12 4466   4.237   0.317   5.377
    1PA     H2R 4467   4.176   0.405   5.362
    1PA     H2S 4468   4.178   0.231   5.410
    2PC     C11 4469   4.331   0.347   5.491
    2PC     O12 4470   4.295   0.416   5.585
    2PC     O11 4471   4.445   0.277   5.487
    2PC      C1 4472   4.538   0.279   5.597
    2PC      HR 4473   4.639   0.290   5.559
    2PC      HS 4474   4.514   0.355   5.673
    2PC      C2 4475   4.528   0.146   5.673
    2PC      HX 4476   4.423   0.126   5.692
    2PC      C3 4477   4.606   0.159   5.804
    2PC      HA 4478   4.714   0.170   5.791
    2PC      HB 4479   4.580   0.245   5.866
    2PC     O31 4480   4.579   0.042   5.884
    2PC     P31 4481   4.660   0.027   6.021
    2PC     O32 4482   4.601   0.158   6.092
    2PC     C31 4483   4.574   0.151   6.234
    2PC     H1A 4484   4.510   0.067   6.263
    2PC     H1B 4485   4.672   0.139   6.282
    2PC     C32 4486   4.519   0.288   6.274
    2PC     H2A 4487   4.581   0.360   6.221
    2PC     H2B 4488   4.419   0.298   6.230
    2PC     N31 4489   4.509   0.334   6.416
    2PC     C33 4490   4.455   0.473   6.422
    2PC     H3A 4491   4.365   0.475   6.361
    2PC     H3B 4492   4.436   0.506   6.525
    2PC     H3C 4493   4.522   0.547   6.377
    2PC     C34 4494   4.427   0.238   6.498
    2PC     H4A 4495   4.429   0.275   6.601
    2PC     H4B 4496   4.322   0.240   6.468
    2PC     H4C 4497   4.472   0.140   6.480
    2PC     C35 4498   4.647   0.337   6.475
    2PC     H5A 4499   4.703   0.252   6.437
    2PC     H5B 4500   4.639   0.338   6.584
    2PC     H5C 4501   4.678   0.429   6.426
    2PC     O33 4502   4.634  -0.105   6.084
    2PC     O34 4503   4.805   0.042   5.996
    2PC     O21 4504   4.589   0.047   5.587
    2PC     C21 4505   4.511  -0.019   5.500
    2PC     O22 4506   4.390  -0.017   5.496
    3OL     C12 4507   4.585  -0.119   5.414
    3OL     H2R 4508   4.522  -0.136   5.327
    3OL     H2S 4509   4.605  -0.212   5.467
    3OL     C13 4510   4.716  -0.059   5.361
    3OL     H3R 4511   4.789  -0.134   5.330
    3OL     H3S 4512   4.773  -0.008   5.440
    3OL     C14 4513   4.678   0.043   5.253
    3OL     H4R 4514   4.763   0.109   5.242
    3OL     H4S 4515   4.602   0.101   5.305
    3OL     C15 4516   4.618  -0.006   5.120
    3OL     H5R 4517   4.518  -0.047   5.133
    3OL     H5S 4518   4.686  -0.080   5.077
    3OL     C16 4519   4.607   0.105   5.014
    3OL     H6R 4520   4.709   0.126   4.982
    3OL     H6S 4521   4.568   0.197   5.057
    3OL     C17 4522   4.529   0.054   4.892
    3OL     H7R 4523   4.425   0.034   4.919
    3OL     H7S 4524   4.570  -0.041   4.856
    3OL     C18 4525   4.532   0.163   4.784
    3OL     H8R 4526   4.635   0.188   4.756
    3OL     H8S 4527   4.493   0.251   4.836
    3OL     C19 4528   4.453   0.121   4.663
    3OL     H9R 4529   4.513   0.065   4.592
    3OL    C110 4530   4.330   0.161   4.637
    3OL    H10R 4531   4.296   0.130   4.538
    3OL    C111 4532   4.234   0.246   4.716
    3OL    H11R 4533   4.195   0.328   4.656
    3OL    H11S 4534   4.274   0.296   4.805
    3OL    C112 4535   4.114   0.161   4.762
    3OL    H12R 4536   4.048   0.223   4.823
    3OL    H12S 4537   4.158   0.083   4.824
    3OL    C113 4538   4.030   0.094   4.652
    3OL    H13R 4539   3.946   0.040   4.696
    3OL    H13S 4540   4.079   0.021   4.587
    3OL    C114 4541   3.956   0.193   4.561
    3OL    H14R 4542   3.888   0.143   4.492
    3OL    H14S 4543   4.032   0.249   4.506
    3OL    C115 4544   3.870   0.292   4.641
    3OL    H15R 4545   3.939   0.345   4.707
    3OL    H15S 4546   3.796   0.242   4.704
    3OL    C116 4547   3.807   0.398   4.549
    3OL    H16R 4548   3.880   0.448   4.485
    3OL    H16S 4549   3.762   0.465   4.623
    3OL    C117 4550   3.699   0.345   4.454
    3OL    H17R 4551   3.742   0.264   4.395
    3OL    H17S 4552   3.670   0.428   4.389
    3OL    C118 4553   3.582   0.290   4.537
    3OL    H18R 4554   3.593   0.188   4.575
    3OL    H18S 4555   3.491   0.291   4.477
    3OL    H18T 4556   3.564   0.352   4.625
    1PA    C116 4557   4.701   6.708   3.336
    1PA    H16R 4558   4.705   6.815   3.357
    1PA    H16S 4559   4.597   6.679   3.318
    1PA    H16T 4560   4.765   6.681   3.252
    1PA    C115 4561   4.763   6.629   3.452
    1PA    H15R 4562   4.868   6.657   3.464
    1PA    H15S 4563   4.725   6.669   3.546
    1PA    C114 4564   4.735   6.480   3.430
    1PA    H14R 4565   4.628   6.455   3.434
    1PA    H14S 4566   4.763   6.444   3.331
    1PA    C113 4567   4.820   6.399   3.529
    1PA    H13R 4568   4.925   6.418   3.503
    1PA    H13S 4569   4.798   6.439   3.628
    1PA    C112 4570   4.802   6.247   3.534
    1PA    H12R 4571   4.778   6.218   3.431
    1PA    H12S 4572   4.905   6.212   3.544
    1PA    C111 4573   4.716   6.196   3.650
    1PA    H11R 4574   4.611   6.218   3.632
    1PA    H11S 4575   4.711   6.087   3.655
    1PA    C110 4576   4.755   6.238   3.793
    1PA    H10R 4577   4.858   6.200   3.796
    1PA    H10S 4578   4.765   6.345   3.810
    1PA     C19 4579   4.663   6.182   3.902
    1PA     H9R 4580   4.571   6.236   3.922
    1PA     H9S 4581   4.634   6.080   3.875
    1PA     C18 4582   4.742   6.146   4.029
    1PA     H8R 4583   4.799   6.055   4.009
    1PA     H8S 4584   4.810   6.231   4.039
    1PA     C17 4585   4.653   6.116   4.150
    1PA     H7R 4586   4.571   6.187   4.163
    1PA     H7S 4587   4.606   6.017   4.150
    1PA     C16 4588   4.737   6.119   4.278
    1PA     H6R 4589   4.821   6.050   4.265
    1PA     H6S 4590   4.781   6.218   4.287
    1PA     C15 4591   4.664   6.078   4.407
    1PA     H5R 4592   4.721   6.130   4.485
    1PA     H5S 4593   4.560   6.109   4.410
    1PA     C14 4594   4.674   5.927   4.430
    1PA     H4R 4595   4.602   5.881   4.362
    1PA     H4S 4596   4.773   5.893   4.399
    1PA     C13 4597   4.657   5.887   4.578
    1PA     H3R 4598   4.750   5.913   4.628
    1PA     H3S 4599   4.574   5.943   4.621
    1PA     C12 4600   4.641   5.735   4.592
    1PA     H2R 4601   4.554   5.695   4.539
    1PA     H2S 4602   4.735   5.687   4.563
    2PC     C11 4603   4.626   5.705   4.739
    2PC     O12 4604   4.519   5.715   4.796
    2PC     O11 4605   4.739   5.667   4.801
    2PC      C1 4606   4.741   5.646   4.943
    2PC      HR 4607   4.845   5.630   4.971
    2PC      HS 4608   4.713   5.729   5.008
    2PC      C2 4609   4.667   5.514   4.969
    2PC      HX 4610   4.568   5.510   4.923
    2PC      C3 4611   4.647   5.487   5.119
    2PC      HA 4612   4.591   5.563   5.173
    2PC      HB 4613   4.604   5.387   5.133
    2PC     O31 4614   4.780   5.484   5.175
    2PC     P31 4615   4.822   5.470   5.329
    2PC     O32 4616   4.799   5.312   5.344
    2PC     C31 4617   4.914   5.225   5.354
    2PC     H1A 4618   4.984   5.232   5.271
    2PC     H1B 4619   4.974   5.254   5.440
    2PC     C32 4620   4.858   5.082   5.365
    2PC     H2A 4621   4.772   5.080   5.298
    2PC     H2B 4622   4.928   5.013   5.318
    2PC     N31 4623   4.826   5.021   5.498
    2PC     C33 4624   4.805   4.873   5.486
    2PC     H3A 4625   4.729   4.847   5.413
    2PC     H3B 4626   4.887   4.818   5.438
    2PC     H3C 4627   4.779   4.824   5.580
    2PC     C34 4628   4.941   5.030   5.593
    2PC     H4A 4629   5.033   5.016   5.536
    2PC     H4B 4630   4.935   5.131   5.634
    2PC     H4C 4631   4.920   4.959   5.673
    2PC     C35 4632   4.705   5.088   5.553
    2PC     H5A 4633   4.655   5.027   5.628
    2PC     H5B 4634   4.633   5.115   5.475
    2PC     H5C 4635   4.746   5.179   5.596
    2PC     O33 4636   4.963   5.513   5.344
    2PC     O34 4637   4.750   5.544   5.434
    2PC     O21 4638   4.731   5.401   4.907
    2PC     C21 4639   4.667   5.285   4.885
    2PC     O22 4640   4.560   5.260   4.937
    3OL     C12 4641   4.727   5.201   4.775
    3OL     H2R 4642   4.795   5.133   4.828
    3OL     H2S 4643   4.796   5.259   4.714
    3OL     C13 4644   4.622   5.130   4.687
    3OL     H3R 4645   4.571   5.208   4.631
    3OL     H3S 4646   4.549   5.084   4.754
    3OL     C14 4647   4.679   5.019   4.598
    3OL     H4R 4648   4.716   4.941   4.664
    3OL     H4S 4649   4.764   5.048   4.535
    3OL     C15 4650   4.562   4.959   4.519
    3OL     H5R 4651   4.524   5.034   4.451
    3OL     H5S 4652   4.483   4.926   4.587
    3OL     C16 4653   4.619   4.842   4.437
    3OL     H6R 4654   4.653   4.770   4.511
    3OL     H6S 4655   4.701   4.883   4.378
    3OL     C17 4656   4.506   4.784   4.350
    3OL     H7R 4657   4.485   4.856   4.271
    3OL     H7S 4658   4.414   4.773   4.409
    3OL     C18 4659   4.547   4.647   4.294
    3OL     H8R 4660   4.566   4.574   4.373
    3OL     H8S 4661   4.636   4.666   4.234
    3OL     C19 4662   4.440   4.580   4.213
    3OL     H9R 4663   4.383   4.499   4.259
    3OL    C110 4664   4.441   4.587   4.081
    3OL    H10R 4665   4.380   4.517   4.024
    3OL    C111 4666   4.513   4.684   3.990
    3OL    H11R 4667   4.606   4.720   4.035
    3OL    H11S 4668   4.454   4.772   3.963
    3OL    C112 4669   4.535   4.603   3.862
    3OL    H12R 4670   4.575   4.504   3.889
    3OL    H12S 4671   4.611   4.658   3.807
    3OL    C113 4672   4.412   4.593   3.772
    3OL    H13R 4673   4.367   4.693   3.765
    3OL    H13S 4674   4.344   4.529   3.829
    3OL    C114 4675   4.440   4.540   3.631
    3OL    H14R 4676   4.535   4.570   3.587
    3OL    H14S 4677   4.361   4.583   3.570
    3OL    C115 4678   4.441   4.387   3.615
    3OL    H15R 4679   4.512   4.340   3.684
    3OL    H15S 4680   4.472   4.367   3.513
    3OL    C116 4681   4.305   4.317   3.634
    3OL    H16R 4682   4.249   4.354   3.548
    3OL    H16S 4683   4.262   4.348   3.730
    3OL    C117 4684   4.321   4.165   3.645
    3OL    H17R 4685   4.403   4.145   3.714
    3OL    H17S 4686   4.345   4.116   3.551
    3OL    C118 4687   4.183   4.110   3.686
    3OL    H18R 4688   4.175   4.121   3.794
    3OL    H18S 4689   4.184   4.002   3.667
    3OL    H18T 4690   4.103   4.150   3.624
    1PA    C116 4691   2.611   2.349   3.711
    1PA    H16R 4692   2.582   2.343   3.606
    1PA    H16S 4693   2.529   2.302   3.767
    1PA    H16T 4694   2.703   2.291   3.720
    1PA    C115 4695   2.650   2.494   3.740
    1PA    H15R 4696   2.746   2.521   3.696
    1PA    H15S 4697   2.568   2.556   3.703
    1PA    C114 4698   2.671   2.514   3.891
    1PA    H14R 4699   2.740   2.444   3.940
    1PA    H14S 4700   2.709   2.615   3.907
    1PA    C113 4701   2.538   2.492   3.965
    1PA    H13R 4702   2.479   2.580   3.939
    1PA    H13S 4703   2.489   2.399   3.937
    1PA    C112 4704   2.550   2.486   4.118
    1PA    H12R 4705   2.633   2.417   4.134
    1PA    H12S 4706   2.590   2.583   4.150
    1PA    C111 4707   2.421   2.437   4.185
    1PA    H11R 4708   2.355   2.524   4.182
    1PA    H11S 4709   2.380   2.359   4.121
    1PA    C110 4710   2.459   2.379   4.321
    1PA    H10R 4711   2.517   2.287   4.307
    1PA    H10S 4712   2.508   2.457   4.380
    1PA     C19 4713   2.329   2.344   4.395
    1PA     H9R 4714   2.268   2.434   4.403
    1PA     H9S 4715   2.282   2.272   4.328
    1PA     C18 4716   2.356   2.279   4.532
    1PA     H8R 4717   2.409   2.350   4.596
    1PA     H8S 4718   2.262   2.255   4.581
    1PA     C17 4719   2.413   2.137   4.521
    1PA     H7R 4720   2.344   2.073   4.466
    1PA     H7S 4721   2.504   2.139   4.461
    1PA     C16 4722   2.446   2.074   4.658
    1PA     H6R 4723   2.529   2.127   4.705
    1PA     H6S 4724   2.359   2.084   4.723
    1PA     C15 4725   2.471   1.925   4.631
    1PA     H5R 4726   2.388   1.883   4.573
    1PA     H5S 4727   2.564   1.914   4.574
    1PA     C14 4728   2.471   1.847   4.763
    1PA     H4R 4729   2.542   1.890   4.834
    1PA     H4S 4730   2.368   1.853   4.797
    1PA     C13 4731   2.509   1.700   4.744
    1PA     H3R 4732   2.461   1.647   4.661
    1PA     H3S 4733   2.614   1.699   4.713
    1PA     C12 4734   2.488   1.617   4.871
    1PA     H2R 4735   2.530   1.516   4.874
    1PA     H2S 4736   2.530   1.669   4.957
    2PC     C11 4737   2.342   1.592   4.902
    2PC     O12 4738   2.292   1.485   4.873
    2PC     O11 4739   2.293   1.687   4.983
    2PC      C1 4740   2.168   1.649   5.044
    2PC      HR 4741   2.092   1.644   4.965
    2PC      HS 4742   2.174   1.547   5.083
    2PC      C2 4743   2.121   1.751   5.148
    2PC      HX 4744   2.206   1.782   5.210
    2PC      C3 4745   1.998   1.712   5.232
    2PC      HA 4746   1.910   1.713   5.168
    2PC      HB 4747   1.998   1.609   5.268
    2PC     O31 4748   1.969   1.801   5.341
    2PC     P31 4749   1.870   1.741   5.452
    2PC     O32 4750   1.847   1.853   5.563
    2PC     C31 4751   1.950   1.871   5.662
    2PC     H1A 4752   1.959   1.779   5.720
    2PC     H1B 4753   2.048   1.885   5.615
    2PC     C32 4754   1.922   1.992   5.752
    2PC     H2A 4755   1.834   1.973   5.815
    2PC     H2B 4756   2.005   2.005   5.822
    2PC     N31 4757   1.900   2.127   5.693
    2PC     C33 4758   2.014   2.165   5.604
    2PC     H3A 4759   2.026   2.095   5.521
    2PC     H3B 4760   1.990   2.258   5.552
    2PC     H3C 4761   2.102   2.163   5.668
    2PC     C34 4762   1.772   2.142   5.616
    2PC     H4A 4763   1.767   2.071   5.533
    2PC     H4B 4764   1.684   2.136   5.680
    2PC     H4C 4765   1.773   2.240   5.569
    2PC     C35 4766   1.886   2.225   5.806
    2PC     H5A 4767   1.984   2.246   5.849
    2PC     H5B 4768   1.801   2.210   5.873
    2PC     H5C 4769   1.857   2.320   5.761
    2PC     O33 4770   1.734   1.709   5.403
    2PC     O34 4771   1.909   1.610   5.509
    2PC     O21 4772   2.086   1.867   5.071
    2PC     C21 4773   2.174   1.964   5.039
    2PC     O22 4774   2.288   1.966   5.080
    3OL     C12 4775   2.117   2.069   4.947
    3OL     H2R 4776   2.009   2.075   4.967
    3OL     H2S 4777   2.131   2.038   4.844
    3OL     C13 4778   2.184   2.204   4.976
    3OL     H3R 4779   2.288   2.192   4.944
    3OL     H3S 4780   2.175   2.243   5.077
    3OL     C14 4781   2.131   2.306   4.874
    3OL     H4R 4782   2.026   2.286   4.848
    3OL     H4S 4783   2.172   2.274   4.778
    3OL     C15 4784   2.158   2.455   4.896
    3OL     H5R 4785   2.264   2.478   4.901
    3OL     H5S 4786   2.104   2.475   4.989
    3OL     C16 4787   2.100   2.534   4.777
    3OL     H6R 4788   1.992   2.547   4.791
    3OL     H6S 4789   2.119   2.472   4.689
    3OL     C17 4790   2.172   2.668   4.760
    3OL     H7R 4791   2.280   2.657   4.750
    3OL     H7S 4792   2.160   2.721   4.855
    3OL     C18 4793   2.114   2.752   4.644
    3OL     H8R 4794   2.176   2.838   4.619
    3OL     H8S 4795   2.017   2.793   4.670
    3OL     C19 4796   2.106   2.660   4.525
    3OL     H9R 4797   2.197   2.604   4.502
    3OL    C110 4798   2.008   2.653   4.436
    3OL    H10R 4799   2.016   2.583   4.353
    3OL    C111 4800   1.887   2.743   4.428
    3OL    H11R 4801   1.899   2.834   4.486
    3OL    H11S 4802   1.804   2.692   4.476
    3OL    C112 4803   1.857   2.764   4.279
    3OL    H12R 4804   1.810   2.678   4.231
    3OL    H12S 4805   1.947   2.796   4.226
    3OL    C113 4806   1.753   2.875   4.259
    3OL    H13R 4807   1.786   2.961   4.317
    3OL    H13S 4808   1.666   2.840   4.315
    3OL    C114 4809   1.731   2.911   4.111
    3OL    H14R 4810   1.690   2.824   4.058
    3OL    H14S 4811   1.833   2.925   4.076
    3OL    C115 4812   1.638   3.033   4.108
    3OL    H15R 4813   1.609   3.044   4.004
    3OL    H15S 4814   1.699   3.120   4.133
    3OL    C116 4815   1.510   3.017   4.193
    3OL    H16R 4816   1.500   2.913   4.226
    3OL    H16S 4817   1.421   3.041   4.135
    3OL    C117 4818   1.524   3.093   4.325
    3OL    H17R 4819   1.534   3.201   4.307
    3OL    H17S 4820   1.611   3.060   4.382
    3OL    C118 4821   1.409   3.057   4.420
    3OL    H18R 4822   1.416   3.115   4.513
    3OL    H18S 4823   1.426   2.954   4.455
    3OL    H18T 4824   1.314   3.078   4.372
    1PA    C116 4825   3.570   6.469   3.757
    1PA    H16R 4826   3.525   6.447   3.660
    1PA    H16S 4827   3.498   6.528   3.814
    1PA    H16T 4828   3.592   6.373   3.803
    1PA    C115 4829   3.702   6.548   3.748
    1PA    H15R 4830   3.775   6.494   3.688
    1PA    H15S 4831   3.676   6.644   3.704
    1PA    C114 4832   3.764   6.578   3.885
    1PA    H14R 4833   3.845   6.650   3.872
    1PA    H14S 4834   3.693   6.627   3.951
    1PA    C113 4835   3.805   6.452   3.963
    1PA    H13R 4836   3.715   6.410   4.009
    1PA    H13S 4837   3.856   6.382   3.896
    1PA    C112 4838   3.896   6.489   4.081
    1PA    H12R 4839   3.994   6.525   4.048
    1PA    H12S 4840   3.860   6.583   4.124
    1PA    C111 4841   3.922   6.385   4.191
    1PA    H11R 4842   3.933   6.437   4.286
    1PA    H11S 4843   3.832   6.326   4.208
    1PA    C110 4844   4.053   6.305   4.179
    1PA    H10R 4845   4.044   6.240   4.091
    1PA    H10S 4846   4.131   6.374   4.147
    1PA     C19 4847   4.074   6.226   4.309
    1PA     H9R 4848   4.052   6.302   4.384
    1PA     H9S 4849   4.000   6.147   4.298
    1PA     C18 4850   4.217   6.173   4.316
    1PA     H8R 4851   4.209   6.088   4.247
    1PA     H8S 4852   4.294   6.244   4.283
    1PA     C17 4853   4.254   6.122   4.456
    1PA     H7R 4854   4.171   6.074   4.508
    1PA     H7S 4855   4.321   6.038   4.436
    1PA     C16 4856   4.317   6.228   4.548
    1PA     H6R 4857   4.417   6.257   4.518
    1PA     H6S 4858   4.261   6.321   4.554
    1PA     C15 4859   4.342   6.184   4.693
    1PA     H5R 4860   4.376   6.081   4.689
    1PA     H5S 4861   4.424   6.238   4.742
    1PA     C14 4862   4.212   6.180   4.775
    1PA     H4R 4863   4.154   6.270   4.754
    1PA     H4S 4864   4.147   6.103   4.734
    1PA     C13 4865   4.235   6.165   4.926
    1PA     H3R 4866   4.264   6.060   4.932
    1PA     H3S 4867   4.321   6.215   4.971
    1PA     C12 4868   4.105   6.190   5.002
    1PA     H2R 4869   4.081   6.296   4.999
    1PA     H2S 4870   4.024   6.136   4.953
    2PC     C11 4871   4.101   6.138   5.144
    2PC     O12 4872   4.030   6.042   5.168
    2PC     O11 4873   4.197   6.188   5.224
    2PC      C1 4874   4.213   6.147   5.361
    2PC      HR 4875   4.285   6.213   5.411
    2PC      HS 4876   4.113   6.150   5.406
    2PC      C2 4877   4.268   6.004   5.372
    2PC      HX 4878   4.201   5.938   5.316
    2PC      C3 4879   4.284   5.962   5.518
    2PC      HA 4880   4.185   5.944   5.560
    2PC      HB 4881   4.354   5.878   5.524
    2PC     O31 4882   4.341   6.066   5.600
    2PC     P31 4883   4.379   6.039   5.753
    2PC     O32 4884   4.538   6.023   5.748
    2PC     C31 4885   4.612   6.144   5.776
    2PC     H1A 4886   4.592   6.214   5.695
    2PC     H1B 4887   4.597   6.186   5.876
    2PC     C32 4888   4.761   6.124   5.748
    2PC     H2A 4889   4.756   6.075   5.651
    2PC     H2B 4890   4.818   6.216   5.735
    2PC     N31 4891   4.830   6.036   5.848
    2PC     C33 4892   4.970   6.005   5.804
    2PC     H3A 4893   5.030   6.096   5.816
    2PC     H3B 4894   5.013   5.935   5.875
    2PC     H3C 4895   4.975   5.957   5.706
    2PC     C34 4896   4.836   6.105   5.981
    2PC     H4A 4897   4.904   6.049   6.045
    2PC     H4B 4898   4.877   6.205   5.967
    2PC     H4C 4899   4.732   6.105   6.015
    2PC     C35 4900   4.765   5.903   5.871
    2PC     H5A 4901   4.752   5.852   5.775
    2PC     H5B 4902   4.666   5.926   5.910
    2PC     H5C 4903   4.820   5.839   5.940
    2PC     O33 4904   4.330   6.138   5.851
    2PC     O34 4905   4.338   5.909   5.813
    2PC     O21 4906   4.396   6.013   5.307
    2PC     C21 4907   4.457   5.902   5.262
    2PC     O22 4908   4.409   5.792   5.282
    3OL     C12 4909   4.594   5.924   5.203
    3OL     H2R 4910   4.659   5.836   5.204
    3OL     H2S 4911   4.634   6.003   5.267
    3OL     C13 4912   4.585   5.974   5.059
    3OL     H3R 4913   4.500   6.043   5.060
    3OL     H3S 4914   4.558   5.893   4.990
    3OL     C14 4915   4.711   6.047   5.012
    3OL     H4R 4916   4.793   5.974   5.008
    3OL     H4S 4917   4.737   6.128   5.080
    3OL     C15 4918   4.677   6.104   4.873
    3OL     H5R 4919   4.603   6.180   4.899
    3OL     H5S 4920   4.634   6.025   4.811
    3OL     C16 4921   4.797   6.163   4.797
    3OL     H6R 4922   4.756   6.193   4.701
    3OL     H6S 4923   4.869   6.082   4.785
    3OL     C17 4924   4.856   6.291   4.858
    3OL     H7R 4925   4.884   6.276   4.962
    3OL     H7S 4926   4.778   6.366   4.843
    3OL     C18 4927   4.987   6.337   4.792
    3OL     H8R 4928   5.040   6.397   4.867
    3OL     H8S 4929   4.958   6.410   4.716
    3OL     C19 4930   5.071   6.224   4.740
    3OL     H9R 4931   5.096   6.143   4.809
    3OL    C110 4932   5.118   6.214   4.616
    3OL    H10R 4933   5.175   6.126   4.590
    3OL    C111 4934   5.075   6.291   4.494
    3OL    H11R 4935   5.072   6.397   4.520
    3OL    H11S 4936   4.973   6.256   4.473
    3OL    C112 4937   5.177   6.282   4.380
    3OL    H12R 4938   5.182   6.179   4.346
    3OL    H12S 4939   5.268   6.317   4.429
    3OL    C113 4940   5.132   6.369   4.261
    3OL    H13R 4941   5.112   6.474   4.283
    3OL    H13S 4942   5.033   6.331   4.235
    3OL    C114 4943   5.228   6.347   4.143
    3OL    H14R 4944   5.268   6.247   4.161
    3OL    H14S 4945   5.313   6.415   4.147
    3OL    C115 4946   5.147   6.363   4.013
    3OL    H15R 4947   5.133   6.471   4.019
    3OL    H15S 4948   5.049   6.315   4.011
    3OL    C116 4949   5.235   6.317   3.896
    3OL    H16R 4950   5.269   6.217   3.923
    3OL    H16S 4951   5.313   6.393   3.893
    3OL    C117 4952   5.146   6.327   3.771
    3OL    H17R 4953   5.095   6.422   3.755
    3OL    H17S 4954   5.069   6.249   3.783
    3OL    C118 4955   5.223   6.295   3.642
    3OL    H18R 4956   5.240   6.187   3.652
    3OL    H18S 4957   5.323   6.339   3.640
    3OL    H18T 4958   5.181   6.322   3.546
    1PA    C116 4959   1.787   0.682   3.906
    1PA    H16R 4960   1.809   0.647   3.805
    1PA    H16S 4961   1.827   0.600   3.966
    1PA    H16T 4962   1.830   0.779   3.929
    1PA    C115 4963   1.636   0.678   3.934
    1PA    H15R 4964   1.605   0.574   3.932
    1PA    H15S 4965   1.618   0.724   4.032
    1PA    C114 4966   1.552   0.751   3.828
    1PA    H14R 4967   1.578   0.857   3.821
    1PA    H14S 4968   1.571   0.710   3.729
    1PA    C113 4969   1.404   0.723   3.854
    1PA    H13R 4970   1.374   0.618   3.845
    1PA    H13S 4971   1.374   0.746   3.957
    1PA    C112 4972   1.300   0.794   3.766
    1PA    H12R 4973   1.315   0.750   3.667
    1PA    H12S 4974   1.198   0.760   3.785
    1PA    C111 4975   1.304   0.947   3.773
    1PA    H11R 4976   1.406   0.984   3.779
    1PA    H11S 4977   1.280   0.985   3.673
    1PA    C110 4978   1.207   1.004   3.878
    1PA    H10R 4979   1.144   1.088   3.849
    1PA    H10S 4980   1.130   0.928   3.892
    1PA     C19 4981   1.278   1.039   4.010
    1PA     H9R 4982   1.325   0.952   4.054
    1PA     H9S 4983   1.362   1.104   3.983
    1PA     C18 4984   1.177   1.115   4.098
    1PA     H8R 4985   1.148   1.210   4.054
    1PA     H8S 4986   1.081   1.066   4.113
    1PA     C17 4987   1.241   1.151   4.233
    1PA     H7R 4988   1.342   1.189   4.215
    1PA     H7S 4989   1.186   1.231   4.282
    1PA     C16 4990   1.252   1.037   4.335
    1PA     H6R 4991   1.169   0.967   4.320
    1PA     H6S 4992   1.345   0.982   4.319
    1PA     C15 4993   1.242   1.087   4.480
    1PA     H5R 4994   1.325   1.155   4.502
    1PA     H5S 4995   1.146   1.138   4.493
    1PA     C14 4996   1.238   0.974   4.584
    1PA     H4R 4997   1.159   0.902   4.563
    1PA     H4S 4998   1.328   0.917   4.561
    1PA     C13 4999   1.250   1.015   4.731
    1PA     H3R 5000   1.170   1.087   4.750
    1PA     H3S 5001   1.241   0.920   4.784
    1PA     C12 5002   1.385   1.080   4.766
    1PA     H2R 5003   1.462   1.003   4.779
    1PA     H2S 5004   1.421   1.134   4.679
    2PC     C11 5005   1.379   1.168   4.889
    2PC     O12 5006   1.290   1.181   4.970
    2PC     O11 5007   1.498   1.229   4.905
    2PC      C1 5008   1.522   1.295   5.031
    2PC      HR 5009   1.616   1.350   5.021
    2PC      HS 5010   1.443   1.371   5.034
    2PC      C2 5011   1.537   1.199   5.150
    2PC      HX 5012   1.454   1.132   5.172
    2PC      C3 5013   1.559   1.276   5.280
    2PC      HA 5014   1.653   1.332   5.275
    2PC      HB 5015   1.471   1.335   5.307
    2PC     O31 5016   1.561   1.173   5.380
    2PC     P31 5017   1.612   1.202   5.529
    2PC     O32 5018   1.487   1.166   5.623
    2PC     C31 5019   1.361   1.234   5.610
    2PC     H1A 5020   1.368   1.330   5.661
    2PC     H1B 5021   1.330   1.236   5.505
    2PC     C32 5022   1.257   1.164   5.699
    2PC     H2A 5023   1.231   1.065   5.662
    2PC     H2B 5024   1.307   1.135   5.792
    2PC     N31 5025   1.126   1.233   5.718
    2PC     C33 5026   1.044   1.251   5.594
    2PC     H3A 5027   1.067   1.168   5.527
    2PC     H3B 5028   0.941   1.249   5.629
    2PC     H3C 5029   1.065   1.346   5.544
    2PC     C34 5030   1.046   1.164   5.824
    2PC     H4A 5031   1.017   1.067   5.782
    2PC     H4B 5032   1.104   1.131   5.910
    2PC     H4C 5033   0.961   1.227   5.849
    2PC     C35 5034   1.144   1.372   5.772
    2PC     H5A 5035   1.050   1.427   5.774
    2PC     H5B 5036   1.210   1.415   5.697
    2PC     H5C 5037   1.191   1.363   5.870
    2PC     O33 5038   1.732   1.118   5.557
    2PC     O34 5039   1.678   1.332   5.556
    2PC     O21 5040   1.659   1.126   5.122
    2PC     C21 5041   1.662   1.019   5.040
    2PC     O22 5042   1.563   0.963   4.997
    3OL     C12 5043   1.803   0.979   5.005
    3OL     H2R 5044   1.807   0.872   5.029
    3OL     H2S 5045   1.875   1.031   5.069
    3OL     C13 5046   1.820   1.007   4.855
    3OL     H3R 5047   1.845   1.112   4.836
    3OL     H3S 5048   1.729   0.992   4.797
    3OL     C14 5049   1.935   0.926   4.794
    3OL     H4R 5050   1.908   0.921   4.688
    3OL     H4S 5051   1.933   0.825   4.836
    3OL     C15 5052   2.074   0.989   4.805
    3OL     H5R 5053   2.096   0.996   4.912
    3OL     H5S 5054   2.061   1.087   4.758
    3OL     C16 5055   2.181   0.906   4.733
    3OL     H6R 5056   2.154   0.891   4.629
    3OL     H6S 5057   2.179   0.804   4.771
    3OL     C17 5058   2.319   0.971   4.755
    3OL     H7R 5059   2.398   0.898   4.741
    3OL     H7S 5060   2.333   0.997   4.860
    3OL     C18 5061   2.346   1.098   4.673
    3OL     H8R 5062   2.447   1.127   4.702
    3OL     H8S 5063   2.281   1.181   4.701
    3OL     C19 5064   2.347   1.069   4.525
    3OL     H9R 5065   2.434   1.008   4.502
    3OL    C110 5066   2.261   1.110   4.434
    3OL    H10R 5067   2.268   1.066   4.335
    3OL    C111 5068   2.138   1.195   4.452
    3OL    H11R 5069   2.106   1.202   4.557
    3OL    H11S 5070   2.067   1.132   4.398
    3OL    C112 5071   2.151   1.338   4.396
    3OL    H12R 5072   2.191   1.328   4.295
    3OL    H12S 5073   2.230   1.394   4.447
    3OL    C113 5074   2.018   1.413   4.385
    3OL    H13R 5075   1.977   1.425   4.486
    3OL    H13S 5076   1.939   1.370   4.323
    3OL    C114 5077   2.044   1.555   4.335
    3OL    H14R 5078   2.137   1.591   4.380
    3OL    H14S 5079   1.960   1.613   4.373
    3OL    C115 5080   2.060   1.560   4.182
    3OL    H15R 5081   1.963   1.548   4.133
    3OL    H15S 5082   2.140   1.494   4.148
    3OL    C116 5083   2.092   1.707   4.148
    3OL    H16R 5084   2.026   1.771   4.206
    3OL    H16S 5085   2.071   1.718   4.041
    3OL    C117 5086   2.238   1.742   4.180
    3OL    H17R 5087   2.312   1.674   4.136
    3OL    H17S 5088   2.253   1.765   4.285
    3OL    C118 5089   2.262   1.878   4.114
    3OL    H18R 5090   2.256   1.867   4.005
    3OL    H18S 5091   2.363   1.916   4.134
    3OL    H18T 5092   2.185   1.950   4.141
    1PA    C116 5093   1.022   2.893   3.460
    1PA    H16R 5094   1.098   2.955   3.411
    1PA    H16S 5095   0.991   2.942   3.552
    1PA    H16T 5096   0.939   2.894   3.390
    1PA    C115 5097   1.075   2.750   3.474
    1PA    H15R 5098   1.097   2.713   3.374
    1PA    H15S 5099   1.171   2.747   3.526
    1PA    C114 5100   0.972   2.668   3.553
    1PA    H14R 5101   0.871   2.695   3.520
    1PA    H14S 5102   1.001   2.567   3.524
    1PA    C113 5103   0.969   2.680   3.707
    1PA    H13R 5104   1.043   2.608   3.742
    1PA    H13S 5105   1.007   2.776   3.741
    1PA    C112 5106   0.840   2.653   3.784
    1PA    H12R 5107   0.772   2.737   3.771
    1PA    H12S 5108   0.783   2.569   3.743
    1PA    C111 5109   0.866   2.638   3.934
    1PA    H11R 5110   0.949   2.570   3.951
    1PA    H11S 5111   0.891   2.737   3.975
    1PA    C110 5112   0.745   2.586   4.013
    1PA    H10R 5113   0.725   2.481   3.990
    1PA    H10S 5114   0.780   2.579   4.116
    1PA     C19 5115   0.619   2.673   4.001
    1PA     H9R 5116   0.589   2.683   3.896
    1PA     H9S 5117   0.537   2.612   4.041
    1PA     C18 5118   0.621   2.814   4.061
    1PA     H8R 5119   0.689   2.873   3.998
    1PA     H8S 5120   0.522   2.859   4.049
    1PA     C17 5121   0.659   2.817   4.210
    1PA     H7R 5122   0.583   2.757   4.259
    1PA     H7S 5123   0.754   2.767   4.229
    1PA     C16 5124   0.653   2.957   4.273
    1PA     H6R 5125   0.716   2.955   4.363
    1PA     H6S 5126   0.703   3.027   4.206
    1PA     C15 5127   0.508   3.000   4.300
    1PA     H5R 5128   0.439   2.990   4.216
    1PA     H5S 5129   0.469   2.924   4.367
    1PA     C14 5130   0.506   3.139   4.367
    1PA     H4R 5131   0.536   3.206   4.287
    1PA     H4S 5132   0.398   3.137   4.386
    1PA     C13 5133   0.583   3.153   4.499
    1PA     H3R 5134   0.552   3.083   4.577
    1PA     H3S 5135   0.690   3.133   4.492
    1PA     C12 5136   0.564   3.298   4.545
    1PA     H2R 5137   0.604   3.372   4.476
    1PA     H2S 5138   0.461   3.324   4.566
    2PC     C11 5139   0.641   3.329   4.671
    2PC     O12 5140   0.618   3.273   4.776
    2PC     O11 5141   0.722   3.436   4.673
    2PC      C1 5142   0.771   3.493   4.796
    2PC      HR 5143   0.794   3.597   4.773
    2PC      HS 5144   0.690   3.499   4.868
    2PC      C2 5145   0.888   3.412   4.854
    2PC      HX 5146   0.842   3.318   4.888
    2PC      C3 5147   0.965   3.481   4.967
    2PC      HA 5148   1.035   3.557   4.931
    2PC      HB 5149   0.884   3.524   5.027
    2PC     O31 5150   1.018   3.378   5.053
    2PC     P31 5151   1.078   3.419   5.196
    2PC     O32 5152   1.187   3.536   5.177
    2PC     C31 5153   1.148   3.674   5.175
    2PC     H1A 5154   1.092   3.689   5.082
    2PC     H1B 5155   1.089   3.707   5.261
    2PC     C32 5156   1.276   3.758   5.170
    2PC     H2A 5157   1.324   3.742   5.267
    2PC     H2B 5158   1.343   3.715   5.096
    2PC     N31 5159   1.273   3.908   5.159
    2PC     C33 5160   1.412   3.962   5.171
    2PC     H3A 5161   1.407   4.070   5.159
    2PC     H3B 5162   1.447   3.934   5.271
    2PC     H3C 5163   1.479   3.932   5.090
    2PC     C34 5164   1.214   3.953   5.028
    2PC     H4A 5165   1.270   3.893   4.957
    2PC     H4B 5166   1.107   3.931   5.022
    2PC     H4C 5167   1.227   4.061   5.020
    2PC     C35 5168   1.191   3.965   5.271
    2PC     H5A 5169   1.097   3.911   5.264
    2PC     H5B 5170   1.171   4.070   5.247
    2PC     H5C 5171   1.251   3.950   5.360
    2PC     O33 5172   0.960   3.459   5.276
    2PC     O34 5173   1.131   3.297   5.261
    2PC     O21 5174   0.976   3.381   4.744
    2PC     C21 5175   1.029   3.478   4.668
    2PC     O22 5176   1.029   3.595   4.698
    3OL     C12 5177   1.097   3.418   4.548
    3OL     H2R 5178   1.174   3.344   4.570
    3OL     H2S 5179   1.142   3.501   4.492
    3OL     C13 5180   0.984   3.352   4.468
    3OL     H3R 5181   0.906   3.424   4.443
    3OL     H3S 5182   0.946   3.270   4.531
    3OL     C14 5183   1.055   3.293   4.345
    3OL     H4R 5184   1.119   3.217   4.389
    3OL     H4S 5185   1.115   3.364   4.288
    3OL     C15 5186   0.974   3.206   4.248
    3OL     H5R 5187   0.900   3.263   4.193
    3OL     H5S 5188   0.921   3.128   4.304
    3OL     C16 5189   1.061   3.140   4.140
    3OL     H6R 5190   1.132   3.067   4.179
    3OL     H6S 5191   1.118   3.217   4.088
    3OL     C17 5192   0.979   3.059   4.038
    3OL     H7R 5193   0.926   2.979   4.088
    3OL     H7S 5194   1.058   3.017   3.975
    3OL     C18 5195   0.902   3.156   3.947
    3OL     H8R 5196   0.966   3.242   3.928
    3OL     H8S 5197   0.820   3.194   4.008
    3OL     C19 5198   0.870   3.084   3.818
    3OL     H9R 5199   0.956   3.035   3.772
    3OL    C110 5200   0.754   3.072   3.755
    3OL    H10R 5201   0.759   3.020   3.659
    3OL    C111 5202   0.618   3.125   3.789
    3OL    H11R 5203   0.591   3.201   3.716
    3OL    H11S 5204   0.618   3.179   3.884
    3OL    C112 5205   0.505   3.021   3.796
    3OL    H12R 5206   0.544   2.924   3.829
    3OL    H12S 5207   0.467   2.998   3.696
    3OL    C113 5208   0.381   3.062   3.878
    3OL    H13R 5209   0.331   3.152   3.844
    3OL    H13S 5210   0.424   3.088   3.975
    3OL    C114 5211   0.272   2.954   3.889
    3OL    H14R 5212   0.331   2.872   3.930
    3OL    H14S 5213   0.216   2.936   3.797
    3OL    C115 5214   0.179   2.993   4.004
    3OL    H15R 5215   0.096   3.053   3.965
    3OL    H15S 5216   0.230   3.057   4.075
    3OL    C116 5217   0.117   2.878   4.085
    3OL    H16R 5218   0.194   2.825   4.143
    3OL    H16S 5219   0.075   2.797   4.025
    3OL    C117 5220   0.007   2.932   4.177
    3OL    H17R 5221   0.040   3.022   4.229
    3OL    H17S 5222  -0.012   2.855   4.252
    3OL    C118 5223  -0.125   2.975   4.112
    3OL    H18R 5224  -0.120   3.062   4.046
    3OL    H18S 5225  -0.192   2.999   4.195
    3OL    H18T 5226  -0.171   2.899   4.048
    1PA    C116 5227   4.215   1.393   3.916
    1PA    H16R 5228   4.313   1.407   3.961
    1PA    H16S 5229   4.144   1.455   3.971
    1PA    H16T 5230   4.214   1.414   3.808
    1PA    C115 5231   4.157   1.251   3.920
    1PA    H15R 5232   4.060   1.258   3.870
    1PA    H15S 5233   4.223   1.184   3.864
    1PA    C114 5234   4.125   1.191   4.058
    1PA    H14R 5235   4.120   1.083   4.042
    1PA    H14S 5236   4.208   1.204   4.127
    1PA    C113 5237   3.993   1.248   4.113
    1PA    H13R 5238   4.002   1.349   4.153
    1PA    H13S 5239   3.916   1.257   4.036
    1PA    C112 5240   3.932   1.166   4.227
    1PA    H12R 5241   3.829   1.199   4.241
    1PA    H12S 5242   3.933   1.057   4.216
    1PA    C111 5243   4.004   1.198   4.359
    1PA    H11R 5244   4.109   1.175   4.336
    1PA    H11S 5245   3.997   1.306   4.375
    1PA    C110 5246   3.951   1.119   4.479
    1PA    H10R 5247   3.842   1.116   4.476
    1PA    H10S 5248   3.981   1.014   4.480
    1PA     C19 5249   3.994   1.186   4.610
    1PA     H9R 5250   4.100   1.211   4.607
    1PA     H9S 5251   3.933   1.276   4.617
    1PA     C18 5252   3.966   1.089   4.726
    1PA     H8R 5253   3.858   1.081   4.740
    1PA     H8S 5254   4.012   0.991   4.709
    1PA     C17 5255   4.028   1.132   4.859
    1PA     H7R 5256   4.133   1.104   4.854
    1PA     H7S 5257   4.012   1.237   4.885
    1PA     C16 5258   3.962   1.040   4.963
    1PA     H6R 5259   3.860   1.074   4.977
    1PA     H6S 5260   3.964   0.935   4.932
    1PA     C15 5261   4.043   1.039   5.094
    1PA     H5R 5262   4.096   1.127   5.131
    1PA     H5S 5263   3.975   1.009   5.174
    1PA     C14 5264   4.149   0.928   5.092
    1PA     H4R 5265   4.096   0.836   5.069
    1PA     H4S 5266   4.214   0.940   5.005
    1PA     C13 5267   4.239   0.920   5.216
    1PA     H3R 5268   4.316   0.997   5.215
    1PA     H3S 5269   4.180   0.928   5.308
    1PA     C12 5270   4.304   0.782   5.228
    1PA     H2R 5271   4.224   0.708   5.219
    1PA     H2S 5272   4.371   0.760   5.145
    2PC     C11 5273   4.383   0.773   5.356
    2PC     O12 5274   4.335   0.732   5.460
    2PC     O11 5275   4.507   0.822   5.353
    2PC      C1 5276   4.587   0.831   5.473
    2PC      HR 5277   4.681   0.883   5.451
    2PC      HS 5278   4.534   0.877   5.557
    2PC      C2 5279   4.622   0.687   5.512
    2PC      HX 5280   4.533   0.627   5.531
    2PC      C3 5281   4.709   0.697   5.638
    2PC      HA 5282   4.808   0.743   5.629
    2PC      HB 5283   4.649   0.748   5.714
    2PC     O31 5284   4.712   0.563   5.689
    2PC     P31 5285   4.800   0.533   5.819
    2PC     O32 5286   4.926   0.460   5.752
    2PC     C31 5287   4.959   0.470   5.613
    2PC     H1A 5288   4.866   0.431   5.570
    2PC     H1B 5289   4.988   0.572   5.588
    2PC     C32 5290   5.091   0.395   5.591
    2PC     H2A 5291   5.106   0.383   5.484
    2PC     H2B 5292   5.169   0.454   5.640
    2PC     N31 5293   5.099   0.257   5.650
    2PC     C33 5294   4.969   0.183   5.648
    2PC     H3A 5295   4.936   0.186   5.544
    2PC     H3B 5296   4.997   0.079   5.665
    2PC     H3C 5297   4.900   0.226   5.720
    2PC     C34 5298   5.211   0.183   5.584
    2PC     H4A 5299   5.181   0.150   5.484
    2PC     H4B 5300   5.291   0.256   5.569
    2PC     H4C 5301   5.244   0.093   5.636
    2PC     C35 5302   5.142   0.264   5.794
    2PC     H5A 5303   5.066   0.303   5.863
    2PC     H5B 5304   5.238   0.314   5.805
    2PC     H5C 5305   5.160   0.165   5.836
    2PC     O33 5306   4.834   0.652   5.900
    2PC     O34 5307   4.716   0.453   5.911
    2PC     O21 5308   4.707   0.635   5.409
    2PC     C21 5309   4.658   0.569   5.303
    2PC     O22 5310   4.543   0.529   5.299
    3OL     C12 5311   4.766   0.522   5.209
    3OL     H2R 5312   4.849   0.481   5.266
    3OL     H2S 5313   4.815   0.612   5.173
    3OL     C13 5314   4.720   0.424   5.099
    3OL     H3R 5315   4.667   0.344   5.150
    3OL     H3S 5316   4.807   0.377   5.053
    3OL     C14 5317   4.624   0.489   4.998
    3OL     H4R 5318   4.563   0.565   5.048
    3OL     H4S 5319   4.557   0.413   4.957
    3OL     C15 5320   4.708   0.562   4.892
    3OL     H5R 5321   4.775   0.493   4.840
    3OL     H5S 5322   4.770   0.635   4.945
    3OL     C16 5323   4.619   0.624   4.784
    3OL     H6R 5324   4.658   0.724   4.765
    3OL     H6S 5325   4.525   0.647   4.835
    3OL     C17 5326   4.615   0.539   4.656
    3OL     H7R 5327   4.555   0.449   4.674
    3OL     H7S 5328   4.719   0.517   4.634
    3OL     C18 5329   4.545   0.631   4.555
    3OL     H8R 5330   4.616   0.709   4.527
    3OL     H8S 5331   4.454   0.680   4.593
    3OL     C19 5332   4.510   0.542   4.439
    3OL     H9R 5333   4.468   0.444   4.461
    3OL    C110 5334   4.544   0.563   4.313
    3OL    H10R 5335   4.509   0.499   4.233
    3OL    C111 5336   4.610   0.692   4.270
    3OL    H11R 5337   4.717   0.671   4.260
    3OL    H11S 5338   4.612   0.766   4.350
    3OL    C112 5339   4.537   0.760   4.154
    3OL    H12R 5340   4.593   0.852   4.136
    3OL    H12S 5341   4.432   0.776   4.178
    3OL    C113 5342   4.538   0.678   4.023
    3OL    H13R 5343   4.465   0.597   4.021
    3OL    H13S 5344   4.639   0.638   4.016
    3OL    C114 5345   4.524   0.776   3.906
    3OL    H14R 5346   4.603   0.851   3.897
    3OL    H14S 5347   4.432   0.833   3.921
    3OL    C115 5348   4.515   0.697   3.774
    3OL    H15R 5349   4.417   0.650   3.770
    3OL    H15S 5350   4.586   0.614   3.781
    3OL    C116 5351   4.527   0.779   3.645
    3OL    H16R 5352   4.618   0.839   3.641
    3OL    H16S 5353   4.450   0.857   3.646
    3OL    C117 5354   4.499   0.688   3.525
    3OL    H17R 5355   4.398   0.647   3.534
    3OL    H17S 5356   4.557   0.597   3.542
    3OL    C118 5357   4.519   0.767   3.395
    3OL    H18R 5358   4.447   0.849   3.396
    3OL    H18S 5359   4.501   0.710   3.304
    3OL    H18T 5360   4.614   0.822   3.396
    1PA    C116 5361   3.989   3.887   4.057
    1PA    H16R 5362   3.996   3.822   3.969
    1PA    H16S 5363   4.058   3.971   4.051
    1PA    H16T 5364   3.893   3.938   4.049
    1PA    C115 5365   4.008   3.814   4.191
    1PA    H15R 5366   4.020   3.879   4.278
    1PA    H15S 5367   3.920   3.754   4.216
    1PA    C114 5368   4.141   3.737   4.185
    1PA    H14R 5369   4.126   3.669   4.102
    1PA    H14S 5370   4.221   3.809   4.168
    1PA    C113 5371   4.167   3.662   4.317
    1PA    H13R 5372   4.083   3.646   4.385
    1PA    H13S 5373   4.217   3.567   4.298
    1PA    C112 5374   4.269   3.744   4.398
    1PA    H12R 5375   4.370   3.748   4.355
    1PA    H12S 5376   4.228   3.843   4.421
    1PA    C111 5377   4.284   3.673   4.533
    1PA    H11R 5378   4.191   3.630   4.571
    1PA    H11S 5379   4.335   3.578   4.514
    1PA    C110 5380   4.357   3.747   4.645
    1PA    H10R 5381   4.460   3.762   4.614
    1PA    H10S 5382   4.312   3.847   4.653
    1PA     C19 5383   4.346   3.678   4.782
    1PA     H9R 5384   4.329   3.748   4.863
    1PA     H9S 5385   4.256   3.617   4.795
    1PA     C18 5386   4.468   3.586   4.800
    1PA     H8R 5387   4.473   3.522   4.711
    1PA     H8S 5388   4.555   3.652   4.792
    1PA     C17 5389   4.475   3.496   4.924
    1PA     H7R 5390   4.476   3.562   5.010
    1PA     H7S 5391   4.386   3.432   4.929
    1PA     C16 5392   4.601   3.408   4.928
    1PA     H6R 5393   4.591   3.328   4.854
    1PA     H6S 5394   4.679   3.479   4.902
    1PA     C15 5395   4.641   3.364   5.069
    1PA     H5R 5396   4.746   3.334   5.073
    1PA     H5S 5397   4.619   3.451   5.131
    1PA     C14 5398   4.550   3.248   5.113
    1PA     H4R 5399   4.443   3.273   5.106
    1PA     H4S 5400   4.569   3.160   5.052
    1PA     C13 5401   4.593   3.206   5.254
    1PA     H3R 5402   4.695   3.168   5.247
    1PA     H3S 5403   4.584   3.284   5.329
    1PA     C12 5404   4.494   3.095   5.292
    1PA     H2R 5405   4.398   3.146   5.303
    1PA     H2S 5406   4.481   3.031   5.204
    2PC     C11 5407   4.529   3.011   5.413
    2PC     O12 5408   4.485   3.045   5.520
    2PC     O11 5409   4.600   2.901   5.386
    2PC      C1 5410   4.651   2.834   5.503
    2PC      HR 5411   4.725   2.761   5.471
    2PC      HS 5412   4.691   2.906   5.574
    2PC      C2 5413   4.540   2.755   5.573
    2PC      HX 5414   4.464   2.811   5.629
    2PC      C3 5415   4.607   2.673   5.684
    2PC      HA 5416   4.684   2.604   5.651
    2PC      HB 5417   4.661   2.734   5.757
    2PC     O31 5418   4.500   2.611   5.759
    2PC     P31 5419   4.529   2.486   5.855
    2PC     O32 5420   4.488   2.355   5.773
    2PC     C31 5421   4.495   2.231   5.847
    2PC     H1A 5422   4.592   2.230   5.897
    2PC     H1B 5423   4.410   2.237   5.915
    2PC     C32 5424   4.477   2.115   5.749
    2PC     H2A 5425   4.556   2.123   5.674
    2PC     H2B 5426   4.493   2.019   5.799
    2PC     N31 5427   4.350   2.101   5.670
    2PC     C33 5428   4.339   2.214   5.572
    2PC     H3A 5429   4.253   2.184   5.514
    2PC     H3B 5430   4.326   2.304   5.634
    2PC     H3C 5431   4.425   2.209   5.506
    2PC     C34 5432   4.361   1.980   5.583
    2PC     H4A 5433   4.452   1.962   5.525
    2PC     H4B 5434   4.349   1.891   5.645
    2PC     H4C 5435   4.276   1.987   5.515
    2PC     C35 5436   4.229   2.096   5.758
    2PC     H5A 5437   4.218   2.193   5.807
    2PC     H5B 5438   4.244   2.021   5.836
    2PC     H5C 5439   4.133   2.079   5.709
    2PC     O33 5440   4.668   2.493   5.905
    2PC     O34 5441   4.424   2.481   5.960
    2PC     O21 5442   4.454   2.675   5.490
    2PC     C21 5443   4.496   2.582   5.402
    2PC     O22 5444   4.609   2.538   5.395
    3OL     C12 5445   4.387   2.547   5.304
    3OL     H2R 5446   4.308   2.494   5.358
    3OL     H2S 5447   4.432   2.492   5.222
    3OL     C13 5448   4.321   2.674   5.250
    3OL     H3R 5449   4.393   2.731   5.191
    3OL     H3S 5450   4.280   2.731   5.333
    3OL     C14 5451   4.201   2.626   5.165
    3OL     H4R 5452   4.131   2.709   5.154
    3OL     H4S 5453   4.141   2.557   5.224
    3OL     C15 5454   4.240   2.566   5.030
    3OL     H5R 5455   4.311   2.482   5.032
    3OL     H5S 5456   4.293   2.655   4.996
    3OL     C16 5457   4.117   2.538   4.943
    3OL     H6R 5458   4.039   2.614   4.955
    3OL     H6S 5459   4.073   2.439   4.954
    3OL     C17 5460   4.155   2.543   4.794
    3OL     H7R 5461   4.075   2.500   4.734
    3OL     H7S 5462   4.240   2.480   4.771
    3OL     C18 5463   4.182   2.687   4.748
    3OL     H8R 5464   4.197   2.680   4.640
    3OL     H8S 5465   4.269   2.726   4.801
    3OL     C19 5466   4.064   2.777   4.775
    3OL     H9R 5467   4.027   2.779   4.877
    3OL    C110 5468   3.992   2.842   4.684
    3OL    H10R 5469   3.901   2.886   4.723
    3OL    C111 5470   4.004   2.834   4.534
    3OL    H11R 5471   4.019   2.730   4.504
    3OL    H11S 5472   4.090   2.897   4.512
    3OL    C112 5473   3.880   2.896   4.469
    3OL    H12R 5474   3.870   2.998   4.508
    3OL    H12S 5475   3.786   2.849   4.498
    3OL    C113 5476   3.893   2.900   4.316
    3OL    H13R 5477   3.883   2.797   4.281
    3OL    H13S 5478   3.986   2.946   4.286
    3OL    C114 5479   3.778   2.974   4.246
    3OL    H14R 5480   3.773   3.083   4.248
    3OL    H14S 5481   3.685   2.936   4.287
    3OL    C115 5482   3.770   2.942   4.096
    3OL    H15R 5483   3.690   3.008   4.063
    3OL    H15S 5484   3.740   2.838   4.084
    3OL    C116 5485   3.899   2.977   4.020
    3OL    H16R 5486   3.978   2.915   4.061
    3OL    H16S 5487   3.944   3.075   4.036
    3OL    C117 5488   3.895   2.941   3.871
    3OL    H17R 5489   3.833   3.012   3.815
    3OL    H17S 5490   3.853   2.842   3.855
    3OL    C118 5491   4.035   2.951   3.811
    3OL    H18R 5492   4.106   2.892   3.868
    3OL    H18S 5493   4.078   3.052   3.816
    3OL    H18T 5494   4.035   2.916   3.707
    1PA    C116 5495   1.988   3.626   3.540
    1PA    H16R 5496   1.971   3.653   3.645
    1PA    H16S 5497   1.896   3.579   3.504
    1PA    H16T 5498   1.997   3.721   3.488
    1PA    C115 5499   2.107   3.535   3.507
    1PA    H15R 5500   2.095   3.437   3.554
    1PA    H15S 5501   2.111   3.510   3.400
    1PA    C114 5502   2.235   3.603   3.556
    1PA    H14R 5503   2.323   3.544   3.533
    1PA    H14S 5504   2.244   3.700   3.506
    1PA    C113 5505   2.237   3.635   3.707
    1PA    H13R 5506   2.200   3.737   3.721
    1PA    H13S 5507   2.196   3.550   3.760
    1PA    C112 5508   2.383   3.646   3.752
    1PA    H12R 5509   2.428   3.547   3.739
    1PA    H12S 5510   2.435   3.700   3.673
    1PA    C111 5511   2.401   3.687   3.899
    1PA    H11R 5512   2.362   3.789   3.906
    1PA    H11S 5513   2.340   3.617   3.957
    1PA    C110 5514   2.547   3.676   3.944
    1PA    H10R 5515   2.572   3.571   3.925
    1PA    H10S 5516   2.624   3.729   3.888
    1PA     C19 5517   2.567   3.718   4.090
    1PA     H9R 5518   2.533   3.820   4.111
    1PA     H9S 5519   2.499   3.657   4.150
    1PA     C18 5520   2.707   3.700   4.150
    1PA     H8R 5521   2.733   3.594   4.150
    1PA     H8S 5522   2.784   3.752   4.091
    1PA     C17 5523   2.711   3.759   4.291
    1PA     H7R 5524   2.673   3.861   4.280
    1PA     H7S 5525   2.643   3.713   4.364
    1PA     C16 5526   2.857   3.758   4.337
    1PA     H6R 5527   2.912   3.665   4.321
    1PA     H6S 5528   2.920   3.826   4.278
    1PA     C15 5529   2.874   3.798   4.484
    1PA     H5R 5530   2.982   3.812   4.493
    1PA     H5S 5531   2.831   3.897   4.502
    1PA     C14 5532   2.824   3.697   4.589
    1PA     H4R 5533   2.732   3.646   4.559
    1PA     H4S 5534   2.897   3.616   4.595
    1PA     C13 5535   2.822   3.738   4.737
    1PA     H3R 5536   2.786   3.650   4.792
    1PA     H3S 5537   2.920   3.776   4.766
    1PA     C12 5538   2.723   3.854   4.755
    1PA     H2R 5539   2.770   3.939   4.706
    1PA     H2S 5540   2.624   3.823   4.723
    2PC     C11 5541   2.708   3.883   4.902
    2PC     O12 5542   2.724   3.996   4.946
    2PC     O11 5543   2.652   3.781   4.969
    2PC      C1 5544   2.639   3.791   5.112
    2PC      HR 5545   2.622   3.894   5.142
    2PC      HS 5546   2.561   3.722   5.147
    2PC      C2 5547   2.777   3.745   5.160
    2PC      HX 5548   2.791   3.648   5.110
    2PC      C3 5549   2.780   3.721   5.312
    2PC      HA 5550   2.719   3.633   5.337
    2PC      HB 5551   2.881   3.697   5.346
    2PC     O31 5552   2.732   3.825   5.399
    2PC     P31 5553   2.696   3.778   5.547
    2PC     O32 5554   2.741   3.914   5.621
    2PC     C31 5555   2.873   3.927   5.678
    2PC     H1A 5556   2.897   3.839   5.738
    2PC     H1B 5557   2.946   3.928   5.597
    2PC     C32 5558   2.887   4.054   5.763
    2PC     H2A 5559   2.989   4.090   5.773
    2PC     H2B 5560   2.837   4.134   5.709
    2PC     N31 5561   2.813   4.057   5.894
    2PC     C33 5562   2.846   4.187   5.960
    2PC     H3A 5563   2.955   4.188   5.966
    2PC     H3B 5564   2.813   4.268   5.893
    2PC     H3C 5565   2.802   4.196   6.059
    2PC     C34 5566   2.665   4.049   5.873
    2PC     H4A 5567   2.615   4.029   5.968
    2PC     H4B 5568   2.642   4.144   5.825
    2PC     H4C 5569   2.634   3.964   5.812
    2PC     C35 5570   2.844   3.944   5.987
    2PC     H5A 5571   2.944   3.966   6.024
    2PC     H5B 5572   2.826   3.853   5.929
    2PC     H5C 5573   2.773   3.949   6.070
    2PC     O33 5574   2.557   3.738   5.577
    2PC     O34 5575   2.787   3.665   5.577
    2PC     O21 5576   2.876   3.847   5.136
    2PC     C21 5577   2.995   3.810   5.086
    2PC     O22 5578   3.018   3.696   5.052
    3OL     C12 5579   3.082   3.933   5.079
    3OL     H2R 5580   3.173   3.913   5.137
    3OL     H2S 5581   3.033   4.010   5.139
    3OL     C13 5582   3.122   3.973   4.937
    3OL     H3R 5583   3.163   4.073   4.951
    3OL     H3S 5584   3.031   3.976   4.875
    3OL     C14 5585   3.217   3.870   4.874
    3OL     H4R 5586   3.176   3.772   4.897
    3OL     H4S 5587   3.317   3.883   4.917
    3OL     C15 5588   3.219   3.907   4.725
    3OL     H5R 5589   3.263   4.006   4.712
    3OL     H5S 5590   3.116   3.906   4.689
    3OL     C16 5591   3.307   3.811   4.644
    3OL     H6R 5592   3.406   3.805   4.691
    3OL     H6S 5593   3.332   3.859   4.549
    3OL     C17 5594   3.247   3.673   4.613
    3OL     H7R 5595   3.147   3.681   4.571
    3OL     H7S 5596   3.231   3.617   4.706
    3OL     C18 5597   3.347   3.597   4.524
    3OL     H8R 5598   3.440   3.598   4.581
    3OL     H8S 5599   3.365   3.647   4.429
    3OL     C19 5600   3.290   3.458   4.509
    3OL     H9R 5601   3.303   3.393   4.595
    3OL    C110 5602   3.225   3.405   4.407
    3OL    H10R 5603   3.190   3.305   4.431
    3OL    C111 5604   3.194   3.463   4.271
    3OL    H11R 5605   3.227   3.568   4.270
    3OL    H11S 5606   3.087   3.459   4.251
    3OL    C112 5607   3.277   3.388   4.166
    3OL    H12R 5608   3.250   3.282   4.175
    3OL    H12S 5609   3.384   3.402   4.184
    3OL    C113 5610   3.248   3.416   4.018
    3OL    H13R 5611   3.309   3.348   3.959
    3OL    H13S 5612   3.289   3.514   3.991
    3OL    C114 5613   3.098   3.403   3.987
    3OL    H14R 5614   3.042   3.479   4.043
    3OL    H14S 5615   3.066   3.300   4.006
    3OL    C115 5616   3.071   3.441   3.841
    3OL    H15R 5617   3.147   3.393   3.779
    3OL    H15S 5618   3.077   3.550   3.833
    3OL    C116 5619   2.930   3.408   3.789
    3OL    H16R 5620   2.868   3.470   3.854
    3OL    H16S 5621   2.904   3.303   3.806
    3OL    C117 5622   2.908   3.452   3.644
    3OL    H17R 5623   2.832   3.389   3.598
    3OL    H17S 5624   3.006   3.447   3.596
    3OL    C118 5625   2.852   3.595   3.634
    3OL    H18R 5626   2.843   3.608   3.526
    3OL    H18S 5627   2.918   3.671   3.677
    3OL    H18T 5628   2.760   3.598   3.692
    1PA    C116 5629   2.248   1.158   3.932
    1PA    H16R 5630   2.158   1.097   3.931
    1PA    H16S 5631   2.305   1.133   3.842
    1PA    H16T 5632   2.214   1.260   3.913
    1PA    C115 5633   2.334   1.148   4.059
    1PA    H15R 5634   2.278   1.191   4.141
    1PA    H15S 5635   2.353   1.043   4.081
    1PA    C114 5636   2.461   1.234   4.058
    1PA    H14R 5637   2.513   1.214   3.964
    1PA    H14S 5638   2.442   1.341   4.056
    1PA    C113 5639   2.557   1.194   4.172
    1PA    H13R 5640   2.633   1.270   4.193
    1PA    H13S 5641   2.496   1.191   4.263
    1PA    C112 5642   2.633   1.062   4.153
    1PA    H12R 5643   2.568   0.981   4.186
    1PA    H12S 5644   2.669   1.041   4.052
    1PA    C111 5645   2.761   1.054   4.237
    1PA    H11R 5646   2.822   0.977   4.189
    1PA    H11S 5647   2.805   1.154   4.234
    1PA    C110 5648   2.749   1.012   4.384
    1PA    H10R 5649   2.839   1.041   4.438
    1PA    H10S 5650   2.666   1.064   4.432
    1PA     C19 5651   2.731   0.860   4.397
    1PA     H9R 5652   2.631   0.828   4.368
    1PA     H9S 5653   2.808   0.809   4.340
    1PA     C18 5654   2.754   0.828   4.545
    1PA     H8R 5655   2.849   0.865   4.584
    1PA     H8S 5656   2.678   0.880   4.605
    1PA     C17 5657   2.743   0.677   4.569
    1PA     H7R 5658   2.643   0.644   4.540
    1PA     H7S 5659   2.810   0.619   4.505
    1PA     C16 5660   2.784   0.643   4.713
    1PA     H6R 5661   2.759   0.538   4.728
    1PA     H6S 5662   2.893   0.654   4.717
    1PA     C15 5663   2.700   0.716   4.818
    1PA     H5R 5664   2.720   0.822   4.806
    1PA     H5S 5665   2.596   0.685   4.806
    1PA     C14 5666   2.742   0.673   4.960
    1PA     H4R 5667   2.773   0.568   4.961
    1PA     H4S 5668   2.833   0.726   4.990
    1PA     C13 5669   2.635   0.712   5.062
    1PA     H3R 5670   2.625   0.820   5.066
    1PA     H3S 5671   2.541   0.662   5.040
    1PA     C12 5672   2.696   0.654   5.191
    1PA     H2R 5673   2.711   0.546   5.190
    1PA     H2S 5674   2.795   0.694   5.214
    2PC     C11 5675   2.598   0.679   5.303
    2PC     O12 5676   2.494   0.739   5.286
    2PC     O11 5677   2.630   0.617   5.418
    2PC      C1 5678   2.543   0.656   5.526
    2PC      HR 5679   2.438   0.656   5.495
    2PC      HS 5680   2.554   0.574   5.597
    2PC      C2 5681   2.586   0.782   5.604
    2PC      HX 5682   2.678   0.757   5.656
    2PC      C3 5683   2.482   0.802   5.715
    2PC      HA 5684   2.512   0.735   5.796
    2PC      HB 5685   2.500   0.900   5.760
    2PC     O31 5686   2.348   0.776   5.672
    2PC     P31 5687   2.229   0.785   5.779
    2PC     O32 5688   2.241   0.640   5.844
    2PC     C31 5689   2.175   0.534   5.772
    2PC     H1A 5690   2.070   0.559   5.752
    2PC     H1B 5691   2.218   0.527   5.671
    2PC     C32 5692   2.206   0.396   5.832
    2PC     H2A 5693   2.115   0.336   5.832
    2PC     H2B 5694   2.281   0.342   5.775
    2PC     N31 5695   2.247   0.385   5.975
    2PC     C33 5696   2.393   0.419   5.984
    2PC     H3A 5697   2.400   0.484   6.072
    2PC     H3B 5698   2.455   0.329   5.983
    2PC     H3C 5699   2.426   0.471   5.894
    2PC     C34 5700   2.172   0.473   6.070
    2PC     H4A 5701   2.211   0.457   6.170
    2PC     H4B 5702   2.189   0.578   6.047
    2PC     H4C 5703   2.066   0.448   6.061
    2PC     C35 5704   2.241   0.242   6.020
    2PC     H5A 5705   2.310   0.182   5.960
    2PC     H5B 5706   2.141   0.202   6.004
    2PC     H5C 5707   2.265   0.232   6.127
    2PC     O33 5708   2.258   0.890   5.879
    2PC     O34 5709   2.093   0.824   5.734
    2PC     O21 5710   2.585   0.898   5.519
    2PC     C21 5711   2.638   1.014   5.562
    2PC     O22 5712   2.705   1.029   5.662
    3OL     C12 5713   2.616   1.130   5.468
    3OL     H2R 5714   2.640   1.219   5.527
    3OL     H2S 5715   2.517   1.123   5.421
    3OL     C13 5716   2.717   1.130   5.352
    3OL     H3R 5717   2.737   1.029   5.317
    3OL     H3S 5718   2.802   1.171   5.408
    3OL     C14 5719   2.684   1.220   5.232
    3OL     H4R 5720   2.681   1.323   5.271
    3OL     H4S 5721   2.582   1.202   5.197
    3OL     C15 5722   2.783   1.202   5.117
    3OL     H5R 5723   2.793   1.097   5.088
    3OL     H5S 5724   2.881   1.242   5.146
    3OL     C16 5725   2.731   1.271   4.990
    3OL     H6R 5726   2.744   1.380   4.992
    3OL     H6S 5727   2.623   1.256   4.985
    3OL     C17 5728   2.797   1.214   4.864
    3OL     H7R 5729   2.768   1.111   4.842
    3OL     H7S 5730   2.906   1.212   4.858
    3OL     C18 5731   2.764   1.297   4.739
    3OL     H8R 5732   2.807   1.396   4.756
    3OL     H8S 5733   2.655   1.308   4.728
    3OL     C19 5734   2.817   1.237   4.611
    3OL     H9R 5735   2.884   1.152   4.612
    3OL    C110 5736   2.793   1.291   4.493
    3OL    H10R 5737   2.837   1.243   4.406
    3OL    C111 5738   2.704   1.410   4.464
    3OL    H11R 5739   2.633   1.432   4.543
    3OL    H11S 5740   2.647   1.379   4.377
    3OL    C112 5741   2.789   1.532   4.426
    3OL    H12R 5742   2.854   1.513   4.340
    3OL    H12S 5743   2.858   1.556   4.507
    3OL    C113 5744   2.696   1.646   4.381
    3OL    H13R 5745   2.608   1.646   4.446
    3OL    H13S 5746   2.653   1.617   4.285
    3OL    C114 5747   2.780   1.774   4.383
    3OL    H14R 5748   2.870   1.753   4.325
    3OL    H14S 5749   2.809   1.787   4.487
    3OL    C115 5750   2.716   1.905   4.333
    3OL    H15R 5751   2.781   1.993   4.340
    3OL    H15S 5752   2.623   1.930   4.385
    3OL    C116 5753   2.670   1.884   4.189
    3OL    H16R 5754   2.582   1.820   4.176
    3OL    H16S 5755   2.748   1.831   4.134
    3OL    C117 5756   2.638   2.015   4.117
    3OL    H17R 5757   2.719   2.085   4.143
    3OL    H17S 5758   2.548   2.067   4.151
    3OL    C118 5759   2.634   1.988   3.966
    3OL    H18R 5760   2.572   2.067   3.923
    3OL    H18S 5761   2.586   1.899   3.925
    3OL    H18T 5762   2.736   1.995   3.926
    1PA    C116 5763   6.504   1.343   3.849
    1PA    H16R 5764   6.551   1.372   3.943
    1PA    H16S 5765   6.453   1.247   3.863
    1PA    H16T 5766   6.431   1.423   3.837
    1PA    C115 5767   6.608   1.335   3.737
    1PA    H15R 5768   6.563   1.286   3.651
    1PA    H15S 5769   6.632   1.434   3.697
    1PA    C114 5770   6.730   1.248   3.768
    1PA    H14R 5771   6.806   1.272   3.693
    1PA    H14S 5772   6.762   1.266   3.871
    1PA    C113 5773   6.699   1.099   3.748
    1PA    H13R 5774   6.619   1.082   3.821
    1PA    H13S 5775   6.655   1.081   3.650
    1PA    C112 5776   6.822   1.007   3.760
    1PA    H12R 5777   6.882   1.033   3.672
    1PA    H12S 5778   6.880   1.041   3.846
    1PA    C111 5779   6.798   0.856   3.750
    1PA    H11R 5780   6.730   0.850   3.665
    1PA    H11S 5781   6.891   0.810   3.718
    1PA    C110 5782   6.727   0.797   3.873
    1PA    H10R 5783   6.797   0.804   3.957
    1PA    H10S 5784   6.640   0.861   3.884
    1PA     C19 5785   6.684   0.651   3.853
    1PA     H9R 5786   6.593   0.628   3.908
    1PA     H9S 5787   6.670   0.627   3.747
    1PA     C18 5788   6.799   0.563   3.902
    1PA     H8R 5789   6.805   0.475   3.837
    1PA     H8S 5790   6.898   0.609   3.897
    1PA     C17 5791   6.760   0.488   4.030
    1PA     H7R 5792   6.656   0.453   4.031
    1PA     H7S 5793   6.820   0.397   4.035
    1PA     C16 5794   6.783   0.578   4.152
    1PA     H6R 5795   6.885   0.617   4.144
    1PA     H6S 5796   6.714   0.661   4.163
    1PA     C15 5797   6.778   0.501   4.285
    1PA     H5R 5798   6.676   0.471   4.308
    1PA     H5S 5799   6.833   0.410   4.260
    1PA     C14 5800   6.861   0.566   4.397
    1PA     H4R 5801   6.965   0.587   4.369
    1PA     H4S 5802   6.824   0.668   4.414
    1PA     C13 5803   6.854   0.478   4.523
    1PA     H3R 5804   6.755   0.470   4.568
    1PA     H3S 5805   6.870   0.373   4.498
    1PA     C12 5806   6.954   0.520   4.632
    1PA     H2R 5807   7.055   0.512   4.591
    1PA     H2S 5808   6.950   0.626   4.656
    2PC     C11 5809   6.947   0.450   4.765
    2PC     O12 5810   6.987   0.491   4.872
    2PC     O11 5811   6.909   0.322   4.754
    2PC      C1 5812   6.884   0.235   4.866
    2PC      HR 5813   6.864   0.133   4.831
    2PC      HS 5814   6.974   0.230   4.928
    2PC      C2 5815   6.767   0.281   4.954
    2PC      HX 5816   6.784   0.382   4.992
    2PC      C3 5817   6.735   0.184   5.068
    2PC      HA 5818   6.698   0.089   5.027
    2PC      HB 5819   6.826   0.180   5.129
    2PC     O31 5820   6.637   0.241   5.157
    2PC     P31 5821   6.606   0.156   5.289
    2PC     O32 5822   6.504   0.048   5.229
    2PC     C31 5823   6.438  -0.050   5.311
    2PC     H1A 5824   6.520  -0.112   5.349
    2PC     H1B 5825   6.381  -0.009   5.395
    2PC     C32 5826   6.346  -0.132   5.219
    2PC     H2A 5827   6.395  -0.180   5.134
    2PC     H2B 5828   6.302  -0.212   5.278
    2PC     N31 5829   6.224  -0.073   5.156
    2PC     C33 5830   6.150  -0.190   5.098
    2PC     H3A 5831   6.131  -0.267   5.173
    2PC     H3B 5832   6.055  -0.168   5.049
    2PC     H3C 5833   6.211  -0.235   5.020
    2PC     C34 5834   6.133  -0.006   5.254
    2PC     H4A 5835   6.104  -0.077   5.332
    2PC     H4B 5836   6.181   0.079   5.302
    2PC     H4C 5837   6.042   0.029   5.205
    2PC     C35 5838   6.267   0.020   5.046
    2PC     H5A 5839   6.177   0.074   5.014
    2PC     H5B 5840   6.308  -0.033   4.961
    2PC     H5C 5841   6.334   0.094   5.090
    2PC     O33 5842   6.724   0.097   5.356
    2PC     O34 5843   6.527   0.244   5.379
    2PC     O21 5844   6.649   0.277   4.871
    2PC     C21 5845   6.602   0.388   4.811
    2PC     O22 5846   6.644   0.499   4.834
    3OL     C12 5847   6.472   0.352   4.744
    3OL     H2R 5848   6.488   0.264   4.681
    3OL     H2S 5849   6.435   0.427   4.674
    3OL     C13 5850   6.353   0.310   4.831
    3OL     H3R 5851   6.342   0.377   4.917
    3OL     H3S 5852   6.382   0.216   4.878
    3OL     C14 5853   6.221   0.299   4.754
    3OL     H4R 5854   6.152   0.253   4.825
    3OL     H4S 5855   6.231   0.226   4.673
    3OL     C15 5856   6.167   0.433   4.704
    3OL     H5R 5857   6.236   0.488   4.640
    3OL     H5S 5858   6.157   0.500   4.790
    3OL     C16 5859   6.039   0.431   4.619
    3OL     H6R 5860   5.962   0.405   4.693
    3OL     H6S 5861   6.043   0.347   4.550
    3OL     C17 5862   6.007   0.569   4.561
    3OL     H7R 5863   6.066   0.585   4.471
    3OL     H7S 5864   6.046   0.653   4.619
    3OL     C18 5865   5.857   0.600   4.550
    3OL     H8R 5866   5.813   0.606   4.650
    3OL     H8S 5867   5.814   0.527   4.483
    3OL     C19 5868   5.851   0.734   4.481
    3OL     H9R 5869   5.939   0.758   4.422
    3OL    C110 5870   5.749   0.816   4.463
    3OL    H10R 5871   5.762   0.904   4.402
    3OL    C111 5872   5.610   0.782   4.512
    3OL    H11R 5873   5.620   0.724   4.603
    3OL    H11S 5874   5.561   0.716   4.440
    3OL    C112 5875   5.530   0.912   4.532
    3OL    H12R 5876   5.532   0.973   4.441
    3OL    H12S 5877   5.577   0.977   4.606
    3OL    C113 5878   5.385   0.882   4.569
    3OL    H13R 5879   5.385   0.816   4.657
    3OL    H13S 5880   5.342   0.818   4.492
    3OL    C114 5881   5.303   1.010   4.592
    3OL    H14R 5882   5.199   0.979   4.589
    3OL    H14S 5883   5.317   1.085   4.514
    3OL    C115 5884   5.346   1.076   4.723
    3OL    H15R 5885   5.298   1.175   4.722
    3OL    H15S 5886   5.453   1.100   4.723
    3OL    C116 5887   5.312   1.010   4.858
    3OL    H16R 5888   5.347   0.908   4.840
    3OL    H16S 5889   5.206   1.006   4.885
    3OL    C117 5890   5.390   1.078   4.971
    3OL    H17R 5891   5.365   1.183   4.982
    3OL    H17S 5892   5.497   1.065   4.955
    3OL    C118 5893   5.356   1.016   5.108
    3OL    H18R 5894   5.362   0.907   5.103
    3OL    H18S 5895   5.260   1.048   5.149
    3OL    H18T 5896   5.431   1.059   5.175
    1PA    C116 5897   2.835   2.889   3.668
    1PA    H16R 5898   2.888   2.812   3.611
    1PA    H16S 5899   2.735   2.907   3.629
    1PA    H16T 5900   2.836   2.846   3.768
    1PA    C115 5901   2.915   3.020   3.659
    1PA    H15R 5902   2.926   3.048   3.554
    1PA    H15S 5903   2.860   3.099   3.710
    1PA    C114 5904   3.058   3.023   3.712
    1PA    H14R 5905   3.107   2.941   3.659
    1PA    H14S 5906   3.108   3.112   3.672
    1PA    C113 5907   3.060   3.009   3.865
    1PA    H13R 5908   3.012   3.096   3.910
    1PA    H13S 5909   3.002   2.923   3.898
    1PA    C112 5910   3.206   2.997   3.911
    1PA    H12R 5911   3.253   2.911   3.863
    1PA    H12S 5912   3.273   3.081   3.892
    1PA    C111 5913   3.208   2.978   4.064
    1PA    H11R 5914   3.154   3.056   4.117
    1PA    H11S 5915   3.157   2.883   4.078
    1PA    C110 5916   3.350   2.964   4.119
    1PA    H10R 5917   3.379   2.876   4.061
    1PA    H10S 5918   3.415   3.046   4.087
    1PA     C19 5919   3.353   2.937   4.270
    1PA     H9R 5920   3.286   2.852   4.283
    1PA     H9S 5921   3.446   2.890   4.305
    1PA     C18 5922   3.314   3.051   4.365
    1PA     H8R 5923   3.384   3.133   4.348
    1PA     H8S 5924   3.210   3.077   4.344
    1PA     C17 5925   3.317   3.024   4.516
    1PA     H7R 5926   3.310   3.121   4.564
    1PA     H7S 5927   3.227   2.967   4.543
    1PA     C16 5928   3.448   2.958   4.560
    1PA     H6R 5929   3.453   2.860   4.512
    1PA     H6S 5930   3.540   3.010   4.533
    1PA     C15 5931   3.442   2.925   4.710
    1PA     H5R 5932   3.338   2.903   4.734
    1PA     H5S 5933   3.505   2.838   4.730
    1PA     C14 5934   3.504   3.041   4.790
    1PA     H4R 5935   3.590   3.076   4.732
    1PA     H4S 5936   3.428   3.119   4.801
    1PA     C13 5937   3.542   3.011   4.936
    1PA     H3R 5938   3.552   3.104   4.992
    1PA     H3S 5939   3.469   2.949   4.987
    1PA     C12 5940   3.678   2.940   4.951
    1PA     H2R 5941   3.669   2.846   4.896
    1PA     H2S 5942   3.760   3.002   4.912
    2PC     C11 5943   3.714   2.928   5.097
    2PC     O12 5944   3.651   2.988   5.181
    2PC     O11 5945   3.813   2.841   5.121
    2PC      C1 5946   3.834   2.809   5.259
    2PC      HR 5947   3.928   2.754   5.274
    2PC      HS 5948   3.826   2.889   5.333
    2PC      C2 5949   3.731   2.699   5.288
    2PC      HX 5950   3.630   2.741   5.291
    2PC      C3 5951   3.751   2.628   5.423
    2PC      HA 5952   3.691   2.536   5.428
    2PC      HB 5953   3.857   2.609   5.442
    2PC     O31 5954   3.705   2.712   5.529
    2PC     P31 5955   3.727   2.673   5.683
    2PC     O32 5956   3.776   2.816   5.735
    2PC     C31 5957   3.678   2.919   5.761
    2PC     H1A 5958   3.619   2.932   5.670
    2PC     H1B 5959   3.612   2.897   5.845
    2PC     C32 5960   3.748   3.050   5.798
    2PC     H2A 5961   3.829   3.075   5.728
    2PC     H2B 5962   3.685   3.139   5.790
    2PC     N31 5963   3.818   3.060   5.930
    2PC     C33 5964   3.927   2.959   5.948
    2PC     H3A 5965   3.976   2.979   6.044
    2PC     H3B 5966   3.877   2.863   5.938
    2PC     H3C 5967   3.994   2.976   5.864
    2PC     C34 5968   3.888   3.193   5.920
    2PC     H4A 5969   3.904   3.221   5.816
    2PC     H4B 5970   3.820   3.265   5.965
    2PC     H4C 5971   3.978   3.190   5.982
    2PC     C35 5972   3.728   3.054   6.050
    2PC     H5A 5973   3.676   3.149   6.050
    2PC     H5B 5974   3.774   3.037   6.148
    2PC     H5C 5975   3.648   2.982   6.030
    2PC     O33 5976   3.599   2.641   5.750
    2PC     O34 5977   3.825   2.562   5.696
    2PC     O21 5978   3.748   2.597   5.188
    2PC     C21 5979   3.658   2.594   5.088
    2PC     O22 5980   3.572   2.677   5.070
    3OL     C12 5981   3.691   2.482   4.993
    3OL     H2R 5982   3.611   2.408   4.984
    3OL     H2S 5983   3.787   2.437   5.022
    3OL     C13 5984   3.722   2.539   4.854
    3OL     H3R 5985   3.797   2.613   4.881
    3OL     H3S 5986   3.643   2.594   4.802
    3OL     C14 5987   3.783   2.440   4.753
    3OL     H4R 5988   3.715   2.356   4.750
    3OL     H4S 5989   3.875   2.398   4.793
    3OL     C15 5990   3.793   2.499   4.612
    3OL     H5R 5991   3.855   2.588   4.622
    3OL     H5S 5992   3.700   2.549   4.586
    3OL     C16 5993   3.836   2.394   4.508
    3OL     H6R 5994   3.771   2.306   4.503
    3OL     H6S 5995   3.932   2.355   4.545
    3OL     C17 5996   3.846   2.455   4.368
    3OL     H7R 5997   3.799   2.553   4.357
    3OL     H7S 5998   3.795   2.390   4.297
    3OL     C18 5999   3.995   2.481   4.337
    3OL     H8R 6000   4.046   2.384   4.335
    3OL     H8S 6001   4.028   2.547   4.418
    3OL     C19 6002   4.004   2.552   4.204
    3OL     H9R 6003   3.934   2.525   4.125
    3OL    C110 6004   4.100   2.635   4.168
    3OL    H10R 6005   4.095   2.672   4.066
    3OL    C111 6006   4.198   2.707   4.258
    3OL    H11R 6007   4.223   2.650   4.347
    3OL    H11S 6008   4.152   2.799   4.297
    3OL    C112 6009   4.328   2.740   4.183
    3OL    H12R 6010   4.317   2.815   4.104
    3OL    H12S 6011   4.356   2.649   4.130
    3OL    C113 6012   4.440   2.794   4.274
    3OL    H13R 6013   4.445   2.733   4.364
    3OL    H13S 6014   4.413   2.890   4.319
    3OL    C114 6015   4.580   2.799   4.211
    3OL    H14R 6016   4.575   2.713   4.143
    3OL    H14S 6017   4.654   2.790   4.291
    3OL    C115 6018   4.617   2.922   4.128
    3OL    H15R 6019   4.609   3.013   4.189
    3OL    H15S 6020   4.551   2.930   4.041
    3OL    C116 6021   4.758   2.923   4.069
    3OL    H16R 6022   4.762   3.011   4.004
    3OL    H16S 6023   4.782   2.838   4.005
    3OL    C117 6024   4.862   2.938   4.182
    3OL    H17R 6025   4.870   2.854   4.250
    3OL    H17S 6026   4.831   3.022   4.245
    3OL    C118 6027   5.002   2.956   4.122
    3OL    H18R 6028   5.028   2.879   4.050
    3OL    H18S 6029   5.070   2.938   4.206
    3OL    H18T 6030   5.010   3.059   4.087
    1PA    C116 6031   2.157   4.330   4.030
    1PA    H16R 6032   2.202   4.331   4.130
    1PA    H16S 6033   2.195   4.247   3.970
    1PA    H16T 6034   2.049   4.313   4.035
    1PA    C115 6035   2.177   4.456   3.944
    1PA    H15R 6036   2.116   4.447   3.854
    1PA    H15S 6037   2.151   4.545   4.000
    1PA    C114 6038   2.320   4.473   3.892
    1PA    H14R 6039   2.375   4.380   3.877
    1PA    H14S 6040   2.321   4.527   3.797
    1PA    C113 6041   2.411   4.548   3.990
    1PA    H13R 6042   2.389   4.655   3.989
    1PA    H13S 6043   2.406   4.504   4.090
    1PA    C112 6044   2.556   4.553   3.940
    1PA    H12R 6045   2.600   4.456   3.917
    1PA    H12S 6046   2.566   4.611   3.848
    1PA    C111 6047   2.657   4.621   4.035
    1PA    H11R 6048   2.749   4.646   3.982
    1PA    H11S 6049   2.624   4.716   4.076
    1PA    C110 6050   2.684   4.525   4.152
    1PA    H10R 6051   2.589   4.501   4.200
    1PA    H10S 6052   2.727   4.429   4.122
    1PA     C19 6053   2.779   4.590   4.253
    1PA     H9R 6054   2.877   4.603   4.208
    1PA     H9S 6055   2.741   4.684   4.294
    1PA     C18 6056   2.816   4.490   4.364
    1PA     H8R 6057   2.718   4.480   4.411
    1PA     H8S 6058   2.854   4.397   4.321
    1PA     C17 6059   2.923   4.549   4.457
    1PA     H7R 6060   3.018   4.558   4.404
    1PA     H7S 6061   2.888   4.646   4.491
    1PA     C16 6062   2.950   4.451   4.572
    1PA     H6R 6063   2.937   4.352   4.528
    1PA     H6S 6064   3.057   4.462   4.593
    1PA     C15 6065   2.860   4.470   4.695
    1PA     H5R 6066   2.893   4.566   4.734
    1PA     H5S 6067   2.755   4.475   4.668
    1PA     C14 6068   2.868   4.365   4.808
    1PA     H4R 6069   2.813   4.406   4.893
    1PA     H4S 6070   2.811   4.275   4.788
    1PA     C13 6071   3.011   4.327   4.850
    1PA     H3R 6072   3.006   4.249   4.926
    1PA     H3S 6073   3.075   4.281   4.774
    1PA     C12 6074   3.087   4.441   4.917
    1PA     H2R 6075   3.112   4.510   4.836
    1PA     H2S 6076   3.025   4.500   4.985
    2PC     C11 6077   3.209   4.403   4.998
    2PC     O12 6078   3.317   4.419   4.945
    2PC     O11 6079   3.190   4.341   5.115
    2PC      C1 6080   3.307   4.289   5.181
    2PC      HR 6081   3.284   4.200   5.241
    2PC      HS 6082   3.378   4.247   5.110
    2PC      C2 6083   3.371   4.397   5.269
    2PC      HX 6084   3.463   4.368   5.322
    2PC      C3 6085   3.275   4.446   5.378
    2PC      HA 6086   3.219   4.531   5.339
    2PC      HB 6087   3.200   4.368   5.393
    2PC     O31 6088   3.348   4.485   5.495
    2PC     P31 6089   3.259   4.511   5.626
    2PC     O32 6090   3.373   4.595   5.700
    2PC     C31 6091   3.360   4.609   5.843
    2PC     H1A 6092   3.292   4.533   5.882
    2PC     H1B 6093   3.457   4.594   5.891
    2PC     C32 6094   3.301   4.748   5.866
    2PC     H2A 6095   3.372   4.823   5.831
    2PC     H2B 6096   3.212   4.766   5.806
    2PC     N31 6097   3.271   4.786   6.008
    2PC     C33 6098   3.170   4.694   6.070
    2PC     H3A 6099   3.073   4.715   6.027
    2PC     H3B 6100   3.189   4.587   6.059
    2PC     H3C 6101   3.161   4.714   6.176
    2PC     C34 6102   3.394   4.802   6.092
    2PC     H4A 6103   3.447   4.707   6.080
    2PC     H4B 6104   3.461   4.883   6.062
    2PC     H4C 6105   3.375   4.820   6.198
    2PC     C35 6106   3.193   4.913   5.994
    2PC     H5A 6107   3.231   4.979   5.916
    2PC     H5B 6108   3.185   4.974   6.084
    2PC     H5C 6109   3.091   4.889   5.964
    2PC     O33 6110   3.130   4.581   5.606
    2PC     O34 6111   3.243   4.392   5.713
    2PC     O21 6112   3.401   4.519   5.198
    2PC     C21 6113   3.522   4.527   5.139
    2PC     O22 6114   3.617   4.453   5.157
    3OL     C12 6115   3.529   4.635   5.035
    3OL     H2R 6116   3.436   4.694   5.044
    3OL     H2S 6117   3.528   4.586   4.938
    3OL     C13 6118   3.645   4.735   5.049
    3OL     H3R 6119   3.733   4.673   5.067
    3OL     H3S 6120   3.621   4.793   5.139
    3OL     C14 6121   3.655   4.807   4.914
    3OL     H4R 6122   3.557   4.842   4.880
    3OL     H4S 6123   3.680   4.731   4.840
    3OL     C15 6124   3.754   4.924   4.914
    3OL     H5R 6125   3.842   4.890   4.969
    3OL     H5S 6126   3.706   4.997   4.980
    3OL     C16 6127   3.784   4.985   4.776
    3OL     H6R 6128   3.803   5.093   4.777
    3OL     H6S 6129   3.700   4.970   4.708
    3OL     C17 6130   3.914   4.929   4.717
    3OL     H7R 6131   3.909   4.820   4.707
    3OL     H7S 6132   3.996   4.947   4.788
    3OL     C18 6133   3.962   4.981   4.581
    3OL     H8R 6134   3.970   5.090   4.580
    3OL     H8S 6135   3.882   4.950   4.514
    3OL     C19 6136   4.093   4.916   4.546
    3OL     H9R 6137   4.175   4.928   4.617
    3OL    C110 6138   4.114   4.835   4.444
    3OL    H10R 6139   4.218   4.803   4.433
    3OL    C111 6140   4.018   4.803   4.332
    3OL    H11R 6141   3.994   4.898   4.285
    3OL    H11S 6142   3.929   4.765   4.384
    3OL    C112 6143   4.077   4.708   4.227
    3OL    H12R 6144   4.057   4.605   4.256
    3OL    H12S 6145   4.182   4.740   4.221
    3OL    C113 6146   4.006   4.724   4.092
    3OL    H13R 6147   4.003   4.825   4.051
    3OL    H13S 6148   3.905   4.697   4.123
    3OL    C114 6149   4.062   4.639   3.978
    3OL    H14R 6150   4.056   4.534   4.006
    3OL    H14S 6151   4.169   4.651   3.961
    3OL    C115 6152   3.998   4.665   3.841
    3OL    H15R 6153   3.889   4.663   3.844
    3OL    H15S 6154   4.021   4.581   3.775
    3OL    C116 6155   4.052   4.795   3.778
    3OL    H16R 6156   4.158   4.798   3.800
    3OL    H16S 6157   4.006   4.872   3.840
    3OL    C117 6158   4.038   4.809   3.626
    3OL    H17R 6159   3.933   4.823   3.598
    3OL    H17S 6160   4.059   4.717   3.571
    3OL    C118 6161   4.122   4.927   3.573
    3OL    H18R 6162   4.227   4.912   3.599
    3OL    H18S 6163   4.080   5.017   3.618
    3OL    H18T 6164   4.112   4.937   3.465
    1PA    C116 6165   5.640   1.567   3.805
    1PA    H16R 6166   5.606   1.473   3.761
    1PA    H16S 6167   5.716   1.607   3.737
    1PA    H16T 6168   5.553   1.634   3.803
    1PA    C115 6169   5.691   1.540   3.947
    1PA    H15R 6170   5.692   1.622   4.019
    1PA    H15S 6171   5.624   1.464   3.987
    1PA    C114 6172   5.831   1.477   3.947
    1PA    H14R 6173   5.833   1.386   3.887
    1PA    H14S 6174   5.902   1.543   3.897
    1PA    C113 6175   5.891   1.444   4.084
    1PA    H13R 6176   5.903   1.532   4.148
    1PA    H13S 6177   5.826   1.378   4.142
    1PA    C112 6178   6.019   1.360   4.070
    1PA    H12R 6179   5.986   1.271   4.015
    1PA    H12S 6180   6.092   1.418   4.012
    1PA    C111 6181   6.090   1.317   4.198
    1PA    H11R 6182   6.174   1.252   4.173
    1PA    H11S 6183   6.124   1.410   4.245
    1PA    C110 6184   6.004   1.242   4.301
    1PA    H10R 6185   5.927   1.306   4.344
    1PA    H10S 6186   5.958   1.163   4.240
    1PA     C19 6187   6.088   1.172   4.408
    1PA     H9R 6188   6.154   1.108   4.348
    1PA     H9S 6189   6.156   1.244   4.452
    1PA     C18 6190   6.015   1.085   4.511
    1PA     H8R 6191   5.928   1.035   4.469
    1PA     H8S 6192   6.084   1.005   4.540
    1PA     C17 6193   5.973   1.157   4.640
    1PA     H7R 6194   6.051   1.193   4.707
    1PA     H7S 6195   5.923   1.249   4.610
    1PA     C16 6196   5.884   1.067   4.728
    1PA     H6R 6197   5.869   1.131   4.816
    1PA     H6S 6198   5.782   1.049   4.696
    1PA     C15 6199   5.946   0.932   4.764
    1PA     H5R 6200   5.977   0.870   4.679
    1PA     H5S 6201   6.034   0.949   4.826
    1PA     C14 6202   5.845   0.846   4.841
    1PA     H4R 6203   5.745   0.861   4.800
    1PA     H4S 6204   5.864   0.739   4.834
    1PA     C13 6205   5.837   0.880   4.991
    1PA     H3R 6206   5.936   0.865   5.037
    1PA     H3S 6207   5.816   0.985   5.006
    1PA     C12 6208   5.733   0.801   5.071
    1PA     H2R 6209   5.634   0.840   5.047
    1PA     H2S 6210   5.736   0.695   5.043
    2PC     C11 6211   5.747   0.828   5.218
    2PC     O12 6212   5.842   0.793   5.285
    2PC     O11 6213   5.653   0.913   5.264
    2PC      C1 6214   5.686   0.982   5.386
    2PC      HR 6215   5.597   1.027   5.430
    2PC      HS 6216   5.731   0.920   5.465
    2PC      C2 6217   5.794   1.089   5.367
    2PC      HX 6218   5.890   1.035   5.367
    2PC      C3 6219   5.790   1.190   5.482
    2PC      HA 6220   5.690   1.231   5.471
    2PC      HB 6221   5.795   1.141   5.580
    2PC     O31 6222   5.887   1.297   5.481
    2PC     P31 6223   6.032   1.282   5.546
    2PC     O32 6224   6.078   1.435   5.551
    2PC     C31 6225   5.998   1.533   5.621
    2PC     H1A 6226   6.033   1.633   5.597
    2PC     H1B 6227   5.901   1.511   5.577
    2PC     C32 6228   5.997   1.503   5.771
    2PC     H2A 6229   5.935   1.416   5.795
    2PC     H2B 6230   6.098   1.485   5.808
    2PC     N31 6231   5.945   1.610   5.864
    2PC     C33 6232   5.978   1.558   6.001
    2PC     H3A 6233   5.918   1.470   6.025
    2PC     H3B 6234   6.086   1.549   6.015
    2PC     H3C 6235   5.941   1.633   6.071
    2PC     C34 6236   6.023   1.735   5.841
    2PC     H4A 6237   6.129   1.709   5.850
    2PC     H4B 6238   6.000   1.770   5.740
    2PC     H4C 6239   5.991   1.811   5.912
    2PC     C35 6240   5.798   1.625   5.843
    2PC     H5A 6241   5.773   1.718   5.895
    2PC     H5B 6242   5.739   1.538   5.872
    2PC     H5C 6243   5.786   1.646   5.737
    2PC     O33 6244   6.014   1.214   5.676
    2PC     O34 6245   6.128   1.201   5.467
    2PC     O21 6246   5.771   1.153   5.240
    2PC     C21 6247   5.664   1.227   5.209
    2PC     O22 6248   5.571   1.256   5.283
    3OL     C12 6249   5.670   1.279   5.068
    3OL     H2R 6250   5.578   1.331   5.041
    3OL     H2S 6251   5.668   1.190   5.005
    3OL     C13 6252   5.791   1.374   5.055
    3OL     H3R 6253   5.883   1.316   5.063
    3OL     H3S 6254   5.773   1.454   5.126
    3OL     C14 6255   5.795   1.443   4.917
    3OL     H4R 6256   5.699   1.491   4.903
    3OL     H4S 6257   5.809   1.364   4.842
    3OL     C15 6258   5.916   1.537   4.905
    3OL     H5R 6259   6.007   1.477   4.912
    3OL     H5S 6260   5.914   1.609   4.987
    3OL     C16 6261   5.923   1.608   4.770
    3OL     H6R 6262   5.841   1.680   4.779
    3OL     H6S 6263   5.893   1.549   4.683
    3OL     C17 6264   6.057   1.676   4.738
    3OL     H7R 6265   6.147   1.616   4.727
    3OL     H7S 6266   6.090   1.738   4.822
    3OL     C18 6267   6.042   1.772   4.620
    3OL     H8R 6268   6.126   1.842   4.613
    3OL     H8S 6269   5.953   1.833   4.636
    3OL     C19 6270   6.040   1.706   4.484
    3OL     H9R 6271   6.110   1.626   4.462
    3OL    C110 6272   5.949   1.727   4.390
    3OL    H10R 6273   5.953   1.664   4.301
    3OL    C111 6274   5.837   1.827   4.389
    3OL    H11R 6275   5.859   1.910   4.456
    3OL    H11S 6276   5.751   1.783   4.441
    3OL    C112 6277   5.810   1.880   4.247
    3OL    H12R 6278   5.808   1.796   4.178
    3OL    H12S 6279   5.899   1.940   4.229
    3OL    C113 6280   5.682   1.963   4.230
    3OL    H13R 6281   5.598   1.895   4.245
    3OL    H13S 6282   5.676   2.005   4.130
    3OL    C114 6283   5.658   2.067   4.341
    3OL    H14R 6284   5.664   2.025   4.442
    3OL    H14S 6285   5.556   2.105   4.333
    3OL    C115 6286   5.750   2.186   4.315
    3OL    H15R 6287   5.731   2.228   4.216
    3OL    H15S 6288   5.855   2.158   4.307
    3OL    C116 6289   5.713   2.277   4.433
    3OL    H16R 6290   5.731   2.234   4.532
    3OL    H16S 6291   5.606   2.298   4.429
    3OL    C117 6292   5.809   2.397   4.437
    3OL    H17R 6293   5.913   2.366   4.426
    3OL    H17S 6294   5.795   2.460   4.525
    3OL    C118 6295   5.774   2.488   4.319
    3OL    H18R 6296   5.825   2.583   4.336
    3OL    H18S 6297   5.669   2.519   4.314
    3OL    H18T 6298   5.803   2.444   4.223
    1PA    C116 6299   0.487   2.349   3.765
    1PA    H16R 6300   0.521   2.295   3.677
    1PA    H16S 6301   0.519   2.453   3.751
    1PA    H16T 6302   0.378   2.351   3.757
    1PA    C115 6303   0.533   2.290   3.899
    1PA    H15R 6304   0.641   2.304   3.908
    1PA    H15S 6305   0.480   2.344   3.978
    1PA    C114 6306   0.509   2.138   3.903
    1PA    H14R 6307   0.401   2.122   3.906
    1PA    H14S 6308   0.535   2.084   3.812
    1PA    C113 6309   0.569   2.076   4.030
    1PA    H13R 6310   0.554   2.140   4.117
    1PA    H13S 6311   0.527   1.978   4.054
    1PA    C112 6312   0.717   2.044   4.004
    1PA    H12R 6313   0.715   1.980   3.916
    1PA    H12S 6314   0.775   2.128   3.965
    1PA    C111 6315   0.788   1.971   4.119
    1PA    H11R 6316   0.891   1.974   4.081
    1PA    H11S 6317   0.795   2.040   4.204
    1PA    C110 6318   0.735   1.831   4.152
    1PA    H10R 6319   0.789   1.808   4.244
    1PA    H10S 6320   0.629   1.838   4.180
    1PA     C19 6321   0.775   1.726   4.048
    1PA     H9R 6322   0.743   1.766   3.951
    1PA     H9S 6323   0.884   1.722   4.042
    1PA     C18 6324   0.717   1.589   4.084
    1PA     H8R 6325   0.656   1.599   4.174
    1PA     H8S 6326   0.654   1.553   4.003
    1PA     C17 6327   0.831   1.492   4.120
    1PA     H7R 6328   0.893   1.460   4.037
    1PA     H7S 6329   0.897   1.538   4.193
    1PA     C16 6330   0.771   1.371   4.194
    1PA     H6R 6331   0.679   1.331   4.152
    1PA     H6S 6332   0.842   1.289   4.186
    1PA     C15 6333   0.747   1.389   4.344
    1PA     H5R 6334   0.843   1.404   4.394
    1PA     H5S 6335   0.697   1.479   4.382
    1PA     C14 6336   0.688   1.266   4.415
    1PA     H4R 6337   0.586   1.252   4.378
    1PA     H4S 6338   0.752   1.178   4.400
    1PA     C13 6339   0.672   1.286   4.567
    1PA     H3R 6340   0.653   1.389   4.595
    1PA     H3S 6341   0.587   1.226   4.599
    1PA     C12 6342   0.797   1.221   4.628
    1PA     H2R 6343   0.800   1.114   4.604
    1PA     H2S 6344   0.884   1.266   4.580
    2PC     C11 6345   0.805   1.237   4.778
    2PC     O12 6346   0.720   1.288   4.847
    2PC     O11 6347   0.908   1.170   4.832
    2PC      C1 6348   0.925   1.169   4.975
    2PC      HR 6349   1.024   1.147   5.016
    2PC      HS 6350   0.900   1.269   5.013
    2PC      C2 6351   0.825   1.078   5.049
    2PC      HX 6352   0.721   1.110   5.038
    2PC      C3 6353   0.857   1.052   5.197
    2PC      HA 6354   0.956   1.006   5.202
    2PC      HB 6355   0.859   1.141   5.260
    2PC     O31 6356   0.753   0.973   5.258
    2PC     P31 6357   0.792   0.898   5.394
    2PC     O32 6358   0.639   0.858   5.419
    2PC     C31 6359   0.584   0.748   5.346
    2PC     H1A 6360   0.618   0.762   5.243
    2PC     H1B 6361   0.622   0.652   5.382
    2PC     C32 6362   0.431   0.764   5.356
    2PC     H2A 6363   0.406   0.755   5.461
    2PC     H2B 6364   0.408   0.865   5.321
    2PC     N31 6365   0.337   0.673   5.282
    2PC     C33 6366   0.363   0.534   5.330
    2PC     H3A 6367   0.463   0.502   5.298
    2PC     H3B 6368   0.357   0.542   5.439
    2PC     H3C 6369   0.286   0.467   5.292
    2PC     C34 6370   0.191   0.703   5.293
    2PC     H4A 6371   0.157   0.800   5.257
    2PC     H4B 6372   0.141   0.627   5.233
    2PC     H4C 6373   0.158   0.695   5.397
    2PC     C35 6374   0.367   0.670   5.135
    2PC     H5A 6375   0.475   0.654   5.125
    2PC     H5B 6376   0.349   0.768   5.090
    2PC     H5C 6377   0.310   0.587   5.094
    2PC     O33 6378   0.893   0.794   5.363
    2PC     O34 6379   0.861   1.003   5.473
    2PC     O21 6380   0.830   0.949   4.985
    2PC     C21 6381   0.944   0.879   4.973
    2PC     O22 6382   1.057   0.914   5.000
    3OL     C12 6383   0.923   0.734   4.936
    3OL     H2R 6384   0.917   0.699   5.039
    3OL     H2S 6385   1.013   0.697   4.887
    3OL     C13 6386   0.799   0.705   4.851
    3OL     H3R 6387   0.711   0.731   4.911
    3OL     H3S 6388   0.797   0.596   4.845
    3OL     C14 6389   0.806   0.776   4.715
    3OL     H4R 6390   0.823   0.882   4.737
    3OL     H4S 6391   0.714   0.772   4.657
    3OL     C15 6392   0.927   0.722   4.637
    3OL     H5R 6393   0.939   0.614   4.641
    3OL     H5S 6394   1.021   0.762   4.677
    3OL     C16 6395   0.923   0.764   4.490
    3OL     H6R 6396   1.018   0.749   4.438
    3OL     H6S 6397   0.917   0.873   4.499
    3OL     C17 6398   0.818   0.702   4.397
    3OL     H7R 6399   0.723   0.707   4.451
    3OL     H7S 6400   0.835   0.596   4.374
    3OL     C18 6401   0.795   0.778   4.266
    3OL     H8R 6402   0.752   0.878   4.275
    3OL     H8S 6403   0.733   0.720   4.197
    3OL     C19 6404   0.922   0.796   4.187
    3OL     H9R 6405   1.009   0.792   4.252
    3OL    C110 6406   0.929   0.821   4.057
    3OL    H10R 6407   1.029   0.826   4.014
    3OL    C111 6408   0.816   0.847   3.961
    3OL    H11R 6409   0.753   0.759   3.975
    3OL    H11S 6410   0.857   0.832   3.861
    3OL    C112 6411   0.747   0.982   3.985
    3OL    H12R 6412   0.730   1.010   4.089
    3OL    H12S 6413   0.648   0.976   3.939
    3OL    C113 6414   0.822   1.098   3.919
    3OL    H13R 6415   0.896   1.056   3.850
    3OL    H13S 6416   0.866   1.163   3.994
    3OL    C114 6417   0.725   1.189   3.842
    3OL    H14R 6418   0.652   1.229   3.912
    3OL    H14S 6419   0.681   1.134   3.759
    3OL    C115 6420   0.795   1.307   3.774
    3OL    H15R 6421   0.876   1.272   3.710
    3OL    H15S 6422   0.834   1.368   3.855
    3OL    C116 6423   0.689   1.387   3.698
    3OL    H16R 6424   0.599   1.409   3.757
    3OL    H16S 6425   0.655   1.330   3.611
    3OL    C117 6426   0.759   1.516   3.654
    3OL    H17R 6427   0.760   1.503   3.545
    3OL    H17S 6428   0.861   1.525   3.691
    3OL    C118 6429   0.673   1.638   3.692
    3OL    H18R 6430   0.571   1.641   3.650
    3OL    H18S 6431   0.712   1.733   3.656
    3OL    H18T 6432   0.679   1.649   3.800
    1PA    C116 6433   5.251   1.182   3.956
    1PA    H16R 6434   5.218   1.264   3.891
    1PA    H16S 6435   5.194   1.090   3.940
    1PA    H16T 6436   5.351   1.173   3.913
    1PA    C115 6437   5.252   1.206   4.107
    1PA    H15R 6438   5.270   1.111   4.158
    1PA    H15S 6439   5.335   1.275   4.123
    1PA    C114 6440   5.124   1.278   4.153
    1PA    H14R 6441   5.119   1.380   4.114
    1PA    H14S 6442   5.048   1.210   4.113
    1PA    C113 6443   5.106   1.275   4.306
    1PA    H13R 6444   5.093   1.173   4.340
    1PA    H13S 6445   5.193   1.316   4.359
    1PA    C112 6446   4.992   1.362   4.361
    1PA    H12R 6447   5.030   1.464   4.370
    1PA    H12S 6448   4.919   1.357   4.280
    1PA    C111 6449   4.934   1.312   4.494
    1PA    H11R 6450   4.839   1.363   4.514
    1PA    H11S 6451   4.906   1.207   4.488
    1PA    C110 6452   5.022   1.314   4.620
    1PA    H10R 6453   5.073   1.217   4.617
    1PA    H10S 6454   5.095   1.394   4.610
    1PA     C19 6455   4.952   1.338   4.754
    1PA     H9R 6456   4.907   1.437   4.749
    1PA     H9S 6457   4.883   1.254   4.752
    1PA     C18 6458   5.049   1.316   4.871
    1PA     H8R 6459   5.095   1.218   4.858
    1PA     H8S 6460   5.118   1.400   4.859
    1PA     C17 6461   4.960   1.323   4.995
    1PA     H7R 6462   4.894   1.409   4.977
    1PA     H7S 6463   4.887   1.242   4.995
    1PA     C16 6464   5.027   1.326   5.133
    1PA     H6R 6465   4.947   1.322   5.207
    1PA     H6S 6466   5.090   1.236   5.139
    1PA     C15 6467   5.114   1.452   5.142
    1PA     H5R 6468   5.116   1.501   5.044
    1PA     H5S 6469   5.076   1.524   5.215
    1PA     C14 6470   5.258   1.418   5.183
    1PA     H4R 6471   5.268   1.403   5.291
    1PA     H4S 6472   5.283   1.328   5.128
    1PA     C13 6473   5.366   1.523   5.152
    1PA     H3R 6474   5.466   1.481   5.160
    1PA     H3S 6475   5.362   1.560   5.049
    1PA     C12 6476   5.352   1.649   5.239
    1PA     H2R 6477   5.259   1.696   5.207
    1PA     H2S 6478   5.350   1.620   5.344
    2PC     C11 6479   5.468   1.745   5.234
    2PC     O12 6480   5.575   1.728   5.179
    2PC     O11 6481   5.442   1.855   5.306
    2PC      C1 6482   5.552   1.944   5.332
    2PC      HR 6483   5.639   1.897   5.378
    2PC      HS 6484   5.589   1.986   5.238
    2PC      C2 6485   5.510   2.054   5.430
    2PC      HX 6486   5.600   2.111   5.455
    2PC      C3 6487   5.443   2.002   5.558
    2PC      HA 6488   5.408   2.085   5.619
    2PC      HB 6489   5.357   1.937   5.539
    2PC     O31 6490   5.544   1.933   5.635
    2PC     P31 6491   5.508   1.908   5.789
    2PC     O32 6492   5.389   1.804   5.762
    2PC     C31 6493   5.424   1.666   5.737
    2PC     H1A 6494   5.498   1.667   5.656
    2PC     H1B 6495   5.473   1.628   5.827
    2PC     C32 6496   5.302   1.581   5.700
    2PC     H2A 6497   5.251   1.630   5.617
    2PC     H2B 6498   5.346   1.488   5.664
    2PC     N31 6499   5.201   1.544   5.804
    2PC     C33 6500   5.116   1.429   5.757
    2PC     H3A 6501   5.034   1.424   5.828
    2PC     H3B 6502   5.070   1.441   5.659
    2PC     H3C 6503   5.186   1.347   5.776
    2PC     C34 6504   5.268   1.512   5.934
    2PC     H4A 6505   5.327   1.420   5.935
    2PC     H4B 6506   5.337   1.591   5.963
    2PC     H4C 6507   5.188   1.508   6.008
    2PC     C35 6508   5.112   1.659   5.839
    2PC     H5A 6509   5.038   1.684   5.762
    2PC     H5B 6510   5.174   1.747   5.857
    2PC     H5C 6511   5.047   1.645   5.925
    2PC     O33 6512   5.624   1.859   5.867
    2PC     O34 6513   5.467   2.034   5.855
    2PC     O21 6514   5.415   2.137   5.360
    2PC     C21 6515   5.460   2.231   5.275
    2PC     O22 6516   5.576   2.262   5.264
    3OL     C12 6517   5.358   2.285   5.177
    3OL     H2R 6518   5.351   2.393   5.189
    3OL     H2S 6519   5.260   2.240   5.192
    3OL     C13 6520   5.398   2.268   5.030
    3OL     H3R 6521   5.421   2.162   5.019
    3OL     H3S 6522   5.492   2.322   5.013
    3OL     C14 6523   5.300   2.329   4.929
    3OL     H4R 6524   5.334   2.431   4.909
    3OL     H4S 6525   5.201   2.335   4.976
    3OL     C15 6526   5.289   2.245   4.801
    3OL     H5R 6527   5.263   2.141   4.823
    3OL     H5S 6528   5.383   2.246   4.745
    3OL     C16 6529   5.183   2.302   4.706
    3OL     H6R 6530   5.184   2.411   4.714
    3OL     H6S 6531   5.087   2.268   4.747
    3OL     C17 6532   5.193   2.245   4.564
    3OL     H7R 6533   5.098   2.258   4.511
    3OL     H7S 6534   5.209   2.137   4.576
    3OL     C18 6535   5.308   2.316   4.491
    3OL     H8R 6536   5.396   2.319   4.556
    3OL     H8S 6537   5.275   2.419   4.480
    3OL     C19 6538   5.329   2.258   4.354
    3OL     H9R 6539   5.308   2.152   4.340
    3OL    C110 6540   5.356   2.323   4.242
    3OL    H10R 6541   5.357   2.266   4.149
    3OL    C111 6542   5.400   2.467   4.224
    3OL    H11R 6543   5.491   2.482   4.166
    3OL    H11S 6544   5.422   2.508   4.322
    3OL    C112 6545   5.288   2.555   4.165
    3OL    H12R 6546   5.320   2.656   4.190
    3OL    H12S 6547   5.187   2.529   4.197
    3OL    C113 6548   5.287   2.545   4.012
    3OL    H13R 6549   5.275   2.436   4.004
    3OL    H13S 6550   5.385   2.566   3.968
    3OL    C114 6551   5.165   2.614   3.951
    3OL    H14R 6552   5.151   2.721   3.972
    3OL    H14S 6553   5.074   2.571   3.993
    3OL    C115 6554   5.166   2.598   3.798
    3OL    H15R 6555   5.072   2.628   3.753
    3OL    H15S 6556   5.159   2.491   3.776
    3OL    C116 6557   5.282   2.673   3.731
    3OL    H16R 6558   5.380   2.632   3.757
    3OL    H16S 6559   5.275   2.778   3.759
    3OL    C117 6560   5.265   2.648   3.580
    3OL    H17R 6561   5.340   2.720   3.544
    3OL    H17S 6562   5.169   2.684   3.543
    3OL    C118 6563   5.304   2.511   3.524
    3OL    H18R 6564   5.222   2.444   3.549
    3OL    H18S 6565   5.399   2.472   3.562
    3OL    H18T 6566   5.306   2.517   3.415
    1PA    C116 6567   6.042   5.537   3.688
    1PA    H16R 6568   6.101   5.553   3.598
    1PA    H16S 6569   6.086   5.449   3.737
    1PA    H16T 6570   6.051   5.628   3.749
    1PA    C115 6571   5.896   5.532   3.641
    1PA    H15R 6572   5.883   5.504   3.536
    1PA    H15S 6573   5.846   5.467   3.713
    1PA    C114 6574   5.828   5.669   3.652
    1PA    H14R 6575   5.846   5.713   3.751
    1PA    H14S 6576   5.886   5.728   3.580
    1PA    C113 6577   5.683   5.673   3.602
    1PA    H13R 6578   5.656   5.773   3.568
    1PA    H13S 6579   5.670   5.604   3.519
    1PA    C112 6580   5.581   5.645   3.714
    1PA    H12R 6581   5.583   5.544   3.755
    1PA    H12S 6582   5.591   5.714   3.798
    1PA    C111 6583   5.438   5.670   3.662
    1PA    H11R 6584   5.424   5.762   3.606
    1PA    H11S 6585   5.412   5.585   3.598
    1PA    C110 6586   5.334   5.669   3.775
    1PA    H10R 6587   5.245   5.624   3.732
    1PA    H10S 6588   5.360   5.601   3.856
    1PA     C19 6589   5.297   5.809   3.826
    1PA     H9R 6590   5.389   5.852   3.867
    1PA     H9S 6591   5.262   5.870   3.743
    1PA     C18 6592   5.191   5.801   3.937
    1PA     H8R 6593   5.098   5.768   3.891
    1PA     H8S 6594   5.216   5.735   4.020
    1PA     C17 6595   5.156   5.937   4.000
    1PA     H7R 6596   5.247   5.987   4.032
    1PA     H7S 6597   5.109   5.999   3.924
    1PA     C16 6598   5.060   5.919   4.118
    1PA     H6R 6599   5.024   6.021   4.135
    1PA     H6S 6600   4.980   5.848   4.095
    1PA     C15 6601   5.137   5.879   4.244
    1PA     H5R 6602   5.189   5.784   4.232
    1PA     H5S 6603   5.219   5.949   4.262
    1PA     C14 6604   5.048   5.867   4.369
    1PA     H4R 6605   4.984   5.953   4.386
    1PA     H4S 6606   4.987   5.782   4.336
    1PA     C13 6607   5.124   5.830   4.498
    1PA     H3R 6608   5.185   5.742   4.478
    1PA     H3S 6609   5.188   5.915   4.523
    1PA     C12 6610   5.021   5.810   4.610
    1PA     H2R 6611   4.969   5.904   4.626
    1PA     H2S 6612   4.950   5.728   4.598
    2PC     C11 6613   5.103   5.781   4.734
    2PC     O12 6614   5.178   5.859   4.788
    2PC     O11 6615   5.094   5.652   4.772
    2PC      C1 6616   5.156   5.612   4.895
    2PC      HR 6617   5.264   5.623   4.888
    2PC      HS 6618   5.126   5.668   4.984
    2PC      C2 6619   5.128   5.463   4.921
    2PC      HX 6620   5.019   5.457   4.924
    2PC      C3 6621   5.187   5.416   5.055
    2PC      HA 6622   5.132   5.449   5.143
    2PC      HB 6623   5.177   5.307   5.067
    2PC     O31 6624   5.329   5.436   5.064
    2PC     P31 6625   5.399   5.389   5.200
    2PC     O32 6626   5.525   5.322   5.126
    2PC     C31 6627   5.647   5.342   5.200
    2PC     H1A 6628   5.692   5.439   5.178
    2PC     H1B 6629   5.632   5.314   5.304
    2PC     C32 6630   5.736   5.227   5.150
    2PC     H2A 6631   5.688   5.134   5.183
    2PC     H2B 6632   5.763   5.224   5.044
    2PC     N31 6633   5.871   5.229   5.214
    2PC     C33 6634   5.863   5.210   5.362
    2PC     H3A 6635   5.966   5.191   5.395
    2PC     H3B 6636   5.824   5.299   5.412
    2PC     H3C 6637   5.804   5.119   5.374
    2PC     C34 6638   5.952   5.114   5.161
    2PC     H4A 6639   5.896   5.024   5.139
    2PC     H4B 6640   5.995   5.152   5.069
    2PC     H4C 6641   6.032   5.087   5.231
    2PC     C35 6642   5.939   5.359   5.183
    2PC     H5A 6643   6.046   5.342   5.197
    2PC     H5B 6644   5.902   5.436   5.250
    2PC     H5C 6645   5.911   5.395   5.084
    2PC     O33 6646   5.445   5.514   5.265
    2PC     O34 6647   5.334   5.299   5.298
    2PC     O21 6648   5.177   5.386   4.810
    2PC     C21 6649   5.148   5.255   4.793
    2PC     O22 6650   5.082   5.186   4.867
    3OL     C12 6651   5.224   5.197   4.677
    3OL     H2R 6652   5.285   5.113   4.710
    3OL     H2S 6653   5.293   5.273   4.639
    3OL     C13 6654   5.128   5.158   4.563
    3OL     H3R 6655   5.065   5.073   4.587
    3OL     H3S 6656   5.195   5.138   4.479
    3OL     C14 6657   5.038   5.272   4.514
    3OL     H4R 6658   5.085   5.369   4.533
    3OL     H4S 6659   4.946   5.275   4.571
    3OL     C15 6660   4.994   5.225   4.375
    3OL     H5R 6661   4.934   5.134   4.369
    3OL     H5S 6662   5.080   5.208   4.310
    3OL     C16 6663   4.923   5.339   4.301
    3OL     H6R 6664   4.918   5.331   4.192
    3OL     H6S 6665   4.990   5.423   4.320
    3OL     C17 6666   4.783   5.370   4.357
    3OL     H7R 6667   4.784   5.407   4.460
    3OL     H7S 6668   4.730   5.275   4.364
    3OL     C18 6669   4.705   5.473   4.273
    3OL     H8R 6670   4.606   5.473   4.318
    3OL     H8S 6671   4.697   5.435   4.171
    3OL     C19 6672   4.755   5.615   4.271
    3OL     H9R 6673   4.793   5.650   4.367
    3OL    C110 6674   4.764   5.686   4.160
    3OL    H10R 6675   4.809   5.784   4.169
    3OL    C111 6676   4.705   5.660   4.023
    3OL    H11R 6677   4.601   5.693   4.021
    3OL    H11S 6678   4.698   5.552   4.006
    3OL    C112 6679   4.795   5.715   3.911
    3OL    H12R 6680   4.890   5.661   3.908
    3OL    H12S 6681   4.816   5.816   3.945
    3OL    C113 6682   4.727   5.714   3.773
    3OL    H13R 6683   4.771   5.798   3.720
    3OL    H13S 6684   4.619   5.725   3.782
    3OL    C114 6685   4.757   5.585   3.694
    3OL    H14R 6686   4.728   5.492   3.744
    3OL    H14S 6687   4.865   5.588   3.678
    3OL    C115 6688   4.679   5.598   3.563
    3OL    H15R 6689   4.706   5.695   3.519
    3OL    H15S 6690   4.572   5.597   3.585
    3OL    C116 6691   4.706   5.486   3.462
    3OL    H16R 6692   4.700   5.390   3.514
    3OL    H16S 6693   4.804   5.498   3.415
    3OL    C117 6694   4.596   5.494   3.355
    3OL    H17R 6695   4.495   5.476   3.393
    3OL    H17S 6696   4.607   5.413   3.283
    3OL    C118 6697   4.591   5.625   3.276
    3OL    H18R 6698   4.565   5.707   3.343
    3OL    H18S 6699   4.517   5.626   3.195
    3OL    H18T 6700   4.690   5.659   3.244
    1PA    C116 6701   3.918   5.990   3.996
    1PA    H16R 6702   3.979   5.987   3.905
    1PA    H16S 6703   3.976   6.050   4.066
    1PA    H16T 6704   3.822   6.040   3.983
    1PA    C115 6705   3.898   5.845   4.042
    1PA    H15R 6706   3.840   5.789   3.968
    1PA    H15S 6707   3.990   5.786   4.045
    1PA    C114 6708   3.826   5.836   4.177
    1PA    H14R 6709   3.862   5.917   4.240
    1PA    H14S 6710   3.718   5.845   4.162
    1PA    C113 6711   3.849   5.697   4.239
    1PA    H13R 6712   3.820   5.621   4.166
    1PA    H13S 6713   3.956   5.690   4.257
    1PA    C112 6714   3.784   5.683   4.377
    1PA    H12R 6715   3.798   5.776   4.433
    1PA    H12S 6716   3.677   5.672   4.358
    1PA    C111 6717   3.834   5.560   4.455
    1PA    H11R 6718   3.826   5.473   4.389
    1PA    H11S 6719   3.940   5.571   4.477
    1PA    C110 6720   3.750   5.533   4.580
    1PA    H10R 6721   3.810   5.465   4.641
    1PA    H10S 6722   3.720   5.622   4.636
    1PA     C19 6723   3.622   5.457   4.544
    1PA     H9R 6724   3.569   5.530   4.482
    1PA     H9S 6725   3.649   5.366   4.489
    1PA     C18 6726   3.531   5.421   4.663
    1PA     H8R 6727   3.540   5.501   4.736
    1PA     H8S 6728   3.432   5.408   4.619
    1PA     C17 6729   3.576   5.287   4.723
    1PA     H7R 6730   3.596   5.209   4.649
    1PA     H7S 6731   3.678   5.310   4.756
    1PA     C16 6732   3.486   5.232   4.835
    1PA     H6R 6733   3.384   5.251   4.802
    1PA     H6S 6734   3.501   5.123   4.838
    1PA     C15 6735   3.522   5.296   4.970
    1PA     H5R 6736   3.624   5.278   5.005
    1PA     H5S 6737   3.513   5.404   4.958
    1PA     C14 6738   3.429   5.264   5.087
    1PA     H4R 6739   3.425   5.155   5.091
    1PA     H4S 6740   3.477   5.298   5.180
    1PA     C13 6741   3.290   5.326   5.071
    1PA     H3R 6742   3.297   5.430   5.041
    1PA     H3S 6743   3.247   5.285   4.979
    1PA     C12 6744   3.201   5.305   5.195
    1PA     H2R 6745   3.102   5.344   5.169
    1PA     H2S 6746   3.184   5.200   5.217
    2PC     C11 6747   3.247   5.388   5.312
    2PC     O12 6748   3.295   5.499   5.302
    2PC     O11 6749   3.234   5.321   5.428
    2PC      C1 6750   3.293   5.373   5.548
    2PC      HR 6751   3.258   5.476   5.560
    2PC      HS 6752   3.240   5.327   5.632
    2PC      C2 6753   3.447   5.370   5.554
    2PC      HX 6754   3.470   5.266   5.529
    2PC      C3 6755   3.494   5.405   5.696
    2PC      HA 6756   3.449   5.334   5.765
    2PC      HB 6757   3.602   5.389   5.703
    2PC     O31 6758   3.459   5.540   5.733
    2PC     P31 6759   3.516   5.584   5.876
    2PC     O32 6760   3.630   5.690   5.840
    2PC     C31 6761   3.697   5.757   5.949
    2PC     H1A 6762   3.615   5.798   6.010
    2PC     H1B 6763   3.755   5.684   6.005
    2PC     C32 6764   3.791   5.866   5.897
    2PC     H2A 6765   3.815   5.927   5.984
    2PC     H2B 6766   3.882   5.813   5.869
    2PC     N31 6767   3.747   5.963   5.791
    2PC     C33 6768   3.735   5.898   5.657
    2PC     H3A 6769   3.832   5.872   5.614
    2PC     H3B 6770   3.668   5.812   5.661
    2PC     H3C 6771   3.680   5.964   5.590
    2PC     C34 6772   3.616   6.022   5.832
    2PC     H4A 6773   3.546   5.941   5.854
    2PC     H4B 6774   3.617   6.077   5.926
    2PC     H4C 6775   3.587   6.098   5.759
    2PC     C35 6776   3.856   6.066   5.786
    2PC     H5A 6777   3.866   6.104   5.888
    2PC     H5B 6778   3.836   6.144   5.712
    2PC     H5C 6779   3.945   6.021   5.743
    2PC     O33 6780   3.416   5.629   5.975
    2PC     O34 6781   3.588   5.473   5.944
    2PC     O21 6782   3.500   5.463   5.458
    2PC     C21 6783   3.631   5.453   5.431
    2PC     O22 6784   3.702   5.361   5.467
    3OL     C12 6785   3.672   5.560   5.333
    3OL     H2R 6786   3.739   5.630   5.383
    3OL     H2S 6787   3.582   5.611   5.297
    3OL     C13 6788   3.745   5.497   5.213
    3OL     H3R 6789   3.675   5.423   5.172
    3OL     H3S 6790   3.828   5.436   5.249
    3OL     C14 6791   3.794   5.596   5.106
    3OL     H4R 6792   3.849   5.534   5.035
    3OL     H4S 6793   3.870   5.650   5.162
    3OL     C15 6794   3.688   5.696   5.060
    3OL     H5R 6795   3.633   5.742   5.143
    3OL     H5S 6796   3.619   5.633   5.003
    3OL     C16 6797   3.759   5.791   4.963
    3OL     H6R 6798   3.793   5.730   4.879
    3OL     H6S 6799   3.839   5.845   5.015
    3OL     C17 6800   3.657   5.891   4.907
    3OL     H7R 6801   3.612   5.945   4.991
    3OL     H7S 6802   3.588   5.844   4.837
    3OL     C18 6803   3.744   6.000   4.841
    3OL     H8R 6804   3.803   5.952   4.763
    3OL     H8S 6805   3.807   6.041   4.920
    3OL     C19 6806   3.652   6.111   4.796
    3OL     H9R 6807   3.604   6.171   4.872
    3OL    C110 6808   3.630   6.150   4.671
    3OL    H10R 6809   3.569   6.238   4.654
    3OL    C111 6810   3.684   6.084   4.547
    3OL    H11R 6811   3.598   6.035   4.502
    3OL    H11S 6812   3.763   6.012   4.571
    3OL    C112 6813   3.729   6.190   4.445
    3OL    H12R 6814   3.766   6.137   4.357
    3OL    H12S 6815   3.815   6.244   4.485
    3OL    C113 6816   3.623   6.296   4.411
    3OL    H13R 6817   3.679   6.375   4.359
    3OL    H13S 6818   3.579   6.337   4.502
    3OL    C114 6819   3.524   6.236   4.310
    3OL    H14R 6820   3.474   6.164   4.374
    3OL    H14S 6821   3.565   6.181   4.225
    3OL    C115 6822   3.421   6.345   4.277
    3OL    H15R 6823   3.367   6.374   4.367
    3OL    H15S 6824   3.343   6.297   4.217
    3OL    C116 6825   3.468   6.465   4.194
    3OL    H16R 6826   3.513   6.416   4.107
    3OL    H16S 6827   3.538   6.519   4.258
    3OL    C117 6828   3.353   6.558   4.153
    3OL    H17R 6829   3.317   6.601   4.247
    3OL    H17S 6830   3.268   6.503   4.110
    3OL    C118 6831   3.393   6.664   4.049
    3OL    H18R 6832   3.492   6.697   4.081
    3OL    H18S 6833   3.324   6.749   4.054
    3OL    H18T 6834   3.387   6.620   3.950
    1PA    C116 6835   3.883   1.625   3.683
    1PA    H16R 6836   3.913   1.560   3.600
    1PA    H16S 6837   3.965   1.667   3.741
    1PA    H16T 6838   3.812   1.701   3.650
    1PA    C115 6839   3.820   1.524   3.780
    1PA    H15R 6840   3.739   1.460   3.741
    1PA    H15S 6841   3.892   1.457   3.826
    1PA    C114 6842   3.753   1.600   3.895
    1PA    H14R 6843   3.821   1.669   3.945
    1PA    H14S 6844   3.676   1.669   3.858
    1PA    C113 6845   3.704   1.495   3.995
    1PA    H13R 6846   3.659   1.412   3.939
    1PA    H13S 6847   3.785   1.461   4.060
    1PA    C112 6848   3.592   1.548   4.085
    1PA    H12R 6849   3.531   1.626   4.039
    1PA    H12S 6850   3.523   1.471   4.120
    1PA    C111 6851   3.661   1.627   4.196
    1PA    H11R 6852   3.744   1.686   4.155
    1PA    H11S 6853   3.590   1.697   4.240
    1PA    C110 6854   3.711   1.539   4.311
    1PA    H10R 6855   3.801   1.480   4.294
    1PA    H10S 6856   3.749   1.607   4.387
    1PA     C19 6857   3.606   1.450   4.379
    1PA     H9R 6858   3.522   1.513   4.408
    1PA     H9S 6859   3.571   1.373   4.310
    1PA     C18 6860   3.670   1.389   4.504
    1PA     H8R 6861   3.753   1.323   4.478
    1PA     H8S 6862   3.719   1.476   4.549
    1PA     C17 6863   3.568   1.319   4.594
    1PA     H7R 6864   3.503   1.400   4.628
    1PA     H7S 6865   3.513   1.243   4.537
    1PA     C16 6866   3.636   1.234   4.702
    1PA     H6R 6867   3.676   1.147   4.650
    1PA     H6S 6868   3.717   1.293   4.746
    1PA     C15 6869   3.531   1.199   4.808
    1PA     H5R 6870   3.466   1.285   4.825
    1PA     H5S 6871   3.452   1.133   4.772
    1PA     C14 6872   3.593   1.137   4.934
    1PA     H4R 6873   3.617   1.036   4.903
    1PA     H4S 6874   3.684   1.186   4.969
    1PA     C13 6875   3.495   1.150   5.052
    1PA     H3R 6876   3.485   1.255   5.078
    1PA     H3S 6877   3.397   1.111   5.025
    1PA     C12 6878   3.524   1.062   5.175
    1PA     H2R 6879   3.478   0.964   5.160
    1PA     H2S 6880   3.631   1.054   5.190
    2PC     C11 6881   3.471   1.116   5.305
    2PC     O12 6882   3.546   1.161   5.389
    2PC     O11 6883   3.336   1.120   5.304
    2PC      C1 6884   3.257   1.167   5.415
    2PC      HR 6885   3.153   1.138   5.400
    2PC      HS 6886   3.289   1.111   5.503
    2PC      C2 6887   3.266   1.315   5.454
    2PC      HX 6888   3.369   1.338   5.485
    2PC      C3 6889   3.179   1.342   5.578
    2PC      HA 6890   3.079   1.300   5.564
    2PC      HB 6891   3.222   1.295   5.667
    2PC     O31 6892   3.177   1.485   5.598
    2PC     P31 6893   3.090   1.534   5.723
    2PC     O32 6894   2.936   1.512   5.684
    2PC     C31 6895   2.870   1.602   5.593
    2PC     H1A 6896   2.849   1.693   5.650
    2PC     H1B 6897   2.950   1.625   5.522
    2PC     C32 6898   2.748   1.545   5.520
    2PC     H2A 6899   2.730   1.617   5.440
    2PC     H2B 6900   2.781   1.455   5.468
    2PC     N31 6901   2.618   1.523   5.591
    2PC     C33 6902   2.566   1.656   5.637
    2PC     H3A 6903   2.545   1.716   5.549
    2PC     H3B 6904   2.474   1.634   5.693
    2PC     H3C 6905   2.633   1.708   5.705
    2PC     C34 6906   2.515   1.455   5.506
    2PC     H4A 6907   2.498   1.349   5.528
    2PC     H4B 6908   2.418   1.503   5.522
    2PC     H4C 6909   2.553   1.464   5.404
    2PC     C35 6910   2.618   1.438   5.715
    2PC     H5A 6911   2.519   1.418   5.756
    2PC     H5B 6912   2.669   1.490   5.796
    2PC     H5C 6913   2.674   1.347   5.693
    2PC     O33 6914   3.122   1.476   5.856
    2PC     O34 6915   3.118   1.678   5.744
    2PC     O21 6916   3.246   1.394   5.335
    2PC     C21 6917   3.128   1.411   5.273
    2PC     O22 6918   3.021   1.380   5.322
    3OL     C12 6919   3.145   1.483   5.142
    3OL     H2R 6920   3.235   1.543   5.148
    3OL     H2S 6921   3.061   1.552   5.131
    3OL     C13 6922   3.154   1.393   5.018
    3OL     H3R 6923   3.077   1.316   5.019
    3OL     H3S 6924   3.247   1.335   5.021
    3OL     C14 6925   3.139   1.489   4.899
    3OL     H4R 6926   3.213   1.568   4.905
    3OL     H4S 6927   3.038   1.529   4.914
    3OL     C15 6928   3.173   1.416   4.768
    3OL     H5R 6929   3.108   1.332   4.741
    3OL     H5S 6930   3.275   1.379   4.778
    3OL     C16 6931   3.167   1.519   4.655
    3OL     H6R 6932   3.232   1.604   4.677
    3OL     H6S 6933   3.065   1.556   4.642
    3OL     C17 6934   3.216   1.463   4.520
    3OL     H7R 6935   3.186   1.359   4.511
    3OL     H7S 6936   3.324   1.455   4.529
    3OL     C18 6937   3.182   1.553   4.400
    3OL     H8R 6938   3.230   1.650   4.412
    3OL     H8S 6939   3.074   1.564   4.396
    3OL     C19 6940   3.234   1.486   4.275
    3OL     H9R 6941   3.334   1.443   4.285
    3OL    C110 6942   3.173   1.473   4.159
    3OL    H10R 6943   3.221   1.414   4.082
    3OL    C111 6944   3.038   1.526   4.115
    3OL    H11R 6945   3.049   1.587   4.025
    3OL    H11S 6946   2.982   1.581   4.191
    3OL    C112 6947   2.940   1.415   4.075
    3OL    H12R 6948   2.845   1.457   4.043
    3OL    H12S 6949   2.928   1.358   4.167
    3OL    C113 6950   2.990   1.332   3.956
    3OL    H13R 6951   3.081   1.278   3.983
    3OL    H13S 6952   3.019   1.398   3.874
    3OL    C114 6953   2.877   1.236   3.915
    3OL    H14R 6954   2.793   1.295   3.877
    3OL    H14S 6955   2.837   1.180   4.000
    3OL    C115 6956   2.929   1.135   3.811
    3OL    H15R 6957   2.991   1.184   3.736
    3OL    H15S 6958   2.845   1.099   3.751
    3OL    C116 6959   3.012   1.018   3.867
    3OL    H16R 6960   2.976   1.009   3.969
    3OL    H16S 6961   3.119   1.038   3.863
    3OL    C117 6962   2.989   0.890   3.784
    3OL    H17R 6963   2.886   0.856   3.787
    3OL    H17S 6964   3.051   0.811   3.826
    3OL    C118 6965   3.022   0.921   3.637
    3OL    H18R 6966   2.995   0.835   3.576
    3OL    H18S 6967   3.129   0.936   3.622
    3OL    H18T 6968   2.961   1.002   3.598
    1PA    C116 6969   5.298   3.504   3.867
    1PA    H16R 6970   5.404   3.499   3.892
    1PA    H16S 6971   5.272   3.608   3.846
    1PA    H16T 6972   5.285   3.441   3.779
    1PA    C115 6973   5.200   3.459   3.976
    1PA    H15R 6974   5.096   3.458   3.945
    1PA    H15S 6975   5.218   3.355   4.007
    1PA    C114 6976   5.207   3.554   4.096
    1PA    H14R 6977   5.299   3.543   4.153
    1PA    H14S 6978   5.216   3.659   4.066
    1PA    C113 6979   5.088   3.541   4.193
    1PA    H13R 6980   5.091   3.626   4.262
    1PA    H13S 6981   4.994   3.551   4.137
    1PA    C112 6982   5.089   3.404   4.261
    1PA    H12R 6983   4.990   3.392   4.304
    1PA    H12S 6984   5.113   3.321   4.194
    1PA    C111 6985   5.192   3.404   4.376
    1PA    H11R 6986   5.280   3.453   4.333
    1PA    H11S 6987   5.168   3.477   4.454
    1PA    C110 6988   5.231   3.270   4.438
    1PA    H10R 6989   5.279   3.206   4.364
    1PA    H10S 6990   5.313   3.290   4.506
    1PA     C19 6991   5.118   3.203   4.518
    1PA     H9R 6992   5.028   3.203   4.456
    1PA     H9S 6993   5.145   3.099   4.535
    1PA     C18 6994   5.095   3.278   4.650
    1PA     H8R 6995   5.192   3.304   4.693
    1PA     H8S 6996   5.040   3.370   4.631
    1PA     C17 6997   5.009   3.194   4.745
    1PA     H7R 6998   4.912   3.173   4.700
    1PA     H7S 6999   5.047   3.092   4.757
    1PA     C16 7000   4.981   3.269   4.875
    1PA     H6R 7001   4.990   3.377   4.859
    1PA     H6S 7002   4.876   3.253   4.901
    1PA     C15 7003   5.072   3.224   4.991
    1PA     H5R 7004   5.046   3.121   5.015
    1PA     H5S 7005   5.178   3.224   4.964
    1PA     C14 7006   5.060   3.300   5.124
    1PA     H4R 7007   5.111   3.395   5.104
    1PA     H4S 7008   4.958   3.322   5.157
    1PA     C13 7009   5.130   3.228   5.239
    1PA     H3R 7010   5.105   3.273   5.336
    1PA     H3S 7011   5.098   3.123   5.244
    1PA     C12 7012   5.283   3.226   5.238
    1PA     H2R 7013   5.312   3.150   5.165
    1PA     H2S 7014   5.328   3.323   5.216
    2PC     C11 7015   5.321   3.163   5.370
    2PC     O12 7016   5.370   3.052   5.377
    2PC     O11 7017   5.291   3.246   5.471
    2PC      C1 7018   5.286   3.196   5.606
    2PC      HR 7019   5.382   3.145   5.624
    2PC      HS 7020   5.280   3.275   5.681
    2PC      C2 7021   5.162   3.109   5.629
    2PC      HX 7022   5.067   3.153   5.597
    2PC      C3 7023   5.140   3.062   5.773
    2PC      HA 7024   5.110   3.141   5.843
    2PC      HB 7025   5.080   2.971   5.774
    2PC     O31 7026   5.274   3.028   5.813
    2PC     P31 7027   5.305   2.965   5.957
    2PC     O32 7028   5.246   3.086   6.044
    2PC     C31 7029   5.328   3.201   6.072
    2PC     H1A 7030   5.427   3.158   6.091
    2PC     H1B 7031   5.335   3.265   5.984
    2PC     C32 7032   5.297   3.267   6.207
    2PC     H2A 7033   5.195   3.305   6.205
    2PC     H2B 7034   5.308   3.194   6.288
    2PC     N31 7035   5.386   3.382   6.243
    2PC     C33 7036   5.338   3.509   6.179
    2PC     H3A 7037   5.249   3.540   6.234
    2PC     H3B 7038   5.404   3.595   6.185
    2PC     H3C 7039   5.322   3.489   6.073
    2PC     C34 7040   5.381   3.403   6.392
    2PC     H4A 7041   5.407   3.305   6.432
    2PC     H4B 7042   5.456   3.476   6.421
    2PC     H4C 7043   5.280   3.432   6.423
    2PC     C35 7044   5.530   3.347   6.219
    2PC     H5A 7045   5.548   3.321   6.114
    2PC     H5B 7046   5.558   3.260   6.278
    2PC     H5C 7047   5.587   3.434   6.250
    2PC     O33 7048   5.235   2.842   6.000
    2PC     O34 7049   5.446   2.927   5.986
    2PC     O21 7050   5.176   2.990   5.548
    2PC     C21 7051   5.069   2.918   5.512
    2PC     O22 7052   4.956   2.943   5.548
    3OL     C12 7053   5.095   2.795   5.428
    3OL     H2R 7054   5.007   2.731   5.437
    3OL     H2S 7055   5.184   2.744   5.465
    3OL     C13 7056   5.109   2.840   5.282
    3OL     H3R 7057   5.152   2.762   5.219
    3OL     H3S 7058   5.175   2.927   5.277
    3OL     C14 7059   4.971   2.859   5.218
    3OL     H4R 7060   4.970   2.925   5.130
    3OL     H4S 7061   4.905   2.918   5.282
    3OL     C15 7062   4.914   2.722   5.181
    3OL     H5R 7063   4.879   2.659   5.263
    3OL     H5S 7064   4.992   2.661   5.134
    3OL     C16 7065   4.789   2.733   5.092
    3OL     H6R 7066   4.804   2.790   5.000
    3OL     H6S 7067   4.715   2.788   5.150
    3OL     C17 7068   4.755   2.591   5.044
    3OL     H7R 7069   4.747   2.523   5.129
    3OL     H7S 7070   4.837   2.554   4.982
    3OL     C18 7071   4.627   2.590   4.959
    3OL     H8R 7072   4.641   2.640   4.862
    3OL     H8S 7073   4.550   2.645   5.012
    3OL     C19 7074   4.589   2.446   4.933
    3OL     H9R 7075   4.578   2.377   5.016
    3OL    C110 7076   4.570   2.387   4.816
    3OL    H10R 7077   4.559   2.279   4.810
    3OL    C111 7078   4.558   2.450   4.680
    3OL    H11R 7079   4.552   2.557   4.699
    3OL    H11S 7080   4.471   2.409   4.628
    3OL    C112 7081   4.690   2.420   4.608
    3OL    H12R 7082   4.721   2.316   4.610
    3OL    H12S 7083   4.767   2.478   4.659
    3OL    C113 7084   4.672   2.479   4.467
    3OL    H13R 7085   4.638   2.580   4.487
    3OL    H13S 7086   4.589   2.438   4.409
    3OL    C114 7087   4.790   2.474   4.369
    3OL    H14R 7088   4.880   2.510   4.420
    3OL    H14S 7089   4.774   2.542   4.285
    3OL    C115 7090   4.840   2.340   4.312
    3OL    H15R 7091   4.760   2.308   4.245
    3OL    H15S 7092   4.857   2.265   4.390
    3OL    C116 7093   4.966   2.358   4.227
    3OL    H16R 7094   5.048   2.400   4.286
    3OL    H16S 7095   4.948   2.441   4.158
    3OL    C117 7096   5.017   2.239   4.144
    3OL    H17R 7097   5.046   2.162   4.216
    3OL    H17S 7098   5.107   2.271   4.092
    3OL    C118 7099   4.917   2.186   4.040
    3OL    H18R 7100   4.828   2.132   4.072
    3OL    H18S 7101   4.965   2.110   3.978
    3OL    H18T 7102   4.893   2.263   3.967
    1PA    C116 7103   4.695   1.237   3.315
    1PA    H16R 7104   4.802   1.248   3.333
    1PA    H16S 7105   4.648   1.334   3.300
    1PA    H16T 7106   4.684   1.177   3.224
    1PA    C115 7107   4.636   1.160   3.433
    1PA    H15R 7108   4.535   1.134   3.401
    1PA    H15S 7109   4.688   1.065   3.448
    1PA    C114 7110   4.626   1.247   3.559
    1PA    H14R 7111   4.721   1.288   3.595
    1PA    H14S 7112   4.555   1.327   3.538
    1PA    C113 7113   4.565   1.157   3.668
    1PA    H13R 7114   4.467   1.120   3.635
    1PA    H13S 7115   4.629   1.071   3.685
    1PA    C112 7116   4.545   1.240   3.796
    1PA    H12R 7117   4.500   1.338   3.780
    1PA    H12S 7118   4.481   1.172   3.853
    1PA    C111 7119   4.672   1.251   3.883
    1PA    H11R 7120   4.734   1.161   3.884
    1PA    H11S 7121   4.724   1.339   3.844
    1PA    C110 7122   4.628   1.286   4.025
    1PA    H10R 7123   4.702   1.346   4.077
    1PA    H10S 7124   4.540   1.351   4.036
    1PA     C19 7125   4.598   1.154   4.099
    1PA     H9R 7126   4.527   1.102   4.035
    1PA     H9S 7127   4.675   1.079   4.118
    1PA     C18 7128   4.548   1.181   4.241
    1PA     H8R 7129   4.629   1.235   4.290
    1PA     H8S 7130   4.464   1.250   4.234
    1PA     C17 7131   4.512   1.049   4.311
    1PA     H7R 7132   4.449   0.992   4.242
    1PA     H7S 7133   4.601   0.991   4.335
    1PA     C16 7134   4.442   1.068   4.446
    1PA     H6R 7135   4.375   1.154   4.440
    1PA     H6S 7136   4.388   0.976   4.468
    1PA     C15 7137   4.546   1.103   4.553
    1PA     H5R 7138   4.625   1.027   4.558
    1PA     H5S 7139   4.601   1.193   4.526
    1PA     C14 7140   4.485   1.108   4.694
    1PA     H4R 7141   4.415   1.192   4.698
    1PA     H4S 7142   4.436   1.011   4.703
    1PA     C13 7143   4.584   1.131   4.809
    1PA     H3R 7144   4.660   1.053   4.815
    1PA     H3S 7145   4.639   1.225   4.799
    1PA     C12 7146   4.502   1.126   4.938
    1PA     H2R 7147   4.425   1.204   4.929
    1PA     H2S 7148   4.447   1.032   4.933
    2PC     C11 7149   4.585   1.135   5.063
    2PC     O12 7150   4.700   1.096   5.062
    2PC     O11 7151   4.531   1.207   5.163
    2PC      C1 7152   4.588   1.195   5.294
    2PC      HR 7153   4.560   1.102   5.343
    2PC      HS 7154   4.697   1.207   5.297
    2PC      C2 7155   4.534   1.317   5.370
    2PC      HX 7156   4.573   1.319   5.471
    2PC      C3 7157   4.380   1.311   5.371
    2PC      HA 7158   4.332   1.372   5.294
    2PC      HB 7159   4.346   1.207   5.367
    2PC     O31 7160   4.331   1.375   5.490
    2PC     P31 7161   4.326   1.302   5.633
    2PC     O32 7162   4.413   1.399   5.727
    2PC     C31 7163   4.341   1.515   5.770
    2PC     H1A 7164   4.294   1.566   5.685
    2PC     H1B 7165   4.258   1.476   5.829
    2PC     C32 7166   4.421   1.607   5.863
    2PC     H2A 7167   4.496   1.648   5.795
    2PC     H2B 7168   4.349   1.680   5.899
    2PC     N31 7169   4.468   1.541   5.990
    2PC     C33 7170   4.358   1.473   6.065
    2PC     H3A 7171   4.308   1.403   5.998
    2PC     H3B 7172   4.391   1.426   6.158
    2PC     H3C 7173   4.295   1.555   6.102
    2PC     C34 7174   4.570   1.435   5.959
    2PC     H4A 7175   4.624   1.473   5.873
    2PC     H4B 7176   4.639   1.415   6.041
    2PC     H4C 7177   4.523   1.346   5.916
    2PC     C35 7178   4.531   1.648   6.074
    2PC     H5A 7179   4.450   1.712   6.107
    2PC     H5B 7180   4.600   1.696   6.004
    2PC     H5C 7181   4.582   1.606   6.160
    2PC     O33 7182   4.186   1.290   5.681
    2PC     O34 7183   4.386   1.169   5.613
    2PC     O21 7184   4.566   1.447   5.316
    2PC     C21 7185   4.687   1.500   5.342
    2PC     O22 7186   4.782   1.440   5.387
    3OL     C12 7187   4.699   1.638   5.283
    3OL     H2R 7188   4.755   1.710   5.343
    3OL     H2S 7189   4.596   1.675   5.283
    3OL     C13 7190   4.749   1.646   5.138
    3OL     H3R 7191   4.846   1.596   5.135
    3OL     H3S 7192   4.778   1.747   5.109
    3OL     C14 7193   4.642   1.593   5.041
    3OL     H4R 7194   4.553   1.655   5.053
    3OL     H4S 7195   4.621   1.491   5.074
    3OL     C15 7196   4.697   1.598   4.898
    3OL     H5R 7197   4.783   1.538   4.867
    3OL     H5S 7198   4.725   1.702   4.879
    3OL     C16 7199   4.577   1.556   4.812
    3OL     H6R 7200   4.491   1.613   4.846
    3OL     H6S 7201   4.559   1.448   4.815
    3OL     C17 7202   4.602   1.594   4.665
    3OL     H7R 7203   4.707   1.603   4.638
    3OL     H7S 7204   4.563   1.694   4.645
    3OL     C18 7205   4.535   1.487   4.578
    3OL     H8R 7206   4.428   1.510   4.579
    3OL     H8S 7207   4.561   1.391   4.624
    3OL     C19 7208   4.600   1.488   4.442
    3OL     H9R 7209   4.705   1.463   4.438
    3OL    C110 7210   4.542   1.512   4.326
    3OL    H10R 7211   4.591   1.500   4.229
    3OL    C111 7212   4.392   1.526   4.318
    3OL    H11R 7213   4.336   1.458   4.382
    3OL    H11S 7214   4.364   1.504   4.214
    3OL    C112 7215   4.349   1.669   4.351
    3OL    H12R 7216   4.393   1.735   4.276
    3OL    H12S 7217   4.394   1.704   4.444
    3OL    C113 7218   4.196   1.681   4.355
    3OL    H13R 7219   4.166   1.777   4.398
    3OL    H13S 7220   4.157   1.604   4.421
    3OL    C114 7221   4.127   1.669   4.218
    3OL    H14R 7222   4.022   1.699   4.220
    3OL    H14S 7223   4.138   1.567   4.179
    3OL    C115 7224   4.191   1.767   4.118
    3OL    H15R 7225   4.296   1.744   4.095
    3OL    H15S 7226   4.186   1.861   4.174
    3OL    C116 7227   4.113   1.781   3.988
    3OL    H16R 7228   4.015   1.821   4.016
    3OL    H16S 7229   4.090   1.681   3.949
    3OL    C117 7230   4.182   1.878   3.891
    3OL    H17R 7231   4.275   1.828   3.863
    3OL    H17S 7232   4.211   1.974   3.934
    3OL    C118 7233   4.103   1.910   3.763
    3OL    H18R 7234   4.003   1.936   3.797
    3OL    H18S 7235   4.104   1.823   3.698
    3OL    H18T 7236   4.149   1.989   3.704
    1PA    C116 7237   2.578   2.886   3.960
    1PA    H16R 7238   2.490   2.898   3.897
    1PA    H16S 7239   2.544   2.854   4.058
    1PA    H16T 7240   2.652   2.815   3.924
    1PA    C115 7241   2.639   3.027   3.963
    1PA    H15R 7242   2.745   3.015   3.988
    1PA    H15S 7243   2.635   3.060   3.860
    1PA    C114 7244   2.562   3.122   4.056
    1PA    H14R 7245   2.456   3.119   4.029
    1PA    H14S 7246   2.568   3.067   4.150
    1PA    C113 7247   2.621   3.262   4.077
    1PA    H13R 7248   2.636   3.298   3.975
    1PA    H13S 7249   2.552   3.328   4.130
    1PA    C112 7250   2.756   3.268   4.150
    1PA    H12R 7251   2.814   3.180   4.124
    1PA    H12S 7252   2.815   3.352   4.113
    1PA    C111 7253   2.727   3.267   4.301
    1PA    H11R 7254   2.668   3.354   4.329
    1PA    H11S 7255   2.663   3.182   4.326
    1PA    C110 7256   2.856   3.250   4.382
    1PA    H10R 7257   2.905   3.159   4.347
    1PA    H10S 7258   2.938   3.318   4.358
    1PA     C19 7259   2.829   3.233   4.532
    1PA     H9R 7260   2.783   3.320   4.579
    1PA     H9S 7261   2.774   3.140   4.547
    1PA     C18 7262   2.966   3.215   4.599
    1PA     H8R 7263   3.009   3.120   4.568
    1PA     H8S 7264   3.029   3.302   4.580
    1PA     C17 7265   2.946   3.193   4.750
    1PA     H7R 7266   2.917   3.290   4.792
    1PA     H7S 7267   2.867   3.119   4.761
    1PA     C16 7268   3.073   3.153   4.827
    1PA     H6R 7269   3.163   3.194   4.782
    1PA     H6S 7270   3.078   3.199   4.926
    1PA     C15 7271   3.085   3.001   4.844
    1PA     H5R 7272   3.088   2.954   4.745
    1PA     H5S 7273   3.176   2.987   4.902
    1PA     C14 7274   2.969   2.933   4.918
    1PA     H4R 7275   2.964   2.984   5.014
    1PA     H4S 7276   2.867   2.935   4.880
    1PA     C13 7277   2.993   2.781   4.930
    1PA     H3R 7278   2.999   2.730   4.834
    1PA     H3S 7279   3.089   2.759   4.977
    1PA     C12 7280   2.882   2.722   5.018
    1PA     H2R 7281   2.871   2.776   5.112
    1PA     H2S 7282   2.783   2.730   4.973
    2PC     C11 7283   2.905   2.576   5.047
    2PC     O12 7284   2.931   2.493   4.962
    2PC     O11 7285   2.895   2.544   5.177
    2PC      C1 7286   2.930   2.411   5.220
    2PC      HR 7287   2.850   2.379   5.287
    2PC      HS 7288   2.933   2.338   5.138
    2PC      C2 7289   3.064   2.422   5.294
    2PC      HX 7290   3.073   2.331   5.352
    2PC      C3 7291   3.052   2.544   5.387
    2PC      HA 7292   3.047   2.639   5.333
    2PC      HB 7293   2.955   2.523   5.433
    2PC     O31 7294   3.156   2.545   5.486
    2PC     P31 7295   3.120   2.550   5.642
    2PC     O32 7296   3.029   2.422   5.675
    2PC     C31 7297   3.099   2.297   5.689
    2PC     H1A 7298   3.164   2.286   5.602
    2PC     H1B 7299   3.166   2.292   5.775
    2PC     C32 7300   2.992   2.187   5.690
    2PC     H2A 7301   2.910   2.212   5.757
    2PC     H2B 7302   2.936   2.183   5.596
    2PC     N31 7303   3.027   2.044   5.720
    2PC     C33 7304   2.899   1.967   5.709
    2PC     H3A 7305   2.831   1.998   5.789
    2PC     H3B 7306   2.846   1.977   5.614
    2PC     H3C 7307   2.925   1.862   5.719
    2PC     C34 7308   3.129   1.998   5.621
    2PC     H4A 7309   3.215   2.064   5.625
    2PC     H4B 7310   3.160   1.895   5.641
    2PC     H4C 7311   3.084   1.996   5.522
    2PC     C35 7312   3.086   2.023   5.856
    2PC     H5A 7313   3.030   2.070   5.938
    2PC     H5B 7314   3.180   2.078   5.852
    2PC     H5C 7315   3.099   1.918   5.882
    2PC     O33 7316   3.243   2.542   5.724
    2PC     O34 7317   3.061   2.679   5.682
    2PC     O21 7318   3.171   2.451   5.202
    2PC     C21 7319   3.199   2.374   5.095
    2PC     O22 7320   3.167   2.257   5.093
    3OL     C12 7321   3.298   2.428   4.994
    3OL     H2R 7322   3.384   2.362   4.981
    3OL     H2S 7323   3.328   2.524   5.036
    3OL     C13 7324   3.235   2.440   4.855
    3OL     H3R 7325   3.168   2.524   4.873
    3OL     H3S 7326   3.173   2.355   4.825
    3OL     C14 7327   3.333   2.495   4.751
    3OL     H4R 7328   3.392   2.413   4.709
    3OL     H4S 7329   3.395   2.574   4.796
    3OL     C15 7330   3.260   2.555   4.631
    3OL     H5R 7331   3.220   2.650   4.668
    3OL     H5S 7332   3.181   2.486   4.600
    3OL     C16 7333   3.347   2.606   4.515
    3OL     H6R 7334   3.429   2.656   4.567
    3OL     H6S 7335   3.292   2.678   4.455
    3OL     C17 7336   3.387   2.496   4.415
    3OL     H7R 7337   3.295   2.440   4.394
    3OL     H7S 7338   3.465   2.431   4.453
    3OL     C18 7339   3.455   2.555   4.290
    3OL     H8R 7340   3.535   2.624   4.318
    3OL     H8S 7341   3.384   2.615   4.234
    3OL     C19 7342   3.508   2.445   4.203
    3OL     H9R 7343   3.492   2.348   4.249
    3OL    C110 7344   3.572   2.468   4.089
    3OL    H10R 7345   3.610   2.379   4.039
    3OL    C111 7346   3.588   2.596   4.011
    3OL    H11R 7347   3.684   2.638   4.039
    3OL    H11S 7348   3.513   2.670   4.040
    3OL    C112 7349   3.578   2.576   3.859
    3OL    H12R 7350   3.578   2.673   3.808
    3OL    H12S 7351   3.483   2.526   3.840
    3OL    C113 7352   3.701   2.503   3.805
    3OL    H13R 7353   3.684   2.395   3.812
    3OL    H13S 7354   3.801   2.530   3.841
    3OL    C114 7355   3.704   2.535   3.655
    3OL    H14R 7356   3.711   2.644   3.644
    3OL    H14S 7357   3.613   2.498   3.608
    3OL    C115 7358   3.825   2.465   3.589
    3OL    H15R 7359   3.798   2.360   3.598
    3OL    H15S 7360   3.916   2.485   3.646
    3OL    C116 7361   3.846   2.512   3.444
    3OL    H16R 7362   3.759   2.479   3.387
    3OL    H16S 7363   3.935   2.458   3.411
    3OL    C117 7364   3.885   2.658   3.419
    3OL    H17R 7365   3.806   2.733   3.433
    3OL    H17S 7366   3.917   2.660   3.315
    3OL    C118 7367   4.006   2.696   3.506
    3OL    H18R 7368   4.084   2.623   3.481
    3OL    H18S 7369   3.994   2.687   3.614
    3OL    H18T 7370   4.032   2.801   3.493
    1PA    C116 7371   4.336   0.257   3.776
    1PA    H16R 7372   4.319   0.259   3.884
    1PA    H16S 7373   4.313   0.162   3.728
    1PA    H16T 7374   4.275   0.343   3.748
    1PA    C115 7375   4.483   0.296   3.753
    1PA    H15R 7376   4.504   0.299   3.646
    1PA    H15S 7377   4.498   0.394   3.800
    1PA    C114 7378   4.581   0.192   3.809
    1PA    H14R 7379   4.544   0.096   3.771
    1PA    H14S 7380   4.679   0.205   3.763
    1PA    C113 7381   4.594   0.205   3.961
    1PA    H13R 7382   4.499   0.236   4.005
    1PA    H13S 7383   4.618   0.106   4.000
    1PA    C112 7384   4.700   0.308   4.003
    1PA    H12R 7385   4.797   0.291   3.955
    1PA    H12S 7386   4.670   0.408   3.969
    1PA    C111 7387   4.722   0.314   4.155
    1PA    H11R 7388   4.784   0.402   4.177
    1PA    H11S 7389   4.624   0.328   4.200
    1PA    C110 7390   4.782   0.183   4.207
    1PA    H10R 7391   4.722   0.096   4.178
    1PA    H10S 7392   4.880   0.151   4.171
    1PA     C19 7393   4.796   0.196   4.360
    1PA     H9R 7394   4.707   0.219   4.418
    1PA     H9S 7395   4.812   0.091   4.385
    1PA     C18 7396   4.918   0.274   4.411
    1PA     H8R 7397   5.011   0.237   4.368
    1PA     H8S 7398   4.906   0.380   4.386
    1PA     C17 7399   4.922   0.261   4.563
    1PA     H7R 7400   4.839   0.313   4.611
    1PA     H7S 7401   4.910   0.156   4.591
    1PA     C16 7402   5.043   0.338   4.618
    1PA     H6R 7403   5.135   0.304   4.571
    1PA     H6S 7404   5.034   0.439   4.577
    1PA     C15 7405   5.048   0.332   4.772
    1PA     H5R 7406   4.959   0.375   4.819
    1PA     H5S 7407   5.047   0.230   4.810
    1PA     C14 7408   5.164   0.416   4.825
    1PA     H4R 7409   5.258   0.374   4.787
    1PA     H4S 7410   5.154   0.517   4.785
    1PA     C13 7411   5.149   0.416   4.978
    1PA     H3R 7412   5.057   0.469   5.002
    1PA     H3S 7413   5.153   0.313   5.014
    1PA     C12 7414   5.262   0.497   5.044
    1PA     H2R 7415   5.355   0.463   4.999
    1PA     H2S 7416   5.247   0.602   5.017
    2PC     C11 7417   5.269   0.475   5.193
    2PC     O12 7418   5.174   0.447   5.263
    2PC     O11 7419   5.386   0.514   5.247
    2PC      C1 7420   5.389   0.531   5.389
    2PC      HR 7421   5.328   0.456   5.441
    2PC      HS 7422   5.493   0.517   5.420
    2PC      C2 7423   5.342   0.673   5.421
    2PC      HX 7424   5.389   0.748   5.356
    2PC      C3 7425   5.364   0.726   5.563
    2PC      HA 7426   5.472   0.728   5.581
    2PC      HB 7427   5.316   0.823   5.576
    2PC     O31 7428   5.297   0.633   5.651
    2PC     P31 7429   5.347   0.632   5.803
    2PC     O32 7430   5.223   0.698   5.879
    2PC     C31 7431   5.161   0.623   5.985
    2PC     H1A 7432   5.105   0.538   5.946
    2PC     H1B 7433   5.234   0.578   6.054
    2PC     C32 7434   5.063   0.714   6.059
    2PC     H2A 7435   5.019   0.774   5.979
    2PC     H2B 7436   4.976   0.661   6.098
    2PC     N31 7437   5.123   0.815   6.153
    2PC     C33 7438   5.186   0.742   6.268
    2PC     H3A 7439   5.100   0.695   6.315
    2PC     H3B 7440   5.262   0.675   6.226
    2PC     H3C 7441   5.239   0.821   6.323
    2PC     C34 7442   5.224   0.906   6.091
    2PC     H4A 7443   5.186   0.954   6.001
    2PC     H4B 7444   5.266   0.974   6.165
    2PC     H4C 7445   5.305   0.843   6.053
    2PC     C35 7446   5.018   0.908   6.205
    2PC     H5A 7447   4.940   0.844   6.248
    2PC     H5B 7448   4.977   0.973   6.128
    2PC     H5C 7449   5.057   0.968   6.287
    2PC     O33 7450   5.372   0.492   5.842
    2PC     O34 7451   5.472   0.710   5.821
    2PC     O21 7452   5.200   0.688   5.398
    2PC     C21 7453   5.134   0.805   5.396
    2PC     O22 7454   5.188   0.914   5.398
    3OL     C12 7455   4.985   0.795   5.378
    3OL     H2R 7456   4.949   0.836   5.473
    3OL     H2S 7457   4.952   0.692   5.367
    3OL     C13 7458   4.942   0.878   5.256
    3OL     H3R 7459   4.966   0.984   5.261
    3OL     H3S 7460   4.834   0.877   5.237
    3OL     C14 7461   5.019   0.839   5.129
    3OL     H4R 7462   5.019   0.730   5.129
    3OL     H4S 7463   5.123   0.872   5.126
    3OL     C15 7464   4.957   0.898   5.002
    3OL     H5R 7465   4.980   1.004   4.989
    3OL     H5S 7466   4.850   0.874   5.006
    3OL     C16 7467   5.003   0.831   4.872
    3OL     H6R 7468   4.983   0.725   4.884
    3OL     H6S 7469   5.112   0.834   4.865
    3OL     C17 7470   4.942   0.887   4.742
    3OL     H7R 7471   4.981   0.989   4.737
    3OL     H7S 7472   4.836   0.899   4.765
    3OL     C18 7473   4.975   0.808   4.615
    3OL     H8R 7474   4.930   0.710   4.631
    3OL     H8S 7475   5.082   0.792   4.601
    3OL     C19 7476   4.916   0.875   4.493
    3OL     H9R 7477   4.843   0.951   4.518
    3OL    C110 7478   4.932   0.839   4.366
    3OL    H10R 7479   4.870   0.885   4.290
    3OL    C111 7480   5.036   0.739   4.322
    3OL    H11R 7481   4.985   0.667   4.257
    3OL    H11S 7482   5.074   0.683   4.408
    3OL    C112 7483   5.163   0.797   4.259
    3OL    H12R 7484   5.225   0.849   4.332
    3OL    H12S 7485   5.134   0.866   4.179
    3OL    C113 7486   5.251   0.685   4.201
    3OL    H13R 7487   5.201   0.647   4.111
    3OL    H13S 7488   5.268   0.599   4.266
    3OL    C114 7489   5.387   0.746   4.162
    3OL    H14R 7490   5.458   0.666   4.139
    3OL    H14S 7491   5.435   0.801   4.242
    3OL    C115 7492   5.379   0.832   4.035
    3OL    H15R 7493   5.463   0.901   4.036
    3OL    H15S 7494   5.290   0.895   4.041
    3OL    C116 7495   5.381   0.739   3.912
    3OL    H16R 7496   5.302   0.664   3.913
    3OL    H16S 7497   5.470   0.677   3.911
    3OL    C117 7498   5.376   0.833   3.791
    3OL    H17R 7499   5.461   0.902   3.789
    3OL    H17S 7500   5.291   0.902   3.791
    3OL    C118 7501   5.358   0.768   3.653
    3OL    H18R 7502   5.424   0.681   3.648
    3OL    H18S 7503   5.378   0.843   3.576
    3OL    H18T 7504   5.255   0.734   3.648
    1PA    C116 7505   4.574   3.029   4.621
    1PA    H16R 7506   4.554   3.087   4.530
    1PA    H16S 7507   4.615   3.088   4.703
    1PA    H16T 7508   4.478   2.990   4.656
    1PA    C115 7509   4.670   2.917   4.576
    1PA    H15R 7510   4.612   2.831   4.542
    1PA    H15S 7511   4.736   2.943   4.493
    1PA    C114 7512   4.769   2.873   4.685
    1PA    H14R 7513   4.799   2.961   4.743
    1PA    H14S 7514   4.729   2.809   4.764
    1PA    C113 7515   4.884   2.792   4.623
    1PA    H13R 7516   4.840   2.718   4.557
    1PA    H13S 7517   4.939   2.860   4.558
    1PA    C112 7518   4.970   2.713   4.722
    1PA    H12R 7519   4.906   2.641   4.775
    1PA    H12S 7520   5.033   2.655   4.654
    1PA    C111 7521   5.056   2.797   4.818
    1PA    H11R 7522   5.001   2.871   4.876
    1PA    H11S 7523   5.091   2.722   4.889
    1PA    C110 7524   5.177   2.865   4.753
    1PA    H10R 7525   5.237   2.782   4.713
    1PA    H10S 7526   5.145   2.932   4.673
    1PA     C19 7527   5.268   2.937   4.853
    1PA     H9R 7528   5.320   3.022   4.809
    1PA     H9S 7529   5.192   2.982   4.919
    1PA     C18 7530   5.376   2.846   4.913
    1PA     H8R 7531   5.323   2.756   4.945
    1PA     H8S 7532   5.453   2.824   4.839
    1PA     C17 7533   5.445   2.918   5.030
    1PA     H7R 7534   5.374   2.947   5.107
    1PA     H7S 7535   5.512   2.845   5.076
    1PA     C16 7536   5.527   3.042   4.991
    1PA     H6R 7537   5.593   3.015   4.909
    1PA     H6S 7538   5.458   3.121   4.962
    1PA     C15 7539   5.621   3.091   5.102
    1PA     H5R 7540   5.557   3.136   5.177
    1PA     H5S 7541   5.669   3.010   5.157
    1PA     C14 7542   5.726   3.198   5.066
    1PA     H4R 7543   5.683   3.269   4.995
    1PA     H4S 7544   5.765   3.258   5.148
    1PA     C13 7545   5.849   3.127   5.008
    1PA     H3R 7546   5.906   3.088   5.093
    1PA     H3S 7547   5.814   3.040   4.952
    1PA     C12 7548   5.947   3.213   4.927
    1PA     H2R 7549   6.025   3.155   4.878
    1PA     H2S 7550   5.891   3.253   4.843
    2PC     C11 7551   5.992   3.333   5.007
    2PC     O12 7552   6.062   3.327   5.106
    2PC     O11 7553   5.934   3.443   4.955
    2PC      C1 7554   5.956   3.569   5.021
    2PC      HR 7555   5.891   3.642   4.972
    2PC      HS 7556   5.920   3.563   5.124
    2PC      C2 7557   6.104   3.607   5.008
    2PC      HX 7558   6.168   3.544   5.069
    2PC      C3 7559   6.134   3.751   5.052
    2PC      HA 7560   6.113   3.743   5.159
    2PC      HB 7561   6.239   3.782   5.044
    2PC     O31 7562   6.050   3.843   4.980
    2PC     P31 7563   6.042   3.994   5.033
    2PC     O32 7564   6.187   4.060   5.015
    2PC     C31 7565   6.247   4.050   4.884
    2PC     H1A 7566   6.354   4.034   4.892
    2PC     H1B 7567   6.198   3.967   4.833
    2PC     C32 7568   6.205   4.175   4.805
    2PC     H2A 7569   6.221   4.160   4.698
    2PC     H2B 7570   6.099   4.185   4.828
    2PC     N31 7571   6.263   4.300   4.867
    2PC     C33 7572   6.235   4.423   4.786
    2PC     H3A 7573   6.293   4.506   4.824
    2PC     H3B 7574   6.255   4.398   4.681
    2PC     H3C 7575   6.130   4.450   4.800
    2PC     C34 7576   6.210   4.345   5.000
    2PC     H4A 7577   6.245   4.445   5.029
    2PC     H4B 7578   6.102   4.333   4.996
    2PC     H4C 7579   6.248   4.267   5.066
    2PC     C35 7580   6.412   4.295   4.873
    2PC     H5A 7581   6.440   4.397   4.902
    2PC     H5B 7582   6.447   4.273   4.772
    2PC     H5C 7583   6.459   4.225   4.942
    2PC     O33 7584   5.946   4.069   4.949
    2PC     O34 7585   5.974   3.993   5.165
    2PC     O21 7586   6.139   3.603   4.868
    2PC     C21 7587   6.206   3.502   4.811
    2PC     O22 7588   6.231   3.399   4.870
    3OL     C12 7589   6.235   3.528   4.665
    3OL     H2R 7590   6.312   3.606   4.667
    3OL     H2S 7591   6.146   3.565   4.615
    3OL     C13 7592   6.294   3.409   4.587
    3OL     H3R 7593   6.223   3.326   4.583
    3OL     H3S 7594   6.377   3.369   4.645
    3OL     C14 7595   6.335   3.458   4.447
    3OL     H4R 7596   6.414   3.534   4.444
    3OL     H4S 7597   6.255   3.508   4.393
    3OL     C15 7598   6.385   3.344   4.358
    3OL     H5R 7599   6.299   3.279   4.342
    3OL     H5S 7600   6.463   3.290   4.412
    3OL     C16 7601   6.436   3.396   4.222
    3OL     H6R 7602   6.489   3.488   4.246
    3OL     H6S 7603   6.354   3.434   4.160
    3OL     C17 7604   6.535   3.305   4.149
    3OL     H7R 7605   6.500   3.201   4.150
    3OL     H7S 7606   6.630   3.313   4.203
    3OL     C18 7607   6.559   3.349   4.004
    3OL     H8R 7608   6.630   3.277   3.964
    3OL     H8S 7609   6.606   3.447   3.997
    3OL     C19 7610   6.434   3.345   3.919
    3OL     H9R 7611   6.340   3.327   3.970
    3OL    C110 7612   6.428   3.332   3.788
    3OL    H10R 7613   6.333   3.310   3.740
    3OL    C111 7614   6.549   3.341   3.699
    3OL    H11R 7615   6.560   3.244   3.650
    3OL    H11S 7616   6.641   3.334   3.758
    3OL    C112 7617   6.555   3.470   3.616
    3OL    H12R 7618   6.612   3.545   3.672
    3OL    H12S 7619   6.458   3.510   3.586
    3OL    C113 7620   6.631   3.433   3.488
    3OL    H13R 7621   6.583   3.344   3.447
    3OL    H13S 7622   6.734   3.401   3.504
    3OL    C114 7623   6.629   3.549   3.388
    3OL    H14R 7624   6.669   3.644   3.425
    3OL    H14S 7625   6.527   3.571   3.356
    3OL    C115 7626   6.709   3.515   3.262
    3OL    H15R 7627   6.682   3.413   3.235
    3OL    H15S 7628   6.816   3.510   3.285
    3OL    C116 7629   6.688   3.607   3.140
    3OL    H16R 7630   6.583   3.611   3.110
    3OL    H16S 7631   6.739   3.563   3.054
    3OL    C117 7632   6.742   3.748   3.168
    3OL    H17R 7633   6.840   3.733   3.216
    3OL    H17S 7634   6.684   3.806   3.240
    3OL    C118 7635   6.759   3.834   3.042
    3OL    H18R 7636   6.776   3.934   3.084
    3OL    H18S 7637   6.670   3.827   2.979
    3OL    H18T 7638   6.837   3.803   2.972
    1PA    C116 7639   0.067   2.953   4.591
    1PA    H16R 7640   0.072   2.959   4.699
    1PA    H16S 7641  -0.001   2.877   4.552
    1PA    H16T 7642   0.027   3.053   4.570
    1PA    C115 7643   0.211   2.935   4.540
    1PA    H15R 7644   0.217   2.942   4.431
    1PA    H15S 7645   0.282   3.006   4.584
    1PA    C114 7646   0.261   2.794   4.576
    1PA    H14R 7647   0.367   2.787   4.554
    1PA    H14S 7648   0.242   2.771   4.682
    1PA    C113 7649   0.196   2.683   4.493
    1PA    H13R 7650   0.200   2.591   4.552
    1PA    H13S 7651   0.092   2.708   4.467
    1PA    C112 7652   0.260   2.664   4.355
    1PA    H12R 7653   0.179   2.641   4.286
    1PA    H12S 7654   0.298   2.756   4.310
    1PA    C111 7655   0.367   2.553   4.356
    1PA    H11R 7656   0.410   2.575   4.258
    1PA    H11S 7657   0.435   2.570   4.440
    1PA    C110 7658   0.303   2.414   4.344
    1PA    H10R 7659   0.250   2.399   4.439
    1PA    H10S 7660   0.230   2.417   4.263
    1PA     C19 7661   0.390   2.290   4.323
    1PA     H9R 7662   0.333   2.208   4.278
    1PA     H9S 7663   0.469   2.319   4.254
    1PA     C18 7664   0.446   2.237   4.456
    1PA     H8R 7665   0.509   2.318   4.492
    1PA     H8S 7666   0.360   2.228   4.524
    1PA     C17 7667   0.524   2.107   4.430
    1PA     H7R 7668   0.450   2.037   4.389
    1PA     H7S 7669   0.607   2.128   4.362
    1PA     C16 7670   0.599   2.052   4.552
    1PA     H6R 7671   0.677   2.117   4.592
    1PA     H6S 7672   0.521   2.037   4.628
    1PA     C15 7673   0.675   1.920   4.539
    1PA     H5R 7674   0.612   1.853   4.481
    1PA     H5S 7675   0.765   1.937   4.480
    1PA     C14 7676   0.699   1.845   4.671
    1PA     H4R 7677   0.732   1.915   4.748
    1PA     H4S 7678   0.604   1.796   4.693
    1PA     C13 7679   0.798   1.730   4.642
    1PA     H3R 7680   0.759   1.658   4.570
    1PA     H3S 7681   0.886   1.777   4.599
    1PA     C12 7682   0.831   1.648   4.767
    1PA     H2R 7683   0.872   1.711   4.846
    1PA     H2S 7684   0.740   1.613   4.818
    2PC     C11 7685   0.930   1.537   4.742
    2PC     O12 7686   0.975   1.527   4.630
    2PC     O11 7687   0.979   1.473   4.850
    2PC      C1 7688   1.109   1.413   4.850
    2PC      HR 7689   1.128   1.344   4.933
    2PC      HS 7690   1.122   1.358   4.756
    2PC      C2 7691   1.223   1.516   4.857
    2PC      HX 7692   1.316   1.460   4.871
    2PC      C3 7693   1.205   1.618   4.971
    2PC      HA 7694   1.124   1.689   4.951
    2PC      HB 7695   1.178   1.567   5.063
    2PC     O31 7696   1.328   1.692   4.984
    2PC     P31 7697   1.327   1.814   5.088
    2PC     O32 7698   1.275   1.947   5.016
    2PC     C31 7699   1.311   2.075   5.072
    2PC     H1A 7700   1.420   2.077   5.079
    2PC     H1B 7701   1.271   2.157   5.011
    2PC     C32 7702   1.249   2.104   5.209
    2PC     H2A 7703   1.149   2.060   5.213
    2PC     H2B 7704   1.322   2.062   5.279
    2PC     N31 7705   1.232   2.247   5.248
    2PC     C33 7706   1.369   2.309   5.247
    2PC     H3A 7707   1.410   2.319   5.146
    2PC     H3B 7708   1.362   2.409   5.292
    2PC     H3C 7709   1.442   2.250   5.303
    2PC     C34 7710   1.145   2.326   5.154
    2PC     H4A 7711   1.205   2.379   5.080
    2PC     H4B 7712   1.078   2.253   5.110
    2PC     H4C 7713   1.100   2.406   5.212
    2PC     C35 7714   1.188   2.255   5.391
    2PC     H5A 7715   1.084   2.224   5.386
    2PC     H5B 7716   1.188   2.359   5.423
    2PC     H5C 7717   1.258   2.198   5.453
    2PC     O33 7718   1.250   1.790   5.212
    2PC     O34 7719   1.461   1.822   5.151
    2PC     O21 7720   1.235   1.591   4.736
    2PC     C21 7721   1.277   1.524   4.627
    2PC     O22 7722   1.323   1.412   4.626
    3OL     C12 7723   1.267   1.608   4.502
    3OL     H2R 7724   1.357   1.669   4.492
    3OL     H2S 7725   1.183   1.677   4.515
    3OL     C13 7726   1.240   1.533   4.371
    3OL     H3R 7727   1.149   1.475   4.384
    3OL     H3S 7728   1.326   1.467   4.357
    3OL     C14 7729   1.236   1.621   4.246
    3OL     H4R 7730   1.322   1.689   4.245
    3OL     H4S 7731   1.146   1.682   4.251
    3OL     C15 7732   1.253   1.535   4.120
    3OL     H5R 7733   1.173   1.461   4.130
    3OL     H5S 7734   1.349   1.483   4.115
    3OL     C16 7735   1.235   1.610   3.987
    3OL     H6R 7736   1.292   1.702   3.977
    3OL     H6S 7737   1.129   1.635   3.976
    3OL     C17 7738   1.276   1.529   3.863
    3OL     H7R 7739   1.223   1.434   3.874
    3OL     H7S 7740   1.383   1.510   3.869
    3OL     C18 7741   1.242   1.592   3.726
    3OL     H8R 7742   1.136   1.576   3.710
    3OL     H8S 7743   1.281   1.522   3.651
    3OL     C19 7744   1.272   1.738   3.709
    3OL     H9R 7745   1.343   1.784   3.778
    3OL    C110 7746   1.190   1.810   3.634
    3OL    H10R 7747   1.213   1.916   3.624
    3OL    C111 7748   1.081   1.758   3.543
    3OL    H11R 7749   1.035   1.666   3.580
    3OL    H11S 7750   1.131   1.740   3.448
    3OL    C112 7751   0.971   1.864   3.526
    3OL    H12R 7752   1.019   1.955   3.490
    3OL    H12S 7753   0.926   1.887   3.623
    3OL    C113 7754   0.863   1.828   3.423
    3OL    H13R 7755   0.835   1.724   3.443
    3OL    H13S 7756   0.907   1.840   3.324
    3OL    C114 7757   0.742   1.922   3.434
    3OL    H14R 7758   0.777   2.025   3.426
    3OL    H14S 7759   0.711   1.928   3.539
    3OL    C115 7760   0.627   1.889   3.338
    3OL    H15R 7761   0.623   1.780   3.333
    3OL    H15S 7762   0.646   1.923   3.237
    3OL    C116 7763   0.488   1.936   3.385
    3OL    H16R 7764   0.467   1.898   3.484
    3OL    H16S 7765   0.409   1.898   3.320
    3OL    C117 7766   0.475   2.089   3.396
    3OL    H17R 7767   0.452   2.121   3.294
    3OL    H17S 7768   0.560   2.142   3.438
    3OL    C118 7769   0.365   2.128   3.496
    3OL    H18R 7770   0.271   2.087   3.460
    3OL    H18S 7771   0.360   2.237   3.508
    3OL    H18T 7772   0.390   2.086   3.593
    1PA    C116 7773   5.846   3.754   4.671
    1PA    H16R 7774   5.797   3.693   4.595
    1PA    H16S 7775   5.828   3.703   4.766
    1PA    H16T 7776   5.952   3.745   4.649
    1PA    C115 7777   5.800   3.901   4.668
    1PA    H15R 7778   5.692   3.902   4.652
    1PA    H15S 7779   5.822   3.939   4.768
    1PA    C114 7780   5.873   3.982   4.560
    1PA    H14R 7781   5.978   3.964   4.586
    1PA    H14S 7782   5.857   3.952   4.456
    1PA    C113 7783   5.854   4.133   4.574
    1PA    H13R 7784   5.749   4.164   4.574
    1PA    H13S 7785   5.896   4.151   4.673
    1PA    C112 7786   5.937   4.209   4.470
    1PA    H12R 7787   6.044   4.191   4.481
    1PA    H12S 7788   5.913   4.167   4.373
    1PA    C111 7789   5.923   4.362   4.467
    1PA    H11R 7790   5.816   4.376   4.454
    1PA    H11S 7791   5.969   4.392   4.562
    1PA    C110 7792   6.004   4.424   4.353
    1PA    H10R 7793   6.104   4.379   4.352
    1PA    H10S 7794   5.961   4.393   4.257
    1PA     C19 7795   6.006   4.577   4.358
    1PA     H9R 7796   6.058   4.611   4.448
    1PA     H9S 7797   6.068   4.617   4.278
    1PA     C18 7798   5.872   4.653   4.353
    1PA     H8R 7799   5.811   4.609   4.274
    1PA     H8S 7800   5.816   4.627   4.443
    1PA     C17 7801   5.894   4.803   4.328
    1PA     H7R 7802   5.980   4.833   4.388
    1PA     H7S 7803   5.922   4.823   4.224
    1PA     C16 7804   5.782   4.901   4.366
    1PA     H6R 7805   5.785   4.918   4.473
    1PA     H6S 7806   5.798   4.991   4.305
    1PA     C15 7807   5.648   4.842   4.318
    1PA     H5R 7808   5.654   4.833   4.209
    1PA     H5S 7809   5.636   4.740   4.355
    1PA     C14 7810   5.529   4.928   4.362
    1PA     H4R 7811   5.550   5.031   4.331
    1PA     H4S 7812   5.437   4.905   4.308
    1PA     C13 7813   5.502   4.926   4.513
    1PA     H3R 7814   5.595   4.956   4.562
    1PA     H3S 7815   5.421   4.994   4.542
    1PA     C12 7816   5.470   4.786   4.567
    1PA     H2R 7817   5.368   4.759   4.537
    1PA     H2S 7818   5.540   4.709   4.533
    2PC     C11 7819   5.476   4.790   4.718
    2PC     O12 7820   5.492   4.693   4.788
    2PC     O11 7821   5.443   4.909   4.771
    2PC      C1 7822   5.441   4.931   4.914
    2PC      HR 7823   5.388   5.024   4.932
    2PC      HS 7824   5.374   4.860   4.962
    2PC      C2 7825   5.577   4.930   4.985
    2PC      HX 7826   5.646   4.849   4.960
    2PC      C3 7827   5.551   4.935   5.136
    2PC      HA 7828   5.494   5.020   5.177
    2PC      HB 7829   5.489   4.850   5.166
    2PC     O31 7830   5.675   4.915   5.207
    2PC     P31 7831   5.673   4.878   5.362
    2PC     O32 7832   5.828   4.852   5.390
    2PC     C31 7833   5.888   4.731   5.341
    2PC     H1A 7834   5.888   4.660   5.425
    2PC     H1B 7835   5.843   4.683   5.254
    2PC     C32 7836   6.033   4.757   5.296
    2PC     H2A 7837   6.064   4.659   5.259
    2PC     H2B 7838   6.031   4.818   5.206
    2PC     N31 7839   6.136   4.800   5.397
    2PC     C33 7840   6.150   4.949   5.397
    2PC     H3A 7841   6.236   4.980   5.456
    2PC     H3B 7842   6.154   4.983   5.293
    2PC     H3C 7843   6.063   4.985   5.453
    2PC     C34 7844   6.116   4.760   5.540
    2PC     H4A 7845   6.189   4.815   5.600
    2PC     H4B 7846   6.017   4.797   5.569
    2PC     H4C 7847   6.125   4.653   5.554
    2PC     C35 7848   6.269   4.748   5.351
    2PC     H5A 7849   6.306   4.785   5.255
    2PC     H5B 7850   6.257   4.640   5.352
    2PC     H5C 7851   6.340   4.769   5.431
    2PC     O33 7852   5.615   4.988   5.444
    2PC     O34 7853   5.596   4.757   5.399
    2PC     O21 7854   5.651   5.047   4.945
    2PC     C21 7855   5.712   5.048   4.826
    2PC     O22 7856   5.727   4.949   4.756
    3OL     C12 7857   5.759   5.186   4.785
    3OL     H2R 7858   5.750   5.252   4.872
    3OL     H2S 7859   5.691   5.221   4.707
    3OL     C13 7860   5.907   5.180   4.747
    3OL     H3R 7861   5.922   5.120   4.657
    3OL     H3S 7862   5.964   5.135   4.828
    3OL     C14 7863   5.971   5.319   4.730
    3OL     H4R 7864   6.078   5.298   4.721
    3OL     H4S 7865   5.954   5.377   4.821
    3OL     C15 7866   5.917   5.394   4.607
    3OL     H5R 7867   5.809   5.407   4.619
    3OL     H5S 7868   5.923   5.329   4.520
    3OL     C16 7869   5.990   5.528   4.593
    3OL     H6R 7870   6.095   5.507   4.572
    3OL     H6S 7871   5.967   5.568   4.692
    3OL     C17 7872   5.925   5.612   4.482
    3OL     H7R 7873   5.816   5.606   4.485
    3OL     H7S 7874   5.953   5.578   4.382
    3OL     C18 7875   5.965   5.760   4.487
    3OL     H8R 7876   5.937   5.792   4.588
    3OL     H8S 7877   5.910   5.816   4.412
    3OL     C19 7878   6.114   5.780   4.475
    3OL     H9R 7879   6.179   5.704   4.520
    3OL    C110 7880   6.178   5.862   4.393
    3OL    H10R 7881   6.285   5.850   4.377
    3OL    C111 7882   6.119   5.973   4.309
    3OL    H11R 7883   6.140   6.077   4.334
    3OL    H11S 7884   6.011   5.974   4.323
    3OL    C112 7885   6.157   5.949   4.162
    3OL    H12R 7886   6.067   5.960   4.102
    3OL    H12S 7887   6.195   5.847   4.149
    3OL    C113 7888   6.256   6.049   4.102
    3OL    H13R 7889   6.225   6.154   4.095
    3OL    H13S 7890   6.281   6.009   4.003
    3OL    C114 7891   6.385   6.039   4.184
    3OL    H14R 7892   6.413   5.933   4.191
    3OL    H14S 7893   6.371   6.082   4.283
    3OL    C115 7894   6.488   6.123   4.106
    3OL    H15R 7895   6.448   6.224   4.110
    3OL    H15S 7896   6.494   6.083   4.005
    3OL    C116 7897   6.619   6.127   4.187
    3OL    H16R 7898   6.651   6.024   4.207
    3OL    H16S 7899   6.598   6.168   4.286
    3OL    C117 7900   6.728   6.202   4.110
    3OL    H17R 7901   6.687   6.301   4.094
    3OL    H17S 7902   6.746   6.150   4.016
    3OL    C118 7903   6.854   6.228   4.195
    3OL    H18R 7904   6.845   6.301   4.275
    3OL    H18S 7905   6.930   6.273   4.131
    3OL    H18T 7906   6.889   6.128   4.219
    1PA    C116 7907   4.539   1.622   3.840
    1PA    H16R 7908   4.574   1.670   3.749
    1PA    H16S 7909   4.433   1.596   3.826
    1PA    H16T 7910   4.594   1.529   3.852
    1PA    C115 7911   4.570   1.717   3.957
    1PA    H15R 7912   4.505   1.805   3.959
    1PA    H15S 7913   4.554   1.656   4.047
    1PA    C114 7914   4.719   1.750   3.964
    1PA    H14R 7915   4.775   1.660   3.991
    1PA    H14S 7916   4.752   1.794   3.869
    1PA    C113 7917   4.746   1.854   4.074
    1PA    H13R 7918   4.849   1.887   4.057
    1PA    H13S 7919   4.676   1.937   4.074
    1PA    C112 7920   4.745   1.797   4.216
    1PA    H12R 7921   4.659   1.731   4.226
    1PA    H12S 7922   4.835   1.740   4.238
    1PA    C111 7923   4.727   1.907   4.322
    1PA    H11R 7924   4.806   1.981   4.309
    1PA    H11S 7925   4.638   1.966   4.298
    1PA    C110 7926   4.720   1.850   4.465
    1PA    H10R 7927   4.654   1.764   4.463
    1PA    H10S 7928   4.823   1.819   4.478
    1PA     C19 7929   4.678   1.949   4.575
    1PA     H9R 7930   4.638   2.041   4.532
    1PA     H9S 7931   4.595   1.914   4.637
    1PA     C18 7932   4.797   1.985   4.665
    1PA     H8R 7933   4.842   1.892   4.701
    1PA     H8S 7934   4.880   2.032   4.613
    1PA     C17 7935   4.747   2.068   4.784
    1PA     H7R 7936   4.837   2.105   4.833
    1PA     H7S 7937   4.683   2.146   4.740
    1PA     C16 7938   4.669   1.990   4.890
    1PA     H6R 7939   4.584   1.936   4.846
    1PA     H6S 7940   4.727   1.915   4.944
    1PA     C15 7941   4.622   2.083   5.003
    1PA     H5R 7942   4.711   2.129   5.046
    1PA     H5S 7943   4.558   2.165   4.969
    1PA     C14 7944   4.545   2.008   5.112
    1PA     H4R 7945   4.454   1.967   5.067
    1PA     H4S 7946   4.594   1.923   5.159
    1PA     C13 7947   4.496   2.107   5.218
    1PA     H3R 7948   4.435   2.179   5.163
    1PA     H3S 7949   4.428   2.055   5.287
    1PA     C12 7950   4.608   2.166   5.306
    1PA     H2R 7951   4.677   2.222   5.243
    1PA     H2S 7952   4.552   2.243   5.358
    2PC     C11 7953   4.673   2.065   5.396
    2PC     O12 7954   4.621   1.957   5.415
    2PC     O11 7955   4.799   2.093   5.434
    2PC      C1 7956   4.862   1.997   5.520
    2PC      HR 7957   4.809   2.007   5.616
    2PC      HS 7958   4.849   1.894   5.487
    2PC      C2 7959   5.014   2.015   5.533
    2PC      HX 7960   5.059   1.933   5.589
    2PC      C3 7961   5.042   2.150   5.601
    2PC      HA 7962   4.990   2.222   5.537
    2PC      HB 7963   4.984   2.150   5.693
    2PC     O31 7964   5.183   2.167   5.627
    2PC     P31 7965   5.233   2.304   5.694
    2PC     O32 7966   5.155   2.286   5.833
    2PC     C31 7967   5.202   2.188   5.927
    2PC     H1A 7968   5.202   2.086   5.888
    2PC     H1B 7969   5.307   2.211   5.947
    2PC     C32 7970   5.126   2.204   6.059
    2PC     H2A 7971   5.021   2.194   6.030
    2PC     H2B 7972   5.148   2.119   6.124
    2PC     N31 7973   5.150   2.328   6.139
    2PC     C33 7974   5.143   2.453   6.057
    2PC     H3A 7975   5.044   2.460   6.010
    2PC     H3B 7976   5.145   2.550   6.107
    2PC     H3C 7977   5.222   2.441   5.983
    2PC     C34 7978   5.050   2.336   6.251
    2PC     H4A 7979   5.068   2.428   6.307
    2PC     H4B 7980   4.949   2.339   6.210
    2PC     H4C 7981   5.061   2.251   6.318
    2PC     C35 7982   5.285   2.318   6.204
    2PC     H5A 7983   5.297   2.220   6.251
    2PC     H5B 7984   5.290   2.396   6.279
    2PC     H5C 7985   5.356   2.322   6.121
    2PC     O33 7986   5.379   2.321   5.707
    2PC     O34 7987   5.194   2.426   5.619
    2PC     O21 7988   5.077   2.021   5.403
    2PC     C21 7989   5.080   1.915   5.320
    2PC     O22 7990   5.027   1.811   5.350
    3OL     C12 7991   5.139   1.953   5.187
    3OL     H2R 7992   5.244   1.924   5.201
    3OL     H2S 7993   5.131   2.061   5.172
    3OL     C13 7994   5.077   1.874   5.071
    3OL     H3R 7995   4.969   1.891   5.070
    3OL     H3S 7996   5.097   1.770   5.096
    3OL     C14 7997   5.132   1.919   4.935
    3OL     H4R 7998   5.239   1.934   4.948
    3OL     H4S 7999   5.094   2.019   4.910
    3OL     C15 8000   5.110   1.810   4.830
    3OL     H5R 8001   5.006   1.780   4.834
    3OL     H5S 8002   5.170   1.720   4.848
    3OL     C16 8003   5.145   1.862   4.690
    3OL     H6R 8004   5.252   1.884   4.678
    3OL     H6S 8005   5.086   1.953   4.678
    3OL     C17 8006   5.112   1.764   4.577
    3OL     H7R 8007   5.009   1.729   4.588
    3OL     H7S 8008   5.180   1.678   4.579
    3OL     C18 8009   5.127   1.837   4.443
    3OL     H8R 8010   5.069   1.929   4.454
    3OL     H8S 8011   5.069   1.778   4.371
    3OL     C19 8012   5.269   1.845   4.393
    3OL     H9R 8013   5.336   1.905   4.454
    3OL    C110 8014   5.305   1.786   4.280
    3OL    H10R 8015   5.407   1.803   4.246
    3OL    C111 8016   5.225   1.695   4.191
    3OL    H11R 8017   5.134   1.653   4.234
    3OL    H11S 8018   5.298   1.616   4.172
    3OL    C112 8019   5.199   1.753   4.052
    3OL    H12R 8020   5.294   1.794   4.015
    3OL    H12S 8021   5.121   1.829   4.045
    3OL    C113 8022   5.167   1.642   3.951
    3OL    H13R 8023   5.073   1.601   3.989
    3OL    H13S 8024   5.245   1.565   3.955
    3OL    C114 8025   5.135   1.682   3.806
    3OL    H14R 8026   5.208   1.755   3.769
    3OL    H14S 8027   5.046   1.743   3.814
    3OL    C115 8028   5.106   1.559   3.718
    3OL    H15R 8029   5.041   1.580   3.632
    3OL    H15S 8030   5.050   1.484   3.774
    3OL    C116 8031   5.234   1.494   3.665
    3OL    H16R 8032   5.284   1.447   3.750
    3OL    H16S 8033   5.294   1.580   3.635
    3OL    C117 8034   5.205   1.397   3.550
    3OL    H17R 8035   5.138   1.442   3.475
    3OL    H17S 8036   5.140   1.315   3.582
    3OL    C118 8037   5.334   1.357   3.477
    3OL    H18R 8038   5.376   1.450   3.438
    3OL    H18S 8039   5.320   1.294   3.388
    3OL    H18T 8040   5.407   1.318   3.547
    1PA    C116 8041   4.754   2.507   3.738
    1PA    H16R 8042   4.815   2.582   3.689
    1PA    H16S 8043   4.665   2.513   3.675
    1PA    H16T 8044   4.801   2.409   3.731
    1PA    C115 8045   4.731   2.548   3.885
    1PA    H15R 8046   4.830   2.535   3.927
    1PA    H15S 8047   4.698   2.651   3.901
    1PA    C114 8048   4.644   2.452   3.968
    1PA    H14R 8049   4.664   2.346   3.956
    1PA    H14S 8050   4.645   2.481   4.073
    1PA    C113 8051   4.494   2.469   3.940
    1PA    H13R 8052   4.473   2.573   3.965
    1PA    H13S 8053   4.472   2.455   3.834
    1PA    C112 8054   4.409   2.375   4.027
    1PA    H12R 8055   4.425   2.409   4.129
    1PA    H12S 8056   4.307   2.393   3.993
    1PA    C111 8057   4.434   2.223   4.020
    1PA    H11R 8058   4.416   2.186   3.919
    1PA    H11S 8059   4.537   2.205   4.052
    1PA    C110 8060   4.353   2.138   4.120
    1PA    H10R 8061   4.247   2.151   4.097
    1PA    H10S 8062   4.369   2.030   4.117
    1PA     C19 8063   4.383   2.179   4.265
    1PA     H9R 8064   4.491   2.177   4.280
    1PA     H9S 8065   4.352   2.283   4.282
    1PA     C18 8066   4.307   2.094   4.367
    1PA     H8R 8067   4.204   2.113   4.336
    1PA     H8S 8068   4.336   1.990   4.349
    1PA     C17 8069   4.338   2.131   4.513
    1PA     H7R 8070   4.442   2.116   4.542
    1PA     H7S 8071   4.328   2.239   4.518
    1PA     C16 8072   4.251   2.052   4.613
    1PA     H6R 8073   4.144   2.068   4.596
    1PA     H6S 8074   4.275   1.946   4.614
    1PA     C15 8075   4.276   2.088   4.760
    1PA     H5R 8076   4.369   2.062   4.809
    1PA     H5S 8077   4.274   2.198   4.762
    1PA     C14 8078   4.155   2.051   4.846
    1PA     H4R 8079   4.058   2.077   4.803
    1PA     H4S 8080   4.152   1.942   4.853
    1PA     C13 8081   4.165   2.096   4.993
    1PA     H3R 8082   4.235   2.034   5.048
    1PA     H3S 8083   4.190   2.202   4.987
    1PA     C12 8084   4.035   2.070   5.070
    1PA     H2R 8085   3.967   2.152   5.045
    1PA     H2S 8086   3.996   1.972   5.044
    2PC     C11 8087   4.063   2.074   5.219
    2PC     O12 8088   4.168   2.081   5.278
    2PC     O11 8089   3.946   2.057   5.282
    2PC      C1 8090   3.928   2.032   5.422
    2PC      HR 8091   3.998   2.091   5.482
    2PC      HS 8092   3.830   2.060   5.461
    2PC      C2 8093   3.944   1.880   5.440
    2PC      HX 8094   3.901   1.838   5.349
    2PC      C3 8095   3.886   1.831   5.573
    2PC      HA 8096   3.781   1.804   5.562
    2PC      HB 8097   3.942   1.743   5.605
    2PC     O31 8098   3.906   1.935   5.670
    2PC     P31 8099   3.836   1.940   5.814
    2PC     O32 8100   3.929   2.039   5.901
    2PC     C31 8101   3.890   2.050   6.039
    2PC     H1A 8102   3.787   2.087   6.034
    2PC     H1B 8103   3.909   1.959   6.096
    2PC     C32 8104   3.983   2.152   6.106
    2PC     H2A 8105   4.072   2.095   6.132
    2PC     H2B 8106   4.009   2.234   6.040
    2PC     N31 8107   3.933   2.214   6.233
    2PC     C33 8108   3.903   2.106   6.333
    2PC     H3A 8109   3.859   2.143   6.425
    2PC     H3B 8110   3.840   2.030   6.286
    2PC     H3C 8111   4.004   2.067   6.345
    2PC     C34 8112   4.045   2.301   6.282
    2PC     H4A 8113   4.142   2.250   6.280
    2PC     H4B 8114   4.045   2.390   6.219
    2PC     H4C 8115   4.022   2.336   6.383
    2PC     C35 8116   3.802   2.284   6.211
    2PC     H5A 8117   3.776   2.345   6.297
    2PC     H5B 8118   3.734   2.199   6.217
    2PC     H5C 8119   3.801   2.331   6.112
    2PC     O33 8120   3.695   1.984   5.816
    2PC     O34 8121   3.851   1.805   5.872
    2PC     O21 8122   4.084   1.846   5.432
    2PC     C21 8123   4.114   1.719   5.402
    2PC     O22 8124   4.033   1.628   5.394
    3OL     C12 8125   4.260   1.716   5.365
    3OL     H2R 8126   4.301   1.625   5.408
    3OL     H2S 8127   4.305   1.793   5.429
    3OL     C13 8128   4.288   1.735   5.215
    3OL     H3R 8129   4.391   1.771   5.206
    3OL     H3S 8130   4.230   1.811   5.163
    3OL     C14 8131   4.271   1.602   5.140
    3OL     H4R 8132   4.183   1.548   5.174
    3OL     H4S 8133   4.361   1.541   5.151
    3OL     C15 8134   4.259   1.630   4.990
    3OL     H5R 8135   4.338   1.696   4.954
    3OL     H5S 8136   4.157   1.666   4.980
    3OL     C16 8137   4.241   1.504   4.904
    3OL     H6R 8138   4.160   1.442   4.942
    3OL     H6S 8139   4.336   1.450   4.910
    3OL     C17 8140   4.216   1.525   4.754
    3OL     H7R 8141   4.211   1.435   4.692
    3OL     H7S 8142   4.294   1.591   4.716
    3OL     C18 8143   4.092   1.612   4.731
    3OL     H8R 8144   4.096   1.620   4.622
    3OL     H8S 8145   4.100   1.710   4.779
    3OL     C19 8146   3.972   1.531   4.771
    3OL     H9R 8147   3.986   1.424   4.776
    3OL    C110 8148   3.856   1.583   4.808
    3OL    H10R 8149   3.790   1.520   4.868
    3OL    C111 8150   3.819   1.727   4.785
    3OL    H11R 8151   3.874   1.796   4.850
    3OL    H11S 8152   3.715   1.748   4.809
    3OL    C112 8153   3.829   1.763   4.636
    3OL    H12R 8154   3.801   1.678   4.573
    3OL    H12S 8155   3.934   1.782   4.614
    3OL    C113 8156   3.749   1.890   4.605
    3OL    H13R 8157   3.791   1.978   4.653
    3OL    H13S 8158   3.651   1.856   4.640
    3OL    C114 8159   3.749   1.917   4.454
    3OL    H14R 8160   3.658   1.969   4.426
    3OL    H14S 8161   3.755   1.824   4.396
    3OL    C115 8162   3.875   1.983   4.397
    3OL    H15R 8163   3.951   1.905   4.403
    3OL    H15S 8164   3.907   2.062   4.466
    3OL    C116 8165   3.846   2.033   4.255
    3OL    H16R 8166   3.765   2.107   4.258
    3OL    H16S 8167   3.818   1.947   4.194
    3OL    C117 8168   3.970   2.096   4.190
    3OL    H17R 8169   4.051   2.027   4.164
    3OL    H17S 8170   4.019   2.165   4.258
    3OL    C118 8171   3.928   2.169   4.062
    3OL    H18R 8172   3.858   2.247   4.090
    3OL    H18S 8173   3.884   2.099   3.990
    3OL    H18T 8174   4.016   2.210   4.011
    1PA    C116 8175  -0.325   2.678   3.968
    1PA    H16R 8176  -0.369   2.591   3.918
    1PA    H16S 8177  -0.248   2.720   3.903
    1PA    H16T 8178  -0.402   2.754   3.979
    1PA    C115 8179  -0.278   2.633   4.107
    1PA    H15R 8180  -0.258   2.719   4.170
    1PA    H15S 8181  -0.359   2.579   4.156
    1PA    C114 8182  -0.149   2.550   4.103
    1PA    H14R 8183  -0.152   2.471   4.027
    1PA    H14S 8184  -0.067   2.615   4.072
    1PA    C113 8185  -0.113   2.507   4.246
    1PA    H13R 8186  -0.014   2.461   4.241
    1PA    H13S 8187  -0.119   2.591   4.315
    1PA    C112 8188  -0.208   2.397   4.294
    1PA    H12R 8189  -0.311   2.433   4.298
    1PA    H12S 8190  -0.209   2.323   4.213
    1PA    C111 8191  -0.157   2.323   4.418
    1PA    H11R 8192  -0.199   2.222   4.419
    1PA    H11S 8193  -0.048   2.328   4.404
    1PA    C110 8194  -0.183   2.383   4.556
    1PA    H10R 8195  -0.118   2.470   4.566
    1PA    H10S 8196  -0.288   2.408   4.566
    1PA     C19 8197  -0.141   2.288   4.670
    1PA     H9R 8198  -0.180   2.322   4.766
    1PA     H9S 8199  -0.184   2.188   4.662
    1PA     C18 8200   0.011   2.270   4.682
    1PA     H8R 8201   0.039   2.174   4.728
    1PA     H8S 8202   0.058   2.263   4.584
    1PA     C17 8203   0.074   2.389   4.755
    1PA     H7R 8204   0.051   2.485   4.708
    1PA     H7S 8205   0.032   2.391   4.856
    1PA     C16 8206   0.223   2.359   4.778
    1PA     H6R 8207   0.239   2.258   4.816
    1PA     H6S 8208   0.278   2.371   4.685
    1PA     C15 8209   0.276   2.463   4.878
    1PA     H5R 8210   0.273   2.564   4.835
    1PA     H5S 8211   0.208   2.468   4.964
    1PA     C14 8212   0.417   2.435   4.930
    1PA     H4R 8213   0.421   2.337   4.978
    1PA     H4S 8214   0.478   2.418   4.841
    1PA     C13 8215   0.488   2.552   4.999
    1PA     H3R 8216   0.494   2.639   4.933
    1PA     H3S 8217   0.435   2.572   5.092
    1PA     C12 8218   0.634   2.522   5.033
    1PA     H2R 8219   0.698   2.502   4.947
    1PA     H2S 8220   0.654   2.624   5.066
    2PC     C11 8221   0.663   2.416   5.137
    2PC     O12 8222   0.571   2.351   5.181
    2PC     O11 8223   0.792   2.401   5.170
    2PC      C1 8224   0.828   2.301   5.267
    2PC      HR 8225   0.937   2.304   5.280
    2PC      HS 8226   0.788   2.325   5.365
    2PC      C2 8227   0.788   2.160   5.220
    2PC      HX 8228   0.686   2.158   5.181
    2PC      C3 8229   0.804   2.054   5.329
    2PC      HA 8230   0.714   2.050   5.392
    2PC      HB 8231   0.814   1.957   5.280
    2PC     O31 8232   0.926   2.071   5.403
    2PC     P31 8233   0.967   1.970   5.521
    2PC     O32 8234   0.866   1.996   5.642
    2PC     C31 8235   0.852   1.896   5.745
    2PC     H1A 8236   0.824   1.797   5.706
    2PC     H1B 8237   0.953   1.878   5.783
    2PC     C32 8238   0.750   1.936   5.852
    2PC     H2A 8239   0.741   1.856   5.925
    2PC     H2B 8240   0.776   2.031   5.898
    2PC     N31 8241   0.611   1.962   5.804
    2PC     C33 8242   0.598   2.072   5.704
    2PC     H3A 8243   0.640   2.044   5.607
    2PC     H3B 8244   0.494   2.105   5.699
    2PC     H3C 8245   0.656   2.155   5.743
    2PC     C34 8246   0.559   1.839   5.736
    2PC     H4A 8247   0.460   1.862   5.697
    2PC     H4B 8248   0.616   1.794   5.654
    2PC     H4C 8249   0.551   1.764   5.815
    2PC     C35 8250   0.531   1.972   5.931
    2PC     H5A 8251   0.428   1.982   5.897
    2PC     H5B 8252   0.571   2.064   5.975
    2PC     H5C 8253   0.534   1.889   6.001
    2PC     O33 8254   0.953   1.831   5.470
    2PC     O34 8255   1.113   1.985   5.542
    2PC     O21 8256   0.887   2.132   5.119
    2PC     C21 8257   0.868   2.047   5.017
    2PC     O22 8258   0.771   1.977   4.995
    3OL     C12 8259   0.988   2.046   4.925
    3OL     H2R 8260   1.019   1.946   4.895
    3OL     H2S 8261   1.063   2.111   4.971
    3OL     C13 8262   0.942   2.137   4.810
    3OL     H3R 8263   0.898   2.227   4.853
    3OL     H3S 8264   0.860   2.097   4.750
    3OL     C14 8265   1.059   2.167   4.716
    3OL     H4R 8266   1.147   2.202   4.770
    3OL     H4S 8267   1.034   2.246   4.645
    3OL     C15 8268   1.104   2.038   4.645
    3OL     H5R 8269   1.020   1.989   4.597
    3OL     H5S 8270   1.145   1.964   4.714
    3OL     C16 8271   1.211   2.078   4.542
    3OL     H6R 8272   1.283   2.129   4.606
    3OL     H6S 8273   1.162   2.150   4.476
    3OL     C17 8274   1.267   1.959   4.463
    3OL     H7R 8275   1.192   1.904   4.405
    3OL     H7S 8276   1.298   1.895   4.546
    3OL     C18 8277   1.379   1.997   4.364
    3OL     H8R 8278   1.367   2.101   4.333
    3OL     H8S 8279   1.358   1.936   4.276
    3OL     C19 8280   1.521   1.971   4.408
    3OL     H9R 8281   1.546   2.016   4.503
    3OL    C110 8282   1.606   1.878   4.367
    3OL    H10R 8283   1.704   1.866   4.414
    3OL    C111 8284   1.585   1.783   4.252
    3OL    H11R 8285   1.491   1.802   4.200
    3OL    H11S 8286   1.576   1.680   4.288
    3OL    C112 8287   1.703   1.779   4.154
    3OL    H12R 8288   1.683   1.693   4.090
    3OL    H12S 8289   1.800   1.760   4.200
    3OL    C113 8290   1.719   1.902   4.063
    3OL    H13R 8291   1.806   1.900   3.997
    3OL    H13S 8292   1.726   1.986   4.132
    3OL    C114 8293   1.592   1.938   3.983
    3OL    H14R 8294   1.523   1.979   4.057
    3OL    H14S 8295   1.550   1.847   3.939
    3OL    C115 8296   1.630   2.030   3.866
    3OL    H15R 8297   1.711   1.985   3.809
    3OL    H15S 8298   1.668   2.122   3.912
    3OL    C116 8299   1.512   2.065   3.774
    3OL    H16R 8300   1.441   2.129   3.825
    3OL    H16S 8301   1.460   1.972   3.747
    3OL    C117 8302   1.561   2.139   3.648
    3OL    H17R 8303   1.627   2.069   3.596
    3OL    H17S 8304   1.623   2.221   3.684
    3OL    C118 8305   1.443   2.184   3.561
    3OL    H18R 8306   1.474   2.223   3.464
    3OL    H18S 8307   1.390   2.265   3.612
    3OL    H18T 8308   1.363   2.110   3.555
    1PA    C116 8309   5.806   3.346   4.559
    1PA    H16R 8310   5.807   3.305   4.458
    1PA    H16S 8311   5.875   3.297   4.629
    1PA    H16T 8312   5.850   3.446   4.552
    1PA    C115 8313   5.661   3.353   4.609
    1PA    H15R 8314   5.662   3.417   4.698
    1PA    H15S 8315   5.604   3.404   4.531
    1PA    C114 8316   5.599   3.216   4.639
    1PA    H14R 8317   5.654   3.165   4.718
    1PA    H14S 8318   5.504   3.226   4.693
    1PA    C113 8319   5.595   3.119   4.520
    1PA    H13R 8320   5.536   3.156   4.436
    1PA    H13S 8321   5.699   3.109   4.487
    1PA    C112 8322   5.529   2.988   4.565
    1PA    H12R 8323   5.569   2.967   4.664
    1PA    H12S 8324   5.421   3.006   4.566
    1PA    C111 8325   5.549   2.866   4.475
    1PA    H11R 8326   5.496   2.898   4.385
    1PA    H11S 8327   5.654   2.849   4.453
    1PA    C110 8328   5.495   2.736   4.537
    1PA    H10R 8329   5.404   2.760   4.592
    1PA    H10S 8330   5.476   2.662   4.459
    1PA     C19 8331   5.591   2.676   4.641
    1PA     H9R 8332   5.690   2.670   4.595
    1PA     H9S 8333   5.601   2.763   4.707
    1PA     C18 8334   5.541   2.552   4.715
    1PA     H8R 8335   5.457   2.561   4.784
    1PA     H8S 8336   5.512   2.491   4.629
    1PA     C17 8337   5.650   2.481   4.798
    1PA     H7R 8338   5.617   2.386   4.840
    1PA     H7S 8339   5.743   2.464   4.744
    1PA     C16 8340   5.673   2.571   4.920
    1PA     H6R 8341   5.722   2.665   4.892
    1PA     H6S 8342   5.579   2.597   4.968
    1PA     C15 8343   5.743   2.493   5.032
    1PA     H5R 8344   5.694   2.399   5.059
    1PA     H5S 8345   5.841   2.465   4.992
    1PA     C14 8346   5.764   2.579   5.158
    1PA     H4R 8347   5.667   2.611   5.197
    1PA     H4S 8348   5.805   2.515   5.235
    1PA     C13 8349   5.861   2.697   5.146
    1PA     H3R 8350   5.957   2.672   5.101
    1PA     H3S 8351   5.821   2.762   5.067
    1PA     C12 8352   5.875   2.770   5.280
    1PA     H2R 8353   5.777   2.809   5.309
    1PA     H2S 8354   5.910   2.699   5.355
    2PC     C11 8355   5.969   2.888   5.276
    2PC     O12 8356   6.039   2.913   5.180
    2PC     O11 8357   5.950   2.972   5.379
    2PC      C1 8358   6.011   3.102   5.384
    2PC      HR 8359   6.118   3.102   5.359
    2PC      HS 8360   5.962   3.156   5.302
    2PC      C2 8361   5.990   3.160   5.524
    2PC      HX 8362   6.043   3.254   5.538
    2PC      C3 8363   6.023   3.063   5.639
    2PC      HA 8364   5.948   2.989   5.664
    2PC      HB 8365   6.118   3.009   5.631
    2PC     O31 8366   6.010   3.130   5.766
    2PC     P31 8367   6.136   3.208   5.827
    2PC     O32 8368   6.112   3.197   5.986
    2PC     C31 8369   6.136   3.065   6.037
    2PC     H1A 8370   6.049   3.009   6.003
    2PC     H1B 8371   6.221   3.016   5.988
    2PC     C32 8372   6.148   3.060   6.190
    2PC     H2A 8373   6.055   3.100   6.229
    2PC     H2B 8374   6.161   2.958   6.227
    2PC     N31 8375   6.260   3.134   6.256
    2PC     C33 8376   6.391   3.066   6.229
    2PC     H3A 8377   6.412   3.076   6.122
    2PC     H3B 8378   6.465   3.129   6.278
    2PC     H3C 8379   6.396   2.963   6.264
    2PC     C34 8380   6.263   3.280   6.222
    2PC     H4A 8381   6.169   3.325   6.253
    2PC     H4B 8382   6.348   3.326   6.273
    2PC     H4C 8383   6.281   3.295   6.115
    2PC     C35 8384   6.225   3.119   6.401
    2PC     H5A 8385   6.305   3.160   6.464
    2PC     H5B 8386   6.211   3.013   6.423
    2PC     H5C 8387   6.129   3.166   6.424
    2PC     O33 8388   6.269   3.175   5.772
    2PC     O34 8389   6.138   3.348   5.781
    2PC     O21 8390   5.850   3.188   5.545
    2PC     C21 8391   5.802   3.306   5.503
    2PC     O22 8392   5.864   3.395   5.449
    3OL     C12 8393   5.654   3.307   5.531
    3OL     H2R 8394   5.634   3.284   5.636
    3OL     H2S 8395   5.607   3.227   5.474
    3OL     C13 8396   5.581   3.439   5.502
    3OL     H3R 8397   5.632   3.523   5.551
    3OL     H3S 8398   5.483   3.428   5.548
    3OL     C14 8399   5.572   3.475   5.353
    3OL     H4R 8400   5.520   3.394   5.303
    3OL     H4S 8401   5.674   3.477   5.312
    3OL     C15 8402   5.509   3.615   5.340
    3OL     H5R 8403   5.579   3.689   5.378
    3OL     H5S 8404   5.416   3.629   5.396
    3OL     C16 8405   5.488   3.646   5.191
    3OL     H6R 8406   5.417   3.727   5.181
    3OL     H6S 8407   5.429   3.563   5.151
    3OL     C17 8408   5.607   3.698   5.110
    3OL     H7R 8409   5.689   3.626   5.104
    3OL     H7S 8410   5.646   3.786   5.161
    3OL     C18 8411   5.559   3.746   4.972
    3OL     H8R 8412   5.625   3.814   4.917
    3OL     H8S 8413   5.465   3.800   4.979
    3OL     C19 8414   5.536   3.620   4.891
    3OL     H9R 8415   5.621   3.553   4.897
    3OL    C110 8416   5.433   3.580   4.818
    3OL    H10R 8417   5.431   3.486   4.763
    3OL    C111 8418   5.309   3.663   4.800
    3OL    H11R 8419   5.304   3.741   4.877
    3OL    H11S 8420   5.223   3.596   4.807
    3OL    C112 8421   5.309   3.709   4.653
    3OL    H12R 8422   5.212   3.752   4.626
    3OL    H12S 8423   5.326   3.619   4.594
    3OL    C113 8424   5.418   3.814   4.631
    3OL    H13R 8425   5.514   3.762   4.637
    3OL    H13S 8426   5.420   3.891   4.709
    3OL    C114 8427   5.407   3.888   4.496
    3OL    H14R 8428   5.494   3.952   4.479
    3OL    H14S 8429   5.319   3.952   4.487
    3OL    C115 8430   5.396   3.807   4.367
    3OL    H15R 8431   5.407   3.863   4.274
    3OL    H15S 8432   5.294   3.768   4.357
    3OL    C116 8433   5.497   3.692   4.354
    3OL    H16R 8434   5.458   3.603   4.305
    3OL    H16S 8435   5.529   3.657   4.452
    3OL    C117 8436   5.627   3.741   4.288
    3OL    H17R 8437   5.707   3.669   4.307
    3OL    H17S 8438   5.661   3.838   4.328
    3OL    C118 8439   5.619   3.758   4.135
    3OL    H18R 8440   5.527   3.803   4.098
    3OL    H18S 8441   5.631   3.659   4.091
    3OL    H18T 8442   5.704   3.821   4.107
    1PA    C116 8443   5.566   1.207   4.247
    1PA    H16R 8444   5.575   1.245   4.144
    1PA    H16S 8445   5.479   1.144   4.261
    1PA    H16T 8446   5.656   1.152   4.278
    1PA    C115 8447   5.546   1.314   4.355
    1PA    H15R 8448   5.617   1.394   4.334
    1PA    H15S 8449   5.444   1.353   4.356
    1PA    C114 8450   5.586   1.258   4.492
    1PA    H14R 8451   5.512   1.183   4.519
    1PA    H14S 8452   5.689   1.223   4.485
    1PA    C113 8453   5.593   1.377   4.589
    1PA    H13R 8454   5.610   1.336   4.689
    1PA    H13S 8455   5.667   1.454   4.566
    1PA    C112 8456   5.457   1.449   4.595
    1PA    H12R 8457   5.450   1.516   4.509
    1PA    H12S 8458   5.373   1.380   4.607
    1PA    C111 8459   5.444   1.545   4.714
    1PA    H11R 8460   5.342   1.582   4.725
    1PA    H11S 8461   5.464   1.484   4.803
    1PA    C110 8462   5.541   1.663   4.701
    1PA    H10R 8463   5.644   1.631   4.680
    1PA    H10S 8464   5.513   1.721   4.613
    1PA     C19 8465   5.532   1.737   4.835
    1PA     H9R 8466   5.429   1.773   4.845
    1PA     H9S 8467   5.550   1.668   4.918
    1PA     C18 8468   5.629   1.856   4.830
    1PA     H8R 8469   5.614   1.900   4.929
    1PA     H8S 8470   5.735   1.830   4.832
    1PA     C17 8471   5.605   1.963   4.722
    1PA     H7R 8472   5.651   1.926   4.630
    1PA     H7S 8473   5.496   1.965   4.716
    1PA     C16 8474   5.651   2.105   4.755
    1PA     H6R 8475   5.606   2.168   4.679
    1PA     H6S 8476   5.611   2.144   4.849
    1PA     C15 8477   5.802   2.127   4.741
    1PA     H5R 8478   5.846   2.066   4.662
    1PA     H5S 8479   5.813   2.232   4.710
    1PA     C14 8480   5.878   2.102   4.871
    1PA     H4R 8481   5.840   2.174   4.944
    1PA     H4S 8482   5.857   2.003   4.912
    1PA     C13 8483   6.030   2.110   4.848
    1PA     H3R 8484   6.059   2.037   4.772
    1PA     H3S 8485   6.053   2.206   4.801
    1PA     C12 8486   6.114   2.085   4.973
    1PA     H2R 8487   6.101   1.985   5.013
    1PA     H2S 8488   6.220   2.083   4.947
    2PC     C11 8489   6.086   2.187   5.081
    2PC     O12 8490   6.003   2.165   5.167
    2PC     O11 8491   6.175   2.287   5.078
    2PC      C1 8492   6.173   2.393   5.176
    2PC      HR 8493   6.075   2.439   5.187
    2PC      HS 8494   6.197   2.345   5.271
    2PC      C2 8495   6.284   2.496   5.149
    2PC      HX 8496   6.365   2.444   5.097
    2PC      C3 8497   6.333   2.558   5.280
    2PC      HA 8498   6.406   2.489   5.322
    2PC      HB 8499   6.381   2.656   5.274
    2PC     O31 8500   6.218   2.566   5.367
    2PC     P31 8501   6.236   2.588   5.524
    2PC     O32 8502   6.090   2.622   5.580
    2PC     C31 8503   5.995   2.516   5.604
    2PC     H1A 8504   5.971   2.474   5.506
    2PC     H1B 8505   6.035   2.439   5.670
    2PC     C32 8506   5.878   2.572   5.686
    2PC     H2A 8507   5.827   2.651   5.631
    2PC     H2B 8508   5.812   2.488   5.707
    2PC     N31 8509   5.907   2.618   5.826
    2PC     C33 8510   6.008   2.531   5.894
    2PC     H3A 8511   6.105   2.569   5.864
    2PC     H3B 8512   5.990   2.536   6.002
    2PC     H3C 8513   5.989   2.429   5.858
    2PC     C34 8514   5.956   2.759   5.821
    2PC     H4A 8515   5.966   2.800   5.922
    2PC     H4B 8516   6.058   2.754   5.783
    2PC     H4C 8517   5.887   2.823   5.764
    2PC     C35 8518   5.781   2.625   5.907
    2PC     H5A 8519   5.807   2.648   6.010
    2PC     H5B 8520   5.736   2.525   5.906
    2PC     H5C 8521   5.711   2.696   5.863
    2PC     O33 8522   6.314   2.475   5.580
    2PC     O34 8523   6.317   2.710   5.547
    2PC     O21 8524   6.231   2.596   5.061
    2PC     C21 8525   6.314   2.689   5.010
    2PC     O22 8526   6.433   2.680   5.033
    3OL     C12 8527   6.250   2.797   4.927
    3OL     H2R 8528   6.322   2.878   4.921
    3OL     H2S 8529   6.164   2.839   4.980
    3OL     C13 8530   6.219   2.729   4.793
    3OL     H3R 8531   6.167   2.633   4.803
    3OL     H3S 8532   6.317   2.717   4.746
    3OL     C14 8533   6.149   2.835   4.706
    3OL     H4R 8534   6.209   2.849   4.616
    3OL     H4S 8535   6.140   2.931   4.756
    3OL     C15 8536   6.008   2.790   4.666
    3OL     H5R 8537   5.950   2.773   4.757
    3OL     H5S 8538   6.013   2.694   4.613
    3OL     C16 8539   5.948   2.894   4.570
    3OL     H6R 8540   5.987   2.990   4.602
    3OL     H6S 8541   5.841   2.876   4.586
    3OL     C17 8542   5.983   2.870   4.422
    3OL     H7R 8543   5.924   2.782   4.394
    3OL     H7S 8544   6.088   2.849   4.403
    3OL     C18 8545   5.933   2.979   4.327
    3OL     H8R 8546   5.830   3.004   4.352
    3OL     H8S 8547   5.932   2.957   4.220
    3OL     C19 8548   6.010   3.105   4.358
    3OL     H9R 8549   6.067   3.107   4.450
    3OL    C110 8550   6.025   3.211   4.280
    3OL    H10R 8551   6.088   3.294   4.310
    3OL    C111 8552   5.948   3.237   4.153
    3OL    H11R 8553   5.874   3.159   4.134
    3OL    H11S 8554   6.011   3.242   4.063
    3OL    C112 8555   5.879   3.374   4.160
    3OL    H12R 8556   5.955   3.446   4.193
    3OL    H12S 8557   5.814   3.364   4.247
    3OL    C113 8558   5.817   3.419   4.027
    3OL    H13R 8559   5.895   3.412   3.951
    3OL    H13S 8560   5.798   3.526   4.034
    3OL    C114 8561   5.703   3.331   3.975
    3OL    H14R 8562   5.733   3.226   3.975
    3OL    H14S 8563   5.692   3.360   3.870
    3OL    C115 8564   5.585   3.346   4.072
    3OL    H15R 8565   5.534   3.440   4.051
    3OL    H15S 8566   5.611   3.335   4.177
    3OL    C116 8567   5.479   3.240   4.038
    3OL    H16R 8568   5.450   3.247   3.932
    3OL    H16S 8569   5.399   3.262   4.109
    3OL    C117 8570   5.523   3.098   4.074
    3OL    H17R 8571   5.569   3.098   4.172
    3OL    H17S 8572   5.593   3.059   3.999
    3OL    C118 8573   5.397   3.010   4.074
    3OL    H18R 8574   5.323   3.040   4.149
    3OL    H18S 8575   5.421   2.907   4.101
    3OL    H18T 8576   5.353   3.005   3.974
    1PA    C116 8577   1.419   6.945   3.083
    1PA    H16R 8578   1.316   6.980   3.092
    1PA    H16S 8579   1.460   6.938   2.982
    1PA    H16T 8580   1.483   7.016   3.136
    1PA    C115 8581   1.418   6.803   3.142
    1PA    H15R 8582   1.517   6.756   3.140
    1PA    H15S 8583   1.406   6.813   3.250
    1PA    C114 8584   1.307   6.713   3.087
    1PA    H14R 8585   1.215   6.771   3.083
    1PA    H14S 8586   1.326   6.680   2.985
    1PA    C113 8587   1.297   6.586   3.173
    1PA    H13R 8588   1.398   6.545   3.175
    1PA    H13S 8589   1.299   6.619   3.277
    1PA    C112 8590   1.192   6.484   3.126
    1PA    H12R 8591   1.211   6.390   3.178
    1PA    H12S 8592   1.096   6.524   3.158
    1PA    C111 8593   1.190   6.474   2.973
    1PA    H11R 8594   1.143   6.559   2.924
    1PA    H11S 8595   1.292   6.463   2.935
    1PA    C110 8596   1.115   6.345   2.936
    1PA    H10R 8597   1.162   6.265   2.994
    1PA    H10S 8598   1.013   6.349   2.973
    1PA     C19 8599   1.134   6.306   2.788
    1PA     H9R 8600   1.239   6.297   2.761
    1PA     H9S 8601   1.095   6.206   2.769
    1PA     C18 8602   1.068   6.410   2.698
    1PA     H8R 8603   0.966   6.431   2.732
    1PA     H8S 8604   1.124   6.504   2.708
    1PA     C17 8605   1.066   6.373   2.549
    1PA     H7R 8606   1.024   6.465   2.506
    1PA     H7S 8607   1.163   6.343   2.509
    1PA     C16 8608   0.973   6.258   2.508
    1PA     H6R 8609   0.983   6.175   2.577
    1PA     H6S 8610   0.868   6.287   2.514
    1PA     C15 8611   1.006   6.213   2.365
    1PA     H5R 8612   1.113   6.196   2.352
    1PA     H5S 8613   0.941   6.127   2.345
    1PA     C14 8614   0.964   6.323   2.267
    1PA     H4R 8615   0.861   6.356   2.284
    1PA     H4S 8616   1.029   6.408   2.289
    1PA     C13 8617   1.000   6.281   2.124
    1PA     H3R 8618   1.005   6.365   2.055
    1PA     H3S 8619   1.101   6.239   2.125
    1PA     C12 8620   0.907   6.178   2.058
    1PA     H2R 8621   0.935   6.082   2.104
    1PA     H2S 8622   0.802   6.199   2.074
    2PC     C11 8623   0.930   6.168   1.909
    2PC     O12 8624   1.032   6.202   1.854
    2PC     O11 8625   0.822   6.126   1.840
    2PC      C1 8626   0.835   6.090   1.701
    2PC      HR 8627   0.747   6.119   1.643
    2PC      HS 8628   0.914   6.149   1.654
    2PC      C2 8629   0.856   5.938   1.691
    2PC      HX 8630   0.946   5.912   1.748
    2PC      C3 8631   0.895   5.893   1.550
    2PC      HA 8632   0.925   5.788   1.555
    2PC      HB 8633   0.980   5.950   1.512
    2PC     O31 8634   0.782   5.909   1.462
    2PC     P31 8635   0.784   5.860   1.310
    2PC     O32 8636   0.760   5.702   1.323
    2PC     C31 8637   0.627   5.650   1.307
    2PC     H1A 8638   0.560   5.702   1.377
    2PC     H1B 8639   0.577   5.674   1.213
    2PC     C32 8640   0.621   5.497   1.319
    2PC     H2A 8641   0.519   5.471   1.347
    2PC     H2B 8642   0.653   5.461   1.221
    2PC     N31 8643   0.708   5.431   1.422
    2PC     C33 8644   0.687   5.495   1.556
    2PC     H3A 8645   0.739   5.439   1.634
    2PC     H3B 8646   0.715   5.600   1.555
    2PC     H3C 8647   0.581   5.496   1.584
    2PC     C34 8648   0.664   5.288   1.426
    2PC     H4A 8649   0.558   5.289   1.453
    2PC     H4B 8650   0.682   5.252   1.324
    2PC     H4C 8651   0.736   5.234   1.487
    2PC     C35 8652   0.854   5.440   1.387
    2PC     H5A 8653   0.898   5.386   1.471
    2PC     H5B 8654   0.879   5.546   1.384
    2PC     H5C 8655   0.875   5.399   1.289
    2PC     O33 8656   0.683   5.947   1.246
    2PC     O34 8657   0.917   5.903   1.262
    2PC     O21 8658   0.747   5.860   1.744
    2PC     C21 8659   0.772   5.735   1.785
    2PC     O22 8660   0.880   5.681   1.783
    3OL     C12 8661   0.650   5.673   1.850
    3OL     H2R 8662   0.638   5.567   1.827
    3OL     H2S 8663   0.563   5.729   1.816
    3OL     C13 8664   0.647   5.692   2.003
    3OL     H3R 8665   0.729   5.642   2.055
    3OL     H3S 8666   0.559   5.643   2.046
    3OL     C14 8667   0.645   5.839   2.046
    3OL     H4R 8668   0.587   5.901   1.978
    3OL     H4S 8669   0.741   5.886   2.022
    3OL     C15 8670   0.598   5.849   2.192
    3OL     H5R 8671   0.645   5.770   2.251
    3OL     H5S 8672   0.495   5.816   2.192
    3OL     C16 8673   0.623   5.992   2.243
    3OL     H6R 8674   0.720   6.033   2.213
    3OL     H6S 8675   0.611   5.991   2.352
    3OL     C17 8676   0.513   6.081   2.184
    3OL     H7R 8677   0.418   6.046   2.224
    3OL     H7S 8678   0.508   6.077   2.075
    3OL     C18 8679   0.536   6.227   2.223
    3OL     H8R 8680   0.455   6.280   2.173
    3OL     H8S 8681   0.622   6.273   2.175
    3OL     C19 8682   0.530   6.250   2.372
    3OL     H9R 8683   0.626   6.261   2.424
    3OL    C110 8684   0.426   6.218   2.448
    3OL    H10R 8685   0.444   6.212   2.555
    3OL    C111 8686   0.280   6.225   2.413
    3OL    H11R 8687   0.226   6.130   2.403
    3OL    H11S 8688   0.274   6.268   2.313
    3OL    C112 8689   0.200   6.315   2.508
    3OL    H12R 8690   0.179   6.263   2.602
    3OL    H12S 8691   0.103   6.341   2.466
    3OL    C113 8692   0.264   6.449   2.548
    3OL    H13R 8693   0.308   6.515   2.472
    3OL    H13S 8694   0.340   6.429   2.624
    3OL    C114 8695   0.155   6.532   2.618
    3OL    H14R 8696   0.101   6.475   2.693
    3OL    H14S 8697   0.084   6.568   2.543
    3OL    C115 8698   0.229   6.656   2.670
    3OL    H15R 8699   0.283   6.710   2.592
    3OL    H15S 8700   0.294   6.621   2.751
    3OL    C116 8701   0.121   6.753   2.721
    3OL    H16R 8702   0.034   6.756   2.656
    3OL    H16S 8703   0.155   6.853   2.696
    3OL    C117 8704   0.076   6.743   2.868
    3OL    H17R 8705   0.001   6.823   2.873
    3OL    H17S 8706   0.157   6.767   2.936
    3OL    C118 8707  -0.004   6.616   2.903
    3OL    H18R 8708   0.061   6.529   2.901
    3OL    H18S 8709  -0.082   6.602   2.829
    3OL    H18T 8710  -0.040   6.632   3.005
    1PA    C116 8711   0.745   5.134   3.326
    1PA    H16R 8712   0.802   5.104   3.414
    1PA    H16S 8713   0.647   5.087   3.327
    1PA    H16T 8714   0.740   5.243   3.332
    1PA    C115 8715   0.830   5.087   3.206
    1PA    H15R 8716   0.842   4.978   3.200
    1PA    H15S 8717   0.781   5.117   3.113
    1PA    C114 8718   0.960   5.167   3.207
    1PA    H14R 8719   0.957   5.262   3.154
    1PA    H14S 8720   0.995   5.194   3.307
    1PA    C113 8721   1.083   5.091   3.152
    1PA    H13R 8722   1.171   5.155   3.153
    1PA    H13S 8723   1.115   5.007   3.213
    1PA    C112 8724   1.058   5.045   3.008
    1PA    H12R 8725   0.970   4.982   3.001
    1PA    H12S 8726   1.040   5.135   2.948
    1PA    C111 8727   1.172   4.958   2.954
    1PA    H11R 8728   1.208   4.889   3.031
    1PA    H11S 8729   1.132   4.889   2.879
    1PA    C110 8730   1.284   5.037   2.885
    1PA    H10R 8731   1.243   5.120   2.828
    1PA    H10S 8732   1.357   5.076   2.957
    1PA     C19 8733   1.363   4.950   2.786
    1PA     H9R 8734   1.384   4.856   2.836
    1PA     H9S 8735   1.304   4.913   2.702
    1PA     C18 8736   1.480   5.015   2.711
    1PA     H8R 8737   1.546   5.063   2.785
    1PA     H8S 8738   1.533   4.928   2.672
    1PA     C17 8739   1.448   5.104   2.591
    1PA     H7R 8740   1.378   5.046   2.531
    1PA     H7S 8741   1.407   5.199   2.627
    1PA     C16 8742   1.574   5.131   2.507
    1PA     H6R 8743   1.649   5.189   2.562
    1PA     H6S 8744   1.616   5.036   2.473
    1PA     C15 8745   1.537   5.208   2.380
    1PA     H5R 8746   1.508   5.311   2.403
    1PA     H5S 8747   1.628   5.209   2.320
    1PA     C14 8748   1.433   5.141   2.289
    1PA     H4R 8749   1.461   5.035   2.287
    1PA     H4S 8750   1.338   5.157   2.341
    1PA     C13 8751   1.425   5.182   2.142
    1PA     H3R 8752   1.511   5.135   2.093
    1PA     H3S 8753   1.332   5.139   2.105
    1PA     C12 8754   1.419   5.335   2.128
    1PA     H2R 8755   1.352   5.371   2.205
    1PA     H2S 8756   1.520   5.375   2.139
    2PC     C11 8757   1.374   5.390   1.996
    2PC     O12 8758   1.306   5.328   1.916
    2PC     O11 8759   1.426   5.513   1.979
    2PC      C1 8760   1.406   5.591   1.860
    2PC      HR 8761   1.488   5.663   1.849
    2PC      HS 8762   1.401   5.527   1.771
    2PC      C2 8763   1.275   5.671   1.867
    2PC      HX 8764   1.200   5.596   1.896
    2PC      C3 8765   1.251   5.732   1.729
    2PC      HA 8766   1.247   5.645   1.662
    2PC      HB 8767   1.153   5.779   1.727
    2PC     O31 8768   1.355   5.824   1.690
    2PC     P31 8769   1.345   5.907   1.554
    2PC     O32 8770   1.274   6.037   1.614
    2PC     C31 8771   1.313   6.165   1.561
    2PC     H1A 8772   1.408   6.195   1.605
    2PC     H1B 8773   1.321   6.168   1.452
    2PC     C32 8774   1.205   6.259   1.617
    2PC     H2A 8775   1.103   6.240   1.585
    2PC     H2B 8776   1.224   6.253   1.724
    2PC     N31 8777   1.217   6.405   1.586
    2PC     C33 8778   1.339   6.448   1.663
    2PC     H3A 8779   1.424   6.389   1.631
    2PC     H3B 8780   1.360   6.554   1.646
    2PC     H3C 8781   1.323   6.441   1.770
    2PC     C34 8782   1.238   6.430   1.440
    2PC     H4A 8783   1.325   6.380   1.397
    2PC     H4B 8784   1.148   6.397   1.388
    2PC     H4C 8785   1.231   6.538   1.433
    2PC     C35 8786   1.096   6.484   1.625
    2PC     H5A 8787   1.083   6.469   1.732
    2PC     H5B 8788   1.008   6.435   1.582
    2PC     H5C 8789   1.106   6.590   1.601
    2PC     O33 8790   1.478   5.943   1.498
    2PC     O34 8791   1.277   5.838   1.442
    2PC     O21 8792   1.285   5.760   1.980
    2PC     C21 8793   1.170   5.814   2.023
    2PC     O22 8794   1.061   5.783   1.978
    3OL     C12 8795   1.190   5.925   2.124
    3OL     H2R 8796   1.134   6.010   2.085
    3OL     H2S 8797   1.294   5.959   2.115
    3OL     C13 8798   1.158   5.896   2.271
    3OL     H3R 8799   1.162   5.995   2.317
    3OL     H3S 8800   1.231   5.823   2.307
    3OL     C14 8801   1.013   5.850   2.292
    3OL     H4R 8802   0.996   5.758   2.236
    3OL     H4S 8803   0.945   5.929   2.260
    3OL     C15 8804   1.001   5.836   2.444
    3OL     H5R 8805   1.029   5.926   2.499
    3OL     H5S 8806   1.057   5.747   2.473
    3OL     C16 8807   0.857   5.808   2.489
    3OL     H6R 8808   0.832   5.709   2.450
    3OL     H6S 8809   0.800   5.893   2.449
    3OL     C17 8810   0.825   5.792   2.638
    3OL     H7R 8811   0.904   5.733   2.686
    3OL     H7S 8812   0.732   5.737   2.650
    3OL     C18 8813   0.805   5.933   2.696
    3OL     H8R 8814   0.744   5.995   2.630
    3OL     H8S 8815   0.901   5.984   2.704
    3OL     C19 8816   0.721   5.927   2.822
    3OL     H9R 8817   0.669   5.833   2.837
    3OL    C110 8818   0.699   6.020   2.913
    3OL    H10R 8819   0.643   5.996   3.003
    3OL    C111 8820   0.785   6.143   2.924
    3OL    H11R 8821   0.743   6.229   2.871
    3OL    H11S 8822   0.884   6.124   2.880
    3OL    C112 8823   0.798   6.189   3.070
    3OL    H12R 8824   0.703   6.184   3.122
    3OL    H12S 8825   0.825   6.294   3.063
    3OL    C113 8826   0.903   6.129   3.165
    3OL    H13R 8827   1.003   6.157   3.131
    3OL    H13S 8828   0.898   6.021   3.173
    3OL    C114 8829   0.883   6.178   3.309
    3OL    H14R 8830   0.785   6.142   3.342
    3OL    H14S 8831   0.869   6.286   3.304
    3OL    C115 8832   0.998   6.135   3.402
    3OL    H15R 8833   1.013   6.198   3.490
    3OL    H15S 8834   1.098   6.124   3.360
    3OL    C116 8835   0.964   6.000   3.465
    3OL    H16R 8836   0.951   5.922   3.389
    3OL    H16S 8837   0.868   6.002   3.516
    3OL    C117 8838   1.075   5.962   3.564
    3OL    H17R 8839   1.073   6.023   3.655
    3OL    H17S 8840   1.168   5.974   3.508
    3OL    C118 8841   1.048   5.819   3.612
    3OL    H18R 8842   1.068   5.755   3.526
    3OL    H18S 8843   0.951   5.801   3.658
    3OL    H18T 8844   1.116   5.807   3.698
    1PA    C116 8845   2.661   0.527   3.532
    1PA    H16R 8846   2.677   0.448   3.458
    1PA    H16S 8847   2.558   0.556   3.510
    1PA    H16T 8848   2.662   0.482   3.631
    1PA    C115 8849   2.751   0.650   3.508
    1PA    H15R 8850   2.743   0.703   3.603
    1PA    H15S 8851   2.852   0.609   3.501
    1PA    C114 8852   2.708   0.736   3.389
    1PA    H14R 8853   2.735   0.677   3.301
    1PA    H14S 8854   2.602   0.763   3.395
    1PA    C113 8855   2.800   0.858   3.373
    1PA    H13R 8856   2.797   0.910   3.468
    1PA    H13S 8857   2.900   0.818   3.354
    1PA    C112 8858   2.750   0.953   3.263
    1PA    H12R 8859   2.656   1.001   3.292
    1PA    H12S 8860   2.822   1.034   3.247
    1PA    C111 8861   2.727   0.887   3.127
    1PA    H11R 8862   2.635   0.828   3.120
    1PA    H11S 8863   2.720   0.971   3.057
    1PA    C110 8864   2.846   0.804   3.076
    1PA    H10R 8865   2.935   0.866   3.080
    1PA    H10S 8866   2.861   0.712   3.135
    1PA     C19 8867   2.818   0.755   2.933
    1PA     H9R 8868   2.726   0.698   2.946
    1PA     H9S 8869   2.818   0.845   2.871
    1PA     C18 8870   2.934   0.664   2.890
    1PA     H8R 8871   3.014   0.735   2.869
    1PA     H8S 8872   2.946   0.585   2.965
    1PA     C17 8873   2.909   0.608   2.749
    1PA     H7R 8874   2.827   0.536   2.753
    1PA     H7S 8875   2.876   0.689   2.684
    1PA     C16 8876   3.026   0.532   2.684
    1PA     H6R 8877   3.120   0.582   2.709
    1PA     H6S 8878   3.032   0.427   2.714
    1PA     C15 8879   3.004   0.529   2.532
    1PA     H5R 8880   2.904   0.489   2.511
    1PA     H5S 8881   3.005   0.627   2.485
    1PA     C14 8882   3.102   0.434   2.463
    1PA     H4R 8883   3.203   0.471   2.482
    1PA     H4S 8884   3.089   0.334   2.506
    1PA     C13 8885   3.080   0.412   2.312
    1PA     H3R 8886   3.151   0.342   2.267
    1PA     H3S 8887   2.982   0.370   2.290
    1PA     C12 8888   3.096   0.539   2.228
    1PA     H2R 8889   3.014   0.608   2.250
    1PA     H2S 8890   3.183   0.592   2.268
    2PC     C11 8891   3.116   0.510   2.081
    2PC     O12 8892   3.176   0.590   2.013
    2PC     O11 8893   3.041   0.407   2.038
    2PC      C1 8894   3.065   0.352   1.907
    2PC      HR 8895   3.046   0.423   1.826
    2PC      HS 8896   3.169   0.321   1.901
    2PC      C2 8897   2.990   0.220   1.889
    2PC      HX 8898   3.034   0.153   1.963
    2PC      C3 8899   2.992   0.172   1.743
    2PC      HA 8900   3.098   0.172   1.717
    2PC      HB 8901   2.932   0.081   1.750
    2PC     O31 8902   2.930   0.273   1.661
    2PC     P31 8903   2.958   0.266   1.503
    2PC     O32 8904   2.818   0.215   1.445
    2PC     C31 8905   2.783   0.077   1.466
    2PC     H1A 8906   2.864   0.021   1.420
    2PC     H1B 8907   2.772   0.065   1.575
    2PC     C32 8908   2.654   0.038   1.392
    2PC     H2A 8909   2.601  -0.046   1.435
    2PC     H2B 8910   2.584   0.121   1.403
    2PC     N31 8911   2.665   0.014   1.244
    2PC     C33 8912   2.720   0.131   1.168
    2PC     H3A 8913   2.829   0.121   1.174
    2PC     H3B 8914   2.687   0.126   1.064
    2PC     H3C 8915   2.683   0.223   1.212
    2PC     C34 8916   2.750  -0.106   1.215
    2PC     H4A 8917   2.718  -0.186   1.282
    2PC     H4B 8918   2.715  -0.142   1.117
    2PC     H4C 8919   2.857  -0.088   1.217
    2PC     C35 8920   2.523  -0.009   1.203
    2PC     H5A 8921   2.478  -0.100   1.245
    2PC     H5B 8922   2.531  -0.020   1.095
    2PC     H5C 8923   2.470   0.081   1.234
    2PC     O33 8924   2.987   0.399   1.445
    2PC     O34 8925   3.075   0.186   1.459
    2PC     O21 8926   2.853   0.248   1.923
    2PC     C21 8927   2.778   0.148   1.975
    2PC     O22 8928   2.811   0.033   1.990
    3OL     C12 8929   2.654   0.204   2.041
    3OL     H2R 8930   2.577   0.130   2.065
    3OL     H2S 8931   2.608   0.275   1.972
    3OL     C13 8932   2.694   0.280   2.168
    3OL     H3R 8933   2.607   0.333   2.208
    3OL     H3S 8934   2.770   0.357   2.155
    3OL     C14 8935   2.738   0.193   2.286
    3OL     H4R 8936   2.844   0.200   2.313
    3OL     H4S 8937   2.724   0.088   2.259
    3OL     C15 8938   2.663   0.227   2.415
    3OL     H5R 8939   2.555   0.219   2.396
    3OL     H5S 8940   2.681   0.332   2.438
    3OL     C16 8941   2.703   0.140   2.534
    3OL     H6R 8942   2.726   0.037   2.503
    3OL     H6S 8943   2.621   0.139   2.606
    3OL     C17 8944   2.825   0.196   2.609
    3OL     H7R 8945   2.790   0.296   2.637
    3OL     H7S 8946   2.903   0.198   2.533
    3OL     C18 8947   2.858   0.120   2.738
    3OL     H8R 8948   2.893   0.019   2.715
    3OL     H8S 8949   2.770   0.098   2.799
    3OL     C19 8950   2.965   0.187   2.820
    3OL     H9R 8951   3.068   0.162   2.797
    3OL    C110 8952   2.951   0.255   2.932
    3OL    H10R 8953   3.038   0.276   2.994
    3OL    C111 8954   2.825   0.302   3.001
    3OL    H11R 8955   2.744   0.231   2.987
    3OL    H11S 8956   2.792   0.402   2.972
    3OL    C112 8957   2.844   0.302   3.153
    3OL    H12R 8958   2.871   0.198   3.170
    3OL    H12S 8959   2.750   0.333   3.199
    3OL    C113 8960   2.959   0.386   3.211
    3OL    H13R 8961   2.918   0.488   3.209
    3OL    H13S 8962   3.052   0.389   3.154
    3OL    C114 8963   2.989   0.363   3.359
    3OL    H14R 8964   2.898   0.365   3.419
    3OL    H14S 8965   3.051   0.445   3.398
    3OL    C115 8966   3.076   0.238   3.382
    3OL    H15R 8967   3.006   0.155   3.372
    3OL    H15S 8968   3.129   0.239   3.478
    3OL    C116 8969   3.191   0.215   3.283
    3OL    H16R 8970   3.251   0.306   3.269
    3OL    H16S 8971   3.146   0.183   3.188
    3OL    C117 8972   3.275   0.096   3.329
    3OL    H17R 8973   3.330   0.061   3.241
    3OL    H17S 8974   3.209   0.015   3.359
    3OL    C118 8975   3.367   0.126   3.448
    3OL    H18R 8976   3.391   0.034   3.503
    3OL    H18S 8977   3.330   0.193   3.526
    3OL    H18T 8978   3.462   0.162   3.408
    1PA    C116 8979   1.974  -0.414   3.530
    1PA    H16R 8980   2.061  -0.447   3.586
    1PA    H16S 8981   1.975  -0.467   3.434
    1PA    H16T 8982   1.886  -0.446   3.587
    1PA    C115 8983   1.987  -0.262   3.512
    1PA    H15R 8984   1.977  -0.205   3.604
    1PA    H15S 8985   2.081  -0.226   3.469
    1PA    C114 8986   1.872  -0.217   3.420
    1PA    H14R 8987   1.889  -0.261   3.322
    1PA    H14S 8988   1.783  -0.263   3.464
    1PA    C113 8989   1.865  -0.065   3.399
    1PA    H13R 8990   1.829  -0.019   3.491
    1PA    H13S 8991   1.966  -0.029   3.380
    1PA    C112 8992   1.767  -0.021   3.289
    1PA    H12R 8993   1.677  -0.081   3.299
    1PA    H12S 8994   1.742   0.084   3.302
    1PA    C111 8995   1.810  -0.035   3.142
    1PA    H11R 8996   1.885   0.042   3.126
    1PA    H11S 8997   1.834  -0.140   3.121
    1PA    C110 8998   1.698   0.009   3.047
    1PA    H10R 8999   1.618  -0.065   3.037
    1PA    H10S 9000   1.655   0.105   3.078
    1PA     C19 9001   1.749   0.028   2.903
    1PA     H9R 9002   1.817   0.114   2.897
    1PA     H9S 9003   1.808  -0.063   2.893
    1PA     C18 9004   1.636   0.018   2.800
    1PA     H8R 9005   1.681  -0.004   2.702
    1PA     H8S 9006   1.559  -0.055   2.826
    1PA     C17 9007   1.560   0.149   2.776
    1PA     H7R 9008   1.508   0.180   2.867
    1PA     H7S 9009   1.634   0.227   2.759
    1PA     C16 9010   1.458   0.138   2.661
    1PA     H6R 9011   1.522   0.111   2.577
    1PA     H6S 9012   1.383   0.063   2.685
    1PA     C15 9013   1.386   0.270   2.634
    1PA     H5R 9014   1.317   0.282   2.717
    1PA     H5S 9015   1.459   0.351   2.621
    1PA     C14 9016   1.308   0.262   2.502
    1PA     H4R 9017   1.375   0.258   2.415
    1PA     H4S 9018   1.243   0.175   2.493
    1PA     C13 9019   1.210   0.380   2.493
    1PA     H3R 9020   1.150   0.386   2.584
    1PA     H3S 9021   1.265   0.473   2.477
    1PA     C12 9022   1.114   0.371   2.373
    1PA     H2R 9023   1.069   0.272   2.364
    1PA     H2S 9024   1.028   0.435   2.391
    2PC     C11 9025   1.187   0.396   2.243
    2PC     O12 9026   1.199   0.506   2.192
    2PC     O11 9027   1.229   0.278   2.197
    2PC      C1 9028   1.293   0.274   2.068
    2PC      HR 9029   1.301   0.174   2.025
    2PC      HS 9030   1.230   0.333   2.002
    2PC      C2 9031   1.431   0.342   2.073
    2PC      HX 9032   1.418   0.432   2.135
    2PC      C3 9033   1.484   0.386   1.936
    2PC      HA 9034   1.405   0.444   1.889
    2PC      HB 9035   1.577   0.444   1.942
    2PC     O31 9036   1.518   0.276   1.850
    2PC     P31 9037   1.615   0.297   1.724
    2PC     O32 9038   1.744   0.243   1.803
    2PC     C31 9039   1.754   0.107   1.849
    2PC     H1A 9040   1.701   0.101   1.945
    2PC     H1B 9041   1.717   0.039   1.772
    2PC     C32 9042   1.903   0.070   1.864
    2PC     H2A 9043   1.955   0.155   1.908
    2PC     H2B 9044   1.925  -0.017   1.925
    2PC     N31 9045   1.981   0.050   1.737
    2PC     C33 9046   2.127   0.046   1.769
    2PC     H3A 9047   2.139  -0.007   1.864
    2PC     H3B 9048   2.183  -0.007   1.693
    2PC     H3C 9049   2.160   0.150   1.776
    2PC     C34 9050   1.942  -0.085   1.685
    2PC     H4A 9051   2.003  -0.110   1.598
    2PC     H4B 9052   1.956  -0.159   1.764
    2PC     H4C 9053   1.841  -0.089   1.644
    2PC     C35 9054   1.961   0.147   1.624
    2PC     H5A 9055   1.991   0.246   1.659
    2PC     H5B 9056   1.856   0.145   1.595
    2PC     H5C 9057   2.026   0.110   1.544
    2PC     O33 9058   1.585   0.217   1.603
    2PC     O34 9059   1.632   0.440   1.689
    2PC     O21 9060   1.529   0.260   2.138
    2PC     C21 9061   1.651   0.306   2.173
    2PC     O22 9062   1.701   0.413   2.145
    3OL     C12 9063   1.730   0.199   2.245
    3OL     H2R 9064   1.806   0.160   2.177
    3OL     H2S 9065   1.665   0.114   2.270
    3OL     C13 9066   1.784   0.261   2.374
    3OL     H3R 9067   1.710   0.301   2.443
    3OL     H3S 9068   1.847   0.344   2.339
    3OL     C14 9069   1.874   0.158   2.443
    3OL     H4R 9070   1.953   0.118   2.379
    3OL     H4S 9071   1.820   0.068   2.475
    3OL     C15 9072   1.943   0.198   2.574
    3OL     H5R 9073   1.877   0.215   2.659
    3OL     H5S 9074   1.993   0.295   2.567
    3OL     C16 9075   2.049   0.097   2.621
    3OL     H6R 9076   2.127   0.080   2.546
    3OL     H6S 9077   2.008  -0.003   2.633
    3OL     C17 9078   2.112   0.130   2.757
    3OL     H7R 9079   2.027   0.132   2.827
    3OL     H7S 9080   2.148   0.232   2.749
    3OL     C18 9081   2.212   0.020   2.795
    3OL     H8R 9082   2.296   0.013   2.725
    3OL     H8S 9083   2.156  -0.074   2.790
    3OL     C19 9084   2.262   0.047   2.934
    3OL     H9R 9085   2.175   0.068   2.995
    3OL    C110 9086   2.386   0.050   2.981
    3OL    H10R 9087   2.412   0.073   3.084
    3OL    C111 9088   2.510   0.050   2.895
    3OL    H11R 9089   2.584   0.114   2.944
    3OL    H11S 9090   2.485   0.109   2.806
    3OL    C112 9091   2.560  -0.092   2.864
    3OL    H12R 9092   2.652  -0.085   2.806
    3OL    H12S 9093   2.482  -0.138   2.803
    3OL    C113 9094   2.589  -0.176   2.988
    3OL    H13R 9095   2.616  -0.279   2.961
    3OL    H13S 9096   2.501  -0.181   3.053
    3OL    C114 9097   2.709  -0.120   3.066
    3OL    H14R 9098   2.696  -0.018   3.101
    3OL    H14S 9099   2.802  -0.120   3.008
    3OL    C115 9100   2.740  -0.213   3.184
    3OL    H15R 9101   2.771  -0.313   3.153
    3OL    H15S 9102   2.647  -0.214   3.241
    3OL    C116 9103   2.857  -0.156   3.264
    3OL    H16R 9104   2.838  -0.055   3.299
    3OL    H16S 9105   2.944  -0.149   3.199
    3OL    C117 9106   2.885  -0.244   3.387
    3OL    H17R 9107   2.888  -0.345   3.346
    3OL    H17S 9108   2.812  -0.232   3.467
    3OL    C118 9109   3.025  -0.220   3.447
    3OL    H18R 9110   3.018  -0.138   3.518
    3OL    H18S 9111   3.103  -0.196   3.374
    3OL    H18T 9112   3.056  -0.302   3.511
    1PA    C116 9113   0.701   5.800   3.356
    1PA    H16R 9114   0.800   5.765   3.386
    1PA    H16S 9115   0.620   5.746   3.404
    1PA    H16T 9116   0.702   5.905   3.386
    1PA    C115 9117   0.685   5.795   3.203
    1PA    H15R 9118   0.586   5.835   3.185
    1PA    H15S 9119   0.760   5.856   3.152
    1PA    C114 9120   0.680   5.648   3.160
    1PA    H14R 9121   0.776   5.609   3.192
    1PA    H14S 9122   0.602   5.594   3.214
    1PA    C113 9123   0.661   5.630   3.009
    1PA    H13R 9124   0.572   5.684   2.975
    1PA    H13S 9125   0.750   5.677   2.966
    1PA    C112 9126   0.648   5.483   2.967
    1PA    H12R 9127   0.594   5.431   3.046
    1PA    H12S 9128   0.578   5.466   2.885
    1PA    C111 9129   0.786   5.416   2.953
    1PA    H11R 9130   0.849   5.441   3.038
    1PA    H11S 9131   0.777   5.307   2.944
    1PA    C110 9132   0.861   5.464   2.828
    1PA    H10R 9133   0.798   5.438   2.742
    1PA    H10S 9134   0.889   5.569   2.818
    1PA     C19 9135   0.986   5.381   2.798
    1PA     H9R 9136   1.042   5.389   2.892
    1PA     H9S 9137   0.951   5.278   2.800
    1PA     C18 9138   1.069   5.424   2.676
    1PA     H8R 9139   1.098   5.529   2.682
    1PA     H8S 9140   1.156   5.361   2.659
    1PA     C17 9141   0.985   5.408   2.548
    1PA     H7R 9142   0.944   5.307   2.544
    1PA     H7S 9143   0.899   5.474   2.561
    1PA     C16 9144   1.061   5.438   2.418
    1PA     H6R 9145   1.094   5.541   2.417
    1PA     H6S 9146   1.145   5.369   2.408
    1PA     C15 9147   0.975   5.427   2.291
    1PA     H5R 9148   0.922   5.331   2.296
    1PA     H5S 9149   0.895   5.500   2.295
    1PA     C14 9150   1.063   5.445   2.166
    1PA     H4R 9151   1.112   5.543   2.161
    1PA     H4S 9152   1.131   5.359   2.169
    1PA     C13 9153   0.978   5.431   2.040
    1PA     H3R 9154   0.881   5.480   2.051
    1PA     H3S 9155   1.009   5.487   1.951
    1PA     C12 9156   0.963   5.282   2.002
    1PA     H2R 9157   1.063   5.238   2.000
    1PA     H2S 9158   0.913   5.235   2.087
    2PC     C11 9159   0.893   5.264   1.870
    2PC     O12 9160   0.857   5.360   1.807
    2PC     O11 9161   0.884   5.138   1.822
    2PC      C1 9162   0.786   5.114   1.720
    2PC      HR 9163   0.698   5.178   1.715
    2PC      HS 9164   0.831   5.120   1.620
    2PC      C2 9165   0.746   4.966   1.733
    2PC      HX 9166   0.835   4.903   1.731
    2PC      C3 9167   0.651   4.925   1.619
    2PC      HA 9168   0.708   4.917   1.526
    2PC      HB 9169   0.614   4.830   1.657
    2PC     O31 9170   0.544   5.019   1.602
    2PC     P31 9171   0.421   4.966   1.514
    2PC     O32 9172   0.485   4.998   1.370
    2PC     C31 9173   0.493   4.886   1.280
    2PC     H1A 9174   0.543   4.801   1.326
    2PC     H1B 9175   0.396   4.848   1.248
    2PC     C32 9176   0.570   4.920   1.151
    2PC     H2A 9177   0.673   4.955   1.155
    2PC     H2B 9178   0.581   4.823   1.102
    2PC     N31 9179   0.497   5.010   1.056
    2PC     C33 9180   0.359   4.969   1.014
    2PC     H3A 9181   0.294   4.948   1.099
    2PC     H3B 9182   0.303   5.045   0.959
    2PC     H3C 9183   0.371   4.882   0.950
    2PC     C34 9184   0.500   5.150   1.111
    2PC     H4A 9185   0.477   5.218   1.028
    2PC     H4B 9186   0.431   5.156   1.195
    2PC     H4C 9187   0.603   5.162   1.147
    2PC     C35 9188   0.577   5.010   0.930
    2PC     H5A 9189   0.564   5.105   0.877
    2PC     H5B 9190   0.543   4.923   0.875
    2PC     H5C 9191   0.683   5.005   0.957
    2PC     O33 9192   0.382   4.826   1.543
    2PC     O34 9193   0.289   5.027   1.542
    2PC     O21 9194   0.667   4.949   1.851
    2PC     C21 9195   0.680   4.828   1.909
    2PC     O22 9196   0.761   4.743   1.880
    3OL     C12 9197   0.579   4.809   2.020
    3OL     H2R 9198   0.585   4.704   2.049
    3OL     H2S 9199   0.479   4.844   1.994
    3OL     C13 9200   0.622   4.879   2.149
    3OL     H3R 9201   0.568   4.837   2.234
    3OL     H3S 9202   0.727   4.861   2.173
    3OL     C14 9203   0.612   5.032   2.146
    3OL     H4R 9204   0.515   5.065   2.110
    3OL     H4S 9205   0.684   5.067   2.072
    3OL     C15 9206   0.637   5.105   2.279
    3OL     H5R 9207   0.736   5.084   2.320
    3OL     H5S 9208   0.559   5.077   2.350
    3OL     C16 9209   0.616   5.253   2.244
    3OL     H6R 9210   0.514   5.255   2.205
    3OL     H6S 9211   0.686   5.295   2.173
    3OL     C17 9212   0.633   5.329   2.376
    3OL     H7R 9213   0.732   5.317   2.421
    3OL     H7S 9214   0.569   5.284   2.452
    3OL     C18 9215   0.607   5.480   2.368
    3OL     H8R 9216   0.524   5.495   2.299
    3OL     H8S 9217   0.691   5.537   2.326
    3OL     C19 9218   0.582   5.533   2.507
    3OL     H9R 9219   0.644   5.485   2.582
    3OL    C110 9220   0.493   5.623   2.544
    3OL    H10R 9221   0.479   5.639   2.651
    3OL    C111 9222   0.396   5.698   2.456
    3OL    H11R 9223   0.297   5.650   2.459
    3OL    H11S 9224   0.421   5.689   2.350
    3OL    C112 9225   0.378   5.841   2.509
    3OL    H12R 9226   0.305   5.902   2.456
    3OL    H12S 9227   0.462   5.908   2.491
    3OL    C113 9228   0.336   5.859   2.655
    3OL    H13R 9229   0.406   5.805   2.719
    3OL    H13S 9230   0.236   5.818   2.669
    3OL    C114 9231   0.331   6.010   2.684
    3OL    H14R 9232   0.256   6.070   2.632
    3OL    H14S 9233   0.426   6.052   2.652
    3OL    C115 9234   0.326   6.047   2.833
    3OL    H15R 9235   0.392   5.977   2.885
    3OL    H15S 9236   0.225   6.033   2.872
    3OL    C116 9237   0.378   6.189   2.859
    3OL    H16R 9238   0.448   6.216   2.779
    3OL    H16S 9239   0.438   6.201   2.949
    3OL    C117 9240   0.263   6.288   2.882
    3OL    H17R 9241   0.180   6.259   2.816
    3OL    H17S 9242   0.291   6.386   2.844
    3OL    C118 9243   0.216   6.295   3.028
    3OL    H18R 9244   0.200   6.195   3.070
    3OL    H18S 9245   0.131   6.362   3.040
    3OL    H18T 9246   0.288   6.348   3.090
    1PA    C116 9247   0.721   3.614   3.303
    1PA    H16R 9248   0.810   3.673   3.283
    1PA    H16S 9249   0.723   3.559   3.397
    1PA    H16T 9250   0.629   3.672   3.316
    1PA    C115 9251   0.726   3.517   3.184
    1PA    H15R 9252   0.648   3.442   3.197
    1PA    H15S 9253   0.697   3.568   3.092
    1PA    C114 9254   0.864   3.450   3.178
    1PA    H14R 9255   0.948   3.520   3.178
    1PA    H14S 9256   0.881   3.386   3.265
    1PA    C113 9257   0.878   3.368   3.049
    1PA    H13R 9258   0.960   3.300   3.070
    1PA    H13S 9259   0.796   3.296   3.038
    1PA    C112 9260   0.900   3.448   2.920
    1PA    H12R 9261   0.802   3.490   2.894
    1PA    H12S 9262   0.958   3.540   2.935
    1PA    C111 9263   0.930   3.363   2.796
    1PA    H11R 9264   1.032   3.325   2.796
    1PA    H11S 9265   0.865   3.275   2.793
    1PA    C110 9266   0.923   3.454   2.672
    1PA    H10R 9267   0.832   3.514   2.666
    1PA    H10S 9268   1.011   3.518   2.673
    1PA     C19 9269   0.915   3.377   2.540
    1PA     H9R 9270   0.998   3.306   2.543
    1PA     H9S 9271   0.819   3.326   2.530
    1PA     C18 9272   0.950   3.462   2.417
    1PA     H8R 9273   1.039   3.520   2.442
    1PA     H8S 9274   0.972   3.405   2.326
    1PA     C17 9275   0.843   3.566   2.379
    1PA     H7R 9276   0.748   3.526   2.345
    1PA     H7S 9277   0.822   3.627   2.467
    1PA     C16 9278   0.903   3.656   2.270
    1PA     H6R 9279   0.976   3.719   2.320
    1PA     H6S 9280   0.961   3.597   2.198
    1PA     C15 9281   0.792   3.738   2.203
    1PA     H5R 9282   0.698   3.738   2.259
    1PA     H5S 9283   0.820   3.843   2.191
    1PA     C14 9284   0.763   3.679   2.064
    1PA     H4R 9285   0.732   3.574   2.062
    1PA     H4S 9286   0.670   3.729   2.040
    1PA     C13 9287   0.862   3.721   1.955
    1PA     H3R 9288   0.850   3.829   1.945
    1PA     H3S 9289   0.963   3.701   1.991
    1PA     C12 9290   0.830   3.657   1.819
    1PA     H2R 9291   0.856   3.551   1.809
    1PA     H2S 9292   0.724   3.670   1.799
    2PC     C11 9293   0.894   3.738   1.708
    2PC     O12 9294   0.977   3.695   1.631
    2PC     O11 9295   0.836   3.860   1.708
    2PC      C1 9296   0.864   3.943   1.594
    2PC      HR 9297   0.970   3.971   1.592
    2PC      HS 9298   0.841   3.898   1.497
    2PC      C2 9299   0.785   4.069   1.631
    2PC      HX 9300   0.693   4.022   1.667
    2PC      C3 9301   0.749   4.151   1.506
    2PC      HA 9302   0.664   4.107   1.453
    2PC      HB 9303   0.713   4.244   1.550
    2PC     O31 9304   0.868   4.166   1.427
    2PC     P31 9305   0.835   4.232   1.285
    2PC     O32 9306   0.980   4.194   1.230
    2PC     C31 9307   1.011   4.055   1.208
    2PC     H1A 9308   0.971   3.996   1.291
    2PC     H1B 9309   0.958   4.028   1.116
    2PC     C32 9310   1.161   4.038   1.183
    2PC     H2A 9311   1.182   3.932   1.196
    2PC     H2B 9312   1.184   4.070   1.082
    2PC     N31 9313   1.251   4.118   1.273
    2PC     C33 9314   1.390   4.063   1.267
    2PC     H3A 9315   1.420   4.054   1.162
    2PC     H3B 9316   1.463   4.123   1.321
    2PC     H3C 9317   1.380   3.965   1.314
    2PC     C34 9318   1.265   4.259   1.225
    2PC     H4A 9319   1.282   4.256   1.118
    2PC     H4B 9320   1.166   4.297   1.250
    2PC     H4C 9321   1.332   4.315   1.290
    2PC     C35 9322   1.199   4.121   1.414
    2PC     H5A 9323   1.208   4.021   1.456
    2PC     H5B 9324   1.102   4.171   1.414
    2PC     H5C 9325   1.280   4.179   1.461
    2PC     O33 9326   0.729   4.176   1.198
    2PC     O34 9327   0.824   4.379   1.284
    2PC     O21 9328   0.852   4.153   1.727
    2PC     C21 9329   0.786   4.251   1.792
    2PC     O22 9330   0.665   4.257   1.792
    3OL     C12 9331   0.872   4.335   1.882
    3OL     H2R 9332   0.877   4.436   1.840
    3OL     H2S 9333   0.975   4.298   1.873
    3OL     C13 9334   0.825   4.341   2.028
    3OL     H3R 9335   0.828   4.244   2.078
    3OL     H3S 9336   0.720   4.370   2.020
    3OL     C14 9337   0.904   4.442   2.113
    3OL     H4R 9338   0.932   4.531   2.057
    3OL     H4S 9339   0.996   4.399   2.155
    3OL     C15 9340   0.805   4.492   2.219
    3OL     H5R 9341   0.785   4.406   2.283
    3OL     H5S 9342   0.718   4.539   2.173
    3OL     C16 9343   0.873   4.593   2.313
    3OL     H6R 9344   0.919   4.671   2.251
    3OL     H6S 9345   0.956   4.536   2.353
    3OL     C17 9346   0.773   4.649   2.415
    3OL     H7R 9347   0.697   4.699   2.354
    3OL     H7S 9348   0.821   4.715   2.488
    3OL     C18 9349   0.687   4.544   2.486
    3OL     H8R 9350   0.742   4.462   2.531
    3OL     H8S 9351   0.622   4.500   2.410
    3OL     C19 9352   0.620   4.626   2.594
    3OL     H9R 9353   0.549   4.698   2.555
    3OL    C110 9354   0.643   4.631   2.724
    3OL    H10R 9355   0.587   4.699   2.788
    3OL    C111 9356   0.741   4.546   2.800
    3OL    H11R 9357   0.821   4.609   2.840
    3OL    H11S 9358   0.795   4.469   2.744
    3OL    C112 9359   0.663   4.487   2.919
    3OL    H12R 9360   0.729   4.426   2.980
    3OL    H12S 9361   0.581   4.426   2.880
    3OL    C113 9362   0.593   4.590   3.009
    3OL    H13R 9363   0.500   4.629   2.968
    3OL    H13S 9364   0.649   4.679   3.037
    3OL    C114 9365   0.535   4.520   3.133
    3OL    H14R 9366   0.481   4.430   3.104
    3OL    H14S 9367   0.460   4.588   3.175
    3OL    C115 9368   0.651   4.508   3.233
    3OL    H15R 9369   0.742   4.471   3.185
    3OL    H15S 9370   0.614   4.438   3.308
    3OL    C116 9371   0.687   4.636   3.309
    3OL    H16R 9372   0.597   4.667   3.363
    3OL    H16S 9373   0.722   4.713   3.240
    3OL    C117 9374   0.793   4.610   3.417
    3OL    H17R 9375   0.884   4.566   3.377
    3OL    H17S 9376   0.755   4.538   3.490
    3OL    C118 9377   0.828   4.740   3.492
    3OL    H18R 9378   0.742   4.805   3.505
    3OL    H18S 9379   0.896   4.806   3.438
    3OL    H18T 9380   0.874   4.729   3.590
    1PA    C116 9381   3.912   5.976   3.485
    1PA    H16R 9382   3.893   5.905   3.404
    1PA    H16S 9383   4.014   6.013   3.473
    1PA    H16T 9384   3.848   6.063   3.465
    1PA    C115 9385   3.884   5.930   3.629
    1PA    H15R 9386   3.945   5.844   3.656
    1PA    H15S 9387   3.910   6.005   3.705
    1PA    C114 9388   3.739   5.882   3.647
    1PA    H14R 9389   3.710   5.822   3.560
    1PA    H14S 9390   3.721   5.827   3.739
    1PA    C113 9391   3.638   5.997   3.645
    1PA    H13R 9392   3.661   6.062   3.730
    1PA    H13S 9393   3.645   6.054   3.552
    1PA    C112 9394   3.491   5.962   3.673
    1PA    H12R 9395   3.470   5.897   3.759
    1PA    H12S 9396   3.443   6.059   3.688
    1PA    C111 9397   3.429   5.899   3.547
    1PA    H11R 9398   3.430   5.973   3.468
    1PA    H11S 9399   3.482   5.808   3.517
    1PA    C110 9400   3.281   5.863   3.565
    1PA    H10R 9401   3.274   5.794   3.650
    1PA    H10S 9402   3.234   5.955   3.600
    1PA     C19 9403   3.221   5.808   3.435
    1PA     H9R 9404   3.302   5.766   3.375
    1PA     H9S 9405   3.150   5.726   3.448
    1PA     C18 9406   3.154   5.915   3.348
    1PA     H8R 9407   3.051   5.926   3.384
    1PA     H8S 9408   3.213   6.006   3.343
    1PA     C17 9409   3.128   5.867   3.204
    1PA     H7R 9410   3.229   5.856   3.164
    1PA     H7S 9411   3.067   5.777   3.215
    1PA     C16 9412   3.043   5.964   3.121
    1PA     H6R 9413   2.941   5.967   3.159
    1PA     H6S 9414   3.086   6.065   3.122
    1PA     C15 9415   3.041   5.926   2.972
    1PA     H5R 9416   3.139   5.934   2.926
    1PA     H5S 9417   3.005   5.822   2.969
    1PA     C14 9418   2.941   6.021   2.906
    1PA     H4R 9419   2.842   6.009   2.950
    1PA     H4S 9420   2.987   6.117   2.934
    1PA     C13 9421   2.931   6.003   2.754
    1PA     H3R 9422   3.030   6.025   2.714
    1PA     H3S 9423   2.890   5.903   2.744
    1PA     C12 9424   2.843   6.121   2.708
    1PA     H2R 9425   2.747   6.115   2.760
    1PA     H2S 9426   2.893   6.214   2.737
    2PC     C11 9427   2.828   6.132   2.558
    2PC     O12 9428   2.867   6.227   2.493
    2PC     O11 9429   2.754   6.032   2.508
    2PC      C1 9430   2.738   6.023   2.365
    2PC      HR 9431   2.674   5.939   2.335
    2PC      HS 9432   2.701   6.116   2.323
    2PC      C2 9433   2.876   6.006   2.299
    2PC      HX 9434   2.929   6.100   2.315
    2PC      C3 9435   2.862   5.977   2.149
    2PC      HA 9436   2.797   5.890   2.136
    2PC      HB 9437   2.820   6.067   2.102
    2PC     O31 9438   2.993   5.955   2.094
    2PC     P31 9439   3.012   5.958   1.935
    2PC     O32 9440   3.166   5.915   1.945
    2PC     C31 9441   3.255   5.986   1.856
    2PC     H1A 9442   3.213   5.991   1.755
    2PC     H1B 9443   3.277   6.089   1.887
    2PC     C32 9444   3.389   5.911   1.866
    2PC     H2A 9445   3.471   5.979   1.846
    2PC     H2B 9446   3.407   5.873   1.967
    2PC     N31 9447   3.409   5.795   1.774
    2PC     C33 9448   3.546   5.741   1.800
    2PC     H3A 9449   3.546   5.634   1.779
    2PC     H3B 9450   3.627   5.792   1.748
    2PC     H3C 9451   3.567   5.748   1.907
    2PC     C34 9452   3.319   5.680   1.809
    2PC     H4A 9453   3.332   5.605   1.732
    2PC     H4B 9454   3.352   5.640   1.905
    2PC     H4C 9455   3.213   5.708   1.805
    2PC     C35 9456   3.412   5.833   1.629
    2PC     H5A 9457   3.502   5.888   1.601
    2PC     H5B 9458   3.328   5.882   1.580
    2PC     H5C 9459   3.413   5.738   1.575
    2PC     O33 9460   2.919   5.872   1.858
    2PC     O34 9461   2.994   6.095   1.883
    2PC     O21 9462   2.946   5.913   2.384
    2PC     C21 9463   2.908   5.784   2.380
    2PC     O22 9464   2.824   5.728   2.313
    3OL     C12 9465   2.986   5.717   2.491
    3OL     H2R 9466   2.985   5.784   2.578
    3OL     H2S 9467   3.090   5.717   2.458
    3OL     C13 9468   2.936   5.582   2.542
    3OL     H3R 9469   2.953   5.505   2.467
    3OL     H3S 9470   2.828   5.577   2.555
    3OL     C14 9471   3.004   5.537   2.672
    3OL     H4R 9472   2.982   5.599   2.759
    3OL     H4S 9473   3.113   5.542   2.669
    3OL     C15 9474   2.961   5.393   2.707
    3OL     H5R 9475   2.855   5.403   2.730
    3OL     H5S 9476   3.010   5.361   2.800
    3OL     C16 9477   2.973   5.289   2.595
    3OL     H6R 9478   2.932   5.324   2.500
    3OL     H6S 9479   2.910   5.203   2.619
    3OL     C17 9480   3.117   5.243   2.569
    3OL     H7R 9481   3.183   5.328   2.585
    3OL     H7S 9482   3.123   5.202   2.468
    3OL     C18 9483   3.162   5.135   2.668
    3OL     H8R 9484   3.098   5.047   2.669
    3OL     H8S 9485   3.154   5.178   2.768
    3OL     C19 9486   3.308   5.105   2.642
    3OL     H9R 9487   3.328   5.046   2.552
    3OL    C110 9488   3.405   5.125   2.729
    3OL    H10R 9489   3.507   5.099   2.703
    3OL    C111 9490   3.391   5.188   2.865
    3OL    H11R 9491   3.299   5.245   2.881
    3OL    H11S 9492   3.465   5.267   2.875
    3OL    C112 9493   3.411   5.095   2.986
    3OL    H12R 9494   3.405   5.145   3.084
    3OL    H12S 9495   3.512   5.057   2.971
    3OL    C113 9496   3.300   4.989   2.984
    3OL    H13R 9497   3.293   4.928   2.893
    3OL    H13S 9498   3.211   5.048   3.007
    3OL    C114 9499   3.325   4.888   3.096
    3OL    H14R 9500   3.422   4.838   3.096
    3OL    H14S 9501   3.235   4.826   3.098
    3OL    C115 9502   3.320   4.948   3.237
    3OL    H15R 9503   3.230   5.006   3.258
    3OL    H15S 9504   3.411   5.008   3.242
    3OL    C116 9505   3.331   4.836   3.341
    3OL    H16R 9506   3.426   4.791   3.314
    3OL    H16S 9507   3.247   4.767   3.327
    3OL    C117 9508   3.334   4.881   3.488
    3OL    H17R 9509   3.405   4.963   3.483
    3OL    H17S 9510   3.368   4.797   3.550
    3OL    C118 9511   3.192   4.916   3.536
    3OL    H18R 9512   3.142   4.819   3.529
    3OL    H18S 9513   3.146   4.990   3.471
    3OL    H18T 9514   3.188   4.957   3.637
    1PA    C116 9515   3.531   4.665   3.753
    1PA    H16R 9516   3.478   4.747   3.706
    1PA    H16S 9517   3.636   4.695   3.747
    1PA    H16T 9518   3.504   4.652   3.858
    1PA    C115 9519   3.518   4.531   3.680
    1PA    H15R 9520   3.596   4.478   3.735
    1PA    H15S 9521   3.420   4.485   3.700
    1PA    C114 9522   3.556   4.532   3.531
    1PA    H14R 9523   3.570   4.431   3.493
    1PA    H14S 9524   3.471   4.576   3.478
    1PA    C113 9525   3.678   4.614   3.485
    1PA    H13R 9526   3.664   4.711   3.532
    1PA    H13S 9527   3.767   4.566   3.526
    1PA    C112 9528   3.697   4.607   3.333
    1PA    H12R 9529   3.733   4.510   3.299
    1PA    H12S 9530   3.603   4.627   3.281
    1PA    C111 9531   3.793   4.715   3.280
    1PA    H11R 9532   3.757   4.812   3.317
    1PA    H11S 9533   3.888   4.697   3.330
    1PA    C110 9534   3.798   4.712   3.127
    1PA    H10R 9535   3.835   4.614   3.095
    1PA    H10S 9536   3.700   4.720   3.080
    1PA     C19 9537   3.892   4.819   3.069
    1PA     H9R 9538   3.857   4.922   3.070
    1PA     H9S 9539   3.988   4.810   3.119
    1PA     C18 9540   3.921   4.788   2.921
    1PA     H8R 9541   4.013   4.840   2.893
    1PA     H8S 9542   3.941   4.681   2.905
    1PA     C17 9543   3.801   4.822   2.833
    1PA     H7R 9544   3.705   4.796   2.880
    1PA     H7S 9545   3.789   4.930   2.834
    1PA     C16 9546   3.823   4.778   2.688
    1PA     H6R 9547   3.914   4.822   2.645
    1PA     H6S 9548   3.829   4.670   2.678
    1PA     C15 9549   3.705   4.830   2.605
    1PA     H5R 9550   3.610   4.785   2.632
    1PA     H5S 9551   3.698   4.939   2.615
    1PA     C14 9552   3.741   4.791   2.461
    1PA     H4R 9553   3.842   4.822   2.432
    1PA     H4S 9554   3.730   4.683   2.454
    1PA     C13 9555   3.626   4.846   2.375
    1PA     H3R 9556   3.545   4.787   2.418
    1PA     H3S 9557   3.607   4.952   2.396
    1PA     C12 9558   3.660   4.832   2.226
    1PA     H2R 9559   3.745   4.897   2.206
    1PA     H2S 9560   3.694   4.731   2.201
    2PC     C11 9561   3.547   4.873   2.136
    2PC     O12 9562   3.436   4.822   2.134
    2PC     O11 9563   3.576   4.968   2.046
    2PC      C1 9564   3.486   5.009   1.941
    2PC      HR 9565   3.538   5.075   1.871
    2PC      HS 9566   3.448   4.926   1.881
    2PC      C2 9567   3.368   5.087   2.002
    2PC      HX 9568   3.306   5.016   2.056
    2PC      C3 9569   3.280   5.131   1.884
    2PC      HA 9570   3.234   5.044   1.836
    2PC      HB 9571   3.203   5.199   1.921
    2PC     O31 9572   3.369   5.190   1.787
    2PC     P31 9573   3.311   5.244   1.648
    2PC     O32 9574   3.240   5.112   1.590
    2PC     C31 9575   3.318   5.010   1.526
    2PC     H1A 9576   3.386   5.047   1.449
    2PC     H1B 9577   3.376   4.968   1.609
    2PC     C32 9578   3.225   4.895   1.483
    2PC     H2A 9579   3.286   4.809   1.456
    2PC     H2B 9580   3.169   4.880   1.575
    2PC     N31 9581   3.128   4.906   1.369
    2PC     C33 9582   3.043   5.030   1.373
    2PC     H3A 9583   3.109   5.115   1.390
    2PC     H3B 9584   2.983   5.040   1.282
    2PC     H3C 9585   2.972   5.029   1.455
    2PC     C34 9586   3.216   4.920   1.249
    2PC     H4A 9587   3.278   4.833   1.226
    2PC     H4B 9588   3.162   4.956   1.162
    2PC     H4C 9589   3.277   5.006   1.277
    2PC     C35 9590   3.037   4.787   1.355
    2PC     H5A 9591   2.948   4.816   1.410
    2PC     H5B 9592   3.076   4.705   1.415
    2PC     H5C 9593   3.007   4.765   1.253
    2PC     O33 9594   3.231   5.369   1.641
    2PC     O34 9595   3.423   5.286   1.560
    2PC     O21 9596   3.408   5.208   2.068
    2PC     C21 9597   3.454   5.202   2.194
    2PC     O22 9598   3.470   5.106   2.267
    3OL     C12 9599   3.482   5.345   2.233
    3OL     H2R 9600   3.398   5.403   2.193
    3OL     H2S 9601   3.566   5.380   2.173
    3OL     C13 9602   3.492   5.356   2.386
    3OL     H3R 9603   3.538   5.265   2.424
    3OL     H3S 9604   3.393   5.347   2.430
    3OL     C14 9605   3.546   5.495   2.423
    3OL     H4R 9606   3.491   5.579   2.380
    3OL     H4S 9607   3.645   5.497   2.378
    3OL     C15 9608   3.554   5.524   2.574
    3OL     H5R 9609   3.461   5.502   2.626
    3OL     H5S 9610   3.580   5.630   2.584
    3OL     C16 9611   3.671   5.448   2.637
    3OL     H6R 9612   3.764   5.476   2.586
    3OL     H6S 9613   3.658   5.341   2.620
    3OL     C17 9614   3.693   5.471   2.787
    3OL     H7R 9615   3.601   5.448   2.840
    3OL     H7S 9616   3.716   5.577   2.805
    3OL     C18 9617   3.814   5.401   2.852
    3OL     H8R 9618   3.838   5.455   2.944
    3OL     H8S 9619   3.907   5.399   2.795
    3OL     C19 9620   3.771   5.260   2.881
    3OL     H9R 9621   3.763   5.200   2.791
    3OL    C110 9622   3.755   5.206   3.001
    3OL    H10R 9623   3.709   5.107   3.004
    3OL    C111 9624   3.777   5.270   3.136
    3OL    H11R 9625   3.691   5.331   3.163
    3OL    H11S 9626   3.864   5.335   3.145
    3OL    C112 9627   3.774   5.156   3.239
    3OL    H12R 9628   3.871   5.108   3.222
    3OL    H12S 9629   3.691   5.092   3.210
    3OL    C113 9630   3.760   5.211   3.381
    3OL    H13R 9631   3.680   5.285   3.382
    3OL    H13S 9632   3.846   5.271   3.412
    3OL    C114 9633   3.731   5.095   3.476
    3OL    H14R 9634   3.800   5.012   3.458
    3OL    H14S 9635   3.634   5.048   3.454
    3OL    C115 9636   3.710   5.140   3.622
    3OL    H15R 9637   3.627   5.211   3.627
    3OL    H15S 9638   3.802   5.191   3.653
    3OL    C116 9639   3.682   5.024   3.718
    3OL    H16R 9640   3.744   4.941   3.686
    3OL    H16S 9641   3.577   4.992   3.719
    3OL    C117 9642   3.713   5.061   3.864
    3OL    H17R 9643   3.653   5.150   3.887
    3OL    H17S 9644   3.819   5.086   3.869
    3OL    C118 9645   3.691   4.943   3.961
    3OL    H18R 9646   3.584   4.920   3.964
    3OL    H18S 9647   3.733   4.980   4.055
    3OL    H18T 9648   3.731   4.847   3.930
    1PA    C116 9649   1.183   0.483   3.514
    1PA    H16R 9650   1.100   0.424   3.554
    1PA    H16S 9651   1.162   0.483   3.407
    1PA    H16T 9652   1.182   0.580   3.563
    1PA    C115 9653   1.313   0.403   3.532
    1PA    H15R 9654   1.323   0.352   3.628
    1PA    H15S 9655   1.310   0.318   3.464
    1PA    C114 9656   1.436   0.491   3.509
    1PA    H14R 9657   1.430   0.529   3.407
    1PA    H14S 9658   1.435   0.580   3.572
    1PA    C113 9659   1.554   0.401   3.547
    1PA    H13R 9660   1.528   0.353   3.641
    1PA    H13S 9661   1.562   0.320   3.474
    1PA    C112 9662   1.687   0.479   3.547
    1PA    H12R 9663   1.680   0.565   3.614
    1PA    H12S 9664   1.759   0.406   3.586
    1PA    C111 9665   1.726   0.539   3.412
    1PA    H11R 9666   1.659   0.614   3.370
    1PA    H11S 9667   1.826   0.581   3.428
    1PA    C110 9668   1.750   0.440   3.297
    1PA    H10R 9669   1.832   0.374   3.325
    1PA    H10S 9670   1.661   0.377   3.289
    1PA     C19 9671   1.786   0.495   3.158
    1PA     H9R 9672   1.791   0.410   3.090
    1PA     H9S 9673   1.708   0.563   3.122
    1PA     C18 9674   1.918   0.572   3.155
    1PA     H8R 9675   1.922   0.648   3.234
    1PA     H8S 9676   1.995   0.498   3.180
    1PA     C17 9677   1.946   0.644   3.022
    1PA     H7R 9678   1.887   0.735   3.010
    1PA     H7S 9679   2.047   0.685   3.030
    1PA     C16 9680   1.945   0.548   2.902
    1PA     H6R 9681   2.027   0.556   2.830
    1PA     H6S 9682   1.959   0.447   2.939
    1PA     C15 9683   1.812   0.556   2.825
    1PA     H5R 9684   1.813   0.466   2.763
    1PA     H5S 9685   1.722   0.553   2.886
    1PA     C14 9686   1.801   0.680   2.736
    1PA     H4R 9687   1.781   0.765   2.801
    1PA     H4S 9688   1.890   0.702   2.677
    1PA     C13 9689   1.681   0.678   2.640
    1PA     H3R 9690   1.589   0.635   2.682
    1PA     H3S 9691   1.638   0.774   2.611
    1PA     C12 9692   1.725   0.611   2.509
    1PA     H2R 9693   1.813   0.655   2.462
    1PA     H2S 9694   1.745   0.505   2.525
    2PC     C11 9695   1.615   0.609   2.405
    2PC     O12 9696   1.538   0.516   2.389
    2PC     O11 9697   1.616   0.716   2.325
    2PC      C1 9698   1.550   0.709   2.197
    2PC      HR 9699   1.605   0.770   2.126
    2PC      HS 9700   1.556   0.607   2.160
    2PC      C2 9701   1.406   0.759   2.221
    2PC      HX 9702   1.345   0.696   2.285
    2PC      C3 9703   1.329   0.765   2.089
    2PC      HA 9704   1.339   0.665   2.045
    2PC      HB 9705   1.222   0.788   2.096
    2PC     O31 9706   1.393   0.849   1.992
    2PC     P31 9707   1.366   0.819   1.837
    2PC     O32 9708   1.269   0.938   1.792
    2PC     C31 9709   1.309   1.073   1.825
    2PC     H1A 9710   1.331   1.083   1.932
    2PC     H1B 9711   1.399   1.105   1.773
    2PC     C32 9712   1.193   1.171   1.807
    2PC     H2A 9713   1.099   1.136   1.849
    2PC     H2B 9714   1.221   1.260   1.864
    2PC     N31 9715   1.169   1.231   1.671
    2PC     C33 9716   1.130   1.126   1.572
    2PC     H3A 9717   1.041   1.078   1.614
    2PC     H3B 9718   1.102   1.168   1.475
    2PC     H3C 9719   1.208   1.051   1.560
    2PC     C34 9720   1.052   1.324   1.683
    2PC     H4A 9721   0.968   1.265   1.720
    2PC     H4B 9722   1.068   1.395   1.764
    2PC     H4C 9723   1.023   1.375   1.591
    2PC     C35 9724   1.284   1.306   1.611
    2PC     H5A 9725   1.245   1.369   1.531
    2PC     H5B 9726   1.362   1.242   1.571
    2PC     H5C 9727   1.328   1.365   1.692
    2PC     O33 9728   1.481   0.811   1.744
    2PC     O34 9729   1.297   0.688   1.823
    2PC     O21 9730   1.412   0.888   2.285
    2PC     C21 9731   1.304   0.963   2.312
    2PC     O22 9732   1.188   0.928   2.300
    3OL     C12 9733   1.348   1.098   2.365
    3OL     H2R 9734   1.253   1.152   2.364
    3OL     H2S 9735   1.424   1.148   2.306
    3OL     C13 9736   1.400   1.075   2.507
    3OL     H3R 9737   1.475   0.996   2.498
    3OL     H3S 9738   1.311   1.041   2.561
    3OL     C14 9739   1.459   1.198   2.578
    3OL     H4R 9740   1.522   1.258   2.512
    3OL     H4S 9741   1.528   1.153   2.650
    3OL     C15 9742   1.350   1.284   2.643
    3OL     H5R 9743   1.254   1.239   2.619
    3OL     H5S 9744   1.354   1.383   2.597
    3OL     C16 9745   1.370   1.294   2.795
    3OL     H6R 9746   1.367   1.400   2.822
    3OL     H6S 9747   1.465   1.250   2.824
    3OL     C17 9748   1.270   1.217   2.882
    3OL     H7R 9749   1.170   1.250   2.851
    3OL     H7S 9750   1.286   1.254   2.983
    3OL     C18 9751   1.267   1.063   2.881
    3OL     H8R 9752   1.255   1.034   2.777
    3OL     H8S 9753   1.178   1.034   2.938
    3OL     C19 9754   1.394   1.002   2.935
    3OL     H9R 9755   1.472   0.987   2.860
    3OL    C110 9756   1.426   0.959   3.055
    3OL    H10R 9757   1.523   0.915   3.079
    3OL    C111 9758   1.340   0.975   3.178
    3OL    H11R 9759   1.251   1.034   3.156
    3OL    H11S 9760   1.407   1.030   3.245
    3OL    C112 9761   1.300   0.842   3.243
    3OL    H12R 9762   1.388   0.778   3.250
    3OL    H12S 9763   1.236   0.786   3.174
    3OL    C113 9764   1.232   0.856   3.379
    3OL    H13R 9765   1.270   0.939   3.439
    3OL    H13S 9766   1.258   0.766   3.436
    3OL    C114 9767   1.079   0.861   3.365
    3OL    H14R 9768   1.038   0.777   3.308
    3OL    H14S 9769   1.036   0.950   3.319
    3OL    C115 9770   1.021   0.853   3.507
    3OL    H15R 9771   1.072   0.923   3.574
    3OL    H15S 9772   1.044   0.755   3.551
    3OL    C116 9773   0.868   0.852   3.513
    3OL    H16R 9774   0.831   0.792   3.596
    3OL    H16S 9775   0.843   0.804   3.418
    3OL    C117 9776   0.823   0.999   3.516
    3OL    H17R 9777   0.884   1.063   3.452
    3OL    H17S 9778   0.832   1.033   3.620
    3OL    C118 9779   0.676   1.010   3.475
    3OL    H18R 9780   0.640   1.105   3.514
    3OL    H18S 9781   0.610   0.945   3.532
    3OL    H18T 9782   0.657   1.018   3.368
    1PA    C116 9783   6.708   1.356   3.367
    1PA    H16R 9784   6.652   1.394   3.282
    1PA    H16S 9785   6.786   1.419   3.411
    1PA    H16T 9786   6.634   1.349   3.447
    1PA    C115 9787   6.750   1.209   3.350
    1PA    H15R 9788   6.813   1.176   3.432
    1PA    H15S 9789   6.661   1.146   3.344
    1PA    C114 9790   6.835   1.185   3.224
    1PA    H14R 9791   6.909   1.265   3.216
    1PA    H14S 9792   6.888   1.090   3.236
    1PA    C113 9793   6.746   1.174   3.100
    1PA    H13R 9794   6.683   1.263   3.084
    1PA    H13S 9795   6.805   1.165   3.009
    1PA    C112 9796   6.637   1.066   3.103
    1PA    H12R 9797   6.696   0.976   3.120
    1PA    H12S 9798   6.555   1.093   3.170
    1PA    C111 9799   6.584   1.051   2.960
    1PA    H11R 9800   6.536   1.145   2.932
    1PA    H11S 9801   6.668   1.031   2.893
    1PA    C110 9802   6.489   0.931   2.941
    1PA    H10R 9803   6.537   0.840   2.977
    1PA    H10S 9804   6.401   0.948   3.003
    1PA     C19 9805   6.445   0.910   2.796
    1PA     H9R 9806   6.395   0.999   2.758
    1PA     H9S 9807   6.536   0.882   2.741
    1PA     C18 9808   6.340   0.799   2.782
    1PA     H8R 9809   6.369   0.700   2.819
    1PA     H8S 9810   6.254   0.828   2.843
    1PA     C17 9811   6.295   0.792   2.636
    1PA     H7R 9812   6.382   0.789   2.570
    1PA     H7S 9813   6.250   0.693   2.630
    1PA     C16 9814   6.193   0.898   2.593
    1PA     H6R 9815   6.126   0.906   2.679
    1PA     H6S 9816   6.236   0.994   2.563
    1PA     C15 9817   6.114   0.848   2.471
    1PA     H5R 9818   6.184   0.832   2.390
    1PA     H5S 9819   6.077   0.748   2.494
    1PA     C14 9820   6.012   0.949   2.416
    1PA     H4R 9821   5.936   0.943   2.494
    1PA     H4S 9822   6.056   1.048   2.407
    1PA     C13 9823   5.952   0.900   2.283
    1PA     H3R 9824   6.021   0.868   2.205
    1PA     H3S 9825   5.898   0.807   2.304
    1PA     C12 9826   5.857   1.009   2.232
    1PA     H2R 9827   5.765   1.019   2.289
    1PA     H2S 9828   5.911   1.104   2.230
    2PC     C11 9829   5.815   0.981   2.090
    2PC     O12 9830   5.878   0.909   2.016
    2PC     O11 9831   5.703   1.041   2.046
    2PC      C1 9832   5.662   1.023   1.909
    2PC      HR 9833   5.585   1.098   1.887
    2PC      HS 9834   5.750   1.036   1.845
    2PC      C2 9835   5.609   0.880   1.893
    2PC      HX 9836   5.690   0.806   1.896
    2PC      C3 9837   5.530   0.874   1.762
    2PC      HA 9838   5.440   0.935   1.778
    2PC      HB 9839   5.588   0.924   1.684
    2PC     O31 9840   5.501   0.739   1.722
    2PC     P31 9841   5.605   0.667   1.623
    2PC     O32 9842   5.747   0.720   1.676
    2PC     C31 9843   5.860   0.704   1.588
    2PC     H1A 9844   5.951   0.699   1.649
    2PC     H1B 9845   5.844   0.616   1.526
    2PC     C32 9846   5.857   0.831   1.502
    2PC     H2A 9847   5.768   0.836   1.440
    2PC     H2B 9848   5.850   0.925   1.556
    2PC     N31 9849   5.978   0.856   1.416
    2PC     C33 9850   5.983   0.744   1.317
    2PC     H3A 9851   6.075   0.763   1.261
    2PC     H3B 9852   5.985   0.650   1.372
    2PC     H3C 9853   5.898   0.753   1.249
    2PC     C34 9854   5.956   0.985   1.343
    2PC     H4A 9855   5.965   1.053   1.428
    2PC     H4B 9856   6.032   1.014   1.271
    2PC     H4C 9857   5.853   1.002   1.311
    2PC     C35 9858   6.105   0.865   1.496
    2PC     H5A 9859   6.187   0.898   1.434
    2PC     H5B 9860   6.134   0.774   1.549
    2PC     H5C 9861   6.080   0.947   1.564
    2PC     O33 9862   5.613   0.519   1.621
    2PC     O34 9863   5.582   0.708   1.483
    2PC     O21 9864   5.508   0.854   1.993
    2PC     C21 9865   5.488   0.726   2.028
    2PC     O22 9866   5.563   0.639   1.989
    3OL     C12 9867   5.363   0.715   2.111
    3OL     H2R 9868   5.313   0.619   2.095
    3OL     H2S 9869   5.292   0.792   2.081
    3OL     C13 9870   5.393   0.729   2.261
    3OL     H3R 9871   5.406   0.836   2.278
    3OL     H3S 9872   5.484   0.670   2.276
    3OL     C14 9873   5.283   0.675   2.353
    3OL     H4R 9874   5.320   0.693   2.454
    3OL     H4S 9875   5.266   0.568   2.346
    3OL     C15 9876   5.158   0.765   2.345
    3OL     H5R 9877   5.113   0.763   2.245
    3OL     H5S 9878   5.184   0.869   2.365
    3OL     C16 9879   5.057   0.725   2.453
    3OL     H6R 9880   5.105   0.729   2.552
    3OL     H6S 9881   5.020   0.624   2.435
    3OL     C17 9882   4.933   0.815   2.466
    3OL     H7R 9883   4.877   0.827   2.373
    3OL     H7S 9884   4.959   0.915   2.499
    3OL     C18 9885   4.839   0.759   2.574
    3OL     H8R 9886   4.873   0.782   2.675
    3OL     H8S 9887   4.823   0.653   2.556
    3OL     C19 9888   4.700   0.818   2.581
    3OL     H9R 9889   4.675   0.885   2.663
    3OL    C110 9890   4.591   0.780   2.516
    3OL    H10R 9891   4.499   0.835   2.532
    3OL    C111 9892   4.581   0.685   2.399
    3OL    H11R 9893   4.674   0.659   2.349
    3OL    H11S 9894   4.512   0.726   2.325
    3OL    C112 9895   4.533   0.553   2.460
    3OL    H12R 9896   4.606   0.524   2.537
    3OL    H12S 9897   4.531   0.474   2.385
    3OL    C113 9898   4.391   0.565   2.517
    3OL    H13R 9899   4.320   0.590   2.438
    3OL    H13S 9900   4.381   0.638   2.597
    3OL    C114 9901   4.351   0.428   2.574
    3OL    H14R 9902   4.411   0.391   2.657
    3OL    H14S 9903   4.368   0.361   2.489
    3OL    C115 9904   4.204   0.422   2.619
    3OL    H15R 9905   4.188   0.320   2.654
    3OL    H15S 9906   4.142   0.445   2.533
    3OL    C116 9907   4.168   0.515   2.736
    3OL    H16R 9908   4.202   0.616   2.711
    3OL    H16S 9909   4.228   0.489   2.823
    3OL    C117 9910   4.023   0.528   2.784
    3OL    H17R 9911   3.968   0.553   2.693
    3OL    H17S 9912   4.012   0.619   2.843
    3OL    C118 9913   3.977   0.406   2.865
    3OL    H18R 9914   4.000   0.311   2.816
    3OL    H18S 9915   3.870   0.411   2.885
    3OL    H18T 9916   4.026   0.414   2.962
    1PA    C116 9917   2.620   1.788   3.622
    1PA    H16R 9918   2.685   1.729   3.687
    1PA    H16S 9919   2.577   1.867   3.684
    1PA    H16T 9920   2.679   1.831   3.541
    1PA    C115 9921   2.503   1.708   3.563
    1PA    H15R 9922   2.452   1.651   3.641
    1PA    H15S 9923   2.431   1.785   3.532
    1PA    C114 9924   2.537   1.618   3.444
    1PA    H14R 9925   2.630   1.565   3.467
    1PA    H14S 9926   2.458   1.547   3.417
    1PA    C113 9927   2.570   1.692   3.314
    1PA    H13R 9928   2.619   1.784   3.346
    1PA    H13S 9929   2.648   1.639   3.259
    1PA    C112 9930   2.450   1.715   3.220
    1PA    H12R 9931   2.407   1.619   3.190
    1PA    H12S 9932   2.367   1.766   3.269
    1PA    C111 9933   2.496   1.801   3.101
    1PA    H11R 9934   2.529   1.901   3.129
    1PA    H11S 9935   2.578   1.749   3.052
    1PA    C110 9936   2.380   1.802   3.001
    1PA    H10R 9937   2.365   1.705   2.953
    1PA    H10S 9938   2.284   1.824   3.048
    1PA     C19 9939   2.419   1.902   2.891
    1PA     H9R 9940   2.433   2.003   2.929
    1PA     H9S 9941   2.513   1.882   2.837
    1PA     C18 9942   2.302   1.907   2.791
    1PA     H8R 9943   2.297   1.806   2.750
    1PA     H8S 9944   2.208   1.931   2.841
    1PA     C17 9945   2.331   2.005   2.676
    1PA     H7R 9946   2.325   2.107   2.714
    1PA     H7S 9947   2.422   1.987   2.619
    1PA     C16 9948   2.213   1.982   2.580
    1PA     H6R 9949   2.210   1.877   2.550
    1PA     H6S 9950   2.118   2.015   2.622
    1PA     C15 9951   2.231   2.065   2.452
    1PA     H5R 9952   2.265   2.167   2.471
    1PA     H5S 9953   2.308   2.022   2.388
    1PA     C14 9954   2.098   2.067   2.377
    1PA     H4R 9955   2.067   1.965   2.351
    1PA     H4S 9956   2.014   2.103   2.437
    1PA     C13 9957   2.116   2.147   2.247
    1PA     H3R 9958   2.130   2.252   2.276
    1PA     H3S 9959   2.204   2.113   2.193
    1PA     C12 9960   1.990   2.142   2.160
    1PA     H2R 9961   1.898   2.132   2.219
    1PA     H2S 9962   1.982   2.233   2.101
    2PC     C11 9963   1.993   2.031   2.059
    2PC     O12 9964   1.906   2.026   1.974
    2PC     O11 9965   2.081   1.932   2.082
    2PC      C1 9966   2.076   1.804   2.017
    2PC      HR 9967   1.973   1.770   2.001
    2PC      HS 9968   2.102   1.818   1.911
    2PC      C2 9969   2.172   1.702   2.080
    2PC      HX 9970   2.270   1.751   2.082
    2PC      C3 9971   2.169   1.567   2.007
    2PC      HA 9972   2.200   1.576   1.903
    2PC      HB 9973   2.230   1.491   2.055
    2PC     O31 9974   2.033   1.522   2.000
    2PC     P31 9975   2.002   1.371   1.956
    2PC     O32 9976   2.042   1.284   2.084
    2PC     C31 9977   1.950   1.210   2.167
    2PC     H1A 9978   1.955   1.261   2.264
    2PC     H1B 9979   1.848   1.224   2.131
    2PC     C32 9980   1.995   1.063   2.167
    2PC     H2A 9981   2.096   1.047   2.204
    2PC     H2B 9982   1.926   1.015   2.235
    2PC     N31 9983   1.985   0.988   2.037
    2PC     C33 9984   1.849   1.007   1.978
    2PC     H3A 9985   1.776   1.003   2.059
    2PC     H3B 9986   1.841   1.106   1.934
    2PC     H3C 9987   1.830   0.923   1.911
    2PC     C34 9988   2.098   1.027   1.946
    2PC     H4A 9989   2.100   0.950   1.869
    2PC     H4B 9990   2.092   1.125   1.899
    2PC     H4C 9991   2.191   1.007   2.000
    2PC     C35 9992   1.995   0.844   2.078
    2PC     H5A 9993   1.971   0.780   1.992
    2PC     H5B 9994   1.925   0.821   2.158
    2PC     H5C 9995   2.094   0.808   2.103
    2PC     O33 9996   1.866   1.333   1.909
    2PC     O34 9997   2.076   1.329   1.835
    2PC     O21 9998   2.117   1.692   2.212
    2PC     C21 9999   2.191   1.644   2.313
    2PC     O2210000   2.307   1.613   2.294
    3OL     C1210001   2.114   1.636   2.443
    3OL     H2R10002   2.026   1.573   2.432
    3OL     H2S10003   2.073   1.733   2.471
    3OL     C1310004   2.196   1.584   2.562
    3OL     H3R10005   2.263   1.664   2.594
    3OL     H3S10006   2.260   1.500   2.535
    3OL     C1410007   2.105   1.555   2.683
    3OL     H4R10008   2.019   1.494   2.655
    3OL     H4S10009   2.059   1.651   2.710
    3OL     C1510010   2.171   1.495   2.807
    3OL     H5R10011   2.261   1.552   2.833
    3OL     H5S10012   2.189   1.389   2.790
    3OL     C1610013   2.080   1.502   2.931
    3OL     H6R10014   1.989   1.441   2.923
    3OL     H6S10015   2.049   1.604   2.953
    3OL     C1710016   2.166   1.455   3.049
    3OL     H7R10017   2.240   1.531   3.075
    3OL     H7S10018   2.223   1.364   3.029
    3OL     C1810019   2.078   1.433   3.172
    3OL     H8R10020   1.998   1.361   3.153
    3OL     H8S10021   2.039   1.526   3.214
    3OL     C1910022   2.165   1.365   3.275
    3OL     H9R10023   2.237   1.295   3.234
    3OL    C11010024   2.157   1.382   3.406
    3OL    H10R10025   2.225   1.319   3.463
    3OL    C11110026   2.068   1.484   3.472
    3OL    H11R10027   2.021   1.433   3.557
    3OL    H11S10028   1.989   1.504   3.399
    3OL    C11210029   2.129   1.618   3.516
    3OL    H12R10030   2.141   1.681   3.428
    3OL    H12S10031   2.227   1.597   3.561
    3OL    C11310032   2.048   1.691   3.624
    3OL    H13R10033   2.040   1.640   3.720
    3OL    H13S10034   1.948   1.700   3.580
    3OL    C11410035   2.107   1.830   3.651
    3OL    H14R10036   2.101   1.877   3.553
    3OL    H14S10037   2.208   1.828   3.692
    3OL    C11510038   2.021   1.901   3.757
    3OL    H15R10039   2.023   1.838   3.846
    3OL    H15S10040   1.920   1.904   3.716
    3OL    C11610041   2.075   2.041   3.789
    3OL    H16R10042   2.112   2.100   3.704
    3OL    H16S10043   2.163   2.024   3.850
    3OL    C11710044   1.969   2.115   3.872
    3OL    H17R10045   1.942   2.060   3.963
    3OL    H17S10046   1.886   2.131   3.803
    3OL    C11810047   2.014   2.258   3.904
    3OL    H18R10048   2.100   2.274   3.969
    3OL    H18S10049   2.030   2.314   3.812
    3OL    H18T10050   1.924   2.305   3.944
    1PA    C11610051   3.317   3.784   3.477
    1PA    H16R10052   3.286   3.845   3.391
    1PA    H16S10053   3.418   3.820   3.498
    1PA    H16T10054   3.330   3.677   3.458
    1PA    C11510055   3.228   3.811   3.599
    1PA    H15R10056   3.125   3.806   3.562
    1PA    H15S10057   3.258   3.749   3.683
    1PA    C11410058   3.253   3.953   3.652
    1PA    H14R10059   3.192   3.970   3.741
    1PA    H14S10060   3.358   3.968   3.680
    1PA    C11310061   3.221   4.059   3.545
    1PA    H13R10062   3.304   4.059   3.474
    1PA    H13S10063   3.131   4.028   3.492
    1PA    C11210064   3.197   4.201   3.598
    1PA    H12R10065   3.106   4.199   3.659
    1PA    H12S10066   3.284   4.223   3.661
    1PA    C11110067   3.189   4.312   3.493
    1PA    H11R10068   3.096   4.307   3.438
    1PA    H11S10069   3.180   4.405   3.550
    1PA    C11010070   3.301   4.321   3.388
    1PA    H10R10071   3.390   4.366   3.433
    1PA    H10S10072   3.326   4.222   3.348
    1PA     C1910073   3.255   4.410   3.272
    1PA     H9R10074   3.162   4.375   3.227
    1PA     H9S10075   3.220   4.503   3.318
    1PA     C1810076   3.363   4.431   3.165
    1PA     H8R10077   3.444   4.491   3.207
    1PA     H8S10078   3.382   4.331   3.125
    1PA     C1710079   3.313   4.515   3.046
    1PA     H7R10080   3.217   4.483   3.005
    1PA     H7S10081   3.306   4.613   3.094
    1PA     C1610082   3.419   4.516   2.935
    1PA     H6R10083   3.523   4.530   2.966
    1PA     H6S10084   3.434   4.415   2.896
    1PA     C1510085   3.391   4.618   2.824
    1PA     H5R10086   3.380   4.709   2.882
    1PA     H5S10087   3.484   4.635   2.768
    1PA     C1410088   3.267   4.597   2.736
    1PA     H4R10089   3.296   4.501   2.693
    1PA     H4S10090   3.181   4.574   2.799
    1PA     C1310091   3.238   4.707   2.633
    1PA     H3R10092   3.238   4.802   2.687
    1PA     H3S10093   3.314   4.699   2.556
    1PA     C1210094   3.097   4.689   2.574
    1PA     H2R10095   3.090   4.597   2.517
    1PA     H2S10096   3.036   4.681   2.664
    2PC     C1110097   3.037   4.791   2.480
    2PC     O1210098   3.077   4.796   2.366
    2PC     O1110099   2.934   4.860   2.531
    2PC      C110100   2.862   4.947   2.443
    2PC      HR10101   2.800   5.018   2.498
    2PC      HS10102   2.928   5.006   2.378
    2PC      C210103   2.762   4.863   2.362
    2PC      HX10104   2.816   4.787   2.305
    2PC      C310105   2.688   4.948   2.259
    2PC      HA10106   2.625   5.013   2.322
    2PC      HB10107   2.749   5.016   2.200
    2PC     O3110108   2.607   4.869   2.170
    2PC     P3110109   2.674   4.815   2.035
    2PC     O3210110   2.571   4.867   1.924
    2PC     C3110111   2.430   4.841   1.938
    2PC     H1A10112   2.409   4.734   1.923
    2PC     H1B10113   2.394   4.873   2.036
    2PC     C3210114   2.363   4.920   1.825
    2PC     H2A10115   2.263   4.941   1.862
    2PC     H2B10116   2.419   5.012   1.807
    2PC     N3110117   2.346   4.857   1.689
    2PC     C3310118   2.483   4.828   1.636
    2PC     H3A10119   2.537   4.922   1.627
    2PC     H3B10120   2.536   4.764   1.707
    2PC     H3C10121   2.480   4.778   1.539
    2PC     C3410122   2.270   4.728   1.692
    2PC     H4A10123   2.176   4.755   1.742
    2PC     H4B10124   2.245   4.693   1.592
    2PC     H4C10125   2.326   4.648   1.740
    2PC     C3510126   2.298   4.966   1.598
    2PC     H5A10127   2.193   4.985   1.619
    2PC     H5B10128   2.297   4.938   1.492
    2PC     H5C10129   2.366   5.051   1.601
    2PC     O3310130   2.810   4.869   2.007
    2PC     O3410131   2.682   4.667   2.038
    2PC     O2110132   2.668   4.810   2.458
    2PC     C2110133   2.688   4.693   2.519
    2PC     O2210134   2.789   4.625   2.506
    3OL     C1210135   2.576   4.656   2.613
    3OL     H2R10136   2.612   4.577   2.680
    3OL     H2S10137   2.492   4.627   2.550
    3OL     C1310138   2.534   4.769   2.708
    3OL     H3R10139   2.505   4.860   2.657
    3OL     H3S10140   2.621   4.792   2.770
    3OL     C1410141   2.421   4.718   2.799
    3OL     H4R10142   2.457   4.624   2.842
    3OL     H4S10143   2.334   4.709   2.733
    3OL     C1510144   2.389   4.813   2.915
    3OL     H5R10145   2.352   4.908   2.876
    3OL     H5S10146   2.480   4.841   2.970
    3OL     C1610147   2.285   4.762   3.016
    3OL     H6R10148   2.313   4.660   3.042
    3OL     H6S10149   2.191   4.760   2.962
    3OL     C1710150   2.270   4.850   3.141
    3OL     H7R10151   2.188   4.804   3.197
    3OL     H7S10152   2.234   4.949   3.112
    3OL     C1810153   2.396   4.852   3.228
    3OL     H8R10154   2.357   4.918   3.306
    3OL     H8S10155   2.484   4.892   3.176
    3OL     C1910156   2.424   4.717   3.289
    3OL     H9R10157   2.432   4.635   3.219
    3OL    C11010158   2.438   4.692   3.418
    3OL    H10R10159   2.468   4.595   3.458
    3OL    C11110160   2.423   4.795   3.527
    3OL    H11R10161   2.428   4.897   3.486
    3OL    H11S10162   2.508   4.792   3.596
    3OL    C11210163   2.295   4.773   3.609
    3OL    H12R10164   2.296   4.668   3.641
    3OL    H12S10165   2.206   4.787   3.547
    3OL    C11310166   2.280   4.869   3.727
    3OL    H13R10167   2.256   4.966   3.685
    3OL    H13S10168   2.375   4.872   3.780
    3OL    C11410169   2.158   4.830   3.813
    3OL    H14R10170   2.178   4.741   3.873
    3OL    H14S10171   2.076   4.792   3.753
    3OL    C11510172   2.104   4.938   3.908
    3OL    H15R10173   2.003   4.904   3.933
    3OL    H15S10174   2.098   5.038   3.865
    3OL    C11610175   2.185   4.938   4.039
    3OL    H16R10176   2.205   4.836   4.074
    3OL    H16S10177   2.124   4.985   4.116
    3OL    C11710178   2.320   5.011   4.032
    3OL    H17R10179   2.390   4.948   3.977
    3OL    H17S10180   2.365   5.018   4.131
    3OL    C11810181   2.309   5.156   3.983
    3OL    H18R10182   2.232   5.214   4.035
    3OL    H18S10183   2.293   5.151   3.875
    3OL    H18T10184   2.404   5.202   4.013
    1PA    C11610185  -0.396   4.160   3.530
    1PA    H16R10186  -0.340   4.250   3.504
    1PA    H16S10187  -0.327   4.088   3.574
    1PA    H16T10188  -0.468   4.191   3.606
    1PA    C11510189  -0.461   4.096   3.406
    1PA    H15R10190  -0.508   4.000   3.428
    1PA    H15S10191  -0.546   4.152   3.368
    1PA    C11410192  -0.351   4.076   3.301
    1PA    H14R10193  -0.326   4.174   3.259
    1PA    H14S10194  -0.265   4.038   3.356
    1PA    C11310195  -0.397   3.978   3.192
    1PA    H13R10196  -0.416   3.881   3.238
    1PA    H13S10197  -0.490   4.005   3.141
    1PA    C11210198  -0.283   3.982   3.089
    1PA    H12R10199  -0.259   4.082   3.052
    1PA    H12S10200  -0.191   3.948   3.136
    1PA    C11110201  -0.309   3.888   2.971
    1PA    H11R10202  -0.333   3.788   3.008
    1PA    H11S10203  -0.392   3.921   2.908
    1PA    C11010204  -0.188   3.887   2.877
    1PA    H10R10205  -0.190   3.991   2.844
    1PA    H10S10206  -0.100   3.873   2.941
    1PA     C1910207  -0.220   3.792   2.760
    1PA     H9R10208  -0.231   3.690   2.798
    1PA     H9S10209  -0.311   3.829   2.712
    1PA     C1810210  -0.117   3.807   2.647
    1PA     H8R10211  -0.144   3.782   2.544
    1PA     H8S10212  -0.075   3.908   2.647
    1PA     C1710213  -0.003   3.709   2.679
    1PA     H7R10214   0.023   3.735   2.782
    1PA     H7S10215  -0.027   3.603   2.683
    1PA     C1610216   0.118   3.740   2.590
    1PA     H6R10217   0.144   3.846   2.579
    1PA     H6S10218   0.205   3.691   2.634
    1PA     C1510219   0.095   3.672   2.454
    1PA     H5R10220   0.069   3.568   2.471
    1PA     H5S10221   0.005   3.710   2.407
    1PA     C1410222   0.209   3.690   2.352
    1PA     H4R10223   0.175   3.654   2.255
    1PA     H4S10224   0.229   3.796   2.335
    1PA     C1310225   0.334   3.614   2.398
    1PA     H3R10226   0.382   3.653   2.487
    1PA     H3S10227   0.305   3.514   2.432
    1PA     C1210228   0.439   3.593   2.288
    1PA     H2R10229   0.483   3.676   2.233
    1PA     H2S10230   0.525   3.553   2.343
    2PC     C1110231   0.401   3.473   2.204
    2PC     O1210232   0.406   3.361   2.250
    2PC     O1110233   0.364   3.502   2.078
    2PC      C110234   0.318   3.401   1.986
    2PC      HR10235   0.383   3.314   1.985
    2PC      HS10236   0.221   3.366   2.021
    2PC      C210237   0.306   3.454   1.843
    2PC      HX10238   0.239   3.394   1.781
    2PC      C310239   0.438   3.456   1.764
    2PC      HA10240   0.509   3.515   1.823
    2PC      HB10241   0.471   3.352   1.758
    2PC     O3110242   0.417   3.500   1.629
    2PC     P3110243   0.538   3.541   1.531
    2PC     O3210244   0.491   3.436   1.420
    2PC     C3110245   0.486   3.297   1.456
    2PC     H1A10246   0.555   3.284   1.540
    2PC     H1B10247   0.384   3.280   1.493
    2PC     C3210248   0.500   3.212   1.329
    2PC     H2A10249   0.450   3.118   1.351
    2PC     H2B10250   0.444   3.248   1.243
    2PC     N3110251   0.640   3.194   1.279
    2PC     C3310252   0.696   3.320   1.220
    2PC     H3A10253   0.796   3.298   1.185
    2PC     H3B10254   0.630   3.366   1.146
    2PC     H3C10255   0.698   3.387   1.307
    2PC     C3410256   0.734   3.144   1.385
    2PC     H4A10257   0.829   3.127   1.334
    2PC     H4B10258   0.751   3.221   1.461
    2PC     H4C10259   0.685   3.061   1.436
    2PC     C3510260   0.636   3.087   1.173
    2PC     H5A10261   0.549   3.105   1.109
    2PC     H5B10262   0.623   2.992   1.225
    2PC     H5C10263   0.730   3.098   1.120
    2PC     O3310264   0.535   3.680   1.481
    2PC     O3410265   0.678   3.515   1.574
    2PC     O2110266   0.240   3.581   1.847
    2PC     C2110267   0.106   3.595   1.853
    2PC     O2210268   0.034   3.498   1.842
    3OL     C1210269   0.053   3.734   1.876
    3OL     H2R10270  -0.023   3.748   1.799
    3OL     H2S10271   0.136   3.794   1.839
    3OL     C1310272  -0.003   3.768   2.015
    3OL     H3R10273   0.072   3.754   2.093
    3OL     H3S10274  -0.095   3.711   2.035
    3OL     C1410275  -0.042   3.917   2.020
    3OL     H4R10276  -0.112   3.930   1.937
    3OL     H4S10277   0.042   3.984   2.002
    3OL     C1510278  -0.118   3.972   2.141
    3OL     H5R10279  -0.183   3.899   2.189
    3OL     H5S10280  -0.179   4.058   2.113
    3OL     C1610281  -0.010   4.028   2.235
    3OL     H6R10282   0.051   4.099   2.179
    3OL     H6S10283   0.059   3.955   2.279
    3OL     C1710284  -0.072   4.107   2.351
    3OL     H7R10285  -0.113   4.033   2.420
    3OL     H7S10286  -0.154   4.172   2.322
    3OL     C1810287   0.041   4.167   2.435
    3OL     H8R10288   0.108   4.222   2.367
    3OL     H8S10289   0.098   4.087   2.482
    3OL     C1910290  -0.015   4.266   2.534
    3OL     H9R10291  -0.079   4.350   2.508
    3OL    C11010292  -0.004   4.261   2.666
    3OL    H10R10293  -0.061   4.333   2.725
    3OL    C11110294   0.081   4.163   2.743
    3OL    H11R10295   0.163   4.126   2.682
    3OL    H11S10296   0.017   4.079   2.772
    3OL    C11210297   0.161   4.227   2.858
    3OL    H12R10298   0.222   4.311   2.825
    3OL    H12S10299   0.223   4.145   2.896
    3OL    C11310300   0.066   4.270   2.971
    3OL    H13R10301   0.007   4.183   3.002
    3OL    H13S10302  -0.008   4.335   2.924
    3OL    C11410303   0.133   4.336   3.092
    3OL    H14R10304   0.056   4.398   3.139
    3OL    H14S10305   0.215   4.398   3.056
    3OL    C11510306   0.182   4.235   3.196
    3OL    H15R10307   0.231   4.277   3.285
    3OL    H15S10308   0.248   4.162   3.150
    3OL    C11610309   0.069   4.163   3.271
    3OL    H16R10310   0.008   4.099   3.206
    3OL    H16S10311   0.015   4.246   3.316
    3OL    C11710312   0.125   4.077   3.384
    3OL    H17R10313   0.183   4.138   3.453
    3OL    H17S10314   0.200   4.009   3.342
    3OL    C11810315   0.016   4.008   3.467
    3OL    H18R10316  -0.051   3.942   3.413
    3OL    H18S10317  -0.050   4.084   3.510
    3OL    H18T10318   0.065   3.958   3.551
    1PA    C11610319   1.552   4.737   2.387
    1PA    H16R10320   1.568   4.795   2.296
    1PA    H16S10321   1.600   4.639   2.378
    1PA    H16T10322   1.606   4.788   2.467
    1PA    C11510323   1.402   4.745   2.416
    1PA    H15R10324   1.369   4.849   2.425
    1PA    H15S10325   1.345   4.703   2.332
    1PA    C11410326   1.377   4.671   2.548
    1PA    H14R10327   1.411   4.567   2.544
    1PA    H14S10328   1.419   4.719   2.636
    1PA    C11310329   1.225   4.659   2.560
    1PA    H13R10330   1.197   4.760   2.591
    1PA    H13S10331   1.179   4.635   2.464
    1PA    C11210332   1.178   4.570   2.677
    1PA    H12R10333   1.231   4.600   2.767
    1PA    H12S10334   1.071   4.587   2.695
    1PA    C11110335   1.194   4.423   2.637
    1PA    H11R10336   1.173   4.413   2.530
    1PA    H11S10337   1.300   4.402   2.652
    1PA    C11010338   1.108   4.328   2.723
    1PA    H10R10339   1.144   4.333   2.826
    1PA    H10S10340   1.006   4.364   2.725
    1PA     C1910341   1.109   4.182   2.674
    1PA     H9R10342   1.211   4.145   2.663
    1PA     H9S10343   1.072   4.115   2.752
    1PA     C1810344   1.021   4.158   2.551
    1PA     H8R10345   0.917   4.135   2.579
    1PA     H8S10346   1.025   4.248   2.490
    1PA     C1710347   1.076   4.034   2.479
    1PA     H7R10348   1.184   4.032   2.463
    1PA     H7S10349   1.045   3.953   2.545
    1PA     C1610350   1.012   4.011   2.341
    1PA     H6R10351   0.993   3.905   2.323
    1PA     H6S10352   0.914   4.060   2.335
    1PA     C1510353   1.103   4.065   2.231
    1PA     H5R10354   1.106   4.173   2.216
    1PA     H5S10355   1.205   4.031   2.252
    1PA     C1410356   1.071   4.003   2.094
    1PA     H4R10357   1.062   3.894   2.088
    1PA     H4S10358   0.976   4.045   2.061
    1PA     C1310359   1.170   4.058   1.991
    1PA     H3R10360   1.170   4.167   1.983
    1PA     H3S10361   1.274   4.030   2.010
    1PA     C1210362   1.138   3.993   1.855
    1PA     H2R10363   1.124   3.885   1.868
    1PA     H2S10364   1.048   4.027   1.805
    2PC     C1110365   1.254   4.012   1.761
    2PC     O1210366   1.297   4.118   1.721
    2PC     O1110367   1.294   3.887   1.729
    2PC      C110368   1.402   3.871   1.636
    2PC      HR10369   1.424   3.764   1.620
    2PC      HS10370   1.376   3.916   1.540
    2PC      C210371   1.533   3.934   1.685
    2PC      HX10372   1.509   4.031   1.731
    2PC      C310373   1.635   3.957   1.573
    2PC      HA10374   1.600   4.049   1.524
    2PC      HB10375   1.728   3.983   1.624
    2PC     O3110376   1.641   3.842   1.488
    2PC     P3110377   1.747   3.851   1.368
    2PC     O3210378   1.730   3.718   1.280
    2PC     C3110379   1.599   3.696   1.222
    2PC     H1A10380   1.531   3.697   1.307
    2PC     H1B10381   1.571   3.775   1.152
    2PC     C3210382   1.594   3.562   1.148
    2PC     H2A10383   1.614   3.487   1.226
    2PC     H2B10384   1.493   3.540   1.116
    2PC     N3110385   1.672   3.545   1.021
    2PC     C3310386   1.817   3.574   1.044
    2PC     H3A10387   1.869   3.559   0.949
    2PC     H3B10388   1.835   3.666   1.100
    2PC     H3C10389   1.828   3.495   1.118
    2PC     C3410390   1.654   3.407   0.966
    2PC     H4A10391   1.558   3.393   0.915
    2PC     H4B10392   1.738   3.398   0.897
    2PC     H4C10393   1.661   3.335   1.048
    2PC     C3510394   1.623   3.649   0.925
    2PC     H5A10395   1.681   3.652   0.832
    2PC     H5B10396   1.635   3.746   0.974
    2PC     H5C10397   1.518   3.623   0.907
    2PC     O3310398   1.725   3.970   1.283
    2PC     O3410399   1.886   3.841   1.420
    2PC     O2110400   1.580   3.852   1.794
    2PC     C2110401   1.663   3.899   1.889
    2PC     O2210402   1.703   4.013   1.893
    3OL     C1210403   1.689   3.801   2.001
    3OL     H2R10404   1.756   3.726   1.958
    3OL     H2S10405   1.601   3.738   2.014
    3OL     C1310406   1.736   3.857   2.136
    3OL     H3R10407   1.651   3.919   2.166
    3OL     H3S10408   1.829   3.911   2.116
    3OL     C1410409   1.750   3.753   2.248
    3OL     H4R10410   1.656   3.700   2.260
    3OL     H4S10411   1.766   3.794   2.348
    3OL     C1510412   1.852   3.643   2.213
    3OL     H5R10413   1.944   3.696   2.188
    3OL     H5S10414   1.817   3.584   2.128
    3OL     C1610415   1.879   3.548   2.330
    3OL     H6R10416   1.891   3.613   2.417
    3OL     H6S10417   1.971   3.492   2.316
    3OL     C1710418   1.757   3.461   2.365
    3OL     H7R10419   1.718   3.402   2.282
    3OL     H7S10420   1.677   3.522   2.406
    3OL     C1810421   1.800   3.363   2.476
    3OL     H8R10422   1.896   3.318   2.450
    3OL     H8S10423   1.721   3.289   2.467
    3OL     C1910424   1.804   3.420   2.616
    3OL     H9R10425   1.850   3.517   2.630
    3OL    C11010426   1.736   3.366   2.716
    3OL    H10R10427   1.729   3.413   2.814
    3OL    C11110428   1.678   3.227   2.721
    3OL    H11R10429   1.711   3.174   2.631
    3OL    H11S10430   1.570   3.227   2.703
    3OL    C11210431   1.711   3.157   2.853
    3OL    H12R10432   1.678   3.053   2.850
    3OL    H12S10433   1.653   3.206   2.931
    3OL    C11310434   1.860   3.170   2.890
    3OL    H13R10435   1.881   3.144   2.994
    3OL    H13S10436   1.884   3.276   2.878
    3OL    C11410437   1.944   3.073   2.806
    3OL    H14R10438   1.904   3.055   2.706
    3OL    H14S10439   1.959   2.979   2.859
    3OL    C11510440   2.087   3.129   2.795
    3OL    H15R10441   2.160   3.048   2.791
    3OL    H15S10442   2.108   3.185   2.887
    3OL    C11610443   2.110   3.227   2.680
    3OL    H16R10444   2.037   3.304   2.706
    3OL    H16S10445   2.081   3.177   2.588
    3OL    C11710446   2.251   3.288   2.673
    3OL    H17R10447   2.285   3.321   2.771
    3OL    H17S10448   2.264   3.371   2.603
    3OL    C11810449   2.343   3.179   2.616
    3OL    H18R10450   2.314   3.130   2.523
    3OL    H18S10451   2.363   3.104   2.693
    3OL    H18T10452   2.443   3.219   2.596
    1PA    C11610453   5.756   5.210   3.330
    1PA    H16R10454   5.656   5.183   3.363
    1PA    H16S10455   5.765   5.208   3.221
    1PA    H16T10456   5.768   5.315   3.358
    1PA    C11510457   5.862   5.119   3.394
    1PA    H15R10458   5.951   5.114   3.331
    1PA    H15S10459   5.891   5.170   3.486
    1PA    C11410460   5.804   4.979   3.422
    1PA    H14R10461   5.711   4.983   3.479
    1PA    H14S10462   5.782   4.930   3.327
    1PA    C11310463   5.899   4.882   3.494
    1PA    H13R10464   5.997   4.872   3.448
    1PA    H13S10465   5.911   4.921   3.595
    1PA    C11210466   5.844   4.741   3.517
    1PA    H12R10467   5.893   4.684   3.597
    1PA    H12S10468   5.745   4.763   3.557
    1PA    C11110469   5.828   4.651   3.394
    1PA    H11R10470   5.782   4.557   3.425
    1PA    H11S10471   5.766   4.689   3.313
    1PA    C11010472   5.967   4.609   3.343
    1PA    H10R10473   6.031   4.696   3.328
    1PA    H10S10474   6.015   4.549   3.420
    1PA     C1910475   5.967   4.531   3.211
    1PA     H9R10476   5.903   4.443   3.219
    1PA     H9S10477   5.914   4.591   3.137
    1PA     C1810478   6.108   4.482   3.174
    1PA     H8R10479   6.174   4.569   3.161
    1PA     H8S10480   6.157   4.427   3.255
    1PA     C1710481   6.120   4.404   3.043
    1PA     H7R10482   6.222   4.368   3.022
    1PA     H7S10483   6.045   4.325   3.055
    1PA     C1610484   6.080   4.494   2.925
    1PA     H6R10485   5.992   4.547   2.961
    1PA     H6S10486   6.158   4.569   2.911
    1PA     C1510487   6.059   4.420   2.792
    1PA     H5R10488   6.158   4.412   2.748
    1PA     H5S10489   6.012   4.324   2.818
    1PA     C1410490   5.977   4.508   2.697
    1PA     H4R10491   5.883   4.536   2.744
    1PA     H4S10492   6.030   4.600   2.673
    1PA     C1310493   5.935   4.438   2.566
    1PA     H3R10494   5.889   4.341   2.586
    1PA     H3S10495   5.875   4.506   2.505
    1PA     C1210496   6.059   4.413   2.480
    1PA     H2R10497   6.116   4.506   2.489
    1PA     H2S10498   6.117   4.329   2.517
    2PC     C1110499   6.030   4.376   2.337
    2PC     O1210500   5.921   4.343   2.295
    2PC     O1110501   6.141   4.385   2.261
    2PC      C110502   6.126   4.351   2.122
    2PC      HR10503   6.215   4.301   2.083
    2PC      HS10504   6.048   4.277   2.107
    2PC      C210505   6.105   4.480   2.041
    2PC      HX10506   6.099   4.445   1.937
    2PC      C310507   6.222   4.578   2.054
    2PC      HA10508   6.209   4.626   2.151
    2PC      HB10509   6.316   4.522   2.058
    2PC     O3110510   6.219   4.672   1.946
    2PC     P3110511   6.300   4.641   1.811
    2PC     O3210512   6.191   4.694   1.706
    2PC     C3110513   6.058   4.640   1.707
    2PC     H1A10514   6.056   4.535   1.676
    2PC     H1B10515   6.020   4.651   1.809
    2PC     C3210516   5.982   4.732   1.610
    2PC     H2A10517   5.970   4.830   1.656
    2PC     H2B10518   6.037   4.754   1.518
    2PC     N3110519   5.844   4.698   1.563
    2PC     C3310520   5.779   4.823   1.514
    2PC     H3A10521   5.689   4.803   1.456
    2PC     H3B10522   5.757   4.877   1.607
    2PC     H3C10523   5.850   4.872   1.447
    2PC     C3410524   5.846   4.596   1.453
    2PC     H4A10525   5.926   4.615   1.381
    2PC     H4B10526   5.853   4.497   1.497
    2PC     H4C10527   5.750   4.603   1.401
    2PC     C3510528   5.763   4.646   1.678
    2PC     H5A10529   5.782   4.538   1.678
    2PC     H5B10530   5.657   4.669   1.670
    2PC     H5C10531   5.808   4.682   1.771
    2PC     O3310532   6.425   4.717   1.793
    2PC     O3410533   6.328   4.497   1.788
    2PC     O2110534   5.982   4.542   2.083
    2PC     C2110535   5.877   4.502   2.010
    2PC     O2210536   5.881   4.424   1.916
    3OL     C1210537   5.750   4.555   2.071
    3OL     H2R10538   5.717   4.627   1.995
    3OL     H2S10539   5.755   4.609   2.165
    3OL     C1310540   5.651   4.439   2.091
    3OL     H3R10541   5.687   4.354   2.148
    3OL     H3S10542   5.614   4.399   1.997
    3OL     C1410543   5.525   4.496   2.158
    3OL     H4R10544   5.474   4.547   2.076
    3OL     H4S10545   5.551   4.559   2.244
    3OL     C1510546   5.429   4.386   2.203
    3OL     H5R10547   5.426   4.309   2.126
    3OL     H5S10548   5.330   4.432   2.209
    3OL     C1610549   5.466   4.341   2.345
    3OL     H6R10550   5.573   4.361   2.354
    3OL     H6S10551   5.445   4.234   2.358
    3OL     C1710552   5.395   4.420   2.456
    3OL     H7R10553   5.290   4.392   2.442
    3OL     H7S10554   5.412   4.527   2.442
    3OL     C1810555   5.437   4.369   2.595
    3OL     H8R10556   5.546   4.379   2.590
    3OL     H8S10557   5.413   4.263   2.606
    3OL     C1910558   5.377   4.455   2.703
    3OL     H9R10559   5.269   4.446   2.706
    3OL    C11010560   5.447   4.545   2.770
    3OL    H10R10561   5.388   4.607   2.837
    3OL    C11110562   5.594   4.580   2.775
    3OL    H11R10563   5.654   4.504   2.724
    3OL    H11S10564   5.633   4.565   2.876
    3OL    C11210565   5.625   4.715   2.711
    3OL    H12R10566   5.558   4.703   2.625
    3OL    H12S10567   5.727   4.720   2.673
    3OL    C11310568   5.575   4.833   2.795
    3OL    H13R10569   5.466   4.834   2.809
    3OL    H13S10570   5.587   4.928   2.743
    3OL    C11410571   5.643   4.842   2.933
    3OL    H14R10572   5.626   4.753   2.994
    3OL    H14S10573   5.594   4.929   2.978
    3OL    C11510574   5.791   4.880   2.926
    3OL    H15R10575   5.796   4.978   2.876
    3OL    H15S10576   5.853   4.806   2.875
    3OL    C11610577   5.856   4.882   3.065
    3OL    H16R10578   5.859   4.782   3.107
    3OL    H16S10579   5.796   4.948   3.128
    3OL    C11710580   5.992   4.953   3.056
    3OL    H17R10581   6.026   5.008   3.144
    3OL    H17S10582   5.983   5.028   2.977
    3OL    C11810583   6.103   4.855   3.019
    3OL    H18R10584   6.064   4.794   2.937
    3OL    H18S10585   6.119   4.786   3.102
    3OL    H18T10586   6.201   4.890   2.984
    1PA    C11610587   1.312   5.567   3.409
    1PA    H16R10588   1.332   5.675   3.411
    1PA    H16S10589   1.385   5.520   3.342
    1PA    H16T10590   1.350   5.532   3.505
    1PA    C11510591   1.166   5.534   3.375
    1PA    H15R10592   1.145   5.430   3.349
    1PA    H15S10593   1.100   5.566   3.456
    1PA    C11410594   1.112   5.622   3.262
    1PA    H14R10595   1.004   5.630   3.272
    1PA    H14S10596   1.164   5.718   3.271
    1PA    C11310597   1.148   5.569   3.122
    1PA    H13R10598   1.252   5.534   3.122
    1PA    H13S10599   1.088   5.480   3.101
    1PA    C11210600   1.116   5.669   3.011
    1PA    H12R10601   1.153   5.621   2.920
    1PA    H12S10602   1.007   5.683   3.004
    1PA    C11110603   1.188   5.804   3.023
    1PA    H11R10604   1.149   5.857   3.110
    1PA    H11S10605   1.296   5.798   3.039
    1PA    C11010606   1.177   5.894   2.900
    1PA    H10R10607   1.076   5.899   2.860
    1PA    H10S10608   1.204   5.995   2.933
    1PA     C1910609   1.279   5.847   2.795
    1PA     H9R10610   1.376   5.842   2.844
    1PA     H9S10611   1.264   5.746   2.756
    1PA     C1810612   1.270   5.943   2.675
    1PA     H8R10613   1.271   5.872   2.592
    1PA     H8S10614   1.171   5.987   2.663
    1PA     C1710615   1.382   6.048   2.664
    1PA     H7R10616   1.368   6.113   2.751
    1PA     H7S10617   1.485   6.013   2.668
    1PA     C1610618   1.355   6.113   2.528
    1PA     H6R10619   1.349   6.040   2.446
    1PA     H6S10620   1.258   6.161   2.536
    1PA     C1510621   1.460   6.223   2.510
    1PA     H5R10622   1.457   6.292   2.594
    1PA     H5S10623   1.547   6.157   2.509
    1PA     C1410624   1.459   6.305   2.380
    1PA     H4R10625   1.364   6.360   2.376
    1PA     H4S10626   1.534   6.384   2.386
    1PA     C1310627   1.477   6.226   2.250
    1PA     H3R10628   1.579   6.186   2.248
    1PA     H3S10629   1.410   6.141   2.240
    1PA     C1210630   1.459   6.315   2.126
    1PA     H2R10631   1.358   6.356   2.123
    1PA     H2S10632   1.523   6.402   2.134
    2PC     C1110633   1.468   6.247   1.991
    2PC     O1210634   1.441   6.300   1.885
    2PC     O1110635   1.492   6.115   1.998
    2PC      C110636   1.534   6.048   1.878
    2PC      HR10637   1.521   5.941   1.898
    2PC      HS10638   1.459   6.061   1.799
    2PC      C210639   1.682   6.079   1.847
    2PC      HX10640   1.687   6.183   1.812
    2PC      C310641   1.735   5.985   1.738
    2PC      HA10642   1.738   5.879   1.765
    2PC      HB10643   1.669   5.987   1.651
    2PC     O3110644   1.865   6.033   1.700
    2PC     P3110645   1.935   5.961   1.575
    2PC     O3210646   1.941   5.813   1.636
    2PC     C3110647   1.961   5.703   1.545
    2PC     H1A10648   1.869   5.681   1.489
    2PC     H1B10649   2.042   5.721   1.473
    2PC     C3210650   2.002   5.578   1.623
    2PC     H2A10651   2.102   5.599   1.661
    2PC     H2B10652   1.929   5.563   1.702
    2PC     N3110653   2.011   5.449   1.546
    2PC     C3310654   2.062   5.355   1.652
    2PC     H3A10655   2.156   5.392   1.694
    2PC     H3B10656   1.990   5.344   1.733
    2PC     H3C10657   2.067   5.256   1.607
    2PC     C3410658   1.878   5.393   1.506
    2PC     H4A10659   1.829   5.465   1.440
    2PC     H4B10660   1.882   5.308   1.436
    2PC     H4C10661   1.816   5.374   1.593
    2PC     C3510662   2.108   5.458   1.433
    2PC     H5A10663   2.057   5.517   1.356
    2PC     H5B10664   2.114   5.355   1.399
    2PC     H5C10665   2.210   5.491   1.451
    2PC     O3310666   1.868   5.962   1.443
    2PC     O3410667   2.072   6.017   1.565
    2PC     O2110668   1.763   6.054   1.963
    2PC     C2110669   1.797   6.158   2.041
    2PC     O2210670   1.787   6.276   2.015
    3OL     C1210671   1.858   6.101   2.167
    3OL     H2R10672   1.942   6.038   2.138
    3OL     H2S10673   1.780   6.040   2.213
    3OL     C1310674   1.917   6.211   2.257
    3OL     H3R10675   1.846   6.293   2.261
    3OL     H3S10676   2.008   6.244   2.205
    3OL     C1410677   1.954   6.167   2.400
    3OL     H4R10678   2.026   6.242   2.436
    3OL     H4S10679   2.007   6.072   2.400
    3OL     C1510680   1.838   6.160   2.499
    3OL     H5R10681   1.763   6.091   2.460
    3OL     H5S10682   1.790   6.257   2.509
    3OL     C1610683   1.888   6.104   2.634
    3OL     H6R10684   1.941   6.184   2.686
    3OL     H6S10685   1.964   6.026   2.624
    3OL     C1710686   1.768   6.040   2.704
    3OL     H7R10687   1.746   5.945   2.655
    3OL     H7S10688   1.684   6.106   2.684
    3OL     C1810689   1.798   6.012   2.852
    3OL     H8R10690   1.807   6.110   2.899
    3OL     H8S10691   1.896   5.969   2.875
    3OL     C1910692   1.678   5.932   2.893
    3OL     H9R10693   1.578   5.968   2.869
    3OL    C11010694   1.679   5.821   2.966
    3OL    H10R10695   1.588   5.764   2.983
    3OL    C11110696   1.800   5.762   3.034
    3OL    H11R10697   1.887   5.827   3.050
    3OL    H11S10698   1.833   5.688   2.960
    3OL    C11210699   1.743   5.708   3.165
    3OL    H12R10700   1.667   5.633   3.144
    3OL    H12S10701   1.691   5.789   3.216
    3OL    C11310702   1.852   5.651   3.258
    3OL    H13R10703   1.876   5.730   3.330
    3OL    H13S10704   1.946   5.635   3.204
    3OL    C11410705   1.810   5.519   3.323
    3OL    H14R10706   1.798   5.440   3.248
    3OL    H14S10707   1.712   5.537   3.367
    3OL    C11510708   1.908   5.475   3.432
    3OL    H15R10709   2.009   5.475   3.390
    3OL    H15S10710   1.884   5.378   3.476
    3OL    C11610711   1.908   5.566   3.556
    3OL    H16R10712   1.807   5.558   3.596
    3OL    H16S10713   1.927   5.668   3.522
    3OL    C11710714   2.003   5.522   3.668
    3OL    H17R10715   2.105   5.516   3.631
    3OL    H17S10716   1.966   5.424   3.700
    3OL    C11810717   1.992   5.617   3.787
    3OL    H18R10718   2.019   5.720   3.762
    3OL    H18S10719   2.060   5.586   3.867
    3OL    H18T10720   1.894   5.610   3.835
    1PA    C11610721   1.082   1.284   3.545
    1PA    H16R10722   1.068   1.201   3.615
    1PA    H16S10723   1.018   1.257   3.462
    1PA    H16T10724   1.062   1.382   3.590
    1PA    C11510725   1.227   1.274   3.496
    1PA    H15R10726   1.290   1.310   3.578
    1PA    H15S10727   1.249   1.167   3.486
    1PA    C11410728   1.248   1.356   3.368
    1PA    H14R10729   1.190   1.314   3.286
    1PA    H14S10730   1.208   1.455   3.393
    1PA    C11310731   1.397   1.367   3.336
    1PA    H13R10732   1.456   1.402   3.422
    1PA    H13S10733   1.432   1.264   3.323
    1PA    C11210734   1.419   1.462   3.217
    1PA    H12R10735   1.359   1.442   3.129
    1PA    H12S10736   1.403   1.568   3.239
    1PA    C11110737   1.569   1.460   3.186
    1PA    H11R10738   1.639   1.476   3.269
    1PA    H11S10739   1.591   1.361   3.146
    1PA    C11010740   1.595   1.551   3.065
    1PA    H10R10741   1.557   1.502   2.975
    1PA    H10S10742   1.547   1.648   3.080
    1PA     C1910743   1.746   1.571   3.045
    1PA     H9R10744   1.792   1.635   3.120
    1PA     H9S10745   1.809   1.481   3.047
    1PA     C1810746   1.761   1.650   2.914
    1PA     H8R10747   1.686   1.730   2.912
    1PA     H8S10748   1.858   1.698   2.902
    1PA     C1710749   1.752   1.551   2.797
    1PA     H7R10750   1.836   1.482   2.788
    1PA     H7S10751   1.664   1.488   2.813
    1PA     C1610752   1.738   1.623   2.663
    1PA     H6R10753   1.666   1.705   2.665
    1PA     H6S10754   1.831   1.676   2.640
    1PA     C1510755   1.707   1.532   2.543
    1PA     H5R10756   1.776   1.448   2.555
    1PA     H5S10757   1.604   1.495   2.547
    1PA     C1410758   1.722   1.615   2.416
    1PA     H4R10759   1.639   1.687   2.414
    1PA     H4S10760   1.820   1.662   2.426
    1PA     C1310761   1.709   1.520   2.296
    1PA     H3R10762   1.787   1.443   2.301
    1PA     H3S10763   1.616   1.463   2.292
    1PA     C1210764   1.738   1.580   2.158
    1PA     H2R10765   1.818   1.653   2.168
    1PA     H2S10766   1.784   1.511   2.087
    2PC     C1110767   1.636   1.660   2.081
    2PC     O1210768   1.628   1.659   1.960
    2PC     O1110769   1.575   1.754   2.155
    2PC      C110770   1.487   1.852   2.097
    2PC      HR10771   1.483   1.936   2.166
    2PC      HS10772   1.522   1.880   1.997
    2PC      C210773   1.351   1.782   2.083
    2PC      HX10774   1.370   1.686   2.035
    2PC      C310775   1.257   1.864   1.993
    2PC      HA10776   1.207   1.943   2.049
    2PC      HB10777   1.310   1.900   1.905
    2PC     O3110778   1.156   1.775   1.942
    2PC     P3110779   1.182   1.649   1.845
    2PC     O3210780   1.270   1.700   1.722
    2PC     C3110781   1.195   1.760   1.615
    2PC     H1A10782   1.102   1.707   1.590
    2PC     H1B10783   1.174   1.862   1.647
    2PC     C3210784   1.282   1.761   1.488
    2PC     H2A10785   1.287   1.665   1.436
    2PC     H2B10786   1.237   1.834   1.420
    2PC     N3110787   1.427   1.792   1.506
    2PC     C3310788   1.452   1.920   1.579
    2PC     H3A10789   1.400   1.919   1.675
    2PC     H3B10790   1.560   1.936   1.585
    2PC     H3C10791   1.412   2.005   1.525
    2PC     C3410792   1.502   1.681   1.574
    2PC     H4A10793   1.609   1.699   1.575
    2PC     H4B10794   1.482   1.667   1.681
    2PC     H4C10795   1.475   1.591   1.519
    2PC     C3510796   1.489   1.816   1.371
    2PC     H5A10797   1.501   1.719   1.324
    2PC     H5B10798   1.588   1.860   1.379
    2PC     H5C10799   1.429   1.885   1.312
    2PC     O3310800   1.243   1.522   1.891
    2PC     O3410801   1.043   1.621   1.802
    2PC     O2110802   1.284   1.785   2.210
    2PC     C2110803   1.294   1.676   2.287
    2PC     O2210804   1.327   1.566   2.246
    3OL     C1210805   1.250   1.693   2.430
    3OL     H2R10806   1.279   1.601   2.483
    3OL     H2S10807   1.141   1.700   2.435
    3OL     C1310808   1.321   1.811   2.498
    3OL     H3R10809   1.325   1.894   2.427
    3OL     H3S10810   1.423   1.785   2.529
    3OL     C1410811   1.242   1.853   2.623
    3OL     H4R10812   1.230   1.761   2.681
    3OL     H4S10813   1.143   1.893   2.602
    3OL     C1510814   1.314   1.947   2.721
    3OL     H5R10815   1.311   2.044   2.670
    3OL     H5S10816   1.416   1.911   2.734
    3OL     C1610817   1.232   1.962   2.850
    3OL     H6R10818   1.127   1.957   2.820
    3OL     H6S10819   1.251   2.060   2.894
    3OL     C1710820   1.266   1.851   2.950
    3OL     H7R10821   1.375   1.844   2.960
    3OL     H7S10822   1.244   1.753   2.907
    3OL     C1810823   1.193   1.873   3.084
    3OL     H8R10824   1.200   1.782   3.145
    3OL     H8S10825   1.088   1.894   3.066
    3OL     C1910826   1.260   1.985   3.159
    3OL     H9R10827   1.242   2.086   3.122
    3OL    C11010828   1.354   1.969   3.251
    3OL    H10R10829   1.393   2.055   3.304
    3OL    C11110830   1.411   1.835   3.290
    3OL    H11R10831   1.479   1.787   3.218
    3OL    H11S10832   1.326   1.768   3.304
    3OL    C11210833   1.479   1.844   3.428
    3OL    H12R10834   1.399   1.876   3.495
    3OL    H12S10835   1.564   1.912   3.430
    3OL    C11310836   1.533   1.706   3.466
    3OL    H13R10837   1.603   1.668   3.391
    3OL    H13S10838   1.445   1.642   3.472
    3OL    C11410839   1.612   1.718   3.597
    3OL    H14R10840   1.544   1.749   3.677
    3OL    H14S10841   1.700   1.783   3.593
    3OL    C11510842   1.655   1.580   3.648
    3OL    H15R10843   1.728   1.527   3.585
    3OL    H15S10844   1.563   1.521   3.654
    3OL    C11610845   1.714   1.595   3.788
    3OL    H16R10846   1.637   1.634   3.855
    3OL    H16S10847   1.804   1.658   3.783
    3OL    C11710848   1.762   1.461   3.844
    3OL    H17R10849   1.824   1.485   3.930
    3OL    H17S10850   1.811   1.407   3.762
    3OL    C11810851   1.645   1.375   3.896
    3OL    H18R10852   1.589   1.425   3.976
    3OL    H18S10853   1.682   1.282   3.939
    3OL    H18T10854   1.581   1.342   3.814
    1PA    C11610855  -0.035   4.766   3.249
    1PA    H16R10856  -0.113   4.738   3.177
    1PA    H16S10857  -0.077   4.795   3.345
    1PA    H16T10858   0.027   4.677   3.265
    1PA    C11510859   0.044   4.882   3.186
    1PA    H15R10860  -0.001   4.916   3.092
    1PA    H15S10861   0.027   4.968   3.251
    1PA    C11410862   0.193   4.855   3.162
    1PA    H14R10863   0.238   4.840   3.261
    1PA    H14S10864   0.202   4.764   3.104
    1PA    C11310865   0.267   4.970   3.091
    1PA    H13R10866   0.224   4.993   2.994
    1PA    H13S10867   0.264   5.060   3.153
    1PA    C11210868   0.412   4.928   3.061
    1PA    H12R10869   0.463   4.927   3.158
    1PA    H12S10870   0.417   4.830   3.015
    1PA    C11110871   0.475   5.018   2.954
    1PA    H11R10872   0.411   5.006   2.867
    1PA    H11S10873   0.470   5.124   2.980
    1PA    C11010874   0.614   4.961   2.919
    1PA    H10R10875   0.678   4.981   3.005
    1PA    H10S10876   0.617   4.853   2.901
    1PA     C1910877   0.661   5.038   2.795
    1PA     H9R10878   0.581   5.036   2.721
    1PA     H9S10879   0.676   5.143   2.820
    1PA     C1810880   0.787   4.969   2.742
    1PA     H8R10881   0.860   4.964   2.823
    1PA     H8S10882   0.767   4.864   2.721
    1PA     C1710883   0.842   5.035   2.614
    1PA     H7R10884   0.782   5.018   2.524
    1PA     H7S10885   0.857   5.141   2.635
    1PA     C1610886   0.985   4.989   2.584
    1PA     H6R10887   1.056   5.015   2.663
    1PA     H6S10888   0.994   4.881   2.592
    1PA     C1510889   1.034   5.041   2.448
    1PA     H5R10890   0.957   5.112   2.416
    1PA     H5S10891   1.124   5.103   2.448
    1PA     C1410892   1.034   4.926   2.347
    1PA     H4R10893   1.102   4.854   2.394
    1PA     H4S10894   0.935   4.882   2.343
    1PA     C1310895   1.091   4.960   2.209
    1PA     H3R10896   1.051   5.059   2.184
    1PA     H3S10897   1.200   4.970   2.218
    1PA     C1210898   1.053   4.860   2.100
    1PA     H2R10899   1.083   4.762   2.137
    1PA     H2S10900   0.944   4.857   2.091
    2PC     C1110901   1.118   4.911   1.974
    2PC     O1210902   1.129   5.025   1.934
    2PC     O1110903   1.182   4.813   1.907
    2PC      C110904   1.281   4.843   1.807
    2PC      HR10905   1.307   4.750   1.755
    2PC      HS10906   1.236   4.908   1.732
    2PC      C210907   1.408   4.899   1.871
    2PC      HX10908   1.388   4.942   1.969
    2PC      C310909   1.498   4.991   1.786
    2PC      HA10910   1.457   5.092   1.783
    2PC      HB10911   1.599   4.971   1.823
    2PC     O3110912   1.487   4.936   1.654
    2PC     P3110913   1.559   5.033   1.549
    2PC     O3210914   1.443   5.119   1.480
    2PC     C3110915   1.412   5.094   1.342
    2PC     H1A10916   1.499   5.090   1.275
    2PC     H1B10917   1.348   5.008   1.324
    2PC     C3210918   1.322   5.212   1.303
    2PC     H2A10919   1.286   5.201   1.200
    2PC     H2B10920   1.231   5.212   1.364
    2PC     N3110921   1.365   5.353   1.325
    2PC     C3310922   1.341   5.400   1.465
    2PC     H3A10923   1.399   5.339   1.534
    2PC     H3B10924   1.373   5.504   1.473
    2PC     H3C10925   1.237   5.387   1.495
    2PC     C3410926   1.507   5.377   1.281
    2PC     H4A10927   1.526   5.352   1.177
    2PC     H4B10928   1.510   5.485   1.296
    2PC     H4C10929   1.577   5.325   1.347
    2PC     C3510930   1.282   5.439   1.234
    2PC     H5A10931   1.276   5.545   1.255
    2PC     H5B10932   1.180   5.401   1.228
    2PC     H5C10933   1.317   5.423   1.131
    2PC     O3310934   1.669   5.119   1.598
    2PC     O3410935   1.629   4.956   1.443
    2PC     O2110936   1.495   4.790   1.906
    2PC     C2110937   1.472   4.723   2.019
    2PC     O2210938   1.404   4.757   2.114
    3OL     C1210939   1.540   4.588   2.014
    3OL     H2R10940   1.647   4.588   2.035
    3OL     H2S10941   1.523   4.562   1.910
    3OL     C1310942   1.466   4.490   2.107
    3OL     H3R10943   1.357   4.494   2.094
    3OL     H3S10944   1.491   4.513   2.210
    3OL     C1410945   1.516   4.346   2.093
    3OL     H4R10946   1.624   4.334   2.096
    3OL     H4S10947   1.495   4.308   1.992
    3OL     C1510948   1.453   4.247   2.192
    3OL     H5R10949   1.483   4.143   2.175
    3OL     H5S10950   1.346   4.252   2.173
    3OL     C1610951   1.484   4.282   2.339
    3OL     H6R10952   1.412   4.354   2.377
    3OL     H6S10953   1.586   4.320   2.343
    3OL     C1710954   1.473   4.165   2.437
    3OL     H7R10955   1.521   4.078   2.392
    3OL     H7S10956   1.368   4.142   2.459
    3OL     C1810957   1.546   4.186   2.570
    3OL     H8R10958   1.515   4.283   2.611
    3OL     H8S10959   1.648   4.208   2.536
    3OL     C1910960   1.527   4.067   2.660
    3OL     H9R10961   1.429   4.061   2.707
    3OL    C11010962   1.608   3.965   2.684
    3OL    H10R10963   1.571   3.885   2.747
    3OL    C11110964   1.743   3.944   2.619
    3OL    H11R10965   1.800   4.033   2.646
    3OL    H11S10966   1.733   3.924   2.512
    3OL    C11210967   1.821   3.829   2.686
    3OL    H12R10968   1.917   3.815   2.637
    3OL    H12S10969   1.770   3.733   2.689
    3OL    C11310970   1.867   3.853   2.831
    3OL    H13R10971   1.907   3.758   2.868
    3OL    H13S10972   1.779   3.870   2.894
    3OL    C11410973   1.962   3.971   2.856
    3OL    H14R10974   1.924   4.063   2.812
    3OL    H14S10975   2.052   3.944   2.800
    3OL    C11510976   2.009   4.007   2.997
    3OL    H15R10977   1.924   4.007   3.066
    3OL    H15S10978   2.051   4.106   2.980
    3OL    C11610979   2.119   3.908   3.036
    3OL    H16R10980   2.205   3.907   2.969
    3OL    H16S10981   2.079   3.807   3.041
    3OL    C11710982   2.180   3.956   3.169
    3OL    H17R10983   2.097   3.962   3.240
    3OL    H17S10984   2.223   4.056   3.168
    3OL    C11810985   2.287   3.861   3.224
    3OL    H18R10986   2.382   3.859   3.169
    3OL    H18S10987   2.244   3.760   3.214
    3OL    H18T10988   2.302   3.884   3.329
    1PA    C11610989   2.121  -0.091   3.828
    1PA    H16R10990   2.012  -0.096   3.816
    1PA    H16S10991   2.152  -0.105   3.931
    1PA    H16T10992   2.174  -0.171   3.776
    1PA    C11510993   2.172   0.042   3.769
    1PA    H15R10994   2.124   0.124   3.824
    1PA    H15S10995   2.278   0.051   3.792
    1PA    C11410996   2.142   0.059   3.620
    1PA    H14R10997   2.191  -0.019   3.561
    1PA    H14S10998   2.035   0.061   3.600
    1PA    C11310999   2.203   0.192   3.574
    1PA    H13R11000   2.155   0.270   3.633
    1PA    H13S11001   2.311   0.198   3.594
    1PA    C11211002   2.166   0.218   3.427
    1PA    H12R11003   2.202   0.135   3.365
    1PA    H12S11004   2.058   0.213   3.416
    1PA    C11111005   2.216   0.357   3.388
    1PA    H11R11006   2.133   0.428   3.375
    1PA    H11S11007   2.282   0.398   3.464
    1PA    C11011008   2.302   0.345   3.261
    1PA    H10R11009   2.388   0.278   3.263
    1PA    H10S11010   2.237   0.331   3.175
    1PA     C1911011   2.360   0.486   3.241
    1PA     H9R11012   2.280   0.560   3.223
    1PA     H9S11013   2.412   0.524   3.329
    1PA     C1811014   2.453   0.494   3.119
    1PA     H8R11015   2.505   0.590   3.120
    1PA     H8S11016   2.529   0.415   3.122
    1PA     C1711017   2.374   0.489   2.987
    1PA     H7R11018   2.302   0.407   2.990
    1PA     H7S11019   2.310   0.578   2.984
    1PA     C1611020   2.465   0.469   2.865
    1PA     H6R11021   2.533   0.553   2.849
    1PA     H6S11022   2.519   0.375   2.877
    1PA     C1511023   2.381   0.459   2.737
    1PA     H5R11024   2.343   0.356   2.734
    1PA     H5S11025   2.301   0.534   2.737
    1PA     C1411026   2.471   0.468   2.613
    1PA     H4R11027   2.532   0.558   2.616
    1PA     H4S11028   2.534   0.379   2.616
    1PA     C1311029   2.377   0.467   2.491
    1PA     H3R11030   2.433   0.437   2.402
    1PA     H3S11031   2.302   0.388   2.501
    1PA     C1211032   2.308   0.602   2.474
    1PA     H2R11033   2.260   0.637   2.565
    1PA     H2S11034   2.381   0.673   2.435
    2PC     C1111035   2.197   0.599   2.371
    2PC     O1211036   2.101   0.672   2.385
    2PC     O1111037   2.222   0.528   2.259
    2PC      C111038   2.110   0.506   2.171
    2PC      HR11039   2.049   0.425   2.211
    2PC      HS11040   2.049   0.595   2.158
    2PC      C211041   2.173   0.464   2.038
    2PC      HX11042   2.253   0.531   2.002
    2PC      C311043   2.066   0.456   1.928
    2PC      HA11044   1.978   0.405   1.968
    2PC      HB11045   2.028   0.548   1.884
    2PC     O3111046   2.115   0.372   1.821
    2PC     P3111047   2.204   0.429   1.701
    2PC     O3211048   2.107   0.544   1.643
    2PC     C3111049   1.967   0.524   1.620
    2PC     H1A11050   1.950   0.452   1.539
    2PC     H1B11051   1.910   0.473   1.699
    2PC     C3211052   1.898   0.660   1.599
    2PC     H2A11053   1.790   0.644   1.592
    2PC     H2B11054   1.928   0.727   1.680
    2PC     N3111055   1.926   0.728   1.469
    2PC     C3311056   1.896   0.640   1.351
    2PC     H3A11057   1.978   0.568   1.355
    2PC     H3B11058   1.802   0.590   1.377
    2PC     H3C11059   1.896   0.705   1.264
    2PC     C3411060   1.837   0.847   1.454
    2PC     H4A11061   1.847   0.891   1.355
    2PC     H4B11062   1.736   0.822   1.485
    2PC     H4C11063   1.860   0.923   1.529
    2PC     C3511064   2.070   0.768   1.457
    2PC     H5A11065   2.119   0.674   1.430
    2PC     H5B11066   2.097   0.792   1.560
    2PC     H5C11067   2.086   0.851   1.389
    2PC     O3311068   2.339   0.487   1.721
    2PC     O3411069   2.218   0.341   1.583
    2PC     O2111070   2.241   0.338   2.049
    2PC     C2111071   2.174   0.226   2.083
    2PC     O2211072   2.053   0.216   2.085
    3OL     C1211073   2.268   0.120   2.134
    3OL     H2R11074   2.364   0.135   2.086
    3OL     H2S11075   2.230   0.018   2.129
    3OL     C1311076   2.285   0.150   2.284
    3OL     H3R11077   2.188   0.160   2.332
    3OL     H3S11078   2.321   0.252   2.299
    3OL     C1411079   2.376   0.054   2.362
    3OL     H4R11080   2.389   0.084   2.466
    3OL     H4S11081   2.473   0.035   2.316
    3OL     C1511082   2.321  -0.089   2.367
    3OL     H5R11083   2.299  -0.128   2.268
    3OL     H5S11084   2.233  -0.090   2.431
    3OL     C1611085   2.425  -0.181   2.434
    3OL     H6R11086   2.440  -0.143   2.535
    3OL     H6S11087   2.522  -0.174   2.385
    3OL     C1711088   2.374  -0.325   2.455
    3OL     H7R11089   2.441  -0.381   2.388
    3OL     H7S11090   2.281  -0.335   2.399
    3OL     C1811091   2.356  -0.373   2.599
    3OL     H8R11092   2.453  -0.367   2.648
    3OL     H8S11093   2.310  -0.472   2.592
    3OL     C1911094   2.258  -0.302   2.689
    3OL     H9R11095   2.203  -0.225   2.635
    3OL    C11011096   2.243  -0.324   2.819
    3OL    H10R11097   2.173  -0.262   2.875
    3OL    C11111098   2.318  -0.427   2.899
    3OL    H11R11099   2.362  -0.396   2.994
    3OL    H11S11100   2.405  -0.465   2.844
    3OL    C11211101   2.232  -0.552   2.924
    3OL    H12R11102   2.146  -0.532   2.988
    3OL    H12S11103   2.296  -0.623   2.975
    3OL    C11311104   2.191  -0.636   2.802
    3OL    H13R11105   2.287  -0.664   2.757
    3OL    H13S11106   2.125  -0.583   2.734
    3OL    C11411107   2.117  -0.766   2.838
    3OL    H14R11108   2.041  -0.747   2.914
    3OL    H14S11109   2.188  -0.844   2.865
    3OL    C11511110   2.037  -0.826   2.722
    3OL    H15R11111   1.962  -0.750   2.700
    3OL    H15S11112   1.991  -0.922   2.746
    3OL    C11611113   2.118  -0.862   2.596
    3OL    H16R11114   2.143  -0.969   2.595
    3OL    H16S11115   2.216  -0.817   2.583
    3OL    C11711116   2.035  -0.828   2.472
    3OL    H17R11117   1.927  -0.845   2.460
    3OL    H17S11118   2.081  -0.888   2.394
    3OL    C11811119   2.049  -0.680   2.435
    3OL    H18R11120   2.003  -0.618   2.513
    3OL    H18S11121   2.000  -0.661   2.340
    3OL    H18T11122   2.155  -0.657   2.425
    1PA    C11611123   1.544   5.279   3.539
    1PA    H16R11124   1.637   5.336   3.527
    1PA    H16S11125   1.528   5.262   3.645
    1PA    H16T11126   1.457   5.342   3.518
    1PA    C11511127   1.544   5.144   3.465
    1PA    H15R11128   1.593   5.069   3.526
    1PA    H15S11129   1.444   5.100   3.457
    1PA    C11411130   1.601   5.157   3.323
    1PA    H14R11131   1.708   5.178   3.330
    1PA    H14S11132   1.600   5.058   3.276
    1PA    C11311133   1.500   5.243   3.246
    1PA    H13R11134   1.399   5.202   3.251
    1PA    H13S11135   1.489   5.344   3.286
    1PA    C11211136   1.539   5.251   3.097
    1PA    H12R11137   1.640   5.289   3.082
    1PA    H12S11138   1.531   5.149   3.057
    1PA    C11111139   1.458   5.348   3.011
    1PA    H11R11140   1.362   5.297   2.997
    1PA    H11S11141   1.445   5.437   3.072
    1PA    C11011142   1.521   5.355   2.871
    1PA    H10R11143   1.567   5.260   2.844
    1PA    H10S11144   1.443   5.381   2.799
    1PA     C1911145   1.623   5.470   2.868
    1PA     H9R11146   1.582   5.564   2.907
    1PA     H9S11147   1.715   5.447   2.923
    1PA     C1811148   1.678   5.504   2.729
    1PA     H8R11149   1.763   5.572   2.735
    1PA     H8S11150   1.700   5.410   2.678
    1PA     C1711151   1.571   5.585   2.653
    1PA     H7R11152   1.475   5.534   2.641
    1PA     H7S11153   1.553   5.671   2.717
    1PA     C1611154   1.622   5.625   2.514
    1PA     H6R11155   1.693   5.706   2.532
    1PA     H6S11156   1.663   5.542   2.457
    1PA     C1511157   1.503   5.673   2.429
    1PA     H5R11158   1.433   5.591   2.412
    1PA     H5S11159   1.440   5.740   2.488
    1PA     C1411160   1.542   5.745   2.299
    1PA     H4R11161   1.464   5.729   2.223
    1PA     H4S11162   1.548   5.854   2.303
    1PA     C1311163   1.669   5.689   2.233
    1PA     H3R11164   1.764   5.704   2.285
    1PA     H3S11165   1.653   5.584   2.208
    1PA     C1211166   1.689   5.758   2.098
    1PA     H2R11167   1.595   5.752   2.042
    1PA     H2S11168   1.709   5.865   2.101
    2PC     C1111169   1.804   5.698   2.021
    2PC     O1211170   1.781   5.631   1.922
    2PC     O1111171   1.925   5.750   2.046
    2PC      C111172   2.027   5.709   1.952
    2PC      HR11173   2.047   5.602   1.955
    2PC      HS11174   1.994   5.732   1.851
    2PC      C211175   2.161   5.775   1.987
    2PC      HX11176   2.141   5.880   2.011
    2PC      C311177   2.248   5.765   1.861
    2PC      HA11178   2.196   5.819   1.781
    2PC      HB11179   2.343   5.817   1.877
    2PC     O3111180   2.276   5.627   1.834
    2PC     P3111181   2.378   5.590   1.716
    2PC     O3211182   2.514   5.623   1.794
    2PC     C3111183   2.638   5.591   1.728
    2PC     H1A11184   2.624   5.490   1.689
    2PC     H1B11185   2.660   5.648   1.637
    2PC     C3211186   2.756   5.598   1.825
    2PC     H2A11187   2.836   5.533   1.788
    2PC     H2B11188   2.782   5.704   1.827
    2PC     N3111189   2.741   5.561   1.969
    2PC     C3311190   2.658   5.661   2.042
    2PC     H3A11191   2.652   5.624   2.145
    2PC     H3B11192   2.705   5.759   2.027
    2PC     H3C11193   2.558   5.666   2.000
    2PC     C3411194   2.683   5.424   1.991
    2PC     H4A11195   2.585   5.415   1.944
    2PC     H4B11196   2.759   5.355   1.953
    2PC     H4C11197   2.672   5.399   2.097
    2PC     C3511198   2.881   5.560   2.023
    2PC     H5A11199   2.883   5.557   2.132
    2PC     H5B11200   2.941   5.645   1.990
    2PC     H5C11201   2.929   5.465   1.999
    2PC     O3311202   2.367   5.446   1.684
    2PC     O3411203   2.354   5.682   1.603
    2PC     O2111204   2.218   5.698   2.095
    2PC     C2111205   2.338   5.733   2.143
    2PC     O2211206   2.413   5.822   2.109
    3OL     C1211207   2.386   5.641   2.253
    3OL     H2R11208   2.442   5.557   2.210
    3OL     H2S11209   2.298   5.598   2.299
    3OL     C1311210   2.462   5.719   2.362
    3OL     H3R11211   2.397   5.791   2.412
    3OL     H3S11212   2.554   5.768   2.330
    3OL     C1411213   2.491   5.619   2.475
    3OL     H4R11214   2.568   5.547   2.447
    3OL     H4S11215   2.403   5.557   2.490
    3OL     C1511216   2.539   5.696   2.599
    3OL     H5R11217   2.448   5.750   2.626
    3OL     H5S11218   2.611   5.771   2.564
    3OL     C1611219   2.577   5.615   2.724
    3OL     H6R11220   2.677   5.575   2.710
    3OL     H6S11221   2.525   5.520   2.728
    3OL     C1711222   2.552   5.683   2.859
    3OL     H7R11223   2.540   5.605   2.934
    3OL     H7S11224   2.453   5.728   2.845
    3OL     C1811225   2.663   5.787   2.883
    3OL     H8R11226   2.637   5.879   2.829
    3OL     H8S11227   2.760   5.755   2.844
    3OL     C1911228   2.660   5.823   3.029
    3OL     H9R11229   2.640   5.923   3.066
    3OL    C11011230   2.717   5.750   3.123
    3OL    H10R11231   2.715   5.784   3.227
    3OL    C11111232   2.776   5.613   3.099
    3OL    H11R11233   2.869   5.626   3.044
    3OL    H11S11234   2.714   5.536   3.052
    3OL    C11211235   2.826   5.553   3.231
    3OL    H12R11236   2.757   5.583   3.310
    3OL    H12S11237   2.922   5.598   3.257
    3OL    C11311238   2.839   5.400   3.231
    3OL    H13R11239   2.918   5.358   3.168
    3OL    H13S11240   2.746   5.362   3.189
    3OL    C11411241   2.855   5.356   3.377
    3OL    H14R11242   2.759   5.380   3.424
    3OL    H14S11243   2.935   5.414   3.421
    3OL    C11511244   2.875   5.204   3.386
    3OL    H15R11245   2.935   5.162   3.305
    3OL    H15S11246   2.783   5.148   3.368
    3OL    C11611247   2.931   5.154   3.520
    3OL    H16R11248   3.029   5.202   3.528
    3OL    H16S11249   2.931   5.045   3.530
    3OL    C11711250   2.868   5.215   3.646
    3OL    H17R11251   2.837   5.317   3.624
    3OL    H17S11252   2.940   5.226   3.728
    3OL    C11811253   2.752   5.131   3.701
    3OL    H18R11254   2.733   5.174   3.799
    3OL    H18S11255   2.778   5.026   3.715
    3OL    H18T11256   2.663   5.139   3.639
    1PA    C11611257   4.641   4.926   3.646
    1PA    H16R11258   4.541   4.939   3.688
    1PA    H16S11259   4.670   5.022   3.602
    1PA    H16T11260   4.706   4.894   3.728
    1PA    C11511261   4.654   4.828   3.529
    1PA    H15R11262   4.734   4.856   3.460
    1PA    H15S11263   4.666   4.724   3.562
    1PA    C11411264   4.521   4.827   3.452
    1PA    H14R11265   4.430   4.793   3.502
    1PA    H14S11266   4.497   4.928   3.416
    1PA    C11311267   4.535   4.746   3.323
    1PA    H13R11268   4.628   4.776   3.275
    1PA    H13S11269   4.540   4.639   3.344
    1PA    C11211270   4.420   4.760   3.221
    1PA    H12R11271   4.326   4.718   3.256
    1PA    H12S11272   4.404   4.867   3.207
    1PA    C11111273   4.445   4.695   3.085
    1PA    H11R11274   4.536   4.746   3.052
    1PA    H11S11275   4.463   4.587   3.092
    1PA    C11011276   4.319   4.731   3.005
    1PA    H10R11277   4.233   4.684   3.053
    1PA    H10S11278   4.309   4.838   3.020
    1PA     C1911279   4.309   4.713   2.853
    1PA     H9R11280   4.299   4.608   2.826
    1PA     H9S11281   4.214   4.759   2.824
    1PA     C1811282   4.428   4.776   2.780
    1PA     H8R11283   4.429   4.884   2.793
    1PA     H8S11284   4.527   4.744   2.813
    1PA     C1711285   4.420   4.748   2.629
    1PA     H7R11286   4.506   4.780   2.570
    1PA     H7S11287   4.411   4.641   2.608
    1PA     C1611288   4.306   4.820   2.555
    1PA     H6R11289   4.211   4.788   2.598
    1PA     H6S11290   4.319   4.925   2.580
    1PA     C1511291   4.317   4.786   2.405
    1PA     H5R11292   4.243   4.851   2.359
    1PA     H5S11293   4.413   4.810   2.360
    1PA     C1411294   4.271   4.643   2.373
    1PA     H4R11295   4.329   4.572   2.433
    1PA     H4S11296   4.167   4.627   2.402
    1PA     C1311297   4.282   4.612   2.223
    1PA     H3R11298   4.379   4.628   2.176
    1PA     H3S11299   4.260   4.506   2.211
    1PA     C1211300   4.179   4.698   2.148
    1PA     H2R11301   4.081   4.702   2.197
    1PA     H2S11302   4.213   4.801   2.144
    2PC     C1111303   4.147   4.644   2.010
    2PC     O1211304   4.183   4.539   1.962
    2PC     O1111305   4.053   4.723   1.955
    2PC      C111306   3.984   4.698   1.832
    2PC      HR11307   3.922   4.786   1.812
    2PC      HS11308   4.061   4.694   1.754
    2PC      C211309   3.906   4.566   1.831
    2PC      HX11310   3.962   4.497   1.895
    2PC      C311311   3.906   4.510   1.688
    2PC      HA11312   4.010   4.478   1.672
    2PC      HB11313   3.850   4.417   1.671
    2PC     O3111314   3.858   4.612   1.599
    2PC     P3111315   3.918   4.608   1.451
    2PC     O3211316   3.969   4.755   1.412
    2PC     C3111317   3.868   4.829   1.340
    2PC     H1A11318   3.834   4.779   1.249
    2PC     H1B11319   3.774   4.833   1.396
    2PC     C3211320   3.914   4.971   1.303
    2PC     H2A11321   3.828   5.038   1.292
    2PC     H2B11322   3.965   5.022   1.384
    2PC     N3111323   3.997   4.997   1.181
    2PC     C3311324   4.130   4.928   1.190
    2PC     H3A11325   4.187   4.969   1.273
    2PC     H3B11326   4.110   4.822   1.205
    2PC     H3C11327   4.179   4.954   1.096
    2PC     C3411328   3.914   4.950   1.065
    2PC     H4A11329   3.824   5.011   1.070
    2PC     H4B11330   3.969   4.965   0.971
    2PC     H4C11331   3.893   4.843   1.070
    2PC     C3511332   4.023   5.144   1.171
    2PC     H5A11333   3.926   5.192   1.170
    2PC     H5B11334   4.085   5.167   1.084
    2PC     H5C11335   4.083   5.169   1.258
    2PC     O3311336   4.039   4.527   1.424
    2PC     O3411337   3.839   4.552   1.339
    2PC     O2111338   3.770   4.581   1.878
    2PC     C2111339   3.705   4.475   1.931
    2PC     O2211340   3.742   4.360   1.926
    3OL     C1211341   3.583   4.520   2.006
    3OL     H2R11342   3.500   4.541   1.939
    3OL     H2S11343   3.609   4.620   2.041
    3OL     C1311344   3.547   4.436   2.130
    3OL     H3R11345   3.530   4.333   2.098
    3OL     H3S11346   3.457   4.476   2.177
    3OL     C1411347   3.658   4.422   2.236
    3OL     H4R11348   3.687   4.524   2.259
    3OL     H4S11349   3.746   4.380   2.188
    3OL     C1511350   3.610   4.332   2.351
    3OL     H5R11351   3.585   4.231   2.320
    3OL     H5S11352   3.516   4.365   2.395
    3OL     C1611353   3.723   4.315   2.454
    3OL     H6R11354   3.815   4.368   2.427
    3OL     H6S11355   3.752   4.210   2.458
    3OL     C1711356   3.683   4.354   2.597
    3OL     H7R11357   3.596   4.298   2.631
    3OL     H7S11358   3.664   4.462   2.593
    3OL     C1811359   3.798   4.330   2.696
    3OL     H8R11360   3.877   4.405   2.690
    3OL     H8S11361   3.830   4.226   2.684
    3OL     C1911362   3.754   4.333   2.841
    3OL     H9R11363   3.769   4.433   2.880
    3OL    C11011364   3.712   4.236   2.921
    3OL    H10R11365   3.700   4.260   3.026
    3OL    C11111366   3.695   4.088   2.893
    3OL    H11R11367   3.795   4.051   2.917
    3OL    H11S11368   3.675   4.070   2.787
    3OL    C11211369   3.600   4.020   2.992
    3OL    H12R11370   3.631   4.039   3.095
    3OL    H12S11371   3.594   3.911   2.980
    3OL    C11311372   3.462   4.082   2.969
    3OL    H13R11373   3.419   4.066   2.869
    3OL    H13S11374   3.472   4.191   2.974
    3OL    C11411375   3.366   4.034   3.078
    3OL    H14R11376   3.412   4.060   3.174
    3OL    H14S11377   3.364   3.925   3.075
    3OL    C11511378   3.225   4.091   3.056
    3OL    H15R11379   3.185   4.056   2.960
    3OL    H15S11380   3.228   4.200   3.053
    3OL    C11611381   3.123   4.037   3.159
    3OL    H16R11382   3.162   4.054   3.259
    3OL    H16S11383   3.100   3.932   3.141
    3OL    C11711384   2.989   4.109   3.142
    3OL    H17R11385   2.971   4.131   3.036
    3OL    H17S11386   2.988   4.209   3.185
    3OL    C11811387   2.882   4.014   3.198
    3OL    H18R11388   2.895   3.982   3.302
    3OL    H18S11389   2.886   3.929   3.130
    3OL    H18T11390   2.781   4.056   3.209
    1PA    C11611391   4.065   0.780   3.968
    1PA    H16R11392   4.086   0.871   3.911
    1PA    H16S11393   4.120   0.789   4.062
    1PA    H16T11394   3.959   0.781   3.994
    1PA    C11511395   4.091   0.655   3.883
    1PA    H15R11396   4.195   0.626   3.867
    1PA    H15S11397   4.037   0.566   3.918
    1PA    C11411398   4.044   0.684   3.740
    1PA    H14R11399   3.940   0.715   3.739
    1PA    H14S11400   4.096   0.770   3.696
    1PA    C11311401   4.063   0.562   3.648
    1PA    H13R11402   4.169   0.551   3.627
    1PA    H13S11403   4.030   0.469   3.694
    1PA    C11211404   3.988   0.591   3.517
    1PA    H12R11405   4.000   0.500   3.457
    1PA    H12S11406   3.885   0.605   3.550
    1PA    C11111407   4.036   0.713   3.437
    1PA    H11R11408   4.021   0.800   3.501
    1PA    H11S11409   4.137   0.700   3.398
    1PA    C11011410   3.951   0.729   3.310
    1PA    H10R11411   3.946   0.634   3.257
    1PA    H10S11412   3.849   0.753   3.341
    1PA     C1911413   4.002   0.836   3.213
    1PA     H9R11414   3.982   0.935   3.254
    1PA     H9S11415   4.104   0.824   3.176
    1PA     C1811416   3.921   0.830   3.083
    1PA     H8R11417   3.907   0.725   3.054
    1PA     H8S11418   3.818   0.865   3.093
    1PA     C1711419   3.976   0.931   2.982
    1PA     H7R11420   3.958   1.032   3.020
    1PA     H7S11421   4.084   0.914   2.977
    1PA     C1611422   3.904   0.917   2.847
    1PA     H6R11423   3.906   0.810   2.827
    1PA     H6S11424   3.795   0.931   2.854
    1PA     C1511425   3.973   0.991   2.732
    1PA     H5R11426   3.907   1.023   2.651
    1PA     H5S11427   4.036   1.077   2.757
    1PA     C1411428   4.066   0.896   2.654
    1PA     H4R11429   4.154   0.862   2.708
    1PA     H4S11430   4.017   0.802   2.626
    1PA     C1311431   4.109   0.962   2.523
    1PA     H3R11432   4.142   0.882   2.456
    1PA     H3S11433   4.020   1.013   2.485
    1PA     C1211434   4.220   1.066   2.540
    1PA     H2R11435   4.171   1.147   2.595
    1PA     H2S11436   4.307   1.034   2.597
    2PC     C1111437   4.275   1.116   2.409
    2PC     O1211438   4.213   1.195   2.341
    2PC     O1111439   4.389   1.057   2.370
    2PC      C111440   4.460   1.102   2.253
    2PC      HR11441   4.534   1.027   2.224
    2PC      HS11442   4.393   1.098   2.166
    2PC      C211443   4.506   1.248   2.262
    2PC      HX11444   4.424   1.310   2.301
    2PC      C311445   4.549   1.318   2.132
    2PC      HA11446   4.461   1.365   2.088
    2PC      HB11447   4.620   1.398   2.156
    2PC     O3111448   4.612   1.219   2.048
    2PC     P3111449   4.658   1.262   1.901
    2PC     O3211450   4.809   1.312   1.921
    2PC     C3111451   4.880   1.351   1.802
    2PC     H1A11452   4.821   1.334   1.711
    2PC     H1B11453   4.907   1.456   1.813
    2PC     C3211454   5.012   1.275   1.785
    2PC     H2A11455   5.075   1.297   1.871
    2PC     H2B11456   4.982   1.171   1.779
    2PC     N3111457   5.105   1.293   1.668
    2PC     C3311458   5.029   1.280   1.540
    2PC     H3A11459   4.961   1.362   1.516
    2PC     H3B11460   5.110   1.279   1.466
    2PC     H3C11461   4.980   1.183   1.541
    2PC     C3411462   5.174   1.425   1.688
    2PC     H4A11463   5.100   1.505   1.683
    2PC     H4B11464   5.211   1.423   1.791
    2PC     H4C11465   5.258   1.441   1.621
    2PC     C3511466   5.216   1.192   1.669
    2PC     H5A11467   5.173   1.092   1.671
    2PC     H5B11468   5.258   1.211   1.768
    2PC     H5C11469   5.290   1.203   1.590
    2PC     O3311470   4.656   1.144   1.811
    2PC     O3411471   4.573   1.367   1.840
    2PC     O2111472   4.607   1.265   2.363
    2PC     C2111473   4.586   1.262   2.496
    2PC     O2211474   4.475   1.262   2.544
    3OL     C1211475   4.713   1.285   2.574
    3OL     H2R11476   4.696   1.377   2.630
    3OL     H2S11477   4.795   1.304   2.503
    3OL     C1311478   4.742   1.173   2.675
    3OL     H3R11479   4.763   1.084   2.616
    3OL     H3S11480   4.660   1.147   2.741
    3OL     C1411481   4.873   1.191   2.754
    3OL     H4R11482   4.948   1.229   2.685
    3OL     H4S11483   4.906   1.092   2.784
    3OL     C1511484   4.852   1.278   2.878
    3OL     H5R11485   4.797   1.216   2.949
    3OL     H5S11486   4.797   1.369   2.852
    3OL     C1611487   4.990   1.314   2.935
    3OL     H6R11488   5.041   1.384   2.869
    3OL     H6S11489   5.056   1.227   2.936
    3OL     C1711490   4.979   1.374   3.076
    3OL     H7R11491   4.915   1.311   3.138
    3OL     H7S11492   4.927   1.470   3.082
    3OL     C1811493   5.116   1.365   3.144
    3OL     H8R11494   5.157   1.267   3.169
    3OL     H8S11495   5.111   1.418   3.239
    3OL     C1911496   5.221   1.444   3.070
    3OL     H9R11497   5.193   1.549   3.064
    3OL    C11011498   5.321   1.405   2.992
    3OL    H10R11499   5.387   1.479   2.949
    3OL    C11111500   5.380   1.266   3.004
    3OL    H11R11501   5.424   1.243   2.907
    3OL    H11S11502   5.306   1.194   3.036
    3OL    C11211503   5.495   1.263   3.106
    3OL    H12R11504   5.477   1.340   3.181
    3OL    H12S11505   5.593   1.283   3.060
    3OL    C11311506   5.498   1.128   3.178
    3OL    H13R11507   5.525   1.050   3.107
    3OL    H13S11508   5.406   1.097   3.230
    3OL    C11411509   5.619   1.129   3.272
    3OL    H14R11510   5.631   1.222   3.328
    3OL    H14S11511   5.708   1.132   3.208
    3OL    C11511512   5.627   1.000   3.355
    3OL    H15R11513   5.633   0.910   3.294
    3OL    H15S11514   5.535   0.992   3.413
    3OL    C11611515   5.739   1.007   3.460
    3OL    H16R11516   5.732   0.918   3.523
    3OL    H16S11517   5.728   1.098   3.520
    3OL    C11711518   5.870   1.010   3.380
    3OL    H17R11519   5.883   1.101   3.322
    3OL    H17S11520   5.876   0.922   3.316
    3OL    C11811521   5.983   1.008   3.484
    3OL    H18R11522   6.080   0.995   3.435
    3OL    H18S11523   5.965   0.922   3.548
    3OL    H18T11524   5.974   1.098   3.545
    1PA    C11611525   4.519   5.331   3.889
    1PA    H16R11526   4.532   5.439   3.886
    1PA    H16S11527   4.601   5.287   3.947
    1PA    H16T11528   4.428   5.316   3.948
    1PA    C11511529   4.499   5.257   3.756
    1PA    H15R11530   4.588   5.274   3.696
    1PA    H15S11531   4.506   5.149   3.771
    1PA    C11411532   4.376   5.295   3.673
    1PA    H14R11533   4.283   5.294   3.730
    1PA    H14S11534   4.379   5.402   3.651
    1PA    C11311535   4.362   5.210   3.546
    1PA    H13R11536   4.456   5.217   3.490
    1PA    H13S11537   4.363   5.104   3.574
    1PA    C11211538   4.240   5.249   3.462
    1PA    H12R11539   4.153   5.223   3.523
    1PA    H12S11540   4.237   5.358   3.455
    1PA    C11111541   4.235   5.177   3.326
    1PA    H11R11542   4.262   5.072   3.338
    1PA    H11S11543   4.136   5.183   3.282
    1PA    C11011544   4.340   5.237   3.231
    1PA    H10R11545   4.322   5.345   3.231
    1PA    H10S11546   4.439   5.212   3.269
    1PA     C1911547   4.333   5.170   3.094
    1PA     H9R11548   4.406   5.216   3.027
    1PA     H9S11549   4.356   5.065   3.112
    1PA     C1811550   4.196   5.173   3.025
    1PA     H8R11551   4.133   5.092   3.062
    1PA     H8S11552   4.143   5.268   3.029
    1PA     C1711553   4.217   5.148   2.875
    1PA     H7R11554   4.290   5.221   2.840
    1PA     H7S11555   4.253   5.047   2.856
    1PA     C1611556   4.082   5.154   2.802
    1PA     H6R11557   4.017   5.082   2.852
    1PA     H6S11558   4.045   5.254   2.825
    1PA     C1511559   4.095   5.119   2.653
    1PA     H5R11560   4.169   5.186   2.608
    1PA     H5S11561   4.119   5.013   2.657
    1PA     C1411562   3.962   5.143   2.581
    1PA     H4R11563   3.886   5.073   2.615
    1PA     H4S11564   3.929   5.246   2.600
    1PA     C1311565   3.969   5.138   2.428
    1PA     H3R11566   4.029   5.224   2.400
    1PA     H3S11567   4.018   5.043   2.406
    1PA     C1211568   3.842   5.145   2.340
    1PA     H2R11569   3.779   5.056   2.349
    1PA     H2S11570   3.781   5.229   2.371
    2PC     C1111571   3.878   5.165   2.195
    2PC     O1211572   3.863   5.267   2.132
    2PC     O1111573   3.933   5.051   2.152
    2PC      C111574   3.972   5.050   2.013
    2PC      HR11575   3.999   4.948   1.984
    2PC      HS11576   3.888   5.084   1.952
    2PC      C211577   4.095   5.140   1.995
    2PC      HX11578   4.060   5.243   2.012
    2PC      C311579   4.148   5.152   1.852
    2PC      HA11580   4.191   5.058   1.815
    2PC      HB11581   4.067   5.184   1.786
    2PC     O3111582   4.254   5.249   1.858
    2PC     P3111583   4.321   5.326   1.735
    2PC     O3211584   4.375   5.207   1.643
    2PC     C3111585   4.492   5.131   1.680
    2PC     H1A11586   4.582   5.192   1.687
    2PC     H1B11587   4.485   5.078   1.775
    2PC     C3211588   4.520   5.022   1.576
    2PC     H2A11589   4.596   4.958   1.620
    2PC     H2B11590   4.432   4.959   1.565
    2PC     N3111591   4.568   5.068   1.441
    2PC     C3311592   4.686   5.159   1.437
    2PC     H3A11593   4.764   5.099   1.485
    2PC     H3B11594   4.693   5.194   1.333
    2PC     H3C11595   4.673   5.249   1.497
    2PC     C3411596   4.607   4.950   1.357
    2PC     H4A11597   4.524   4.882   1.375
    2PC     H4B11598   4.599   4.968   1.250
    2PC     H4C11599   4.700   4.898   1.380
    2PC     C3511600   4.456   5.130   1.362
    2PC     H5A11601   4.423   5.227   1.397
    2PC     H5B11602   4.363   5.073   1.360
    2PC     H5C11603   4.490   5.139   1.258
    2PC     O3311604   4.236   5.423   1.662
    2PC     O3411605   4.430   5.412   1.786
    2PC     O2111606   4.196   5.101   2.089
    2PC     C2111607   4.242   5.189   2.180
    2PC     O2211608   4.192   5.300   2.189
    3OL     C1211609   4.335   5.131   2.282
    3OL     H2R11610   4.408   5.075   2.223
    3OL     H2S11611   4.281   5.061   2.346
    3OL     C1311612   4.399   5.236   2.373
    3OL     H3R11613   4.326   5.291   2.433
    3OL     H3S11614   4.441   5.313   2.307
    3OL     C1411615   4.505   5.176   2.467
    3OL     H4R11616   4.592   5.142   2.412
    3OL     H4S11617   4.468   5.083   2.510
    3OL     C1511618   4.536   5.279   2.577
    3OL     H5R11619   4.443   5.307   2.628
    3OL     H5S11620   4.573   5.371   2.533
    3OL     C1611621   4.652   5.227   2.663
    3OL     H6R11622   4.688   5.315   2.716
    3OL     H6S11623   4.740   5.190   2.610
    3OL     C1711624   4.610   5.125   2.769
    3OL     H7R11625   4.587   5.026   2.730
    3OL     H7S11626   4.522   5.168   2.818
    3OL     C1811627   4.719   5.105   2.875
    3OL     H8R11628   4.744   5.207   2.903
    3OL     H8S11629   4.801   5.056   2.821
    3OL     C1911630   4.666   5.024   2.990
    3OL     H9R11631   4.621   4.928   2.965
    3OL    C11011632   4.691   5.062   3.115
    3OL    H10R11633   4.666   4.996   3.197
    3OL    C11111634   4.742   5.192   3.171
    3OL    H11R11635   4.687   5.223   3.260
    3OL    H11S11636   4.726   5.274   3.101
    3OL    C11211637   4.892   5.179   3.204
    3OL    H12R11638   4.940   5.277   3.210
    3OL    H12S11639   4.941   5.128   3.121
    3OL    C11311640   4.909   5.112   3.341
    3OL    H13R11641   4.857   5.017   3.357
    3OL    H13S11642   4.858   5.177   3.412
    3OL    C11411643   5.054   5.080   3.380
    3OL    H14R11644   5.087   5.002   3.310
    3OL    H14S11645   5.046   5.032   3.477
    3OL    C11511646   5.149   5.200   3.380
    3OL    H15R11647   5.110   5.289   3.430
    3OL    H15S11648   5.174   5.228   3.278
    3OL    C11611649   5.283   5.155   3.441
    3OL    H16R11650   5.334   5.086   3.374
    3OL    H16S11651   5.269   5.100   3.533
    3OL    C11711652   5.386   5.269   3.447
    3OL    H17R11653   5.477   5.231   3.493
    3OL    H17S11654   5.345   5.345   3.514
    3OL    C11811655   5.418   5.346   3.318
    3OL    H18R11656   5.462   5.283   3.240
    3OL    H18S11657   5.495   5.423   3.332
    3OL    H18T11658   5.333   5.401   3.277
    1PA    C11611659   6.078   0.178   3.713
    1PA    H16R11660   6.015   0.234   3.644
    1PA    H16S11661   6.024   0.138   3.799
    1PA    H16T11662   6.117   0.098   3.650
    1PA    C11511663   6.195   0.271   3.747
    1PA    H15R11664   6.156   0.370   3.773
    1PA    H15S11665   6.264   0.230   3.821
    1PA    C11411666   6.275   0.291   3.617
    1PA    H14R11667   6.325   0.200   3.584
    1PA    H14S11668   6.218   0.319   3.528
    1PA    C11311669   6.395   0.386   3.631
    1PA    H13R11670   6.365   0.488   3.654
    1PA    H13S11671   6.461   0.353   3.712
    1PA    C11211672   6.474   0.398   3.500
    1PA    H12R11673   6.514   0.297   3.484
    1PA    H12S11674   6.411   0.413   3.412
    1PA    C11111675   6.584   0.504   3.506
    1PA    H11R11676   6.536   0.599   3.533
    1PA    H11S11677   6.648   0.484   3.592
    1PA    C11011678   6.669   0.509   3.378
    1PA    H10R11679   6.710   0.412   3.350
    1PA    H10S11680   6.599   0.530   3.296
    1PA     C1911681   6.781   0.613   3.370
    1PA     H9R11682   6.738   0.712   3.384
    1PA     H9S11683   6.851   0.598   3.452
    1PA     C1811684   6.874   0.611   3.248
    1PA     H8R11685   6.949   0.689   3.258
    1PA     H8S11686   6.917   0.511   3.257
    1PA     C1711687   6.809   0.642   3.113
    1PA     H7R11688   6.746   0.558   3.084
    1PA     H7S11689   6.738   0.723   3.133
    1PA     C1611690   6.900   0.670   2.992
    1PA     H6R11691   6.973   0.749   3.011
    1PA     H6S11692   6.949   0.576   2.967
    1PA     C1511693   6.807   0.707   2.876
    1PA     H5R11694   6.735   0.627   2.855
    1PA     H5S11695   6.746   0.790   2.914
    1PA     C1411696   6.885   0.744   2.750
    1PA     H4R11697   6.963   0.818   2.767
    1PA     H4S11698   6.943   0.657   2.718
    1PA     C1311699   6.798   0.774   2.627
    1PA     H3R11700   6.755   0.871   2.651
    1PA     H3S11701   6.861   0.793   2.540
    1PA     C1211702   6.689   0.669   2.602
    1PA     H2R11703   6.720   0.564   2.591
    1PA     H2S11704   6.614   0.674   2.682
    2PC     C1111705   6.612   0.692   2.475
    2PC     O1211706   6.608   0.801   2.423
    2PC     O1111707   6.545   0.583   2.431
    2PC      C111708   6.471   0.595   2.308
    2PC      HR11709   6.386   0.662   2.320
    2PC      HS11710   6.546   0.613   2.231
    2PC      C211711   6.403   0.459   2.283
    2PC      HX11712   6.467   0.372   2.299
    2PC      C311713   6.363   0.453   2.135
    2PC      HA11714   6.447   0.463   2.066
    2PC      HB11715   6.311   0.359   2.113
    2PC     O3111716   6.271   0.561   2.114
    2PC     P3111717   6.201   0.606   1.977
    2PC     O3211718   6.050   0.632   2.023
    2PC     C3111719   5.941   0.578   1.947
    2PC     H1A11720   5.845   0.622   1.976
    2PC     H1B11721   5.953   0.599   1.840
    2PC     C3211722   5.930   0.425   1.959
    2PC     H2A11723   6.032   0.389   1.947
    2PC     H2B11724   5.889   0.397   2.056
    2PC     N3111725   5.868   0.347   1.847
    2PC     C3311726   5.897   0.202   1.873
    2PC     H3A11727   6.003   0.179   1.879
    2PC     H3B11728   5.855   0.166   1.967
    2PC     H3C11729   5.857   0.146   1.788
    2PC     C3411730   5.719   0.353   1.835
    2PC     H4A11731   5.693   0.454   1.804
    2PC     H4B11732   5.680   0.281   1.763
    2PC     H4C11733   5.684   0.357   1.938
    2PC     C3511734   5.926   0.376   1.712
    2PC     H5A11735   5.918   0.286   1.650
    2PC     H5B11736   6.028   0.406   1.736
    2PC     H5C11737   5.880   0.467   1.675
    2PC     O3311738   6.270   0.712   1.901
    2PC     O3411739   6.211   0.489   1.886
    2PC     O2111740   6.278   0.452   2.354
    2PC     C2111741   6.234   0.332   2.394
    2PC     O2211742   6.294   0.229   2.372
    3OL     C1211743   6.100   0.339   2.462
    3OL     H2R11744   6.059   0.238   2.460
    3OL     H2S11745   6.026   0.402   2.412
    3OL     C1311746   6.128   0.386   2.606
    3OL     H3R11747   6.157   0.491   2.606
    3OL     H3S11748   6.209   0.331   2.654
    3OL     C1411749   6.005   0.384   2.697
    3OL     H4R11750   5.933   0.450   2.649
    3OL     H4S11751   6.034   0.441   2.786
    3OL     C1511752   5.938   0.254   2.743
    3OL     H5R11753   6.011   0.178   2.773
    3OL     H5S11754   5.893   0.211   2.653
    3OL     C1611755   5.826   0.276   2.846
    3OL     H6R11756   5.750   0.337   2.797
    3OL     H6S11757   5.861   0.331   2.934
    3OL     C1711758   5.771   0.140   2.891
    3OL     H7R11759   5.852   0.075   2.925
    3OL     H7S11760   5.717   0.081   2.818
    3OL     C1811761   5.678   0.173   3.009
    3OL     H8R11762   5.614   0.248   2.963
    3OL     H8S11763   5.734   0.221   3.090
    3OL     C1911764   5.608   0.046   3.050
    3OL     H9R11765   5.559  -0.009   2.970
    3OL    C11011766   5.603  -0.004   3.172
    3OL    H10R11767   5.544  -0.094   3.188
    3OL    C11111768   5.658   0.058   3.298
    3OL    H11R11769   5.754   0.107   3.277
    3OL    H11S11770   5.668  -0.022   3.372
    3OL    C11211771   5.554   0.161   3.346
    3OL    H12R11772   5.459   0.112   3.366
    3OL    H12S11773   5.534   0.238   3.272
    3OL    C11311774   5.606   0.237   3.469
    3OL    H13R11775   5.549   0.329   3.487
    3OL    H13S11776   5.708   0.275   3.459
    3OL    C11411777   5.585   0.161   3.600
    3OL    H14R11778   5.652   0.075   3.610
    3OL    H14S11779   5.488   0.110   3.600
    3OL    C11511780   5.610   0.244   3.727
    3OL    H15R11781   5.548   0.334   3.716
    3OL    H15S11782   5.715   0.272   3.728
    3OL    C11611783   5.569   0.170   3.854
    3OL    H16R11784   5.466   0.133   3.854
    3OL    H16S11785   5.576   0.238   3.939
    3OL    C11711786   5.660   0.052   3.890
    3OL    H17R11787   5.762   0.090   3.884
    3OL    H17S11788   5.650  -0.027   3.815
    3OL    C11811789   5.633  -0.003   4.031
    3OL    H18R11790   5.534  -0.048   4.038
    3OL    H18S11791   5.643   0.075   4.106
    3OL    H18T11792   5.712  -0.070   4.063
    1PA    C11611793   4.900   0.762   3.967
    1PA    H16R11794   4.920   0.656   3.946
    1PA    H16S11795   4.793   0.785   3.958
    1PA    H16T11796   4.924   0.784   4.071
    1PA    C11511797   4.972   0.847   3.862
    1PA    H15R11798   4.956   0.952   3.887
    1PA    H15S11799   5.078   0.825   3.881
    1PA    C11411800   4.932   0.810   3.718
    1PA    H14R11801   4.978   0.715   3.688
    1PA    H14S11802   4.823   0.809   3.717
    1PA    C11311803   4.994   0.906   3.616
    1PA    H13R11804   4.970   1.008   3.647
    1PA    H13S11805   5.103   0.894   3.617
    1PA    C11211806   4.953   0.873   3.473
    1PA    H12R11807   4.854   0.829   3.487
    1PA    H12S11808   4.956   0.962   3.410
    1PA    C11111809   5.028   0.762   3.397
    1PA    H11R11810   5.123   0.804   3.365
    1PA    H11S11811   5.030   0.678   3.467
    1PA    C11011812   4.966   0.705   3.269
    1PA    H10R11813   5.032   0.623   3.239
    1PA    H10S11814   4.866   0.668   3.289
    1PA     C1911815   4.949   0.815   3.163
    1PA     H9R11816   4.878   0.787   3.085
    1PA     H9S11817   4.913   0.907   3.210
    1PA     C1811818   5.078   0.823   3.081
    1PA     H8R11819   5.156   0.858   3.150
    1PA     H8S11820   5.100   0.725   3.037
    1PA     C1711821   5.078   0.928   2.969
    1PA     H7R11822   5.002   0.912   2.893
    1PA     H7S11823   5.064   1.029   3.008
    1PA     C1611824   5.219   0.920   2.908
    1PA     H6R11825   5.291   0.955   2.983
    1PA     H6S11826   5.246   0.820   2.875
    1PA     C1511827   5.234   1.013   2.787
    1PA     H5R11828   5.154   0.998   2.714
    1PA     H5S11829   5.226   1.119   2.811
    1PA     C1411830   5.368   0.995   2.715
    1PA     H4R11831   5.451   1.011   2.783
    1PA     H4S11832   5.376   0.890   2.689
    1PA     C1311833   5.379   1.090   2.595
    1PA     H3R11834   5.287   1.080   2.537
    1PA     H3S11835   5.379   1.193   2.632
    1PA     C1211836   5.507   1.062   2.514
    1PA     H2R11837   5.588   1.080   2.584
    1PA     H2S11838   5.514   0.955   2.493
    2PC     C1111839   5.524   1.132   2.382
    2PC     O1211840   5.456   1.101   2.287
    2PC     O1111841   5.637   1.204   2.379
    2PC      C111842   5.669   1.295   2.272
    2PC      HR11843   5.770   1.334   2.290
    2PC      HS11844   5.678   1.235   2.181
    2PC      C211845   5.569   1.411   2.267
    2PC      HX11846   5.467   1.375   2.284
    2PC      C311847   5.578   1.487   2.134
    2PC      HA11848   5.545   1.418   2.056
    2PC      HB11849   5.509   1.571   2.137
    2PC     O3111850   5.717   1.515   2.109
    2PC     P3111851   5.763   1.581   1.970
    2PC     O3211852   5.838   1.712   2.024
    2PC     C3111853   5.760   1.808   2.097
    2PC     H1A11854   5.677   1.838   2.032
    2PC     H1B11855   5.728   1.764   2.192
    2PC     C3211856   5.849   1.930   2.127
    2PC     H2A11857   5.794   2.010   2.175
    2PC     H2B11858   5.925   1.907   2.202
    2PC     N3111859   5.937   1.981   2.017
    2PC     C3311860   5.985   2.115   2.064
    2PC     H3A11861   6.042   2.109   2.157
    2PC     H3B11862   6.046   2.165   1.989
    2PC     H3C11863   5.896   2.176   2.078
    2PC     C3411864   6.063   1.902   1.997
    2PC     H4A11865   6.116   1.933   1.907
    2PC     H4B11866   6.126   1.913   2.085
    2PC     H4C11867   6.032   1.798   1.985
    2PC     C3511868   5.868   1.988   1.884
    2PC     H5A11869   5.785   2.057   1.896
    2PC     H5B11870   5.820   1.893   1.860
    2PC     H5C11871   5.940   2.010   1.805
    2PC     O3311872   5.843   1.482   1.895
    2PC     O3411873   5.642   1.612   1.891
    2PC     O2111874   5.606   1.489   2.382
    2PC     C2111875   5.546   1.605   2.412
    2PC     O2211876   5.442   1.633   2.356
    3OL     C1211877   5.619   1.690   2.513
    3OL     H2R11878   5.709   1.740   2.476
    3OL     H2S11879   5.669   1.626   2.585
    3OL     C1311880   5.522   1.793   2.573
    3OL     H3R11881   5.421   1.793   2.531
    3OL     H3S11882   5.570   1.888   2.548
    3OL     C1411883   5.515   1.773   2.725
    3OL     H4R11884   5.615   1.764   2.768
    3OL     H4S11885   5.457   1.682   2.737
    3OL     C1511886   5.445   1.889   2.796
    3OL     H5R11887   5.366   1.925   2.729
    3OL     H5S11888   5.517   1.970   2.811
    3OL     C1611889   5.392   1.846   2.934
    3OL     H6R11890   5.360   1.742   2.928
    3OL     H6S11891   5.303   1.906   2.953
    3OL     C1711892   5.501   1.860   3.041
    3OL     H7R11893   5.526   1.966   3.045
    3OL     H7S11894   5.590   1.798   3.024
    3OL     C1811895   5.438   1.833   3.179
    3OL     H8R11896   5.518   1.852   3.251
    3OL     H8S11897   5.402   1.730   3.181
    3OL     C1911898   5.324   1.928   3.203
    3OL     H9R11899   5.350   2.030   3.177
    3OL    C11011900   5.206   1.897   3.254
    3OL    H10R11901   5.134   1.978   3.254
    3OL    C11111902   5.154   1.764   3.304
    3OL    H11R11903   5.171   1.754   3.411
    3OL    H11S11904   5.203   1.683   3.249
    3OL    C11211905   5.001   1.754   3.297
    3OL    H12R11906   4.961   1.707   3.207
    3OL    H12S11907   4.957   1.854   3.291
    3OL    C11311908   4.929   1.685   3.413
    3OL    H13R11909   4.959   1.726   3.510
    3OL    H13S11910   4.955   1.579   3.415
    3OL    C11411911   4.776   1.696   3.408
    3OL    H14R11912   4.728   1.641   3.490
    3OL    H14S11913   4.743   1.655   3.312
    3OL    C11511914   4.717   1.837   3.417
    3OL    H15R11915   4.619   1.820   3.372
    3OL    H15S11916   4.763   1.901   3.341
    3OL    C11611917   4.715   1.895   3.559
    3OL    H16R11918   4.808   1.867   3.610
    3OL    H16S11919   4.634   1.855   3.619
    3OL    C11711920   4.697   2.048   3.551
    3OL    H17R11921   4.598   2.072   3.513
    3OL    H17S11922   4.757   2.101   3.476
    3OL    C11811923   4.710   2.098   3.696
    3OL    H18R11924   4.666   2.198   3.705
    3OL    H18S11925   4.810   2.087   3.739
    3OL    H18T11926   4.654   2.044   3.772
    1PA    C11611927   3.708  -0.787   3.127
    1PA    H16R11928   3.794  -0.850   3.106
    1PA    H16S11929   3.632  -0.797   3.049
    1PA    H16T11930   3.650  -0.829   3.209
    1PA    C11511931   3.745  -0.640   3.156
    1PA    H15R11932   3.801  -0.645   3.250
    1PA    H15S11933   3.814  -0.604   3.080
    1PA    C11411934   3.629  -0.541   3.162
    1PA    H14R11935   3.571  -0.557   3.071
    1PA    H14S11936   3.571  -0.560   3.253
    1PA    C11311937   3.677  -0.395   3.160
    1PA    H13R11938   3.750  -0.378   3.239
    1PA    H13S11939   3.717  -0.370   3.061
    1PA    C11211940   3.556  -0.308   3.195
    1PA    H12R11941   3.507  -0.354   3.281
    1PA    H12S11942   3.587  -0.206   3.222
    1PA    C11111943   3.459  -0.298   3.077
    1PA    H11R11944   3.512  -0.262   2.988
    1PA    H11S11945   3.416  -0.394   3.047
    1PA    C11011946   3.356  -0.188   3.107
    1PA    H10R11947   3.308  -0.215   3.202
    1PA    H10S11948   3.403  -0.096   3.141
    1PA     C1911949   3.255  -0.180   2.991
    1PA     H9R11950   3.213  -0.277   2.966
    1PA     H9S11951   3.171  -0.116   3.017
    1PA     C1811952   3.307  -0.119   2.860
    1PA     H8R11953   3.349  -0.019   2.874
    1PA     H8S11954   3.390  -0.183   2.831
    1PA     C1711955   3.199  -0.122   2.750
    1PA     H7R11956   3.165  -0.226   2.746
    1PA     H7S11957   3.120  -0.057   2.789
    1PA     C1611958   3.265  -0.064   2.624
    1PA     H6R11959   3.285   0.042   2.642
    1PA     H6S11960   3.359  -0.108   2.592
    1PA     C1511961   3.174  -0.087   2.503
    1PA     H5R11962   3.164  -0.193   2.480
    1PA     H5S11963   3.071  -0.053   2.516
    1PA     C1411964   3.234  -0.008   2.386
    1PA     H4R11965   3.215   0.099   2.403
    1PA     H4S11966   3.341  -0.024   2.376
    1PA     C1311967   3.171  -0.036   2.250
    1PA     H3R11968   3.064  -0.030   2.272
    1PA     H3S11969   3.187   0.049   2.183
    1PA     C1211970   3.217  -0.169   2.187
    1PA     H2R11971   3.192  -0.255   2.248
    1PA     H2S11972   3.161  -0.193   2.096
    2PC     C1111973   3.361  -0.170   2.145
    2PC     O1211974   3.396  -0.138   2.033
    2PC     O1111975   3.450  -0.189   2.243
    2PC      C111976   3.591  -0.177   2.216
    2PC      HR11977   3.658  -0.214   2.294
    2PC      HS11978   3.611  -0.231   2.124
    2PC      C211979   3.627  -0.032   2.181
    2PC      HX11980   3.571   0.020   2.103
    2PC      C311981   3.775  -0.028   2.142
    2PC      HA11982   3.831  -0.068   2.227
    2PC      HB11983   3.788  -0.086   2.050
    2PC     O3111984   3.820   0.107   2.119
    2PC     P3111985   3.902   0.141   1.986
    2PC     O3211986   3.796   0.233   1.909
    2PC     C3111987   3.766   0.362   1.964
    2PC     H1A11988   3.733   0.350   2.068
    2PC     H1B11989   3.861   0.415   1.972
    2PC     C3211990   3.661   0.428   1.874
    2PC     H2A11991   3.688   0.410   1.770
    2PC     H2B11992   3.570   0.371   1.894
    2PC     N3111993   3.633   0.575   1.893
    2PC     C3311994   3.554   0.595   2.019
    2PC     H3A11995   3.610   0.548   2.100
    2PC     H3B11996   3.565   0.701   2.040
    2PC     H3C11997   3.448   0.575   2.029
    2PC     C3411998   3.752   0.665   1.894
    2PC     H4A11999   3.820   0.639   1.813
    2PC     H4B12000   3.722   0.768   1.876
    2PC     H4C12001   3.810   0.654   1.986
    2PC     C3512002   3.545   0.610   1.776
    2PC     H5A12003   3.602   0.599   1.684
    2PC     H5B12004   3.511   0.713   1.785
    2PC     H5C12005   3.464   0.538   1.767
    2PC     O3312006   4.035   0.204   2.004
    2PC     O3412007   3.942   0.028   1.899
    2PC     O2112008   3.631   0.039   2.306
    2PC     C2112009   3.610   0.172   2.316
    2PC     O2212010   3.558   0.236   2.227
    3OL     C1212011   3.661   0.233   2.443
    3OL     H2R12012   3.764   0.264   2.421
    3OL     H2S12013   3.674   0.152   2.515
    3OL     C1312014   3.564   0.336   2.502
    3OL     H3R12015   3.472   0.283   2.525
    3OL     H3S12016   3.548   0.410   2.423
    3OL     C1412017   3.632   0.406   2.621
    3OL     H4R12018   3.719   0.468   2.599
    3OL     H4S12019   3.671   0.331   2.691
    3OL     C1512020   3.543   0.507   2.693
    3OL     H5R12021   3.467   0.450   2.747
    3OL     H5S12022   3.481   0.572   2.630
    3OL     C1612023   3.619   0.595   2.793
    3OL     H6R12024   3.714   0.628   2.751
    3OL     H6S12025   3.653   0.537   2.880
    3OL     C1712026   3.538   0.715   2.843
    3OL     H7R12027   3.504   0.765   2.751
    3OL     H7S12028   3.607   0.787   2.887
    3OL     C1812029   3.429   0.668   2.940
    3OL     H8R12030   3.475   0.633   3.032
    3OL     H8S12031   3.362   0.596   2.894
    3OL     C1912032   3.340   0.784   2.980
    3OL     H9R12033   3.375   0.879   2.941
    3OL    C11012034   3.256   0.790   3.082
    3OL    H10R12035   3.193   0.873   3.112
    3OL    C11112036   3.229   0.666   3.164
    3OL    H11R12037   3.242   0.583   3.094
    3OL    H11S12038   3.120   0.665   3.174
    3OL    C11212039   3.303   0.655   3.297
    3OL    H12R12040   3.412   0.662   3.287
    3OL    H12S12041   3.269   0.564   3.347
    3OL    C11312042   3.266   0.772   3.389
    3OL    H13R12043   3.161   0.776   3.419
    3OL    H13S12044   3.290   0.864   3.335
    3OL    C11412045   3.354   0.786   3.514
    3OL    H14R12046   3.304   0.845   3.591
    3OL    H14S12047   3.445   0.842   3.494
    3OL    C11512048   3.394   0.654   3.581
    3OL    H15R12049   3.468   0.686   3.654
    3OL    H15S12050   3.438   0.586   3.508
    3OL    C11612051   3.280   0.576   3.649
    3OL    H16R12052   3.191   0.565   3.587
    3OL    H16S12053   3.252   0.636   3.736
    3OL    C11712054   3.336   0.438   3.690
    3OL    H17R12055   3.402   0.455   3.775
    3OL    H17S12056   3.394   0.392   3.611
    3OL    C11812057   3.209   0.363   3.734
    3OL    H18R12058   3.243   0.269   3.776
    3OL    H18S12059   3.141   0.351   3.649
    3OL    H18T12060   3.158   0.428   3.805
    1PA    C11612061   4.363   2.020   2.913
    1PA    H16R12062   4.298   2.106   2.896
    1PA    H16S12063   4.344   1.967   3.007
    1PA    H16T12064   4.344   1.945   2.835
    1PA    C11512065   4.510   2.060   2.900
    1PA    H15R12066   4.512   2.165   2.868
    1PA    H15S12067   4.563   2.054   2.995
    1PA    C11412068   4.583   1.977   2.793
    1PA    H14R12069   4.602   1.874   2.823
    1PA    H14S12070   4.523   1.973   2.702
    1PA    C11312071   4.717   2.045   2.763
    1PA    H13R12072   4.714   2.141   2.710
    1PA    H13S12073   4.773   2.068   2.854
    1PA    C11212074   4.794   1.941   2.680
    1PA    H12R12075   4.734   1.889   2.606
    1PA    H12S12076   4.865   2.008   2.632
    1PA    C11112077   4.875   1.843   2.765
    1PA    H11R12078   4.928   1.911   2.833
    1PA    H11S12079   4.802   1.786   2.824
    1PA    C11012080   4.972   1.760   2.679
    1PA    H10R12081   4.917   1.711   2.599
    1PA    H10S12082   5.037   1.828   2.624
    1PA     C1912083   5.051   1.659   2.762
    1PA     H9R12084   5.106   1.704   2.845
    1PA     H9S12085   4.982   1.597   2.820
    1PA     C1812086   5.159   1.591   2.677
    1PA     H8R12087   5.235   1.658   2.636
    1PA     H8S12088   5.199   1.518   2.748
    1PA     C1712089   5.105   1.508   2.560
    1PA     H7R12090   5.013   1.456   2.588
    1PA     H7S12091   5.090   1.580   2.479
    1PA     C1612092   5.205   1.400   2.516
    1PA     H6R12093   5.304   1.447   2.511
    1PA     H6S12094   5.204   1.314   2.582
    1PA     C1512095   5.179   1.348   2.374
    1PA     H5R12096   5.164   1.439   2.316
    1PA     H5S12097   5.267   1.288   2.346
    1PA     C1412098   5.049   1.267   2.364
    1PA     H4R12099   5.038   1.205   2.453
    1PA     H4S12100   4.969   1.341   2.370
    1PA     C1312101   5.034   1.177   2.241
    1PA     H3R12102   5.038   1.241   2.152
    1PA     H3S12103   5.120   1.110   2.234
    1PA     C1212104   4.903   1.098   2.230
    1PA     H2R12105   4.875   1.034   2.314
    1PA     H2S12106   4.825   1.174   2.230
    2PC     C1112107   4.881   1.026   2.100
    2PC     O1212108   4.949   1.038   2.000
    2PC     O1112109   4.779   0.940   2.116
    2PC      C112110   4.737   0.855   2.008
    2PC      HR12111   4.638   0.817   2.039
    2PC      HS12112   4.738   0.908   1.913
    2PC      C212113   4.833   0.736   1.993
    2PC      HX12114   4.934   0.779   1.994
    2PC      C312115   4.821   0.650   1.866
    2PC      HA12116   4.850   0.708   1.778
    2PC      HB12117   4.888   0.563   1.865
    2PC     O3112118   4.688   0.602   1.842
    2PC     P3112119   4.657   0.521   1.707
    2PC     O3212120   4.706   0.627   1.598
    2PC     C3112121   4.632   0.645   1.476
    2PC     H1A12122   4.608   0.549   1.429
    2PC     H1B12123   4.532   0.684   1.498
    2PC     C3212124   4.720   0.719   1.374
    2PC     H2A12125   4.652   0.757   1.296
    2PC     H2B12126   4.765   0.799   1.433
    2PC     N3112127   4.836   0.657   1.302
    2PC     C3312128   4.795   0.557   1.198
    2PC     H3A12129   4.866   0.547   1.116
    2PC     H3B12130   4.777   0.457   1.238
    2PC     H3C12131   4.709   0.609   1.155
    2PC     C3412132   4.915   0.769   1.242
    2PC     H4A12133   4.976   0.731   1.160
    2PC     H4B12134   4.842   0.842   1.207
    2PC     H4C12135   4.973   0.816   1.323
    2PC     C3512136   4.926   0.602   1.408
    2PC     H5A12137   5.026   0.607   1.364
    2PC     H5B12138   4.889   0.502   1.430
    2PC     H5C12139   4.920   0.663   1.499
    2PC     O3312140   4.730   0.393   1.704
    2PC     O3412141   4.511   0.498   1.700
    2PC     O2112142   4.821   0.648   2.106
    2PC     C2112143   4.914   0.557   2.139
    2PC     O2212144   5.026   0.555   2.094
    3OL     C1212145   4.861   0.460   2.242
    3OL     H2R12146   4.760   0.425   2.224
    3OL     H2S12147   4.861   0.498   2.345
    3OL     C1312148   4.955   0.338   2.246
    3OL     H3R12149   5.049   0.382   2.281
    3OL     H3S12150   4.970   0.290   2.149
    3OL     C1412151   4.922   0.227   2.346
    3OL     H4R12152   4.815   0.217   2.369
    3OL     H4S12153   4.951   0.258   2.446
    3OL     C1512154   4.981   0.092   2.302
    3OL     H5R12155   5.088   0.098   2.284
    3OL     H5S12156   4.931   0.086   2.205
    3OL     C1612157   4.950  -0.031   2.389
    3OL     H6R12158   4.972  -0.116   2.325
    3OL     H6S12159   4.845  -0.022   2.416
    3OL     C1712160   5.040  -0.047   2.511
    3OL     H7R12161   5.141  -0.014   2.485
    3OL     H7S12162   5.043  -0.154   2.533
    3OL     C1812163   4.971   0.021   2.630
    3OL     H8R12164   4.883  -0.039   2.657
    3OL     H8S12165   4.919   0.111   2.599
    3OL     C1912166   5.072   0.040   2.740
    3OL     H9R12167   5.160  -0.018   2.713
    3OL    C11012168   5.066   0.123   2.843
    3OL    H10R12169   5.147   0.122   2.916
    3OL    C11112170   4.946   0.207   2.879
    3OL    H11R12171   4.936   0.193   2.987
    3OL    H11S12172   4.856   0.183   2.823
    3OL    C11212173   4.978   0.356   2.863
    3OL    H12R12174   4.950   0.376   2.759
    3OL    H12S12175   5.082   0.386   2.875
    3OL    C11312176   4.881   0.439   2.950
    3OL    H13R12177   4.908   0.543   2.932
    3OL    H13S12178   4.890   0.423   3.058
    3OL    C11412179   4.734   0.419   2.914
    3OL    H14R12180   4.699   0.322   2.951
    3OL    H14S12181   4.710   0.421   2.807
    3OL    C11512182   4.649   0.531   2.975
    3OL    H15R12183   4.682   0.630   2.943
    3OL    H15S12184   4.670   0.534   3.082
    3OL    C11612185   4.499   0.520   2.943
    3OL    H16R12186   4.468   0.416   2.931
    3OL    H16S12187   4.472   0.562   2.846
    3OL    C11712188   4.406   0.594   3.040
    3OL    H17R12189   4.308   0.612   2.996
    3OL    H17S12190   4.460   0.688   3.057
    3OL    C11812191   4.393   0.521   3.174
    3OL    H18R12192   4.308   0.565   3.226
    3OL    H18S12193   4.476   0.528   3.246
    3OL    H18T12194   4.383   0.412   3.166
    1PA    C11612195   5.196   6.189   3.275
    1PA    H16R12196   5.101   6.242   3.286
    1PA    H16S12197   5.273   6.243   3.331
    1PA    H16T12198   5.179   6.087   3.309
    1PA    C11512199   5.223   6.170   3.125
    1PA    H15R12200   5.284   6.084   3.097
    1PA    H15S12201   5.126   6.145   3.081
    1PA    C11412202   5.277   6.297   3.058
    1PA    H14R12203   5.206   6.380   3.058
    1PA    H14S12204   5.356   6.345   3.116
    1PA    C11312205   5.325   6.275   2.913
    1PA    H13R12206   5.243   6.229   2.857
    1PA    H13S12207   5.338   6.376   2.874
    1PA    C11212208   5.452   6.191   2.897
    1PA    H12R12209   5.532   6.226   2.962
    1PA    H12S12210   5.421   6.091   2.930
    1PA    C11112211   5.507   6.185   2.753
    1PA    H11R12212   5.555   6.280   2.728
    1PA    H11S12213   5.588   6.112   2.752
    1PA    C11012214   5.397   6.153   2.651
    1PA    H10R12215   5.311   6.220   2.663
    1PA    H10S12216   5.434   6.171   2.550
    1PA     C1912217   5.354   6.006   2.658
    1PA     H9R12218   5.301   5.986   2.752
    1PA     H9S12219   5.275   5.994   2.584
    1PA     C1812220   5.470   5.905   2.648
    1PA     H8R12221   5.526   5.935   2.559
    1PA     H8S12222   5.530   5.917   2.738
    1PA     C1712223   5.417   5.761   2.639
    1PA     H7R12224   5.363   5.734   2.730
    1PA     H7S12225   5.343   5.755   2.558
    1PA     C1612226   5.539   5.672   2.612
    1PA     H6R12227   5.597   5.706   2.526
    1PA     H6S12228   5.596   5.678   2.705
    1PA     C1512229   5.501   5.524   2.604
    1PA     H5R12230   5.595   5.468   2.600
    1PA     H5S12231   5.457   5.499   2.701
    1PA     C1412232   5.417   5.488   2.480
    1PA     H4R12233   5.322   5.541   2.492
    1PA     H4S12234   5.466   5.520   2.388
    1PA     C1312235   5.374   5.341   2.480
    1PA     H3R12236   5.333   5.318   2.579
    1PA     H3S12237   5.292   5.322   2.410
    1PA     C1212238   5.484   5.240   2.445
    1PA     H2R12239   5.566   5.251   2.516
    1PA     H2S12240   5.449   5.136   2.453
    2PC     C1112241   5.541   5.247   2.306
    2PC     O1212242   5.459   5.270   2.219
    2PC     O1112243   5.674   5.233   2.291
    2PC      C112244   5.721   5.276   2.162
    2PC      HR12245   5.829   5.259   2.163
    2PC      HS12246   5.679   5.210   2.086
    2PC      C212247   5.702   5.427   2.137
    2PC      HX12248   5.601   5.456   2.166
    2PC      C312249   5.732   5.454   1.989
    2PC      HA12250   5.665   5.388   1.933
    2PC      HB12251   5.715   5.559   1.964
    2PC     O3112252   5.871   5.428   1.963
    2PC     P3112253   5.916   5.469   1.815
    2PC     O3212254   6.073   5.439   1.827
    2PC     C3112255   6.150   5.437   1.705
    2PC     H1A12256   6.119   5.342   1.662
    2PC     H1B12257   6.115   5.516   1.638
    2PC     C3212258   6.297   5.453   1.745
    2PC     H2A12259   6.346   5.520   1.674
    2PC     H2B12260   6.300   5.508   1.839
    2PC     N3112261   6.383   5.331   1.752
    2PC     C3312262   6.415   5.277   1.616
    2PC     H3A12263   6.497   5.335   1.572
    2PC     H3B12264   6.448   5.174   1.628
    2PC     H3C12265   6.329   5.285   1.550
    2PC     C3412266   6.504   5.379   1.827
    2PC     H4A12267   6.473   5.421   1.923
    2PC     H4B12268   6.561   5.288   1.844
    2PC     H4C12269   6.562   5.455   1.776
    2PC     C3512270   6.311   5.225   1.831
    2PC     H5A12271   6.215   5.210   1.781
    2PC     H5B12272   6.291   5.265   1.930
    2PC     H5C12273   6.370   5.133   1.830
    2PC     O3312274   5.856   5.376   1.716
    2PC     O3412275   5.866   5.598   1.763
    2PC     O2112276   5.801   5.504   2.208
    2PC     C2112277   5.771   5.628   2.250
    2PC     O2212278   5.663   5.680   2.233
    3OL     C1212279   5.892   5.694   2.312
    3OL     H2R12280   5.920   5.769   2.237
    3OL     H2S12281   5.968   5.621   2.339
    3OL     C1312282   5.853   5.767   2.441
    3OL     H3R12283   5.804   5.695   2.507
    3OL     H3S12284   5.779   5.844   2.417
    3OL     C1412285   5.981   5.832   2.496
    3OL     H4R12286   6.015   5.903   2.421
    3OL     H4S12287   6.059   5.758   2.516
    3OL     C1512288   5.941   5.913   2.620
    3OL     H5R12289   5.850   5.963   2.589
    3OL     H5S12290   6.014   5.991   2.645
    3OL     C1612291   5.924   5.820   2.741
    3OL     H6R12292   6.015   5.759   2.752
    3OL     H6S12293   5.841   5.752   2.726
    3OL     C1712294   5.911   5.888   2.878
    3OL     H7R12295   6.001   5.942   2.907
    3OL     H7S12296   5.900   5.809   2.953
    3OL     C1812297   5.792   5.985   2.894
    3OL     H8R12298   5.700   5.929   2.876
    3OL     H8S12299   5.803   6.075   2.832
    3OL     C1912300   5.792   6.030   3.038
    3OL     H9R12301   5.866   6.108   3.054
    3OL    C11012302   5.699   6.005   3.128
    3OL    H10R12303   5.703   6.058   3.223
    3OL    C11112304   5.583   5.910   3.111
    3OL    H11R12305   5.542   5.897   3.010
    3OL    H11S12306   5.501   5.940   3.177
    3OL    C11212307   5.617   5.774   3.173
    3OL    H12R12308   5.600   5.774   3.280
    3OL    H12S12309   5.725   5.765   3.158
    3OL    C11312310   5.539   5.659   3.108
    3OL    H13R12311   5.445   5.702   3.074
    3OL    H13S12312   5.532   5.585   3.188
    3OL    C11412313   5.603   5.597   2.983
    3OL    H14R12314   5.636   5.678   2.917
    3OL    H14S12315   5.541   5.532   2.921
    3OL    C11512316   5.722   5.507   3.019
    3OL    H15R12317   5.680   5.431   3.084
    3OL    H15S12318   5.800   5.562   3.073
    3OL    C11612319   5.782   5.443   2.893
    3OL    H16R12320   5.890   5.437   2.905
    3OL    H16S12321   5.771   5.492   2.796
    3OL    C11712322   5.732   5.302   2.858
    3OL    H17R12323   5.623   5.306   2.849
    3OL    H17S12324   5.745   5.237   2.945
    3OL    C11812325   5.792   5.239   2.731
    3OL    H18R12326   5.892   5.203   2.754
    3OL    H18S12327   5.800   5.308   2.647
    3OL    H18T12328   5.719   5.164   2.699
    1PA    C11612329   5.969   3.139   3.789
    1PA    H16R12330   5.929   3.228   3.837
    1PA    H16S12331   6.049   3.167   3.720
    1PA    H16T12332   6.009   3.065   3.859
    1PA    C11512333   5.861   3.064   3.711
    1PA    H15R12334   5.905   2.982   3.653
    1PA    H15S12335   5.783   3.042   3.784
    1PA    C11412336   5.808   3.156   3.600
    1PA    H14R12337   5.713   3.110   3.569
    1PA    H14S12338   5.786   3.252   3.648
    1PA    C11312339   5.904   3.166   3.481
    1PA    H13R12340   5.974   3.249   3.497
    1PA    H13S12341   5.969   3.079   3.472
    1PA    C11212342   5.825   3.178   3.350
    1PA    H12R12343   5.758   3.091   3.355
    1PA    H12S12344   5.775   3.275   3.346
    1PA    C11112345   5.906   3.169   3.220
    1PA    H11R12346   5.976   3.251   3.208
    1PA    H11S12347   5.956   3.072   3.213
    1PA    C11012348   5.817   3.180   3.095
    1PA    H10R12349   5.724   3.125   3.104
    1PA    H10S12350   5.799   3.284   3.066
    1PA     C1912351   5.895   3.128   2.973
    1PA     H9R12352   5.986   3.186   2.956
    1PA     H9S12353   5.927   3.025   2.990
    1PA     C1812354   5.806   3.128   2.848
    1PA     H8R12355   5.710   3.082   2.870
    1PA     H8S12356   5.776   3.230   2.824
    1PA     C1712357   5.866   3.055   2.727
    1PA     H7R12358   5.968   3.087   2.703
    1PA     H7S12359   5.860   2.947   2.744
    1PA     C1612360   5.784   3.100   2.606
    1PA     H6R12361   5.685   3.053   2.609
    1PA     H6S12362   5.777   3.208   2.594
    1PA     C1512363   5.850   3.049   2.477
    1PA     H5R12364   5.951   3.089   2.461
    1PA     H5S12365   5.852   2.940   2.482
    1PA     C1412366   5.753   3.085   2.364
    1PA     H4R12367   5.657   3.035   2.378
    1PA     H4S12368   5.740   3.194   2.365
    1PA     C1312369   5.809   3.029   2.233
    1PA     H3R12370   5.917   3.042   2.224
    1PA     H3S12371   5.802   2.921   2.234
    1PA     C1212372   5.757   3.101   2.108
    1PA     H2R12373   5.648   3.108   2.115
    1PA     H2S12374   5.795   3.203   2.095
    2PC     C1112375   5.782   3.034   1.975
    2PC     O1212376   5.772   3.095   1.870
    2PC     O1112377   5.812   2.904   1.986
    2PC      C112378   5.840   2.829   1.867
    2PC      HR12379   5.834   2.722   1.888
    2PC      HS12380   5.767   2.858   1.791
    2PC      C212381   5.986   2.862   1.832
    2PC      HX12382   5.973   2.970   1.823
    2PC      C312383   6.031   2.805   1.697
    2PC      HA12384   5.968   2.854   1.623
    2PC      HB12385   6.139   2.808   1.679
    2PC     O3112386   5.983   2.669   1.693
    2PC     P3112387   5.978   2.609   1.544
    2PC     O3212388   5.929   2.463   1.587
    2PC     C3112389   5.804   2.456   1.657
    2PC     H1A12390   5.816   2.494   1.759
    2PC     H1B12391   5.736   2.525   1.608
    2PC     C3212392   5.757   2.310   1.665
    2PC     H2A12393   5.845   2.245   1.663
    2PC     H2B12394   5.705   2.283   1.757
    2PC     N3112395   5.670   2.259   1.554
    2PC     C3312396   5.650   2.115   1.592
    2PC     H3A12397   5.574   2.115   1.670
    2PC     H3B12398   5.620   2.053   1.507
    2PC     H3C12399   5.746   2.079   1.630
    2PC     C3412400   5.535   2.323   1.541
    2PC     H4A12401   5.494   2.317   1.642
    2PC     H4B12402   5.550   2.424   1.503
    2PC     H4C12403   5.481   2.263   1.467
    2PC     C3512404   5.747   2.256   1.426
    2PC     H5A12405   5.765   2.362   1.408
    2PC     H5B12406   5.682   2.205   1.355
    2PC     H5C12407   5.840   2.204   1.449
    2PC     O3312408   5.887   2.681   1.452
    2PC     O3412409   6.118   2.609   1.497
    2PC     O2112410   6.056   2.802   1.943
    2PC     C2112411   6.181   2.847   1.965
    2PC     O2212412   6.243   2.913   1.884
    3OL     C1212413   6.239   2.790   2.092
    3OL     H2R12414   6.195   2.692   2.109
    3OL     H2S12415   6.213   2.855   2.175
    3OL     C1312416   6.391   2.773   2.075
    3OL     H3R12417   6.440   2.867   2.100
    3OL     H3S12418   6.420   2.750   1.973
    3OL     C1412419   6.459   2.666   2.162
    3OL     H4R12420   6.560   2.668   2.121
    3OL     H4S12421   6.421   2.564   2.152
    3OL     C1512422   6.461   2.703   2.311
    3OL     H5R12423   6.362   2.724   2.350
    3OL     H5S12424   6.516   2.797   2.311
    3OL     C1612425   6.531   2.591   2.389
    3OL     H6R12426   6.636   2.579   2.360
    3OL     H6S12427   6.467   2.505   2.364
    3OL     C1712428   6.512   2.623   2.538
    3OL     H7R12429   6.411   2.597   2.570
    3OL     H7S12430   6.534   2.727   2.559
    3OL     C1812431   6.608   2.530   2.614
    3OL     H8R12432   6.706   2.576   2.628
    3OL     H8S12433   6.619   2.434   2.562
    3OL     C1912434   6.559   2.508   2.755
    3OL     H9R12435   6.508   2.414   2.770
    3OL    C11012436   6.591   2.593   2.851
    3OL    H10R12437   6.559   2.579   2.954
    3OL    C11112438   6.652   2.731   2.837
    3OL    H11R12439   6.587   2.811   2.872
    3OL    H11S12440   6.668   2.750   2.731
    3OL    C11212441   6.792   2.744   2.900
    3OL    H12R12442   6.853   2.657   2.874
    3OL    H12S12443   6.788   2.745   3.009
    3OL    C11312444   6.858   2.874   2.851
    3OL    H13R12445   6.848   2.894   2.745
    3OL    H13S12446   6.960   2.860   2.887
    3OL    C11412447   6.818   3.006   2.920
    3OL    H14R12448   6.844   2.994   3.025
    3OL    H14S12449   6.710   3.020   2.906
    3OL    C11512450   6.894   3.123   2.856
    3OL    H15R12451   6.866   3.132   2.751
    3OL    H15S12452   7.000   3.100   2.859
    3OL    C11612453   6.864   3.260   2.918
    3OL    H16R12454   6.872   3.261   3.027
    3OL    H16S12455   6.761   3.290   2.899
    3OL    C11712456   6.957   3.374   2.873
    3OL    H17R12457   7.060   3.340   2.879
    3OL    H17S12458   6.946   3.454   2.946
    3OL    C11812459   6.923   3.424   2.732
    3OL    H18R12460   6.817   3.449   2.717
    3OL    H18S12461   6.943   3.353   2.652
    3OL    H18T12462   6.976   3.519   2.722
    1PA    C11612463   2.898   2.824   2.973
    1PA    H16R12464   2.908   2.719   3.001
    1PA    H16S12465   2.912   2.835   2.865
    1PA    H16T12466   2.791   2.834   2.991
    1PA    C11512467   2.988   2.916   3.056
    1PA    H15R12468   3.090   2.917   3.016
    1PA    H15S12469   2.930   3.009   3.048
    1PA    C11412470   2.989   2.888   3.206
    1PA    H14R12471   2.887   2.876   3.244
    1PA    H14S12472   3.037   2.792   3.227
    1PA    C11312473   3.061   2.995   3.290
    1PA    H13R12474   3.071   2.961   3.393
    1PA    H13S12475   3.157   3.030   3.253
    1PA    C11212476   2.966   3.115   3.300
    1PA    H12R12477   2.919   3.145   3.206
    1PA    H12S12478   2.884   3.065   3.351
    1PA    C11112479   3.011   3.233   3.387
    1PA    H11R12480   2.932   3.309   3.388
    1PA    H11S12481   3.037   3.199   3.488
    1PA    C11012482   3.134   3.306   3.333
    1PA    H10R12483   3.145   3.396   3.393
    1PA    H10S12484   3.220   3.243   3.358
    1PA     C1912485   3.152   3.360   3.190
    1PA     H9R12486   3.254   3.395   3.172
    1PA     H9S12487   3.117   3.283   3.121
    1PA     C1812488   3.051   3.473   3.168
    1PA     H8R12489   2.948   3.440   3.182
    1PA     H8S12490   3.075   3.560   3.229
    1PA     C1712491   3.051   3.529   3.025
    1PA     H7R12492   3.152   3.564   3.003
    1PA     H7S12493   3.042   3.440   2.962
    1PA     C1612494   2.950   3.643   3.005
    1PA     H6R12495   2.849   3.604   2.985
    1PA     H6S12496   2.955   3.713   3.088
    1PA     C1512497   2.982   3.717   2.874
    1PA     H5R12498   2.915   3.803   2.860
    1PA     H5S12499   3.080   3.765   2.884
    1PA     C1412500   2.986   3.628   2.749
    1PA     H4R12501   3.055   3.545   2.764
    1PA     H4S12502   2.892   3.572   2.755
    1PA     C1312503   3.011   3.697   2.614
    1PA     H3R12504   3.076   3.784   2.625
    1PA     H3S12505   3.070   3.633   2.548
    1PA     C1212506   2.886   3.725   2.531
    1PA     H2R12507   2.819   3.641   2.513
    1PA     H2S12508   2.818   3.793   2.584
    2PC     C1112509   2.910   3.792   2.398
    2PC     O1212510   2.948   3.729   2.302
    2PC     O1112511   2.894   3.926   2.404
    2PC      C112512   2.910   4.008   2.287
    2PC      HR12513   2.920   4.112   2.318
    2PC      HS12514   3.003   3.982   2.237
    2PC      C212515   2.797   3.984   2.186
    2PC      HX12516   2.787   3.877   2.166
    2PC      C312517   2.801   4.055   2.050
    2PC      HA12518   2.820   4.162   2.061
    2PC      HB12519   2.884   4.016   1.990
    2PC     O3112520   2.679   4.047   1.975
    2PC     P3112521   2.661   4.142   1.847
    2PC     O3212522   2.537   4.077   1.769
    2PC     C3112523   2.577   3.961   1.695
    2PC     H1A12524   2.654   3.985   1.621
    2PC     H1B12525   2.612   3.876   1.755
    2PC     C3212526   2.455   3.926   1.608
    2PC     H2A12527   2.412   4.018   1.567
    2PC     H2B12528   2.487   3.858   1.529
    2PC     N3112529   2.337   3.856   1.668
    2PC     C3312530   2.384   3.738   1.748
    2PC     H3A12531   2.461   3.761   1.821
    2PC     H3B12532   2.297   3.695   1.799
    2PC     H3C12533   2.424   3.666   1.676
    2PC     C3412534   2.259   3.959   1.744
    2PC     H4A12535   2.314   3.985   1.835
    2PC     H4B12536   2.239   4.040   1.673
    2PC     H4C12537   2.167   3.916   1.784
    2PC     C3512538   2.259   3.795   1.555
    2PC     H5A12539   2.237   3.871   1.480
    2PC     H5B12540   2.166   3.746   1.583
    2PC     H5C12541   2.316   3.713   1.511
    2PC     O3312542   2.635   4.281   1.893
    2PC     O3412543   2.775   4.142   1.753
    2PC     O2112544   2.675   4.013   2.256
    2PC     C2112545   2.641   4.135   2.301
    2PC     O2212546   2.719   4.227   2.300
    3OL     C1212547   2.495   4.144   2.339
    3OL     H2R12548   2.468   4.054   2.394
    3OL     H2S12549   2.436   4.145   2.247
    3OL     C1312550   2.454   4.259   2.432
    3OL     H3R12551   2.476   4.355   2.385
    3OL     H3S12552   2.516   4.260   2.522
    3OL     C1412553   2.306   4.249   2.469
    3OL     H4R12554   2.284   4.151   2.511
    3OL     H4S12555   2.253   4.269   2.376
    3OL     C1512556   2.273   4.348   2.582
    3OL     H5R12557   2.278   4.453   2.553
    3OL     H5S12558   2.330   4.336   2.674
    3OL     C1612559   2.129   4.321   2.630
    3OL     H6R12560   2.134   4.221   2.672
    3OL     H6S12561   2.062   4.336   2.545
    3OL     C1712562   2.094   4.414   2.747
    3OL     H7R12563   2.118   4.518   2.722
    3OL     H7S12564   2.152   4.383   2.835
    3OL     C1812565   1.948   4.392   2.788
    3OL     H8R12566   1.931   4.425   2.890
    3OL     H8S12567   1.934   4.284   2.789
    3OL     C1912568   1.864   4.455   2.679
    3OL     H9R12569   1.902   4.450   2.578
    3OL    C11012570   1.742   4.502   2.699
    3OL    H10R12571   1.691   4.536   2.609
    3OL    C11112572   1.666   4.515   2.829
    3OL    H11R12573   1.719   4.457   2.904
    3OL    H11S12574   1.571   4.460   2.823
    3OL    C11212575   1.645   4.659   2.876
    3OL    H12R12576   1.563   4.698   2.814
    3OL    H12S12577   1.738   4.715   2.863
    3OL    C11312578   1.604   4.674   3.023
    3OL    H13R12579   1.517   4.611   3.040
    3OL    H13S12580   1.567   4.776   3.033
    3OL    C11412581   1.708   4.645   3.132
    3OL    H14R12582   1.791   4.714   3.121
    3OL    H14S12583   1.746   4.544   3.149
    3OL    C11512584   1.650   4.687   3.268
    3OL    H15R12585   1.562   4.624   3.287
    3OL    H15S12586   1.623   4.791   3.250
    3OL    C11612587   1.750   4.659   3.381
    3OL    H16R12588   1.845   4.709   3.363
    3OL    H16S12589   1.785   4.556   3.383
    3OL    C11712590   1.692   4.694   3.519
    3OL    H17R12591   1.596   4.645   3.537
    3OL    H17S12592   1.659   4.797   3.507
    3OL    C11812593   1.778   4.679   3.645
    3OL    H18R12594   1.771   4.571   3.663
    3OL    H18S12595   1.746   4.737   3.732
    3OL    H18T12596   1.884   4.690   3.621
    1PA    C11612597   1.375   2.807   3.217
    1PA    H16R12598   1.372   2.706   3.257
    1PA    H16S12599   1.277   2.852   3.205
    1PA    H16T12600   1.433   2.874   3.280
    1PA    C11512601   1.444   2.796   3.080
    1PA    H15R12602   1.519   2.716   3.082
    1PA    H15S12603   1.369   2.761   3.009
    1PA    C11412604   1.501   2.930   3.033
    1PA    H14R12605   1.557   2.964   3.120
    1PA    H14S12606   1.574   2.923   2.952
    1PA    C11312607   1.398   3.037   2.992
    1PA    H13R12608   1.313   3.030   3.060
    1PA    H13S12609   1.440   3.138   2.994
    1PA    C11212610   1.340   3.007   2.853
    1PA    H12R12611   1.419   3.039   2.784
    1PA    H12S12612   1.334   2.899   2.839
    1PA    C11112613   1.208   3.080   2.823
    1PA    H11R12614   1.132   3.044   2.891
    1PA    H11S12615   1.234   3.184   2.842
    1PA    C11012616   1.159   3.060   2.678
    1PA    H10R12617   1.121   2.959   2.663
    1PA    H10S12618   1.077   3.128   2.657
    1PA     C1912619   1.252   3.086   2.558
    1PA     H9R12620   1.335   3.016   2.566
    1PA     H9S12621   1.204   3.057   2.464
    1PA     C1812622   1.299   3.232   2.558
    1PA     H8R12623   1.225   3.309   2.536
    1PA     H8S12624   1.348   3.253   2.653
    1PA     C1712625   1.413   3.245   2.456
    1PA     H7R12626   1.469   3.333   2.487
    1PA     H7S12627   1.482   3.161   2.463
    1PA     C1612628   1.352   3.260   2.316
    1PA     H6R12629   1.279   3.182   2.295
    1PA     H6S12630   1.294   3.351   2.324
    1PA     C1512631   1.450   3.284   2.200
    1PA     H5R12632   1.385   3.296   2.113
    1PA     H5S12633   1.508   3.375   2.220
    1PA     C1412634   1.549   3.169   2.177
    1PA     H4R12635   1.611   3.149   2.264
    1PA     H4S12636   1.487   3.081   2.159
    1PA     C1312637   1.648   3.195   2.062
    1PA     H3R12638   1.699   3.290   2.079
    1PA     H3S12639   1.728   3.122   2.053
    1PA     C1212640   1.570   3.191   1.930
    1PA     H2R12641   1.547   3.086   1.907
    1PA     H2S12642   1.478   3.250   1.939
    2PC     C1112643   1.663   3.245   1.825
    2PC     O1212644   1.752   3.183   1.770
    2PC     O1112645   1.635   3.375   1.803
    2PC      C112646   1.725   3.453   1.722
    2PC      HR12647   1.688   3.555   1.724
    2PC      HS12648   1.828   3.454   1.758
    2PC      C212649   1.717   3.412   1.574
    2PC      HX12650   1.719   3.303   1.566
    2PC      C312651   1.834   3.468   1.493
    2PC      HA12652   1.816   3.576   1.489
    2PC      HB12653   1.931   3.455   1.541
    2PC     O3112654   1.824   3.409   1.362
    2PC     P3112655   1.895   3.269   1.328
    2PC     O3212656   1.797   3.159   1.390
    2PC     C3112657   1.700   3.104   1.299
    2PC     H1A12658   1.621   3.179   1.288
    2PC     H1B12659   1.746   3.065   1.208
    2PC     C3212660   1.640   2.992   1.386
    2PC     H2A12661   1.604   3.023   1.485
    2PC     H2B12662   1.555   2.947   1.334
    2PC     N3112663   1.729   2.874   1.413
    2PC     C3312664   1.640   2.757   1.437
    2PC     H3A12665   1.594   2.762   1.536
    2PC     H3B12666   1.553   2.759   1.370
    2PC     H3C12667   1.706   2.672   1.420
    2PC     C3412668   1.824   2.852   1.298
    2PC     H4A12669   1.877   2.758   1.314
    2PC     H4B12670   1.769   2.869   1.205
    2PC     H4C12671   1.902   2.928   1.302
    2PC     C3512672   1.793   2.896   1.546
    2PC     H5A12673   1.860   2.978   1.519
    2PC     H5B12674   1.837   2.806   1.590
    2PC     H5C12675   1.717   2.944   1.607
    2PC     O3312676   1.903   3.251   1.181
    2PC     O3412677   2.035   3.263   1.378
    2PC     O2112678   1.592   3.471   1.534
    2PC     C2112679   1.477   3.403   1.549
    2PC     O2212680   1.481   3.286   1.580
    3OL     C1212681   1.354   3.486   1.523
    3OL     H2R12682   1.342   3.483   1.414
    3OL     H2S12683   1.373   3.593   1.538
    3OL     C1312684   1.225   3.443   1.594
    3OL     H3R12685   1.178   3.349   1.564
    3OL     H3S12686   1.152   3.524   1.582
    3OL     C1412687   1.248   3.428   1.745
    3OL     H4R12688   1.340   3.372   1.765
    3OL     H4S12689   1.168   3.368   1.788
    3OL     C1512690   1.269   3.559   1.822
    3OL     H5R12691   1.177   3.618   1.818
    3OL     H5S12692   1.341   3.623   1.770
    3OL     C1612693   1.318   3.528   1.964
    3OL     H6R12694   1.418   3.486   1.953
    3OL     H6S12695   1.259   3.449   2.011
    3OL     C1712696   1.308   3.658   2.045
    3OL     H7R12697   1.206   3.697   2.043
    3OL     H7S12698   1.364   3.727   1.982
    3OL     C1812699   1.371   3.651   2.185
    3OL     H8R12700   1.473   3.615   2.178
    3OL     H8S12701   1.307   3.586   2.246
    3OL     C1912702   1.372   3.791   2.241
    3OL     H9R12703   1.369   3.873   2.170
    3OL    C11012704   1.384   3.829   2.367
    3OL    H10R12705   1.374   3.934   2.394
    3OL    C11112706   1.399   3.737   2.487
    3OL    H11R12707   1.493   3.773   2.530
    3OL    H11S12708   1.426   3.637   2.454
    3OL    C11212709   1.273   3.759   2.571
    3OL    H12R12710   1.188   3.756   2.503
    3OL    H12S12711   1.271   3.855   2.623
    3OL    C11312712   1.255   3.654   2.682
    3OL    H13R12713   1.230   3.557   2.639
    3OL    H13S12714   1.165   3.677   2.740
    3OL    C11412715   1.371   3.645   2.782
    3OL    H14R12716   1.370   3.741   2.834
    3OL    H14S12717   1.466   3.635   2.730
    3OL    C11512718   1.352   3.532   2.883
    3OL    H15R12719   1.341   3.439   2.827
    3OL    H15S12720   1.254   3.549   2.928
    3OL    C11612721   1.459   3.525   2.993
    3OL    H16R12722   1.466   3.626   3.036
    3OL    H16S12723   1.555   3.508   2.943
    3OL    C11712724   1.427   3.416   3.096
    3OL    H17R12725   1.514   3.386   3.154
    3OL    H17S12726   1.387   3.331   3.040
    3OL    C11812727   1.321   3.462   3.197
    3OL    H18R12728   1.297   3.379   3.264
    3OL    H18S12729   1.224   3.476   3.148
    3OL    H18T12730   1.347   3.556   3.246
    1PA    C11612731   1.845   2.267   3.516
    1PA    H16R12732   1.880   2.291   3.616
    1PA    H16S12733   1.900   2.176   3.490
    1PA    H16T12734   1.737   2.253   3.502
    1PA    C11512735   1.898   2.376   3.422
    1PA    H15R12736   1.851   2.464   3.467
    1PA    H15S12737   2.007   2.378   3.426
    1PA    C11412738   1.856   2.364   3.275
    1PA    H14R12739   1.930   2.408   3.208
    1PA    H14S12740   1.849   2.257   3.258
    1PA    C11312741   1.721   2.434   3.253
    1PA    H13R12742   1.647   2.387   3.317
    1PA    H13S12743   1.725   2.540   3.279
    1PA    C11212744   1.675   2.424   3.107
    1PA    H12R12745   1.677   2.318   3.081
    1PA    H12S12746   1.570   2.452   3.097
    1PA    C11112747   1.750   2.508   3.003
    1PA    H11R12748   1.738   2.613   3.030
    1PA    H11S12749   1.857   2.487   3.000
    1PA    C11012750   1.691   2.475   2.865
    1PA    H10R12751   1.733   2.377   2.842
    1PA    H10S12752   1.583   2.484   2.874
    1PA     C1912753   1.750   2.571   2.760
    1PA     H9R12754   1.856   2.596   2.767
    1PA     H9S12755   1.745   2.525   2.661
    1PA     C1812756   1.671   2.703   2.761
    1PA     H8R12757   1.564   2.680   2.757
    1PA     H8S12758   1.699   2.756   2.852
    1PA     C1712759   1.723   2.795   2.650
    1PA     H7R12760   1.698   2.898   2.673
    1PA     H7S12761   1.831   2.794   2.666
    1PA     C1612762   1.672   2.760   2.510
    1PA     H6R12763   1.739   2.801   2.434
    1PA     H6S12764   1.692   2.653   2.502
    1PA     C1512765   1.526   2.802   2.483
    1PA     H5R12766   1.455   2.733   2.530
    1PA     H5S12767   1.505   2.898   2.529
    1PA     C1412768   1.494   2.801   2.333
    1PA     H4R12769   1.550   2.887   2.296
    1PA     H4S12770   1.527   2.706   2.292
    1PA     C1312771   1.344   2.822   2.306
    1PA     H3R12772   1.313   2.910   2.363
    1PA     H3S12773   1.327   2.828   2.198
    1PA     C1212774   1.261   2.700   2.349
    1PA     H2R12775   1.285   2.613   2.288
    1PA     H2S12776   1.273   2.679   2.455
    2PC     C1112777   1.112   2.723   2.334
    2PC     O1212778   1.056   2.799   2.409
    2PC     O1112779   1.060   2.639   2.243
    2PC      C112780   0.925   2.672   2.206
    2PC      HR12781   0.890   2.582   2.154
    2PC      HS12782   0.863   2.699   2.292
    2PC      C212783   0.919   2.787   2.105
    2PC      HX12784   0.829   2.781   2.044
    2PC      C312785   1.049   2.791   2.023
    2PC      HA12786   1.131   2.823   2.088
    2PC      HB12787   1.073   2.693   1.981
    2PC     O3112788   1.038   2.878   1.909
    2PC     P3112789   1.160   2.887   1.806
    2PC     O3212790   1.147   2.771   1.696
    2PC     C3112791   1.019   2.755   1.633
    2PC     H1A12792   0.957   2.705   1.708
    2PC     H1B12793   0.974   2.850   1.603
    2PC     C3212794   1.020   2.661   1.512
    2PC     H2A12795   1.057   2.564   1.544
    2PC     H2B12796   0.919   2.656   1.472
    2PC     N3112797   1.118   2.691   1.402
    2PC     C3312798   1.114   2.586   1.295
    2PC     H3A12799   1.150   2.493   1.338
    2PC     H3B12800   1.008   2.578   1.267
    2PC     H3C12801   1.168   2.617   1.205
    2PC     C3412802   1.075   2.823   1.344
    2PC     H4A12803   1.160   2.857   1.285
    2PC     H4B12804   0.982   2.816   1.288
    2PC     H4C12805   1.064   2.900   1.420
    2PC     C3512806   1.259   2.700   1.453
    2PC     H5A12807   1.331   2.727   1.376
    2PC     H5B12808   1.273   2.603   1.501
    2PC     H5C12809   1.260   2.780   1.527
    2PC     O3312810   1.162   3.012   1.727
    2PC     O3412811   1.296   2.884   1.865
    2PC     O2112812   0.911   2.908   2.183
    2PC     C2112813   0.841   3.014   2.139
    2PC     O2212814   0.778   3.018   2.036
    3OL     C1212815   0.863   3.137   2.223
    3OL     H2R12816   0.926   3.213   2.175
    3OL     H2S12817   0.914   3.103   2.313
    3OL     C1312818   0.729   3.202   2.261
    3OL     H3R12819   0.680   3.235   2.169
    3OL     H3S12820   0.753   3.296   2.309
    3OL     C1412821   0.643   3.104   2.343
    3OL     H4R12822   0.653   3.004   2.300
    3OL     H4S12823   0.543   3.149   2.344
    3OL     C1512824   0.682   3.107   2.491
    3OL     H5R12825   0.645   3.197   2.540
    3OL     H5S12826   0.790   3.123   2.494
    3OL     C1612827   0.635   2.983   2.568
    3OL     H6R12828   0.531   2.963   2.542
    3OL     H6S12829   0.652   2.998   2.675
    3OL     C1712830   0.731   2.867   2.541
    3OL     H7R12831   0.836   2.891   2.559
    3OL     H7S12832   0.701   2.837   2.440
    3OL     C1812833   0.691   2.754   2.637
    3OL     H8R12834   0.582   2.743   2.637
    3OL     H8S12835   0.714   2.778   2.741
    3OL     C1912836   0.760   2.631   2.584
    3OL     H9R12837   0.862   2.653   2.552
    3OL    C11012838   0.719   2.505   2.593
    3OL    H10R12839   0.786   2.424   2.564
    3OL    C11112840   0.583   2.470   2.647
    3OL    H11R12841   0.550   2.385   2.587
    3OL    H11S12842   0.514   2.553   2.631
    3OL    C11212843   0.597   2.445   2.798
    3OL    H12R12844   0.614   2.538   2.854
    3OL    H12S12845   0.679   2.375   2.816
    3OL    C11312846   0.481   2.369   2.864
    3OL    H13R12847   0.452   2.280   2.808
    3OL    H13S12848   0.389   2.427   2.852
    3OL    C11412849   0.489   2.346   3.016
    3OL    H14R12850   0.579   2.288   3.037
    3OL    H14S12851   0.402   2.287   3.044
    3OL    C11512852   0.479   2.476   3.096
    3OL    H15R12853   0.386   2.529   3.079
    3OL    H15S12854   0.565   2.539   3.075
    3OL    C11612855   0.489   2.446   3.247
    3OL    H16R12856   0.592   2.413   3.266
    3OL    H16S12857   0.427   2.363   3.279
    3OL    C11712858   0.465   2.573   3.329
    3OL    H17R12859   0.364   2.613   3.318
    3OL    H17S12860   0.528   2.654   3.291
    3OL    C11812861   0.478   2.554   3.481
    3OL    H18R12862   0.578   2.526   3.513
    3OL    H18S12863   0.415   2.470   3.511
    3OL    H18T12864   0.453   2.650   3.527
    1PA    C11612865   1.440   4.258   3.176
    1PA    H16R12866   1.384   4.352   3.168
    1PA    H16S12867   1.541   4.269   3.217
    1PA    H16T12868   1.387   4.201   3.252
    1PA    C11512869   1.421   4.187   3.041
    1PA    H15R12870   1.324   4.207   2.995
    1PA    H15S12871   1.493   4.225   2.969
    1PA    C11412872   1.438   4.034   3.049
    1PA    H14R12873   1.469   3.982   2.959
    1PA    H14S12874   1.522   4.017   3.117
    1PA    C11312875   1.319   3.959   3.110
    1PA    H13R12876   1.336   3.851   3.114
    1PA    H13S12877   1.304   3.990   3.214
    1PA    C11212878   1.186   3.967   3.033
    1PA    H12R12879   1.155   4.071   3.047
    1PA    H12S12880   1.203   3.947   2.927
    1PA    C11112881   1.085   3.869   3.093
    1PA    H11R12882   1.120   3.768   3.067
    1PA    H11S12883   1.074   3.881   3.201
    1PA    C11012884   0.947   3.888   3.029
    1PA    H10R12885   0.877   3.825   3.084
    1PA    H10S12886   0.912   3.991   3.042
    1PA     C1912887   0.934   3.852   2.880
    1PA     H9R12888   0.992   3.923   2.821
    1PA     H9S12889   0.972   3.753   2.852
    1PA     C1812890   0.785   3.864   2.848
    1PA     H8R12891   0.717   3.793   2.896
    1PA     H8S12892   0.753   3.964   2.879
    1PA     C1712893   0.776   3.857   2.695
    1PA     H7R12894   0.813   3.948   2.646
    1PA     H7S12895   0.827   3.767   2.660
    1PA     C1612896   0.630   3.828   2.656
    1PA     H6R12897   0.631   3.815   2.548
    1PA     H6S12898   0.595   3.734   2.702
    1PA     C1512899   0.518   3.931   2.679
    1PA     H5R12900   0.421   3.889   2.653
    1PA     H5S12901   0.514   3.944   2.787
    1PA     C1412902   0.557   4.063   2.613
    1PA     H4R12903   0.500   4.146   2.655
    1PA     H4S12904   0.664   4.078   2.632
    1PA     C1312905   0.549   4.068   2.459
    1PA     H3R12906   0.580   4.164   2.417
    1PA     H3S12907   0.628   4.001   2.425
    1PA     C1212908   0.412   4.027   2.406
    1PA     H2R12909   0.382   3.926   2.435
    1PA     H2S12910   0.345   4.110   2.430
    2PC     C1112911   0.420   4.010   2.256
    2PC     O1212912   0.384   3.924   2.179
    2PC     O1112913   0.470   4.122   2.201
    2PC      C112914   0.464   4.131   2.057
    2PC      HR12915   0.537   4.208   2.031
    2PC      HS12916   0.506   4.035   2.026
    2PC      C212917   0.324   4.148   1.996
    2PC      HX12918   0.248   4.089   2.049
    2PC      C312919   0.312   4.105   1.849
    2PC      HA12920   0.390   4.149   1.787
    2PC      HB12921   0.309   3.996   1.839
    2PC     O3112922   0.191   4.152   1.786
    2PC     P3112923   0.153   4.131   1.631
    2PC     O3212924   0.117   3.975   1.622
    2PC     C3112925   0.012   3.948   1.527
    2PC     H1A12926  -0.077   3.993   1.572
    2PC     H1B12927   0.035   4.005   1.437
    2PC     C3212928   0.006   3.795   1.511
    2PC     H2A12929  -0.010   3.744   1.607
    2PC     H2B12930  -0.087   3.776   1.458
    2PC     N3112931   0.118   3.725   1.440
    2PC     C3312932   0.222   3.697   1.544
    2PC     H3A12933   0.225   3.787   1.607
    2PC     H3B12934   0.190   3.614   1.608
    2PC     H3C12935   0.320   3.668   1.506
    2PC     C3412936   0.070   3.592   1.390
    2PC     H4A12937   0.028   3.537   1.475
    2PC     H4B12938  -0.003   3.601   1.310
    2PC     H4C12939   0.153   3.529   1.356
    2PC     C3512940   0.164   3.801   1.319
    2PC     H5A12941   0.182   3.907   1.337
    2PC     H5B12942   0.083   3.790   1.247
    2PC     H5C12943   0.252   3.748   1.282
    2PC     O3312944   0.063   4.225   1.560
    2PC     O3412945   0.271   4.154   1.545
    2PC     O2112946   0.308   4.290   2.007
    2PC     C2112947   0.188   4.351   2.008
    2PC     O2212948   0.083   4.290   2.018
    3OL     C1212949   0.192   4.501   1.992
    3OL     H2R12950   0.113   4.521   1.919
    3OL     H2S12951   0.284   4.527   1.940
    3OL     C1312952   0.175   4.580   2.122
    3OL     H3R12953   0.083   4.555   2.176
    3OL     H3S12954   0.150   4.683   2.096
    3OL     C1412955   0.300   4.594   2.211
    3OL     H4R12956   0.366   4.669   2.167
    3OL     H4S12957   0.356   4.501   2.216
    3OL     C1512958   0.276   4.647   2.353
    3OL     H5R12959   0.183   4.704   2.350
    3OL     H5S12960   0.358   4.715   2.374
    3OL     C1612961   0.257   4.534   2.456
    3OL     H6R12962   0.344   4.469   2.447
    3OL     H6S12963   0.161   4.485   2.437
    3OL     C1712964   0.239   4.582   2.600
    3OL     H7R12965   0.309   4.660   2.631
    3OL     H7S12966   0.254   4.497   2.667
    3OL     C1812967   0.101   4.642   2.628
    3OL     H8R12968   0.019   4.584   2.586
    3OL     H8S12969   0.091   4.734   2.569
    3OL     C1912970   0.077   4.661   2.775
    3OL     H9R12971   0.103   4.580   2.844
    3OL    C11012972   0.028   4.771   2.831
    3OL    H10R12973   0.024   4.783   2.939
    3OL    C11112974  -0.017   4.895   2.757
    3OL    H11R12975   0.060   4.924   2.685
    3OL    H11S12976  -0.015   4.978   2.828
    3OL    C11212977  -0.153   4.877   2.688
    3OL    H12R12978  -0.230   4.867   2.765
    3OL    H12S12979  -0.160   4.787   2.627
    3OL    C11312980  -0.207   5.007   2.627
    3OL    H13R12981  -0.158   5.021   2.530
    3OL    H13S12982  -0.182   5.089   2.694
    3OL    C11412983  -0.358   5.015   2.598
    3OL    H14R12984  -0.389   5.112   2.559
    3OL    H14S12985  -0.411   4.999   2.692
    3OL    C11512986  -0.415   4.909   2.502
    3OL    H15R12987  -0.406   4.813   2.554
    3OL    H15S12988  -0.354   4.906   2.411
    3OL    C11612989  -0.560   4.939   2.463
    3OL    H16R12990  -0.565   5.044   2.434
    3OL    H16S12991  -0.619   4.931   2.555
    3OL    C11712992  -0.612   4.841   2.357
    3OL    H17R12993  -0.608   4.737   2.390
    3OL    H17S12994  -0.554   4.838   2.265
    3OL    C11812995  -0.753   4.888   2.320
    3OL    H18R12996  -0.827   4.887   2.401
    3OL    H18S12997  -0.795   4.822   2.244
    3OL    H18T12998  -0.743   4.988   2.277
    1PA    C11612999   0.615   3.087   3.377
    1PA    H16R13000   0.591   3.188   3.412
    1PA    H16S13001   0.671   3.031   3.452
    1PA    H16T13002   0.531   3.022   3.352
    1PA    C11513003   0.706   3.099   3.254
    1PA    H15R13004   0.662   3.171   3.185
    1PA    H15S13005   0.808   3.133   3.277
    1PA    C11413006   0.711   2.962   3.185
    1PA    H14R13007   0.728   2.887   3.263
    1PA    H14S13008   0.613   2.937   3.145
    1PA    C11313009   0.822   2.935   3.082
    1PA    H13R13010   0.810   2.979   2.983
    1PA    H13S13011   0.915   2.982   3.115
    1PA    C11213012   0.856   2.788   3.053
    1PA    H12R13013   0.867   2.736   3.148
    1PA    H12S13014   0.768   2.740   3.012
    1PA    C11113015   0.982   2.794   2.965
    1PA    H11R13016   0.982   2.881   2.898
    1PA    H11S13017   1.067   2.816   3.030
    1PA    C11013018   0.999   2.661   2.892
    1PA    H10R13019   0.975   2.583   2.964
    1PA    H10S13020   0.926   2.656   2.811
    1PA     C1913021   1.138   2.645   2.828
    1PA     H9R13022   1.147   2.718   2.747
    1PA     H9S13023   1.223   2.658   2.896
    1PA     C1813024   1.147   2.507   2.761
    1PA     H8R13025   1.124   2.424   2.829
    1PA     H8S13026   1.063   2.505   2.692
    1PA     C1713027   1.274   2.477   2.681
    1PA     H7R13028   1.299   2.564   2.620
    1PA     H7S13029   1.357   2.468   2.751
    1PA     C1613030   1.256   2.347   2.601
    1PA     H6R13031   1.353   2.312   2.566
    1PA     H6S13032   1.204   2.279   2.669
    1PA     C1513033   1.161   2.356   2.481
    1PA     H5R13034   1.073   2.412   2.512
    1PA     H5S13035   1.209   2.410   2.399
    1PA     C1413036   1.115   2.214   2.444
    1PA     H4R13037   1.200   2.149   2.423
    1PA     H4S13038   1.067   2.166   2.529
    1PA     C1313039   1.020   2.219   2.323
    1PA     H3R13040   0.932   2.275   2.358
    1PA     H3S13041   1.060   2.284   2.245
    1PA     C1213042   0.980   2.075   2.289
    1PA     H2R13043   1.060   2.002   2.302
    1PA     H2S13044   0.915   2.050   2.373
    2PC     C1113045   0.906   2.054   2.159
    2PC     O1213046   0.906   2.125   2.061
    2PC     O1113047   0.830   1.943   2.163
    2PC      C113048   0.744   1.909   2.053
    2PC      HR13049   0.668   1.987   2.053
    2PC      HS13050   0.799   1.912   1.958
    2PC      C213051   0.688   1.767   2.066
    2PC      HX13052   0.770   1.707   2.108
    2PC      C313053   0.635   1.705   1.936
    2PC      HA13054   0.721   1.675   1.875
    2PC      HB13055   0.590   1.613   1.973
    2PC     O3113056   0.546   1.787   1.858
    2PC     P3113057   0.524   1.756   1.703
    2PC     O3213058   0.424   1.632   1.692
    2PC     C3113059   0.473   1.513   1.628
    2PC     H1A13060   0.571   1.480   1.665
    2PC     H1B13061   0.396   1.440   1.653
    2PC     C3213062   0.482   1.539   1.477
    2PC     H2A13063   0.385   1.572   1.439
    2PC     H2B13064   0.565   1.607   1.456
    2PC     N3113065   0.520   1.426   1.387
    2PC     C3313066   0.421   1.313   1.392
    2PC     H3A13067   0.422   1.263   1.489
    2PC     H3B13068   0.321   1.350   1.370
    2PC     H3C13069   0.435   1.246   1.307
    2PC     C3413070   0.508   1.470   1.244
    2PC     H4A13071   0.487   1.383   1.182
    2PC     H4B13072   0.424   1.539   1.239
    2PC     H4C13073   0.598   1.527   1.219
    2PC     C3513074   0.657   1.372   1.412
    2PC     H5A13075   0.676   1.293   1.339
    2PC     H5B13076   0.656   1.326   1.511
    2PC     H5C13077   0.734   1.447   1.392
    2PC     O3313078   0.466   1.868   1.626
    2PC     O3413079   0.658   1.720   1.652
    2PC     O2113080   0.582   1.782   2.162
    2PC     C2113081   0.535   1.672   2.224
    2PC     O2213082   0.571   1.557   2.213
    3OL     C1213083   0.430   1.722   2.320
    3OL     H2R13084   0.356   1.780   2.265
    3OL     H2S13085   0.482   1.787   2.391
    3OL     C1313086   0.363   1.607   2.397
    3OL     H3R13087   0.441   1.559   2.456
    3OL     H3S13088   0.320   1.542   2.320
    3OL     C1413089   0.260   1.663   2.495
    3OL     H4R13090   0.193   1.728   2.439
    3OL     H4S13091   0.315   1.712   2.576
    3OL     C1513092   0.178   1.552   2.562
    3OL     H5R13093   0.159   1.584   2.665
    3OL     H5S13094   0.237   1.460   2.561
    3OL     C1613095   0.044   1.523   2.493
    3OL     H6R13096   0.067   1.470   2.401
    3OL     H6S13097  -0.006   1.618   2.474
    3OL     C1713098  -0.038   1.424   2.577
    3OL     H7R13099   0.024   1.337   2.598
    3OL     H7S13100  -0.129   1.387   2.529
    3OL     C1813101  -0.088   1.483   2.710
    3OL     H8R13102  -0.197   1.479   2.706
    3OL     H8S13103  -0.057   1.588   2.712
    3OL     C1913104  -0.035   1.412   2.831
    3OL     H9R13105   0.069   1.434   2.855
    3OL    C11013106  -0.099   1.331   2.915
    3OL    H10R13107  -0.049   1.291   3.002
    3OL    C11113108  -0.242   1.285   2.904
    3OL    H11R13109  -0.265   1.271   2.798
    3OL    H11S13110  -0.308   1.360   2.947
    3OL    C11213111  -0.263   1.154   2.982
    3OL    H12R13112  -0.249   1.167   3.089
    3OL    H12S13113  -0.187   1.082   2.952
    3OL    C11313114  -0.399   1.088   2.952
    3OL    H13R13115  -0.408   1.099   2.844
    3OL    H13S13116  -0.481   1.153   2.984
    3OL    C11413117  -0.421   0.938   2.977
    3OL    H14R13118  -0.457   0.926   3.079
    3OL    H14S13119  -0.333   0.874   2.973
    3OL    C11513120  -0.528   0.884   2.881
    3OL    H15R13121  -0.507   0.910   2.777
    3OL    H15S13122  -0.615   0.944   2.910
    3OL    C11613123  -0.554   0.733   2.879
    3OL    H16R13124  -0.629   0.701   2.951
    3OL    H16S13125  -0.464   0.673   2.899
    3OL    C11713126  -0.620   0.689   2.747
    3OL    H17R13127  -0.651   0.586   2.768
    3OL    H17S13128  -0.548   0.685   2.666
    3OL    C11813129  -0.736   0.780   2.703
    3OL    H18R13130  -0.814   0.766   2.778
    3OL    H18S13131  -0.781   0.745   2.610
    3OL    H18T13132  -0.702   0.883   2.696
    1PA    C11613133   0.914   1.505   2.717
    1PA    H16R13134   0.825   1.545   2.767
    1PA    H16S13135   0.911   1.396   2.719
    1PA    H16T13136   0.895   1.545   2.618
    1PA    C11513137   1.042   1.554   2.787
    1PA    H15R13138   1.120   1.512   2.723
    1PA    H15S13139   1.046   1.663   2.786
    1PA    C11413140   1.049   1.498   2.930
    1PA    H14R13141   1.009   1.397   2.932
    1PA    H14S13142   1.154   1.495   2.960
    1PA    C11313143   0.964   1.585   3.023
    1PA    H13R13144   0.987   1.692   3.020
    1PA    H13S13145   0.857   1.581   3.000
    1PA    C11213146   0.985   1.538   3.168
    1PA    H12R13147   1.058   1.457   3.174
    1PA    H12S13148   1.019   1.624   3.228
    1PA    C11113149   0.854   1.504   3.239
    1PA    H11R13150   0.861   1.489   3.347
    1PA    H11S13151   0.789   1.592   3.241
    1PA    C11013152   0.773   1.387   3.182
    1PA    H10R13153   0.681   1.376   3.240
    1PA    H10S13154   0.741   1.404   3.079
    1PA     C1913155   0.854   1.259   3.204
    1PA     H9R13156   0.946   1.274   3.148
    1PA     H9S13157   0.880   1.244   3.309
    1PA     C1813158   0.777   1.136   3.153
    1PA     H8R13159   0.830   1.047   3.189
    1PA     H8S13160   0.672   1.128   3.181
    1PA     C1713161   0.767   1.135   3.000
    1PA     H7R13162   0.662   1.128   2.969
    1PA     H7S13163   0.822   1.218   2.956
    1PA     C1613164   0.831   1.008   2.943
    1PA     H6R13165   0.938   1.000   2.965
    1PA     H6S13166   0.791   0.918   2.991
    1PA     C1513167   0.803   1.010   2.792
    1PA     H5R13168   0.697   1.005   2.765
    1PA     H5S13169   0.847   1.095   2.740
    1PA     C1413170   0.874   0.887   2.734
    1PA     H4R13171   0.981   0.906   2.724
    1PA     H4S13172   0.847   0.795   2.787
    1PA     C1313173   0.816   0.875   2.592
    1PA     H3R13174   0.707   0.881   2.596
    1PA     H3S13175   0.835   0.966   2.535
    1PA     C1213176   0.857   0.743   2.524
    1PA     H2R13177   0.963   0.737   2.496
    1PA     H2S13178   0.845   0.658   2.591
    2PC     C1113179   0.768   0.723   2.404
    2PC     O1213180   0.653   0.685   2.400
    2PC     O1113181   0.837   0.723   2.289
    2PC      C113182   0.764   0.712   2.165
    2PC      HR13183   0.656   0.723   2.180
    2PC      HS13184   0.800   0.783   2.090
    2PC      C213185   0.788   0.572   2.107
    2PC      HX13186   0.896   0.553   2.113
    2PC      C313187   0.732   0.558   1.965
    2PC      HA13188   0.790   0.605   1.885
    2PC      HB13189   0.706   0.455   1.941
    2PC     O3113190   0.612   0.637   1.962
    2PC     P3113191   0.532   0.667   1.827
    2PC     O3213192   0.475   0.530   1.765
    2PC     C3113193   0.465   0.491   1.627
    2PC     H1A13194   0.418   0.575   1.575
    2PC     H1B13195   0.565   0.472   1.586
    2PC     C3213196   0.384   0.363   1.605
    2PC     H2A13197   0.347   0.350   1.503
    2PC     H2B13198   0.451   0.284   1.637
    2PC     N3113199   0.260   0.334   1.685
    2PC     C3313200   0.294   0.300   1.826
    2PC     H3A13201   0.379   0.231   1.827
    2PC     H3B13202   0.328   0.395   1.867
    2PC     H3C13203   0.205   0.260   1.873
    2PC     C3413204   0.177   0.459   1.687
    2PC     H4A13205   0.228   0.544   1.732
    2PC     H4B13206   0.153   0.489   1.584
    2PC     H4C13207   0.095   0.443   1.757
    2PC     C3513208   0.181   0.219   1.630
    2PC     H5A13209   0.244   0.130   1.631
    2PC     H5B13210   0.124   0.226   1.537
    2PC     H5C13211   0.117   0.197   1.715
    2PC     O3313212   0.413   0.753   1.840
    2PC     O3413213   0.619   0.721   1.720
    2PC     O2113214   0.716   0.476   2.186
    2PC     C2113215   0.754   0.347   2.187
    2PC     O2213216   0.845   0.300   2.121
    3OL     C1213217   0.671   0.265   2.283
    3OL     H2R13218   0.656   0.168   2.237
    3OL     H2S13219   0.571   0.305   2.302
    3OL     C1313220   0.747   0.239   2.413
    3OL     H3R13221   0.757   0.339   2.454
    3OL     H3S13222   0.846   0.195   2.396
    3OL     C1413223   0.667   0.146   2.507
    3OL     H4R13224   0.694   0.041   2.491
    3OL     H4S13225   0.562   0.133   2.482
    3OL     C1513226   0.685   0.174   2.657
    3OL     H5R13227   0.637   0.267   2.687
    3OL     H5S13228   0.790   0.178   2.688
    3OL     C1613229   0.609   0.068   2.738
    3OL     H6R13230   0.674  -0.019   2.726
    3OL     H6S13231   0.508   0.057   2.698
    3OL     C1713232   0.591   0.106   2.885
    3OL     H7R13233   0.530   0.025   2.924
    3OL     H7S13234   0.537   0.201   2.888
    3OL     C1813235   0.723   0.120   2.963
    3OL     H8R13236   0.779   0.209   2.934
    3OL     H8S13237   0.775   0.028   2.935
    3OL     C1913238   0.682   0.134   3.107
    3OL     H9R13239   0.588   0.090   3.138
    3OL    C11013240   0.748   0.204   3.198
    3OL    H10R13241   0.707   0.220   3.297
    3OL    C11113242   0.875   0.283   3.176
    3OL    H11R13243   0.932   0.236   3.095
    3OL    H11S13244   0.935   0.289   3.266
    3OL    C11213245   0.834   0.427   3.140
    3OL    H12R13246   0.785   0.471   3.226
    3OL    H12S13247   0.760   0.438   3.060
    3OL    C11313248   0.950   0.518   3.099
    3OL    H13R13249   1.041   0.500   3.157
    3OL    H13S13250   0.923   0.623   3.113
    3OL    C11413251   0.979   0.501   2.949
    3OL    H14R13252   0.888   0.506   2.890
    3OL    H14S13253   1.021   0.402   2.928
    3OL    C11513254   1.080   0.606   2.900
    3OL    H15R13255   1.152   0.609   2.983
    3OL    H15S13256   1.028   0.701   2.893
    3OL    C11613257   1.163   0.573   2.775
    3OL    H16R13258   1.101   0.556   2.686
    3OL    H16S13259   1.223   0.485   2.800
    3OL    C11713260   1.243   0.699   2.738
    3OL    H17R13261   1.328   0.721   2.804
    3OL    H17S13262   1.174   0.782   2.751
    3OL    C11813263   1.295   0.704   2.594
    3OL    H18R13264   1.364   0.622   2.574
    3OL    H18S13265   1.355   0.794   2.581
    3OL    H18T13266   1.224   0.688   2.512
    1PA    C11613267   5.541   3.575   3.551
    1PA    H16R13268   5.556   3.467   3.559
    1PA    H16S13269   5.435   3.599   3.551
    1PA    H16T13270   5.600   3.617   3.633
    1PA    C11513271   5.601   3.631   3.421
    1PA    H15R13272   5.555   3.570   3.343
    1PA    H15S13273   5.571   3.735   3.409
    1PA    C11413274   5.754   3.617   3.418
    1PA    H14R13275   5.796   3.682   3.495
    1PA    H14S13276   5.802   3.525   3.452
    1PA    C11313277   5.807   3.668   3.283
    1PA    H13R13278   5.760   3.765   3.264
    1PA    H13S13279   5.916   3.670   3.293
    1PA    C11213280   5.774   3.569   3.171
    1PA    H12R13281   5.783   3.463   3.197
    1PA    H12S13282   5.669   3.581   3.142
    1PA    C11113283   5.853   3.609   3.046
    1PA    H11R13284   5.825   3.711   3.019
    1PA    H11S13285   5.959   3.617   3.072
    1PA    C11013286   5.850   3.512   2.927
    1PA    H10R13287   5.910   3.423   2.948
    1PA    H10S13288   5.751   3.479   2.896
    1PA     C1913289   5.898   3.588   2.803
    1PA     H9R13290   5.848   3.684   2.786
    1PA     H9S13291   5.998   3.624   2.829
    1PA     C1813292   5.908   3.499   2.679
    1PA     H8R13293   5.986   3.424   2.694
    1PA     H8S13294   5.815   3.448   2.655
    1PA     C1713295   5.954   3.583   2.559
    1PA     H7R13296   5.880   3.657   2.527
    1PA     H7S13297   6.045   3.633   2.591
    1PA     C1613298   5.982   3.497   2.434
    1PA     H6R13299   5.913   3.414   2.423
    1PA     H6S13300   5.971   3.551   2.339
    1PA     C1513301   6.120   3.431   2.448
    1PA     H5R13302   6.206   3.497   2.454
    1PA     H5S13303   6.132   3.380   2.543
    1PA     C1413304   6.149   3.327   2.338
    1PA     H4R13305   6.218   3.247   2.364
    1PA     H4S13306   6.056   3.286   2.300
    1PA     C1313307   6.224   3.392   2.221
    1PA     H3R13308   6.169   3.483   2.194
    1PA     H3S13309   6.328   3.420   2.239
    1PA     C1213310   6.236   3.289   2.107
    1PA     H2R13311   6.319   3.313   2.040
    1PA     H2S13312   6.263   3.191   2.146
    2PC     C1113313   6.111   3.262   2.026
    2PC     O1213314   6.059   3.153   2.038
    2PC     O1113315   6.080   3.361   1.942
    2PC      C113316   5.971   3.344   1.850
    2PC      HR13317   5.957   3.243   1.808
    2PC      HS13318   5.875   3.368   1.898
    2PC      C213319   5.982   3.454   1.744
    2PC      HX13320   5.898   3.460   1.675
    2PC      C313321   6.117   3.447   1.672
    2PC      HA13322   6.205   3.451   1.738
    2PC      HB13323   6.117   3.353   1.616
    2PC     O3113324   6.144   3.561   1.587
    2PC     P3113325   6.142   3.542   1.428
    2PC     O3213326   5.990   3.502   1.396
    2PC     C3113327   5.929   3.530   1.268
    2PC     H1A13328   5.967   3.619   1.218
    2PC     H1B13329   5.946   3.439   1.210
    2PC     C3213330   5.778   3.545   1.291
    2PC     H2A13331   5.733   3.522   1.195
    2PC     H2B13332   5.749   3.469   1.364
    2PC     N3113333   5.729   3.673   1.353
    2PC     C3313334   5.580   3.678   1.339
    2PC     H3A13335   5.565   3.722   1.240
    2PC     H3B13336   5.534   3.580   1.353
    2PC     H3C13337   5.540   3.746   1.415
    2PC     C3413338   5.766   3.674   1.498
    2PC     H4A13339   5.718   3.759   1.547
    2PC     H4B13340   5.727   3.579   1.535
    2PC     H4C13341   5.875   3.680   1.502
    2PC     C3513342   5.790   3.790   1.282
    2PC     H5A13343   5.739   3.882   1.311
    2PC     H5B13344   5.774   3.779   1.175
    2PC     H5C13345   5.896   3.791   1.306
    2PC     O3313346   6.174   3.668   1.357
    2PC     O3413347   6.253   3.448   1.403
    2PC     O2113348   5.976   3.581   1.812
    2PC     C2113349   5.863   3.643   1.850
    2PC     O2213350   5.754   3.597   1.821
    3OL     C1213351   5.886   3.767   1.932
    3OL     H2R13352   5.831   3.850   1.887
    3OL     H2S13353   5.992   3.790   1.920
    3OL     C1313354   5.868   3.752   2.083
    3OL     H3R13355   5.935   3.677   2.126
    3OL     H3S13356   5.767   3.711   2.092
    3OL     C1413357   5.894   3.885   2.155
    3OL     H4R13358   5.820   3.961   2.128
    3OL     H4S13359   5.989   3.928   2.124
    3OL     C1513360   5.900   3.879   2.308
    3OL     H5R13361   5.966   3.795   2.331
    3OL     H5S13362   5.797   3.856   2.339
    3OL     C1613363   5.928   4.016   2.372
    3OL     H6R13364   5.847   4.085   2.347
    3OL     H6S13365   6.022   4.051   2.330
    3OL     C1713366   5.941   4.018   2.525
    3OL     H7R13367   5.975   4.118   2.553
    3OL     H7S13368   6.020   3.946   2.550
    3OL     C1813369   5.815   3.979   2.602
    3OL     H8R13370   5.761   3.896   2.556
    3OL     H8S13371   5.742   4.058   2.585
    3OL     C1913372   5.830   3.963   2.752
    3OL     H9R13373   5.889   3.873   2.770
    3OL    C11013374   5.761   4.029   2.843
    3OL    H10R13375   5.768   4.007   2.949
    3OL    C11113376   5.680   4.152   2.812
    3OL    H11R13377   5.608   4.141   2.731
    3OL    H11S13378   5.754   4.219   2.767
    3OL    C11213379   5.599   4.219   2.924
    3OL    H12R13380   5.525   4.152   2.969
    3OL    H12S13381   5.540   4.302   2.886
    3OL    C11313382   5.685   4.269   3.041
    3OL    H13R13383   5.739   4.360   3.013
    3OL    H13S13384   5.758   4.191   3.066
    3OL    C11413385   5.598   4.307   3.161
    3OL    H14R13386   5.662   4.325   3.248
    3OL    H14S13387   5.527   4.228   3.189
    3OL    C11513388   5.526   4.439   3.131
    3OL    H15R13389   5.435   4.426   3.072
    3OL    H15S13390   5.593   4.506   3.077
    3OL    C11613391   5.472   4.509   3.257
    3OL    H16R13392   5.545   4.505   3.338
    3OL    H16S13393   5.382   4.463   3.299
    3OL    C11713394   5.432   4.653   3.220
    3OL    H17R13395   5.347   4.659   3.153
    3OL    H17S13396   5.513   4.697   3.161
    3OL    C11813397   5.409   4.742   3.342
    3OL    H18R13398   5.493   4.735   3.412
    3OL    H18S13399   5.317   4.719   3.395
    3OL    H18T13400   5.404   4.844   3.305
    1PA    C11613401   2.608   1.327   3.214
    1PA    H16R13402   2.592   1.219   3.205
    1PA    H16S13403   2.517   1.377   3.246
    1PA    H16T13404   2.686   1.344   3.288
    1PA    C11513405   2.649   1.396   3.083
    1PA    H15R13406   2.619   1.501   3.086
    1PA    H15S13407   2.757   1.380   3.082
    1PA    C11413408   2.582   1.324   2.965
    1PA    H14R13409   2.606   1.218   2.971
    1PA    H14S13410   2.475   1.342   2.974
    1PA    C11313411   2.638   1.354   2.825
    1PA    H13R13412   2.746   1.369   2.815
    1PA    H13S13413   2.614   1.276   2.752
    1PA    C11213414   2.587   1.491   2.778
    1PA    H12R13415   2.482   1.511   2.801
    1PA    H12S13416   2.638   1.567   2.838
    1PA    C11113417   2.610   1.514   2.628
    1PA    H11R13418   2.712   1.482   2.604
    1PA    H11S13419   2.536   1.453   2.577
    1PA    C11013420   2.577   1.654   2.575
    1PA    H10R13421   2.470   1.674   2.580
    1PA    H10S13422   2.635   1.723   2.637
    1PA     C1913423   2.610   1.660   2.425
    1PA     H9R13424   2.714   1.628   2.421
    1PA     H9S13425   2.559   1.581   2.369
    1PA     C1813426   2.578   1.799   2.368
    1PA     H8R13427   2.482   1.828   2.412
    1PA     H8S13428   2.652   1.867   2.410
    1PA     C1713429   2.586   1.808   2.215
    1PA     H7R13430   2.693   1.800   2.196
    1PA     H7S13431   2.533   1.722   2.173
    1PA     C1613432   2.540   1.941   2.155
    1PA     H6R13433   2.434   1.964   2.163
    1PA     H6S13434   2.586   2.019   2.216
    1PA     C1513435   2.601   1.949   2.014
    1PA     H5R13436   2.708   1.924   2.016
    1PA     H5S13437   2.553   1.869   1.958
    1PA     C1413438   2.583   2.089   1.954
    1PA     H4R13439   2.632   2.166   2.014
    1PA     H4S13440   2.633   2.080   1.857
    1PA     C1313441   2.439   2.133   1.924
    1PA     H3R13442   2.383   2.132   2.018
    1PA     H3S13443   2.449   2.234   1.884
    1PA     C1213444   2.378   2.039   1.819
    1PA     H2R13445   2.433   2.034   1.725
    1PA     H2S13446   2.381   1.936   1.854
    2PC     C1113447   2.235   2.084   1.803
    2PC     O1213448   2.169   2.139   1.889
    2PC     O1113449   2.179   2.068   1.681
    2PC      C113450   2.049   2.122   1.652
    2PC      HR13451   2.007   2.056   1.577
    2PC      HS13452   1.972   2.122   1.729
    2PC      C213453   2.068   2.258   1.583
    2PC      HX13454   1.977   2.314   1.561
    2PC      C313455   2.146   2.237   1.453
    2PC      HA13456   2.234   2.176   1.475
    2PC      HB13457   2.089   2.188   1.374
    2PC     O3113458   2.180   2.364   1.394
    2PC     P3113459   2.067   2.449   1.319
    2PC     O3213460   2.103   2.396   1.172
    2PC     C3113461   2.008   2.306   1.112
    2PC     H1A13462   1.979   2.228   1.183
    2PC     H1B13463   1.921   2.363   1.079
    2PC     C3213464   2.065   2.246   0.983
    2PC     H2A13465   1.998   2.169   0.945
    2PC     H2B13466   2.074   2.320   0.903
    2PC     N3113467   2.188   2.161   0.995
    2PC     C3313468   2.169   2.045   1.088
    2PC     H3A13469   2.081   1.991   1.055
    2PC     H3B13470   2.258   1.982   1.078
    2PC     H3C13471   2.160   2.086   1.189
    2PC     C3413472   2.224   2.108   0.859
    2PC     H4A13473   2.141   2.043   0.831
    2PC     H4B13474   2.248   2.198   0.802
    2PC     H4C13475   2.319   2.055   0.863
    2PC     C3513476   2.302   2.245   1.046
    2PC     H5A13477   2.290   2.255   1.154
    2PC     H5B13478   2.300   2.341   0.995
    2PC     H5C13479   2.391   2.188   1.020
    2PC     O3313480   1.922   2.439   1.350
    2PC     O3413481   2.100   2.592   1.331
    2PC     O2113482   2.146   2.347   1.665
    2PC     C2113483   2.093   2.381   1.783
    2PC     O2213484   1.981   2.361   1.825
    3OL     C1213485   2.198   2.454   1.863
    3OL     H2R13486   2.235   2.535   1.800
    3OL     H2S13487   2.289   2.395   1.877
    3OL     C1313488   2.142   2.501   1.998
    3OL     H3R13489   2.099   2.420   2.057
    3OL     H3S13490   2.061   2.572   1.980
    3OL     C1413491   2.244   2.579   2.083
    3OL     H4R13492   2.186   2.650   2.143
    3OL     H4S13493   2.300   2.635   2.008
    3OL     C1513494   2.335   2.482   2.159
    3OL     H5R13495   2.384   2.412   2.091
    3OL     H5S13496   2.267   2.415   2.211
    3OL     C1613497   2.438   2.553   2.249
    3OL     H6R13498   2.400   2.621   2.326
    3OL     H6S13499   2.488   2.610   2.171
    3OL     C1713500   2.534   2.449   2.309
    3OL     H7R13501   2.610   2.512   2.356
    3OL     H7S13502   2.577   2.383   2.235
    3OL     C1813503   2.483   2.351   2.416
    3OL     H8R13504   2.408   2.287   2.368
    3OL     H8S13505   2.429   2.402   2.496
    3OL     C1913506   2.598   2.264   2.461
    3OL     H9R13507   2.630   2.188   2.391
    3OL    C11013508   2.643   2.255   2.585
    3OL    H10R13509   2.721   2.181   2.603
    3OL    C11113510   2.611   2.355   2.693
    3OL    H11R13511   2.503   2.356   2.709
    3OL    H11S13512   2.638   2.455   2.658
    3OL    C11213513   2.698   2.335   2.817
    3OL    H12R13514   2.805   2.351   2.800
    3OL    H12S13515   2.690   2.239   2.868
    3OL    C11313516   2.650   2.444   2.913
    3OL    H13R13517   2.541   2.447   2.922
    3OL    H13S13518   2.676   2.533   2.854
    3OL    C11413519   2.710   2.454   3.053
    3OL    H14R13520   2.817   2.471   3.035
    3OL    H14S13521   2.703   2.359   3.106
    3OL    C11513522   2.646   2.569   3.131
    3OL    H15R13523   2.540   2.546   3.142
    3OL    H15S13524   2.642   2.657   3.066
    3OL    C11613525   2.715   2.592   3.267
    3OL    H16R13526   2.809   2.647   3.259
    3OL    H16S13527   2.746   2.495   3.307
    3OL    C11713528   2.636   2.668   3.374
    3OL    H17R13529   2.628   2.771   3.339
    3OL    H17S13530   2.709   2.668   3.455
    3OL    C11813531   2.502   2.600   3.405
    3OL    H18R13532   2.418   2.634   3.344
    3OL    H18S13533   2.484   2.620   3.511
    3OL    H18T13534   2.511   2.494   3.380
    1PA    C11613535   3.844   5.374   4.024
    1PA    H16R13536   3.883   5.399   4.122
    1PA    H16S13537   3.876   5.272   4.004
    1PA    H16T13538   3.735   5.373   4.034
    1PA    C11513539   3.888   5.463   3.906
    1PA    H15R13540   3.846   5.414   3.818
    1PA    H15S13541   3.845   5.562   3.921
    1PA    C11413542   4.040   5.469   3.889
    1PA    H14R13543   4.098   5.494   3.979
    1PA    H14S13544   4.080   5.369   3.870
    1PA    C11313545   4.083   5.568   3.780
    1PA    H13R13546   4.025   5.658   3.805
    1PA    H13S13547   4.190   5.584   3.791
    1PA    C11213548   4.037   5.522   3.641
    1PA    H12R13549   4.062   5.416   3.629
    1PA    H12S13550   3.929   5.536   3.634
    1PA    C11113551   4.094   5.614   3.533
    1PA    H11R13552   4.085   5.723   3.536
    1PA    H11S13553   4.202   5.601   3.542
    1PA    C11013554   4.042   5.578   3.394
    1PA    H10R13555   4.035   5.469   3.386
    1PA    H10S13556   3.945   5.622   3.369
    1PA     C1913557   4.139   5.624   3.284
    1PA     H9R13558   4.137   5.733   3.282
    1PA     H9S13559   4.238   5.597   3.322
    1PA     C1813560   4.098   5.572   3.145
    1PA     H8R13561   4.081   5.464   3.153
    1PA     H8S13562   4.010   5.621   3.105
    1PA     C1713563   4.214   5.579   3.044
    1PA     H7R13564   4.278   5.664   3.069
    1PA     H7S13565   4.265   5.483   3.055
    1PA     C1613566   4.164   5.609   2.902
    1PA     H6R13567   4.076   5.546   2.883
    1PA     H6S13568   4.128   5.711   2.892
    1PA     C1513569   4.276   5.589   2.800
    1PA     H5R13570   4.354   5.658   2.832
    1PA     H5S13571   4.318   5.489   2.800
    1PA     C1413572   4.230   5.623   2.657
    1PA     H4R13573   4.139   5.570   2.630
    1PA     H4S13574   4.208   5.730   2.658
    1PA     C1313575   4.335   5.601   2.547
    1PA     H3R13576   4.360   5.496   2.530
    1PA     H3S13577   4.293   5.634   2.452
    1PA     C1213578   4.462   5.675   2.590
    1PA     H2R13579   4.430   5.773   2.625
    1PA     H2S13580   4.519   5.618   2.664
    2PC     C1113581   4.546   5.698   2.467
    2PC     O1213582   4.551   5.628   2.368
    2PC     O1113583   4.615   5.812   2.487
    2PC      C113584   4.690   5.854   2.372
    2PC      HR13585   4.769   5.924   2.403
    2PC      HS13586   4.743   5.774   2.319
    2PC      C213587   4.592   5.911   2.269
    2PC      HX13588   4.533   5.834   2.219
    2PC      C313589   4.663   6.007   2.172
    2PC      HA13590   4.695   6.092   2.232
    2PC      HB13591   4.753   5.955   2.138
    2PC     O3113592   4.584   6.039   2.056
    2PC     P3113593   4.554   5.931   1.941
    2PC     O3213594   4.395   5.929   1.921
    2PC     C3113595   4.337   5.797   1.916
    2PC     H1A13596   4.378   5.735   1.836
    2PC     H1B13597   4.359   5.753   2.013
    2PC     C3213598   4.185   5.796   1.893
    2PC     H2A13599   4.147   5.694   1.898
    2PC     H2B13600   4.146   5.855   1.975
    2PC     N3113601   4.126   5.852   1.767
    2PC     C3313602   3.976   5.849   1.768
    2PC     H3A13603   3.928   5.899   1.684
    2PC     H3B13604   3.951   5.743   1.774
    2PC     H3C13605   3.949   5.889   1.866
    2PC     C3413606   4.171   5.993   1.741
    2PC     H4A13607   4.277   5.993   1.715
    2PC     H4B13608   4.120   6.032   1.654
    2PC     H4C13609   4.154   6.049   1.833
    2PC     C3513610   4.188   5.772   1.656
    2PC     H5A13611   4.176   5.666   1.680
    2PC     H5B13612   4.289   5.810   1.645
    2PC     H5C13613   4.134   5.807   1.568
    2PC     O3313614   4.621   5.977   1.817
    2PC     O3413615   4.605   5.798   1.980
    2PC     O2113616   4.508   6.003   2.341
    2PC     C2113617   4.376   5.981   2.350
    2PC     O2213618   4.309   5.892   2.301
    3OL     C1213619   4.312   6.089   2.433
    3OL     H2R13620   4.205   6.098   2.415
    3OL     H2S13621   4.347   6.186   2.396
    3OL     C1313622   4.340   6.087   2.584
    3OL     H3R13623   4.445   6.059   2.597
    3OL     H3S13624   4.281   6.006   2.627
    3OL     C1413625   4.311   6.223   2.649
    3OL     H4R13626   4.313   6.200   2.756
    3OL     H4S13627   4.215   6.265   2.620
    3OL     C1513628   4.426   6.320   2.617
    3OL     H5R13629   4.424   6.342   2.510
    3OL     H5S13630   4.522   6.271   2.637
    3OL     C1613631   4.412   6.455   2.690
    3OL     H6R13632   4.324   6.512   2.660
    3OL     H6S13633   4.506   6.509   2.678
    3OL     C1713634   4.406   6.432   2.841
    3OL     H7R13635   4.485   6.360   2.861
    3OL     H7S13636   4.308   6.390   2.862
    3OL     C1813637   4.415   6.556   2.931
    3OL     H8R13638   4.496   6.623   2.899
    3OL     H8S13639   4.449   6.517   3.028
    3OL     C1913640   4.279   6.620   2.936
    3OL     H9R13641   4.271   6.700   2.863
    3OL    C11013642   4.187   6.603   3.030
    3OL    H10R13643   4.095   6.661   3.029
    3OL    C11113644   4.173   6.478   3.113
    3OL    H11R13645   4.214   6.393   3.058
    3OL    H11S13646   4.068   6.453   3.124
    3OL    C11213647   4.247   6.499   3.246
    3OL    H12R13648   4.215   6.593   3.292
    3OL    H12S13649   4.355   6.487   3.238
    3OL    C11313650   4.201   6.384   3.337
    3OL    H13R13651   4.210   6.284   3.294
    3OL    H13S13652   4.094   6.400   3.349
    3OL    C11413653   4.271   6.390   3.474
    3OL    H14R13654   4.232   6.481   3.519
    3OL    H14S13655   4.377   6.403   3.454
    3OL    C11513656   4.257   6.258   3.552
    3OL    H15R13657   4.344   6.251   3.618
    3OL    H15S13658   4.272   6.174   3.485
    3OL    C11613659   4.127   6.246   3.633
    3OL    H16R13660   4.134   6.144   3.672
    3OL    H16S13661   4.037   6.258   3.572
    3OL    C11713662   4.119   6.331   3.760
    3OL    H17R13663   4.038   6.295   3.824
    3OL    H17S13664   4.112   6.436   3.733
    3OL    C11813665   4.236   6.303   3.856
    3OL    H18R13666   4.225   6.199   3.887
    3OL    H18S13667   4.225   6.357   3.951
    3OL    H18T13668   4.334   6.317   3.811
    1PA    C11613669   6.707   5.644   3.066
    1PA    H16R13670   6.698   5.751   3.083
    1PA    H16S13671   6.811   5.615   3.049
    1PA    H16T13672   6.667   5.589   3.151
    1PA    C11513673   6.635   5.599   2.938
    1PA    H15R13674   6.527   5.597   2.958
    1PA    H15S13675   6.648   5.672   2.858
    1PA    C11413676   6.688   5.463   2.889
    1PA    H14R13677   6.796   5.462   2.878
    1PA    H14S13678   6.648   5.382   2.950
    1PA    C11313679   6.636   5.423   2.751
    1PA    H13R13680   6.527   5.427   2.738
    1PA    H13S13681   6.671   5.498   2.680
    1PA    C11213682   6.687   5.284   2.713
    1PA    H12R13683   6.795   5.299   2.706
    1PA    H12S13684   6.654   5.216   2.792
    1PA    C11113685   6.638   5.238   2.575
    1PA    H11R13686   6.530   5.219   2.584
    1PA    H11S13687   6.662   5.316   2.503
    1PA    C11013688   6.695   5.101   2.534
    1PA    H10R13689   6.789   5.124   2.484
    1PA    H10S13690   6.710   5.038   2.622
    1PA     C1913691   6.604   5.028   2.434
    1PA     H9R13692   6.616   4.921   2.448
    1PA     H9S13693   6.497   5.041   2.453
    1PA     C1813694   6.640   5.069   2.290
    1PA     H8R13695   6.626   5.176   2.277
    1PA     H8S13696   6.741   5.045   2.256
    1PA     C1713697   6.545   4.999   2.193
    1PA     H7R13698   6.560   5.039   2.092
    1PA     H7S13699   6.563   4.892   2.197
    1PA     C1613700   6.395   5.025   2.215
    1PA     H6R13701   6.370   4.998   2.318
    1PA     H6S13702   6.370   5.129   2.193
    1PA     C1513703   6.300   4.950   2.121
    1PA     H5R13704   6.343   4.942   2.021
    1PA     H5S13705   6.284   4.852   2.166
    1PA     C1413706   6.162   5.017   2.122
    1PA     H4R13707   6.131   5.035   2.225
    1PA     H4S13708   6.174   5.123   2.097
    1PA     C1313709   6.051   4.945   2.044
    1PA     H3R13710   6.089   4.934   1.943
    1PA     H3S13711   6.040   4.843   2.081
    1PA     C1213712   5.919   5.024   2.039
    1PA     H2R13713   5.871   5.049   2.133
    1PA     H2S13714   5.932   5.118   1.986
    2PC     C1113715   5.820   4.948   1.954
    2PC     O1213716   5.854   4.846   1.896
    2PC     O1113717   5.696   4.999   1.952
    2PC      C113718   5.599   4.938   1.867
    2PC      HR13719   5.642   4.942   1.766
    2PC      HS13720   5.590   4.834   1.897
    2PC      C213721   5.461   5.005   1.884
    2PC      HX13722   5.391   4.939   1.833
    2PC      C313723   5.462   5.147   1.825
    2PC      HA13724   5.513   5.211   1.897
    2PC      HB13725   5.522   5.148   1.733
    2PC     O3113726   5.331   5.195   1.789
    2PC     P3113727   5.257   5.134   1.661
    2PC     O3213728   5.198   5.266   1.593
    2PC     C3113729   5.289   5.348   1.516
    2PC     H1A13730   5.377   5.377   1.573
    2PC     H1B13731   5.320   5.291   1.428
    2PC     C3213732   5.223   5.478   1.466
    2PC     H2A13733   5.197   5.549   1.545
    2PC     H2B13734   5.296   5.534   1.407
    2PC     N3113735   5.105   5.466   1.375
    2PC     C3313736   5.152   5.402   1.248
    2PC     H3A13737   5.254   5.437   1.230
    2PC     H3B13738   5.164   5.296   1.269
    2PC     H3C13739   5.080   5.418   1.168
    2PC     C3413740   4.995   5.390   1.443
    2PC     H4A13741   4.913   5.384   1.371
    2PC     H4B13742   5.027   5.291   1.477
    2PC     H4C13743   4.946   5.440   1.526
    2PC     C3513744   5.054   5.607   1.360
    2PC     H5A13745   5.020   5.640   1.458
    2PC     H5B13746   4.973   5.600   1.288
    2PC     H5C13747   5.138   5.667   1.324
    2PC     O3313748   5.350   5.056   1.576
    2PC     O3413749   5.147   5.044   1.701
    2PC     O2113750   5.421   5.011   2.022
    2PC     C2113751   5.375   4.902   2.086
    2PC     O2213752   5.378   4.792   2.034
    3OL     C1213753   5.336   4.925   2.229
    3OL     H2R13754   5.271   5.011   2.246
    3OL     H2S13755   5.433   4.956   2.270
    3OL     C1313756   5.293   4.801   2.310
    3OL     H3R13757   5.351   4.712   2.286
    3OL     H3S13758   5.193   4.770   2.279
    3OL     C1413759   5.299   4.820   2.462
    3OL     H4R13760   5.391   4.868   2.494
    3OL     H4S13761   5.297   4.725   2.516
    3OL     C1513762   5.183   4.914   2.500
    3OL     H5R13763   5.085   4.877   2.470
    3OL     H5S13764   5.205   5.011   2.455
    3OL     C1613765   5.178   4.926   2.652
    3OL     H6R13766   5.211   4.829   2.690
    3OL     H6S13767   5.081   4.960   2.689
    3OL     C1713768   5.283   5.029   2.694
    3OL     H7R13769   5.261   5.126   2.648
    3OL     H7S13770   5.384   5.006   2.658
    3OL     C1813771   5.272   5.044   2.847
    3OL     H8R13772   5.271   4.951   2.905
    3OL     H8S13773   5.173   5.088   2.857
    3OL     C1913774   5.365   5.148   2.904
    3OL     H9R13775   5.456   5.103   2.943
    3OL    C11013776   5.341   5.275   2.932
    3OL    H10R13777   5.415   5.331   2.988
    3OL    C11113778   5.221   5.354   2.886
    3OL    H11R13779   5.152   5.281   2.843
    3OL    H11S13780   5.253   5.416   2.802
    3OL    C11213781   5.169   5.449   2.994
    3OL    H12R13782   5.242   5.527   3.017
    3OL    H12S13783   5.152   5.391   3.085
    3OL    C11313784   5.033   5.516   2.968
    3OL    H13R13785   5.006   5.561   3.064
    3OL    H13S13786   4.954   5.452   2.929
    3OL    C11413787   5.041   5.644   2.884
    3OL    H14R13788   5.070   5.608   2.785
    3OL    H14S13789   5.111   5.723   2.912
    3OL    C11513790   4.901   5.707   2.877
    3OL    H15R13791   4.863   5.739   2.974
    3OL    H15S13792   4.832   5.642   2.823
    3OL    C11613793   4.896   5.835   2.794
    3OL    H16R13794   4.921   5.802   2.693
    3OL    H16S13795   4.972   5.908   2.823
    3OL    C11713796   4.752   5.890   2.801
    3OL    H17R13797   4.729   5.899   2.907
    3OL    H17S13798   4.680   5.822   2.756
    3OL    C11813799   4.750   6.030   2.737
    3OL    H18R13800   4.650   6.072   2.748
    3OL    H18S13801   4.767   6.009   2.631
    3OL    H18T13802   4.826   6.094   2.781
    1PA    C11613803   2.963   1.489   3.593
    1PA    H16R13804   2.984   1.389   3.632
    1PA    H16S13805   2.907   1.478   3.500
    1PA    H16T13806   2.896   1.540   3.662
    1PA    C11513807   3.090   1.569   3.559
    1PA    H15R13808   3.147   1.513   3.485
    1PA    H15S13809   3.077   1.669   3.517
    1PA    C11413810   3.170   1.577   3.689
    1PA    H14R13811   3.120   1.626   3.772
    1PA    H14S13812   3.191   1.479   3.733
    1PA    C11313813   3.303   1.649   3.659
    1PA    H13R13814   3.280   1.721   3.580
    1PA    H13S13815   3.337   1.698   3.750
    1PA    C11213816   3.414   1.559   3.602
    1PA    H12R13817   3.443   1.492   3.684
    1PA    H12S13818   3.380   1.501   3.517
    1PA    C11113819   3.529   1.649   3.556
    1PA    H11R13820   3.492   1.735   3.500
    1PA    H11S13821   3.588   1.684   3.641
    1PA    C11013822   3.629   1.570   3.469
    1PA    H10R13823   3.681   1.504   3.538
    1PA    H10S13824   3.583   1.501   3.398
    1PA     C1913825   3.729   1.660   3.395
    1PA     H9R13826   3.752   1.742   3.464
    1PA     H9S13827   3.821   1.608   3.367
    1PA     C1813828   3.655   1.700   3.267
    1PA     H8R13829   3.637   1.611   3.207
    1PA     H8S13830   3.557   1.731   3.306
    1PA     C1713831   3.719   1.798   3.168
    1PA     H7R13832   3.656   1.795   3.079
    1PA     H7S13833   3.720   1.902   3.203
    1PA     C1613834   3.862   1.746   3.144
    1PA     H6R13835   3.923   1.755   3.234
    1PA     H6S13836   3.861   1.638   3.125
    1PA     C1513837   3.928   1.827   3.032
    1PA     H5R13838   3.936   1.934   3.055
    1PA     H5S13839   4.028   1.784   3.024
    1PA     C1413840   3.873   1.814   2.889
    1PA     H4R13841   3.878   1.710   2.857
    1PA     H4S13842   3.769   1.847   2.903
    1PA     C1313843   3.951   1.902   2.790
    1PA     H3R13844   3.887   1.951   2.717
    1PA     H3S13845   4.000   1.983   2.844
    1PA     C1213846   4.055   1.821   2.713
    1PA     H2R13847   4.140   1.777   2.767
    1PA     H2S13848   4.012   1.730   2.672
    2PC     C1113849   4.112   1.914   2.609
    2PC     O1213850   4.171   2.013   2.646
    2PC     O1113851   4.104   1.872   2.482
    2PC      C113852   4.180   1.946   2.385
    2PC      HR13853   4.144   2.048   2.369
    2PC      HS13854   4.283   1.956   2.419
    2PC      C213855   4.183   1.879   2.246
    2PC      HX13856   4.265   1.924   2.189
    2PC      C313857   4.051   1.873   2.169
    2PC      HA13858   3.984   1.802   2.218
    2PC      HB13859   3.986   1.961   2.168
    2PC     O3113860   4.074   1.822   2.037
    2PC     P3113861   3.953   1.818   1.932
    2PC     O3213862   4.028   1.821   1.791
    2PC     C3113863   4.058   1.705   1.711
    2PC     H1A13864   4.140   1.649   1.756
    2PC     H1B13865   3.970   1.641   1.703
    2PC     C3213866   4.103   1.762   1.576
    2PC     H2A13867   4.115   1.676   1.510
    2PC     H2B13868   4.028   1.836   1.549
    2PC     N3113869   4.235   1.832   1.565
    2PC     C3313870   4.223   1.975   1.609
    2PC     H3A13871   4.163   1.990   1.700
    2PC     H3B13872   4.317   2.029   1.620
    2PC     H3C13873   4.165   2.029   1.534
    2PC     C3413874   4.331   1.767   1.661
    2PC     H4A13875   4.432   1.801   1.640
    2PC     H4B13876   4.295   1.789   1.762
    2PC     H4C13877   4.326   1.659   1.645
    2PC     C3513878   4.299   1.832   1.430
    2PC     H5A13879   4.358   1.741   1.417
    2PC     H5B13880   4.382   1.902   1.427
    2PC     H5C13881   4.226   1.853   1.351
    2PC     O3313882   3.863   1.700   1.937
    2PC     O3413883   3.859   1.931   1.953
    2PC     O2113884   4.222   1.746   2.284
    2PC     C2113885   4.353   1.723   2.305
    2PC     O2213886   4.437   1.810   2.303
    3OL     C1213887   4.380   1.578   2.337
    3OL     H2R13888   4.483   1.550   2.363
    3OL     H2S13889   4.347   1.517   2.253
    3OL     C1313890   4.304   1.540   2.465
    3OL     H3R13891   4.300   1.431   2.456
    3OL     H3S13892   4.205   1.585   2.464
    3OL     C1413893   4.386   1.565   2.593
    3OL     H4R13894   4.413   1.670   2.606
    3OL     H4S13895   4.486   1.521   2.594
    3OL     C1513896   4.307   1.520   2.716
    3OL     H5R13897   4.302   1.411   2.721
    3OL     H5S13898   4.201   1.547   2.715
    3OL     C1613899   4.369   1.571   2.847
    3OL     H6R13900   4.315   1.519   2.926
    3OL     H6S13901   4.336   1.674   2.864
    3OL     C1713902   4.521   1.554   2.860
    3OL     H7R13903   4.581   1.607   2.785
    3OL     H7S13904   4.552   1.454   2.829
    3OL     C1813905   4.566   1.565   3.006
    3OL     H8R13906   4.672   1.537   3.011
    3OL     H8S13907   4.506   1.502   3.072
    3OL     C1913908   4.558   1.709   3.049
    3OL     H9R13909   4.647   1.759   3.013
    3OL    C11013910   4.469   1.774   3.124
    3OL    H10R13911   4.491   1.877   3.149
    3OL    C11113912   4.344   1.710   3.179
    3OL    H11R13913   4.342   1.605   3.151
    3OL    H11S13914   4.258   1.758   3.131
    3OL    C11213915   4.332   1.735   3.330
    3OL    H12R13916   4.325   1.842   3.346
    3OL    H12S13917   4.423   1.699   3.378
    3OL    C11313918   4.215   1.661   3.396
    3OL    H13R13919   4.127   1.677   3.333
    3OL    H13S13920   4.188   1.704   3.493
    3OL    C11413921   4.244   1.513   3.423
    3OL    H14R13922   4.332   1.504   3.487
    3OL    H14S13923   4.259   1.461   3.328
    3OL    C11513924   4.122   1.452   3.494
    3OL    H15R13925   4.031   1.473   3.438
    3OL    H15S13926   4.115   1.486   3.598
    3OL    C11613927   4.151   1.303   3.511
    3OL    H16R13928   4.237   1.285   3.577
    3OL    H16S13929   4.172   1.260   3.413
    3OL    C11713930   4.021   1.243   3.567
    3OL    H17R13931   3.946   1.267   3.491
    3OL    H17S13932   3.981   1.290   3.657
    3OL    C11813933   4.032   1.091   3.582
    3OL    H18R13934   4.120   1.075   3.644
    3OL    H18S13935   4.057   1.055   3.482
    3OL    H18T13936   3.951   1.031   3.623
    1PA    C11613937   5.131   5.566   3.466
    1PA    H16R13938   5.160   5.527   3.368
    1PA    H16S13939   5.025   5.542   3.475
    1PA    H16T13940   5.186   5.521   3.549
    1PA    C11513941   5.154   5.718   3.463
    1PA    H15R13942   5.105   5.767   3.548
    1PA    H15S13943   5.261   5.736   3.468
    1PA    C11413944   5.097   5.768   3.330
    1PA    H14R13945   5.148   5.862   3.311
    1PA    H14S13946   5.115   5.699   3.248
    1PA    C11313947   4.950   5.813   3.333
    1PA    H13R13948   4.900   5.717   3.329
    1PA    H13S13949   4.931   5.866   3.427
    1PA    C11213950   4.916   5.907   3.216
    1PA    H12R13951   4.980   5.994   3.227
    1PA    H12S13952   4.936   5.865   3.117
    1PA    C11113953   4.773   5.961   3.224
    1PA    H11R13954   4.714   5.875   3.190
    1PA    H11S13955   4.752   5.972   3.331
    1PA    C11013956   4.750   6.094   3.152
    1PA    H10R13957   4.812   6.166   3.205
    1PA    H10S13958   4.785   6.089   3.049
    1PA     C1913959   4.608   6.154   3.154
    1PA     H9R13960   4.581   6.161   3.259
    1PA     H9S13961   4.613   6.255   3.112
    1PA     C1813962   4.500   6.073   3.081
    1PA     H8R13963   4.509   6.071   2.972
    1PA     H8S13964   4.506   5.968   3.110
    1PA     C1713965   4.364   6.131   3.121
    1PA     H7R13966   4.345   6.109   3.226
    1PA     H7S13967   4.368   6.237   3.096
    1PA     C1613968   4.262   6.045   3.044
    1PA     H6R13969   4.283   6.042   2.937
    1PA     H6S13970   4.290   5.944   3.072
    1PA     C1513971   4.114   6.080   3.069
    1PA     H5R13972   4.108   6.068   3.178
    1PA     H5S13973   4.100   6.184   3.039
    1PA     C1413974   4.025   5.973   3.005
    1PA     H4R13975   4.051   5.871   3.034
    1PA     H4S13976   3.922   5.983   3.039
    1PA     C1313977   4.025   5.992   2.852
    1PA     H3R13978   4.009   6.095   2.819
    1PA     H3S13979   4.117   5.955   2.808
    1PA     C1213980   3.925   5.901   2.780
    1PA     H2R13981   3.933   5.805   2.831
    1PA     H2S13982   3.828   5.949   2.787
    2PC     C1113983   3.953   5.880   2.633
    2PC     O1213984   4.054   5.904   2.570
    2PC     O1113985   3.842   5.831   2.574
    2PC      C113986   3.827   5.815   2.432
    2PC      HR13987   3.921   5.774   2.394
    2PC      HS13988   3.750   5.741   2.407
    2PC      C213989   3.792   5.951   2.369
    2PC      HX13990   3.769   5.930   2.264
    2PC      C313991   3.914   6.043   2.367
    2PC      HA13992   3.915   6.102   2.459
    2PC      HB13993   4.005   5.982   2.369
    2PC     O3113994   3.927   6.130   2.253
    2PC     P3113995   3.993   6.067   2.121
    2PC     O3213996   4.148   6.108   2.137
    2PC     C3113997   4.178   6.246   2.112
    2PC     H1A13998   4.130   6.271   2.017
    2PC     H1B13999   4.143   6.317   2.187
    2PC     C3214000   4.331   6.255   2.099
    2PC     H2A14001   4.369   6.298   2.192
    2PC     H2B14002   4.369   6.155   2.080
    2PC     N3114003   4.382   6.349   1.994
    2PC     C3314004   4.327   6.487   2.017
    2PC     H3A14005   4.360   6.522   2.116
    2PC     H3B14006   4.370   6.550   1.939
    2PC     H3C14007   4.218   6.492   2.015
    2PC     C3414008   4.529   6.357   2.020
    2PC     H4A14009   4.539   6.389   2.124
    2PC     H4B14010   4.589   6.266   2.009
    2PC     H4C14011   4.570   6.429   1.950
    2PC     C3514012   4.361   6.299   1.854
    2PC     H5A14013   4.409   6.369   1.786
    2PC     H5B14014   4.254   6.282   1.843
    2PC     H5C14015   4.399   6.197   1.849
    2PC     O3314016   3.985   5.920   2.131
    2PC     O3414017   3.918   6.094   1.996
    2PC     O2114018   3.684   6.016   2.438
    2PC     C2114019   3.562   5.962   2.419
    2PC     O2214020   3.541   5.865   2.349
    3OL     C1214021   3.460   6.034   2.504
    3OL     H2R14022   3.399   6.106   2.449
    3OL     H2S14023   3.504   6.092   2.586
    3OL     C1314024   3.355   5.938   2.560
    3OL     H3R14025   3.325   5.862   2.488
    3OL     H3S14026   3.262   5.989   2.586
    3OL     C1414027   3.405   5.879   2.693
    3OL     H4R14028   3.395   5.957   2.769
    3OL     H4S14029   3.513   5.862   2.694
    3OL     C1514030   3.334   5.754   2.747
    3OL     H5R14031   3.348   5.675   2.673
    3OL     H5S14032   3.229   5.775   2.769
    3OL     C1614033   3.402   5.702   2.874
    3OL     H6R14034   3.405   5.780   2.951
    3OL     H6S14035   3.504   5.691   2.838
    3OL     C1714036   3.348   5.567   2.922
    3OL     H7R14037   3.426   5.512   2.976
    3OL     H7S14038   3.332   5.502   2.835
    3OL     C1814039   3.232   5.585   3.021
    3OL     H8R14040   3.156   5.650   2.978
    3OL     H8S14041   3.278   5.634   3.108
    3OL     C1914042   3.179   5.450   3.063
    3OL     H9R14043   3.087   5.417   3.015
    3OL    C11014044   3.219   5.370   3.160
    3OL    H10R14045   3.172   5.274   3.181
    3OL    C11114046   3.348   5.399   3.232
    3OL    H11R14047   3.412   5.474   3.184
    3OL    H11S14048   3.408   5.308   3.236
    3OL    C11214049   3.310   5.443   3.373
    3OL    H12R14050   3.218   5.390   3.398
    3OL    H12S14051   3.285   5.549   3.385
    3OL    C11314052   3.415   5.419   3.483
    3OL    H13R14053   3.514   5.455   3.453
    3OL    H13S14054   3.424   5.312   3.501
    3OL    C11414055   3.389   5.507   3.606
    3OL    H14R14056   3.285   5.483   3.631
    3OL    H14S14057   3.403   5.612   3.579
    3OL    C11514058   3.486   5.465   3.717
    3OL    H15R14059   3.587   5.466   3.676
    3OL    H15S14060   3.478   5.359   3.742
    3OL    C11614061   3.495   5.554   3.842
    3OL    H16R14062   3.501   5.658   3.811
    3OL    H16S14063   3.586   5.532   3.898
    3OL    C11714064   3.368   5.546   3.928
    3OL    H17R14065   3.347   5.441   3.944
    3OL    H17S14066   3.284   5.592   3.875
    3OL    C11814067   3.390   5.619   4.061
    3OL    H18R14068   3.419   5.722   4.038
    3OL    H18S14069   3.463   5.568   4.125
    3OL    H18T14070   3.294   5.630   4.111
    1PA    C11614071   3.868   0.239   3.452
    1PA    H16R14072   3.941   0.159   3.458
    1PA    H16S14073   3.775   0.207   3.499
    1PA    H16T14074   3.910   0.321   3.510
    1PA    C11514075   3.840   0.275   3.305
    1PA    H15R14076   3.935   0.300   3.258
    1PA    H15S14077   3.813   0.190   3.242
    1PA    C11414078   3.740   0.391   3.289
    1PA    H14R14079   3.665   0.382   3.367
    1PA    H14S14080   3.804   0.480   3.294
    1PA    C11314081   3.668   0.395   3.154
    1PA    H13R14082   3.638   0.497   3.129
    1PA    H13S14083   3.725   0.344   3.077
    1PA    C11214084   3.536   0.317   3.167
    1PA    H12R14085   3.579   0.223   3.202
    1PA    H12S14086   3.472   0.362   3.243
    1PA    C11114087   3.452   0.306   3.039
    1PA    H11R14088   3.353   0.265   3.058
    1PA    H11S14089   3.424   0.407   3.008
    1PA    C11014090   3.524   0.239   2.921
    1PA    H10R14091   3.462   0.243   2.832
    1PA    H10S14092   3.610   0.304   2.905
    1PA     C1914093   3.582   0.097   2.930
    1PA     H9R14094   3.670   0.088   2.994
    1PA     H9S14095   3.506   0.039   2.982
    1PA     C1814096   3.628   0.038   2.796
    1PA     H8R14097   3.542   0.011   2.733
    1PA     H8S14098   3.673   0.116   2.735
    1PA     C1714099   3.709  -0.089   2.826
    1PA     H7R14100   3.648  -0.152   2.893
    1PA     H7S14101   3.716  -0.147   2.734
    1PA     C1614102   3.851  -0.060   2.877
    1PA     H6R14103   3.839  -0.023   2.979
    1PA     H6S14104   3.906  -0.154   2.878
    1PA     C1514105   3.939   0.040   2.800
    1PA     H5R14106   3.906   0.143   2.812
    1PA     H5S14107   4.043   0.036   2.835
    1PA     C1414108   3.948  -0.007   2.654
    1PA     H4R14109   4.000  -0.104   2.652
    1PA     H4S14110   3.849  -0.024   2.613
    1PA     C1314111   4.021   0.102   2.574
    1PA     H3R14112   3.950   0.184   2.558
    1PA     H3S14113   4.117   0.135   2.614
    1PA     C1214114   4.037   0.056   2.429
    1PA     H2R14115   4.068  -0.048   2.421
    1PA     H2S14116   3.949   0.078   2.368
    2PC     C1114117   4.141   0.141   2.360
    2PC     O1214118   4.259   0.117   2.340
    2PC     O1114119   4.080   0.253   2.319
    2PC      C114120   4.153   0.350   2.240
    2PC      HR14121   4.240   0.387   2.294
    2PC      HS14122   4.185   0.298   2.150
    2PC      C214123   4.050   0.454   2.193
    2PC      HX14124   3.963   0.398   2.157
    2PC      C314125   4.128   0.540   2.092
    2PC      HA14126   4.186   0.613   2.148
    2PC      HB14127   4.199   0.473   2.043
    2PC     O3114128   4.038   0.600   1.997
    2PC     P3114129   4.112   0.671   1.873
    2PC     O3214130   4.007   0.786   1.835
    2PC     C3114131   4.046   0.922   1.858
    2PC     H1A14132   3.959   0.988   1.865
    2PC     H1B14133   4.108   0.918   1.948
    2PC     C3214134   4.134   0.972   1.742
    2PC     H2A14135   4.145   1.079   1.757
    2PC     H2B14136   4.226   0.913   1.738
    2PC     N3114137   4.077   0.967   1.604
    2PC     C3314138   4.123   0.842   1.535
    2PC     H3A14139   4.228   0.836   1.563
    2PC     H3B14140   4.068   0.755   1.571
    2PC     H3C14141   4.096   0.854   1.430
    2PC     C3414142   3.927   0.967   1.594
    2PC     H4A14143   3.892   0.970   1.491
    2PC     H4B14144   3.888   0.882   1.650
    2PC     H4C14145   3.886   1.057   1.640
    2PC     C3514146   4.122   1.091   1.532
    2PC     H5A14147   4.074   1.095   1.434
    2PC     H5B14148   4.229   1.079   1.511
    2PC     H5C14149   4.117   1.175   1.600
    2PC     O3314150   4.244   0.725   1.913
    2PC     O3414151   4.129   0.573   1.764
    2PC     O2114152   4.001   0.539   2.297
    2PC     C2114153   3.875   0.587   2.293
    2PC     O2214154   3.790   0.549   2.215
    3OL     C1214155   3.860   0.698   2.394
    3OL     H2R14156   3.927   0.782   2.375
    3OL     H2S14157   3.887   0.648   2.487
    3OL     C1314158   3.717   0.755   2.401
    3OL     H3R14159   3.640   0.679   2.413
    3OL     H3S14160   3.691   0.800   2.305
    3OL     C1414161   3.704   0.868   2.503
    3OL     H4R14162   3.776   0.947   2.481
    3OL     H4S14163   3.742   0.837   2.601
    3OL     C1514164   3.562   0.927   2.500
    3OL     H5R14165   3.495   0.841   2.499
    3OL     H5S14166   3.545   0.977   2.404
    3OL     C1614167   3.537   1.030   2.612
    3OL     H6R14168   3.627   1.091   2.620
    3OL     H6S14169   3.512   0.995   2.712
    3OL     C1714170   3.420   1.125   2.582
    3OL     H7R14171   3.459   1.202   2.515
    3OL     H7S14172   3.387   1.181   2.670
    3OL     C1814173   3.292   1.060   2.528
    3OL     H8R14174   3.315   1.023   2.428
    3OL     H8S14175   3.215   1.135   2.509
    3OL     C1914176   3.239   0.945   2.609
    3OL     H9R14177   3.291   0.850   2.597
    3OL    C11014178   3.144   0.951   2.700
    3OL    H10R14179   3.123   0.852   2.741
    3OL    C11114180   3.067   1.072   2.748
    3OL    H11R14181   2.961   1.059   2.725
    3OL    H11S14182   3.104   1.162   2.700
    3OL    C11214183   3.088   1.087   2.899
    3OL    H12R14184   3.191   1.119   2.914
    3OL    H12S14185   3.085   0.992   2.953
    3OL    C11314186   2.993   1.191   2.960
    3OL    H13R14187   2.889   1.169   2.935
    3OL    H13S14188   3.003   1.291   2.916
    3OL    C11414189   3.003   1.207   3.112
    3OL    H14R14190   3.024   1.110   3.157
    3OL    H14S14191   2.912   1.257   3.147
    3OL    C11514192   3.121   1.296   3.151
    3OL    H15R14193   3.105   1.397   3.113
    3OL    H15S14194   3.215   1.261   3.107
    3OL    C11614195   3.154   1.300   3.301
    3OL    H16R14196   3.073   1.326   3.370
    3OL    H16S14197   3.234   1.371   3.324
    3OL    C11714198   3.205   1.162   3.343
    3OL    H17R14199   3.273   1.140   3.261
    3OL    H17S14200   3.125   1.087   3.348
    3OL    C11814201   3.274   1.161   3.481
    3OL    H18R14202   3.197   1.167   3.558
    3OL    H18S14203   3.351   1.236   3.494
    3OL    H18T14204   3.318   1.062   3.486
    1PA    C11614205   4.497   0.963   2.907
    1PA    H16R14206   4.562   0.910   2.976
    1PA    H16S14207   4.552   1.052   2.877
    1PA    H16T14208   4.485   0.911   2.812
    1PA    C11514209   4.369   1.003   2.983
    1PA    H15R14210   4.295   1.041   2.912
    1PA    H15S14211   4.327   0.909   3.018
    1PA    C11414212   4.399   1.100   3.098
    1PA    H14R14213   4.457   1.045   3.172
    1PA    H14S14214   4.453   1.189   3.066
    1PA    C11314215   4.260   1.133   3.155
    1PA    H13R14216   4.196   1.045   3.143
    1PA    H13S14217   4.273   1.159   3.261
    1PA    C11214218   4.199   1.252   3.081
    1PA    H12R14219   4.254   1.344   3.100
    1PA    H12S14220   4.196   1.232   2.973
    1PA    C11114221   4.057   1.285   3.130
    1PA    H11R14222   3.996   1.194   3.135
    1PA    H11S14223   4.053   1.309   3.236
    1PA    C11014224   3.992   1.392   3.042
    1PA    H10R14225   3.900   1.419   3.095
    1PA    H10S14226   4.054   1.481   3.035
    1PA     C1914227   3.952   1.331   2.908
    1PA     H9R14228   4.038   1.289   2.855
    1PA     H9S14229   3.874   1.257   2.930
    1PA     C1814230   3.887   1.441   2.822
    1PA     H8R14231   3.816   1.500   2.880
    1PA     H8S14232   3.967   1.510   2.794
    1PA     C1714233   3.827   1.384   2.693
    1PA     H7R14234   3.913   1.344   2.639
    1PA     H7S14235   3.766   1.299   2.724
    1PA     C1614236   3.753   1.486   2.605
    1PA     H6R14237   3.666   1.522   2.662
    1PA     H6S14238   3.821   1.566   2.577
    1PA     C1514239   3.700   1.408   2.484
    1PA     H5R14240   3.781   1.345   2.449
    1PA     H5S14241   3.610   1.352   2.509
    1PA     C1414242   3.671   1.508   2.370
    1PA     H4R14243   3.590   1.578   2.391
    1PA     H4S14244   3.766   1.555   2.343
    1PA     C1314245   3.616   1.434   2.247
    1PA     H3R14246   3.638   1.496   2.160
    1PA     H3S14247   3.655   1.333   2.237
    1PA     C1214248   3.463   1.427   2.256
    1PA     H2R14249   3.433   1.390   2.354
    1PA     H2S14250   3.421   1.528   2.256
    2PC     C1114251   3.419   1.341   2.140
    2PC     O1214252   3.488   1.249   2.102
    2PC     O1114253   3.304   1.382   2.084
    2PC      C114254   3.255   1.330   1.959
    2PC      HR14255   3.169   1.388   1.925
    2PC      HS14256   3.337   1.344   1.888
    2PC      C214257   3.212   1.183   1.975
    2PC      HX14258   3.292   1.124   2.020
    2PC      C314259   3.175   1.109   1.846
    2PC      HA14260   3.266   1.066   1.803
    2PC      HB14261   3.112   1.022   1.867
    2PC     O3114262   3.111   1.200   1.755
    2PC     P3114263   3.105   1.161   1.599
    2PC     O3214264   2.980   1.062   1.615
    2PC     C3114265   2.935   0.999   1.494
    2PC     H1A14266   2.882   1.070   1.430
    2PC     H1B14267   3.016   0.956   1.434
    2PC     C3214268   2.831   0.892   1.530
    2PC     H2A14269   2.749   0.935   1.588
    2PC     H2B14270   2.788   0.855   1.436
    2PC     N3114271   2.868   0.767   1.604
    2PC     C3314272   2.939   0.788   1.735
    2PC     H3A14273   3.043   0.816   1.716
    2PC     H3B14274   2.888   0.861   1.797
    2PC     H3C14275   2.933   0.689   1.780
    2PC     C3414276   2.742   0.691   1.631
    2PC     H4A14277   2.717   0.655   1.531
    2PC     H4B14278   2.761   0.609   1.701
    2PC     H4C14279   2.668   0.767   1.659
    2PC     C3514280   2.964   0.698   1.512
    2PC     H5A14281   2.962   0.592   1.537
    2PC     H5B14282   3.065   0.736   1.523
    2PC     H5C14283   2.929   0.716   1.411
    2PC     O3314284   3.078   1.283   1.521
    2PC     O3414285   3.224   1.106   1.531
    2PC     O2114286   3.104   1.200   2.068
    2PC     C2114287   3.080   1.110   2.165
    2PC     O2214288   3.141   1.006   2.179
    3OL     C1214289   2.968   1.140   2.262
    3OL     H2R14290   2.881   1.168   2.202
    3OL     H2S14291   2.990   1.226   2.325
    3OL     C1314292   2.930   1.012   2.338
    3OL     H3R14293   2.997   0.993   2.421
    3OL     H3S14294   2.954   0.926   2.275
    3OL     C1414295   2.785   1.022   2.388
    3OL     H4R14296   2.708   1.004   2.313
    3OL     H4S14297   2.766   1.109   2.451
    3OL     C1514298   2.775   0.904   2.486
    3OL     H5R14299   2.838   0.923   2.573
    3OL     H5S14300   2.820   0.812   2.448
    3OL     C1614301   2.630   0.884   2.533
    3OL     H6R14302   2.622   0.781   2.568
    3OL     H6S14303   2.558   0.892   2.451
    3OL     C1714304   2.593   0.977   2.649
    3OL     H7R14305   2.589   1.076   2.602
    3OL     H7S14306   2.671   0.988   2.725
    3OL     C1814307   2.455   0.948   2.709
    3OL     H8R14308   2.466   0.867   2.781
    3OL     H8S14309   2.368   0.922   2.647
    3OL     C1914310   2.412   1.067   2.791
    3OL     H9R14311   2.437   1.167   2.757
    3OL    C11014312   2.356   1.072   2.911
    3OL    H10R14313   2.330   1.171   2.948
    3OL    C11114314   2.306   0.955   2.991
    3OL    H11R14315   2.346   0.861   2.952
    3OL    H11S14316   2.197   0.951   2.983
    3OL    C11214317   2.332   0.977   3.141
    3OL    H12R14318   2.289   1.073   3.170
    3OL    H12S14319   2.439   0.983   3.161
    3OL    C11314320   2.269   0.872   3.234
    3OL    H13R14321   2.333   0.866   3.322
    3OL    H13S14322   2.272   0.776   3.182
    3OL    C11414323   2.125   0.896   3.280
    3OL    H14R14324   2.063   0.879   3.192
    3OL    H14S14325   2.113   0.997   3.321
    3OL    C11514326   2.078   0.799   3.389
    3OL    H15R14327   2.149   0.718   3.377
    3OL    H15S14328   1.975   0.766   3.371
    3OL    C11614329   2.091   0.864   3.528
    3OL    H16R14330   2.023   0.947   3.548
    3OL    H16S14331   2.190   0.905   3.546
    3OL    C11714332   2.052   0.769   3.642
    3OL    H17R14333   1.944   0.751   3.644
    3OL    H17S14334   2.080   0.806   3.741
    3OL    C11814335   2.115   0.629   3.631
    3OL    H18R14336   2.211   0.631   3.579
    3OL    H18S14337   2.054   0.576   3.558
    3OL    H18T14338   2.114   0.582   3.729
    1PA    C11614339   3.593   4.094   3.371
    1PA    H16R14340   3.494   4.139   3.387
    1PA    H16S14341   3.608   4.024   3.453
    1PA    H16T14342   3.580   4.045   3.275
    1PA    C11514343   3.694   4.207   3.342
    1PA    H15R14344   3.667   4.268   3.256
    1PA    H15S14345   3.708   4.269   3.430
    1PA    C11414346   3.826   4.136   3.311
    1PA    H14R14347   3.857   4.074   3.395
    1PA    H14S14348   3.814   4.071   3.224
    1PA    C11314349   3.934   4.244   3.292
    1PA    H13R14350   3.908   4.293   3.198
    1PA    H13S14351   3.928   4.319   3.372
    1PA    C11214352   4.074   4.183   3.281
    1PA    H12R14353   4.098   4.125   3.371
    1PA    H12S14354   4.078   4.117   3.194
    1PA    C11114355   4.183   4.290   3.274
    1PA    H11R14356   4.184   4.357   3.360
    1PA    H11S14357   4.280   4.241   3.284
    1PA    C11014358   4.192   4.372   3.145
    1PA    H10R14359   4.120   4.453   3.157
    1PA    H10S14360   4.286   4.424   3.128
    1PA     C1914361   4.162   4.291   3.017
    1PA     H9R14362   4.236   4.212   3.008
    1PA     H9S14363   4.063   4.250   3.035
    1PA     C1814364   4.179   4.373   2.888
    1PA     H8R14365   4.128   4.469   2.887
    1PA     H8S14366   4.285   4.398   2.879
    1PA     C1714367   4.146   4.281   2.769
    1PA     H7R14368   4.204   4.189   2.761
    1PA     H7S14369   4.041   4.251   2.771
    1PA     C1614370   4.164   4.344   2.630
    1PA     H6R14371   4.139   4.449   2.645
    1PA     H6S14372   4.268   4.368   2.608
    1PA     C1514373   4.096   4.262   2.519
    1PA     H5R14374   4.128   4.159   2.535
    1PA     H5S14375   3.989   4.272   2.538
    1PA     C1414376   4.129   4.304   2.375
    1PA     H4R14377   4.102   4.410   2.375
    1PA     H4S14378   4.236   4.286   2.364
    1PA     C1314379   4.052   4.224   2.269
    1PA     H3R14380   4.071   4.117   2.269
    1PA     H3S14381   3.946   4.241   2.287
    1PA     C1214382   4.086   4.271   2.127
    1PA     H2R14383   4.041   4.370   2.118
    1PA     H2S14384   4.192   4.270   2.102
    2PC     C1114385   4.015   4.199   2.015
    2PC     O1214386   4.032   4.234   1.900
    2PC     O1114387   3.945   4.094   2.061
    2PC      C114388   3.884   4.006   1.965
    2PC      HR14389   3.806   3.948   2.016
    2PC      HS14390   3.834   4.051   1.879
    2PC      C214391   3.990   3.913   1.905
    2PC      HX14392   4.068   3.962   1.847
    2PC      C314393   3.915   3.814   1.814
    2PC      HA14394   3.874   3.865   1.726
    2PC      HB14395   3.987   3.740   1.777
    2PC     O3114396   3.803   3.750   1.880
    2PC     P3114397   3.660   3.728   1.812
    2PC     O3214398   3.589   3.872   1.824
    2PC     C3114399   3.448   3.888   1.848
    2PC     H1A14400   3.425   3.828   1.936
    2PC     H1B14401   3.423   3.990   1.877
    2PC     C3214402   3.367   3.840   1.727
    2PC     H2A14403   3.423   3.759   1.679
    2PC     H2B14404   3.270   3.801   1.758
    2PC     N3114405   3.335   3.935   1.615
    2PC     C3314406   3.255   3.873   1.505
    2PC     H3A14407   3.152   3.864   1.541
    2PC     H3B14408   3.270   3.941   1.421
    2PC     H3C14409   3.309   3.780   1.486
    2PC     C3414410   3.257   4.054   1.660
    2PC     H4A14411   3.315   4.104   1.738
    2PC     H4B14412   3.222   4.107   1.571
    2PC     H4C14413   3.167   4.012   1.705
    2PC     C3514414   3.459   3.985   1.547
    2PC     H5A14415   3.525   4.041   1.613
    2PC     H5B14416   3.429   4.055   1.467
    2PC     H5C14417   3.520   3.909   1.499
    2PC     O3314418   3.678   3.702   1.668
    2PC     O3414419   3.573   3.622   1.868
    2PC     O2114420   4.055   3.842   2.012
    2PC     C2114421   4.172   3.893   2.054
    2PC     O2214422   4.238   3.977   1.996
    3OL     C1214423   4.215   3.822   2.180
    3OL     H2R14424   4.228   3.716   2.156
    3OL     H2S14425   4.139   3.813   2.258
    3OL     C1314426   4.348   3.878   2.232
    3OL     H3R14427   4.321   3.981   2.257
    3OL     H3S14428   4.427   3.867   2.157
    3OL     C1414429   4.383   3.805   2.362
    3OL     H4R14430   4.470   3.862   2.394
    3OL     H4S14431   4.403   3.700   2.336
    3OL     C1514432   4.272   3.801   2.469
    3OL     H5R14433   4.192   3.729   2.447
    3OL     H5S14434   4.234   3.902   2.480
    3OL     C1614435   4.337   3.755   2.600
    3OL     H6R14436   4.434   3.798   2.625
    3OL     H6S14437   4.368   3.656   2.564
    3OL     C1714438   4.248   3.754   2.725
    3OL     H7R14439   4.296   3.688   2.798
    3OL     H7S14440   4.149   3.712   2.705
    3OL     C1814441   4.232   3.897   2.779
    3OL     H8R14442   4.160   3.955   2.721
    3OL     H8S14443   4.323   3.956   2.775
    3OL     C1914444   4.179   3.898   2.921
    3OL     H9R14445   4.073   3.919   2.930
    3OL    C11014446   4.249   3.878   3.031
    3OL    H10R14447   4.203   3.878   3.130
    3OL    C11114448   4.398   3.857   3.029
    3OL    H11R14449   4.438   3.914   2.945
    3OL    H11S14450   4.421   3.751   3.016
    3OL    C11214451   4.478   3.911   3.149
    3OL    H12R14452   4.446   4.014   3.169
    3OL    H12S14453   4.585   3.914   3.130
    3OL    C11314454   4.440   3.839   3.280
    3OL    H13R14455   4.459   3.732   3.274
    3OL    H13S14456   4.336   3.860   3.303
    3OL    C11414457   4.522   3.892   3.398
    3OL    H14R14458   4.506   3.993   3.436
    3OL    H14S14459   4.626   3.878   3.369
    3OL    C11514460   4.484   3.803   3.518
    3OL    H15R14461   4.524   3.708   3.480
    3OL    H15S14462   4.377   3.800   3.538
    3OL    C11614463   4.556   3.847   3.646
    3OL    H16R14464   4.514   3.788   3.728
    3OL    H16S14465   4.518   3.945   3.674
    3OL    C11714466   4.709   3.858   3.640
    3OL    H17R14467   4.744   3.944   3.583
    3OL    H17S14468   4.753   3.770   3.592
    3OL    C11814469   4.776   3.873   3.777
    3OL    H18R14470   4.882   3.892   3.758
    3OL    H18S14471   4.762   3.792   3.850
    3OL    H18T14472   4.736   3.957   3.834
    1PA    C11614473   5.235   4.079   3.993
    1PA    H16R14474   5.199   4.111   4.091
    1PA    H16S14475   5.319   4.143   3.964
    1PA    H16T14476   5.270   3.976   4.001
    1PA    C11514477   5.116   4.087   3.897
    1PA    H15R14478   5.141   4.049   3.797
    1PA    H15S14479   5.033   4.024   3.930
    1PA    C11414480   5.059   4.229   3.886
    1PA    H14R14481   5.018   4.258   3.983
    1PA    H14S14482   5.149   4.289   3.871
    1PA    C11314483   4.952   4.244   3.777
    1PA    H13R14484   4.979   4.191   3.686
    1PA    H13S14485   4.867   4.184   3.810
    1PA    C11214486   4.910   4.390   3.750
    1PA    H12R14487   4.813   4.378   3.701
    1PA    H12S14488   4.897   4.451   3.840
    1PA    C11114489   5.007   4.469   3.662
    1PA    H11R14490   5.093   4.489   3.727
    1PA    H11S14491   5.047   4.415   3.577
    1PA    C11014492   4.942   4.600   3.614
    1PA    H10R14493   4.854   4.564   3.560
    1PA    H10S14494   4.903   4.661   3.696
    1PA     C1914495   5.027   4.684   3.518
    1PA     H9R14496   4.974   4.780   3.514
    1PA     H9S14497   5.124   4.698   3.565
    1PA     C1814498   5.034   4.633   3.374
    1PA     H8R14499   5.107   4.702   3.331
    1PA     H8S14500   5.078   4.534   3.375
    1PA     C1714501   4.905   4.646   3.291
    1PA     H7R14502   4.815   4.603   3.335
    1PA     H7S14503   4.878   4.751   3.287
    1PA     C1614504   4.924   4.594   3.148
    1PA     H6R14505   4.938   4.486   3.159
    1PA     H6S14506   4.829   4.600   3.094
    1PA     C1514507   5.028   4.669   3.063
    1PA     H5R14508   5.019   4.777   3.060
    1PA     H5S14509   5.124   4.652   3.111
    1PA     C1414510   5.034   4.614   2.920
    1PA     H4R14511   5.136   4.620   2.881
    1PA     H4S14512   5.010   4.508   2.912
    1PA     C1314513   4.930   4.682   2.830
    1PA     H3R14514   4.824   4.663   2.853
    1PA     H3S14515   4.942   4.790   2.841
    1PA     C1214516   4.939   4.639   2.683
    1PA     H2R14517   5.040   4.652   2.643
    1PA     H2S14518   4.910   4.534   2.675
    2PC     C1114519   4.841   4.711   2.595
    2PC     O1214520   4.829   4.831   2.582
    2PC     O1114521   4.779   4.619   2.519
    2PC      C114522   4.731   4.652   2.388
    2PC      HR14523   4.669   4.574   2.342
    2PC      HS14524   4.671   4.743   2.395
    2PC      C214525   4.860   4.671   2.306
    2PC      HX14526   4.937   4.726   2.361
    2PC      C314527   4.831   4.735   2.170
    2PC      HA14528   4.783   4.665   2.101
    2PC      HB14529   4.764   4.817   2.194
    2PC     O3114530   4.957   4.781   2.116
    2PC     P3114531   4.966   4.864   1.980
    2PC     O3214532   5.080   4.973   2.012
    2PC     C3114533   5.044   5.102   2.065
    2PC     H1A14534   4.942   5.126   2.033
    2PC     H1B14535   5.042   5.072   2.170
    2PC     C3214536   5.157   5.198   2.025
    2PC     H2A14537   5.254   5.178   2.070
    2PC     H2B14538   5.174   5.185   1.918
    2PC     N3114539   5.130   5.344   2.042
    2PC     C3314540   5.066   5.386   2.172
    2PC     H3A14541   5.132   5.368   2.256
    2PC     H3B14542   5.039   5.491   2.163
    2PC     H3C14543   4.979   5.320   2.174
    2PC     C3414544   5.257   5.423   2.029
    2PC     H4A14545   5.226   5.522   1.995
    2PC     H4B14546   5.308   5.424   2.126
    2PC     H4C14547   5.328   5.365   1.970
    2PC     C3514548   5.044   5.385   1.926
    2PC     H5A14549   4.941   5.356   1.946
    2PC     H5B14550   5.086   5.337   1.837
    2PC     H5C14551   5.049   5.494   1.926
    2PC     O3314552   5.005   4.782   1.863
    2PC     O3414553   4.838   4.933   1.953
    2PC     O2114554   4.908   4.538   2.280
    2PC     C2114555   5.016   4.490   2.344
    2PC     O2214556   5.092   4.562   2.404
    3OL     C1214557   5.041   4.343   2.317
    3OL     H2R14558   5.143   4.333   2.280
    3OL     H2S14559   4.973   4.320   2.235
    3OL     C1314560   5.013   4.255   2.440
    3OL     H3R14561   4.908   4.258   2.470
    3OL     H3S14562   5.071   4.305   2.518
    3OL     C1414563   5.053   4.109   2.416
    3OL     H4R14564   5.161   4.106   2.403
    3OL     H4S14565   5.013   4.079   2.319
    3OL     C1514566   4.997   4.023   2.530
    3OL     H5R14567   5.026   3.920   2.509
    3OL     H5S14568   4.888   4.023   2.528
    3OL     C1614569   5.055   4.071   2.664
    3OL     H6R14570   5.014   4.169   2.690
    3OL     H6S14571   5.163   4.080   2.653
    3OL     C1714572   5.031   3.973   2.779
    3OL     H7R14573   5.057   3.867   2.767
    3OL     H7S14574   4.923   3.965   2.795
    3OL     C1814575   5.081   4.028   2.913
    3OL     H8R14576   5.189   4.031   2.898
    3OL     H8S14577   5.060   3.956   2.993
    3OL     C1914578   5.033   4.164   2.956
    3OL     H9R14579   4.955   4.206   2.892
    3OL    C11014580   5.088   4.241   3.049
    3OL    H10R14581   5.052   4.342   3.061
    3OL    C11114582   5.205   4.191   3.131
    3OL    H11R14583   5.292   4.254   3.110
    3OL    H11S14584   5.242   4.092   3.106
    3OL    C11214585   5.158   4.179   3.277
    3OL    H12R14586   5.084   4.100   3.286
    3OL    H12S14587   5.119   4.274   3.316
    3OL    C11314588   5.276   4.130   3.362
    3OL    H13R14589   5.369   4.174   3.327
    3OL    H13S14590   5.281   4.021   3.358
    3OL    C11414591   5.253   4.167   3.510
    3OL    H14R14592   5.165   4.111   3.542
    3OL    H14S14593   5.230   4.272   3.524
    3OL    C11514594   5.376   4.134   3.596
    3OL    H15R14595   5.370   4.186   3.692
    3OL    H15S14596   5.463   4.177   3.547
    3OL    C11614597   5.396   3.983   3.612
    3OL    H16R14598   5.411   3.942   3.512
    3OL    H16S14599   5.303   3.937   3.647
    3OL    C11714600   5.508   3.937   3.706
    3OL    H17R14601   5.490   3.833   3.736
    3OL    H17S14602   5.515   3.997   3.797
    3OL    C11814603   5.644   3.961   3.640
    3OL    H18R14604   5.703   4.039   3.691
    3OL    H18S14605   5.635   3.998   3.538
    3OL    H18T14606   5.690   3.863   3.644
    1PA    C11614607   2.011   1.838   3.198
    1PA    H16R14608   2.099   1.850   3.261
    1PA    H16S14609   2.021   1.869   3.093
    1PA    H16T14610   1.974   1.735   3.195
    1PA    C11514611   1.907   1.914   3.280
    1PA    H15R14612   1.899   1.861   3.376
    1PA    H15S14613   1.951   2.011   3.306
    1PA    C11414614   1.772   1.927   3.209
    1PA    H14R14615   1.722   1.830   3.213
    1PA    H14S14616   1.712   1.993   3.273
    1PA    C11314617   1.790   1.994   3.073
    1PA    H13R14618   1.851   2.085   3.076
    1PA    H13S14619   1.855   1.937   3.006
    1PA    C11214620   1.656   2.006   3.000
    1PA    H12R14621   1.607   1.909   2.987
    1PA    H12S14622   1.588   2.056   3.071
    1PA    C11114623   1.661   2.090   2.872
    1PA    H11R14624   1.556   2.112   2.848
    1PA    H11S14625   1.706   2.184   2.904
    1PA    C11014626   1.715   2.023   2.745
    1PA    H10R14627   1.817   1.988   2.764
    1PA    H10S14628   1.649   1.937   2.735
    1PA     C1914629   1.720   2.125   2.630
    1PA     H9R14630   1.726   2.225   2.673
    1PA     H9S14631   1.801   2.113   2.559
    1PA     C1814632   1.583   2.138   2.560
    1PA     H8R14633   1.555   2.048   2.506
    1PA     H8S14634   1.501   2.158   2.630
    1PA     C1714635   1.586   2.255   2.460
    1PA     H7R14636   1.490   2.262   2.409
    1PA     H7S14637   1.605   2.352   2.506
    1PA     C1614638   1.690   2.231   2.349
    1PA     H6R14639   1.791   2.229   2.390
    1PA     H6S14640   1.679   2.135   2.299
    1PA     C1514641   1.677   2.325   2.228
    1PA     H5R14642   1.703   2.261   2.143
    1PA     H5S14643   1.573   2.360   2.224
    1PA     C1414644   1.774   2.443   2.236
    1PA     H4R14645   1.762   2.495   2.331
    1PA     H4S14646   1.877   2.407   2.227
    1PA     C1314647   1.751   2.547   2.125
    1PA     H3R14648   1.761   2.495   2.030
    1PA     H3S14649   1.653   2.595   2.127
    1PA     C1214650   1.850   2.664   2.126
    1PA     H2R14651   1.833   2.720   2.219
    1PA     H2S14652   1.952   2.625   2.122
    2PC     C1114653   1.828   2.765   2.016
    2PC     O1214654   1.723   2.782   1.958
    2PC     O1114655   1.941   2.832   1.991
    2PC      C114656   1.942   2.935   1.890
    2PC      HR14657   1.918   2.887   1.794
    2PC      HS14658   1.876   3.013   1.926
    2PC      C214659   2.083   2.997   1.887
    2PC      HX14660   2.079   3.086   1.825
    2PC      C314661   2.185   2.892   1.842
    2PC      HA14662   2.179   2.815   1.920
    2PC      HB14663   2.163   2.847   1.745
    2PC     O3114664   2.320   2.942   1.842
    2PC     P3114665   2.405   2.971   1.710
    2PC     O3214666   2.478   2.830   1.688
    2PC     C3114667   2.527   2.799   1.557
    2PC     H1A14668   2.452   2.773   1.481
    2PC     H1B14669   2.582   2.884   1.515
    2PC     C3214670   2.623   2.680   1.565
    2PC     H2A14671   2.666   2.653   1.469
    2PC     H2B14672   2.704   2.714   1.630
    2PC     N3114673   2.563   2.556   1.624
    2PC     C3314674   2.592   2.552   1.771
    2PC     H3A14675   2.559   2.458   1.817
    2PC     H3B14676   2.699   2.564   1.782
    2PC     H3C14677   2.535   2.632   1.820
    2PC     C3414678   2.416   2.533   1.601
    2PC     H4A14679   2.405   2.425   1.613
    2PC     H4B14680   2.361   2.577   1.684
    2PC     H4C14681   2.390   2.571   1.502
    2PC     C3514682   2.635   2.438   1.567
    2PC     H5A14683   2.744   2.440   1.576
    2PC     H5B14684   2.610   2.440   1.460
    2PC     H5C14685   2.610   2.343   1.613
    2PC     O3314686   2.337   3.028   1.591
    2PC     O3414687   2.510   3.075   1.729
    2PC     O2114688   2.114   3.032   2.023
    2PC     C2114689   2.052   3.134   2.084
    2PC     O2214690   1.979   3.211   2.025
    3OL     C1214691   2.098   3.151   2.227
    3OL     H2R14692   2.063   3.250   2.258
    3OL     H2S14693   2.207   3.152   2.239
    3OL     C1314694   2.029   3.048   2.317
    3OL     H3R14695   1.927   3.038   2.279
    3OL     H3S14696   2.038   3.075   2.422
    3OL     C1414697   2.098   2.912   2.305
    3OL     H4R14698   2.207   2.922   2.300
    3OL     H4S14699   2.064   2.854   2.219
    3OL     C1514700   2.049   2.826   2.423
    3OL     H5R14701   1.941   2.836   2.418
    3OL     H5S14702   2.082   2.876   2.514
    3OL     C1614703   2.088   2.678   2.407
    3OL     H6R14704   2.197   2.678   2.402
    3OL     H6S14705   2.055   2.646   2.307
    3OL     C1714706   2.033   2.592   2.521
    3OL     H7R14707   1.924   2.595   2.507
    3OL     H7S14708   2.064   2.638   2.615
    3OL     C1814709   2.086   2.448   2.506
    3OL     H8R14710   2.191   2.445   2.535
    3OL     H8S14711   2.093   2.417   2.402
    3OL     C1914712   1.990   2.360   2.582
    3OL     H9R14713   1.891   2.355   2.538
    3OL    C11014714   2.018   2.288   2.690
    3OL    H10R14715   1.935   2.226   2.723
    3OL    C11114716   2.138   2.274   2.779
    3OL    H11R14717   2.224   2.327   2.736
    3OL    H11S14718   2.155   2.170   2.809
    3OL    C11214719   2.096   2.343   2.910
    3OL    H12R14720   1.999   2.306   2.944
    3OL    H12S14721   2.079   2.450   2.898
    3OL    C11314722   2.201   2.326   3.020
    3OL    H13R14723   2.191   2.401   3.098
    3OL    H13S14724   2.303   2.320   2.983
    3OL    C11414725   2.165   2.199   3.099
    3OL    H14R14726   2.153   2.116   3.030
    3OL    H14S14727   2.070   2.208   3.152
    3OL    C11514728   2.287   2.172   3.188
    3OL    H15R14729   2.380   2.178   3.131
    3OL    H15S14730   2.285   2.065   3.211
    3OL    C11614731   2.286   2.258   3.315
    3OL    H16R14732   2.190   2.222   3.355
    3OL    H16S14733   2.276   2.364   3.291
    3OL    C11714734   2.390   2.237   3.426
    3OL    H17R14735   2.388   2.325   3.491
    3OL    H17S14736   2.488   2.240   3.378
    3OL    C11814737   2.366   2.112   3.512
    3OL    H18R14738   2.291   2.119   3.592
    3OL    H18S14739   2.459   2.097   3.568
    3OL    H18T14740   2.354   2.028   3.444
    1PA    C11614741   6.104   2.538   3.337
    1PA    H16R14742   6.179   2.576   3.267
    1PA    H16S14743   6.073   2.441   3.299
    1PA    H16T14744   6.137   2.526   3.441
    1PA    C11514745   5.997   2.648   3.349
    1PA    H15R14746   5.933   2.614   3.431
    1PA    H15S14747   6.034   2.745   3.381
    1PA    C11414748   5.917   2.679   3.221
    1PA    H14R14749   5.984   2.715   3.143
    1PA    H14S14750   5.866   2.596   3.172
    1PA    C11314751   5.816   2.789   3.256
    1PA    H13R14752   5.845   2.841   3.347
    1PA    H13S14753   5.820   2.858   3.172
    1PA    C11214754   5.671   2.749   3.285
    1PA    H12R14755   5.675   2.660   3.348
    1PA    H12S14756   5.621   2.829   3.340
    1PA    C11114757   5.594   2.711   3.158
    1PA    H11R14758   5.660   2.638   3.112
    1PA    H11S14759   5.494   2.673   3.183
    1PA    C11014760   5.575   2.832   3.066
    1PA    H10R14761   5.525   2.912   3.122
    1PA    H10S14762   5.672   2.874   3.039
    1PA     C1914763   5.506   2.804   2.932
    1PA     H9R14764   5.442   2.718   2.953
    1PA     H9S14765   5.441   2.887   2.902
    1PA     C1814766   5.603   2.758   2.823
    1PA     H8R14767   5.672   2.838   2.794
    1PA     H8S14768   5.664   2.679   2.869
    1PA     C1714769   5.531   2.719   2.693
    1PA     H7R14770   5.609   2.706   2.617
    1PA     H7S14771   5.483   2.621   2.699
    1PA     C1614772   5.453   2.840   2.641
    1PA     H6R14773   5.364   2.853   2.703
    1PA     H6S14774   5.515   2.929   2.654
    1PA     C1514775   5.407   2.818   2.496
    1PA     H5R14776   5.498   2.801   2.437
    1PA     H5S14777   5.347   2.727   2.496
    1PA     C1414778   5.316   2.934   2.452
    1PA     H4R14779   5.224   2.940   2.510
    1PA     H4S14780   5.367   3.029   2.466
    1PA     C1314781   5.285   2.918   2.302
    1PA     H3R14782   5.235   2.825   2.275
    1PA     H3S14783   5.210   2.995   2.281
    1PA     C1214784   5.409   2.945   2.216
    1PA     H2R14785   5.440   3.048   2.232
    1PA     H2S14786   5.487   2.871   2.238
    2PC     C1114787   5.381   2.924   2.070
    2PC     O1214788   5.280   2.868   2.033
    2PC     O1114789   5.488   2.948   1.992
    2PC      C114790   5.469   2.945   1.849
    2PC      HR14791   5.564   2.929   1.798
    2PC      HS14792   5.406   2.860   1.822
    2PC      C214793   5.392   3.069   1.803
    2PC      HX14794   5.288   3.069   1.838
    2PC      C314795   5.391   3.074   1.650
    2PC      HA14796   5.491   3.104   1.617
    2PC      HB14797   5.377   2.975   1.605
    2PC     O3114798   5.292   3.172   1.612
    2PC     P3114799   5.248   3.190   1.459
    2PC     O3214800   5.107   3.266   1.453
    2PC     C3114801   5.060   3.288   1.319
    2PC     H1A14802   5.131   3.363   1.284
    2PC     H1B14803   5.046   3.196   1.262
    2PC     C3214804   4.926   3.362   1.337
    2PC     H2A14805   4.853   3.308   1.277
    2PC     H2B14806   4.897   3.370   1.442
    2PC     N3114807   4.940   3.507   1.300
    2PC     C3314808   4.795   3.546   1.292
    2PC     H3A14809   4.763   3.509   1.390
    2PC     H3B14810   4.774   3.652   1.280
    2PC     H3C14811   4.741   3.491   1.215
    2PC     C3414812   5.008   3.579   1.413
    2PC     H4A14813   5.107   3.540   1.438
    2PC     H4B14814   5.030   3.680   1.377
    2PC     H4C14815   4.930   3.579   1.489
    2PC     C3514816   5.000   3.521   1.164
    2PC     H5A14817   4.960   3.616   1.127
    2PC     H5B14818   4.969   3.445   1.092
    2PC     H5C14819   5.108   3.533   1.168
    2PC     O3314820   5.358   3.261   1.390
    2PC     O3414821   5.239   3.058   1.392
    2PC     O2114822   5.479   3.176   1.845
    2PC     C2114823   5.425   3.264   1.931
    2PC     O2214824   5.319   3.250   1.987
    3OL     C1214825   5.521   3.379   1.951
    3OL     H2R14826   5.523   3.447   1.866
    3OL     H2S14827   5.625   3.345   1.960
    3OL     C1314828   5.495   3.468   2.073
    3OL     H3R14829   5.396   3.512   2.083
    3OL     H3S14830   5.559   3.556   2.062
    3OL     C1414831   5.537   3.389   2.198
    3OL     H4R14832   5.640   3.354   2.190
    3OL     H4S14833   5.475   3.300   2.207
    3OL     C1514834   5.519   3.479   2.321
    3OL     H5R14835   5.414   3.487   2.349
    3OL     H5S14836   5.556   3.582   2.312
    3OL     C1614837   5.585   3.418   2.446
    3OL     H6R14838   5.585   3.492   2.526
    3OL     H6S14839   5.690   3.396   2.430
    3OL     C1714840   5.518   3.297   2.513
    3OL     H7R14841   5.559   3.263   2.608
    3OL     H7S14842   5.513   3.213   2.443
    3OL     C1814843   5.368   3.314   2.544
    3OL     H8R14844   5.336   3.219   2.587
    3OL     H8S14845   5.327   3.321   2.443
    3OL     C1914846   5.337   3.427   2.638
    3OL     H9R14847   5.307   3.521   2.591
    3OL    C11014848   5.324   3.431   2.770
    3OL    H10R14849   5.315   3.535   2.801
    3OL    C11114850   5.355   3.317   2.863
    3OL    H11R14851   5.430   3.247   2.825
    3OL    H11S14852   5.256   3.274   2.879
    3OL    C11214853   5.406   3.364   3.000
    3OL    H12R14854   5.319   3.415   3.041
    3OL    H12S14855   5.495   3.427   2.999
    3OL    C11314856   5.439   3.244   3.090
    3OL    H13R14857   5.521   3.192   3.041
    3OL    H13S14858   5.347   3.185   3.080
    3OL    C11414859   5.466   3.271   3.239
    3OL    H14R14860   5.391   3.336   3.285
    3OL    H14S14861   5.563   3.319   3.247
    3OL    C11514862   5.469   3.137   3.314
    3OL    H15R14863   5.557   3.075   3.295
    3OL    H15S14864   5.388   3.074   3.275
    3OL    C11614865   5.447   3.143   3.465
    3OL    H16R14866   5.349   3.191   3.479
    3OL    H16S14867   5.527   3.203   3.509
    3OL    C11714868   5.437   3.008   3.538
    3OL    H17R14869   5.512   2.939   3.500
    3OL    H17S14870   5.340   2.963   3.518
    3OL    C11814871   5.456   3.012   3.690
    3OL    H18R14872   5.407   3.103   3.726
    3OL    H18S14873   5.562   3.019   3.714
    3OL    H18T14874   5.424   2.920   3.738
    1PA    C11614875   4.376   2.694   3.723
    1PA    H16R14876   4.467   2.644   3.690
    1PA    H16S14877   4.296   2.642   3.668
    1PA    H16T14878   4.369   2.673   3.829
    1PA    C11514879   4.394   2.843   3.689
    1PA    H15R14880   4.307   2.905   3.706
    1PA    H15S14881   4.481   2.885   3.741
    1PA    C11414882   4.403   2.846   3.536
    1PA    H14R14883   4.478   2.775   3.502
    1PA    H14S14884   4.307   2.823   3.489
    1PA    C11314885   4.444   2.985   3.485
    1PA    H13R14886   4.365   3.048   3.524
    1PA    H13S14887   4.538   3.010   3.536
    1PA    C11214888   4.448   2.991   3.332
    1PA    H12R14889   4.355   2.952   3.289
    1PA    H12S14890   4.466   3.092   3.296
    1PA    C11114891   4.558   2.897   3.280
    1PA    H11R14892   4.653   2.916   3.329
    1PA    H11S14893   4.541   2.792   3.306
    1PA    C11014894   4.569   2.913   3.128
    1PA    H10R14895   4.475   2.875   3.088
    1PA    H10S14896   4.577   3.021   3.114
    1PA     C1914897   4.683   2.841   3.056
    1PA     H9R14898   4.678   2.736   3.088
    1PA     H9S14899   4.774   2.880   3.102
    1PA     C1814900   4.688   2.862   2.904
    1PA     H8R14901   4.702   2.969   2.883
    1PA     H8S14902   4.769   2.801   2.863
    1PA     C1714903   4.559   2.814   2.837
    1PA     H7R14904   4.545   2.706   2.845
    1PA     H7S14905   4.475   2.878   2.867
    1PA     C1614906   4.580   2.848   2.689
    1PA     H6R14907   4.617   2.951   2.696
    1PA     H6S14908   4.661   2.787   2.647
    1PA     C1514909   4.455   2.824   2.604
    1PA     H5R14910   4.406   2.732   2.637
    1PA     H5S14911   4.386   2.905   2.627
    1PA     C1414912   4.489   2.811   2.454
    1PA     H4R14913   4.547   2.901   2.434
    1PA     H4S14914   4.552   2.724   2.439
    1PA     C1314915   4.370   2.824   2.358
    1PA     H3R14916   4.281   2.763   2.377
    1PA     H3S14917   4.331   2.924   2.379
    1PA     C1214918   4.410   2.813   2.211
    1PA     H2R14919   4.499   2.873   2.190
    1PA     H2S14920   4.421   2.707   2.187
    2PC     C1114921   4.311   2.881   2.120
    2PC     O1214922   4.347   2.915   2.009
    2PC     O1114923   4.187   2.901   2.168
    2PC      C114924   4.095   2.982   2.092
    2PC      HR14925   4.115   3.089   2.099
    2PC      HS14926   4.102   2.963   1.985
    2PC      C214927   3.948   2.966   2.133
    2PC      HX14928   3.918   2.867   2.098
    2PC      C314929   3.856   3.071   2.067
    2PC      HA14930   3.789   3.115   2.141
    2PC      HB14931   3.911   3.148   2.013
    2PC     O3114932   3.779   2.991   1.976
    2PC     P3114933   3.660   3.053   1.888
    2PC     O3214934   3.556   3.057   2.010
    2PC     C3114935   3.484   2.937   2.044
    2PC     H1A14936   3.428   2.906   1.955
    2PC     H1B14937   3.551   2.855   2.071
    2PC     C3214938   3.391   2.960   2.163
    2PC     H2A14939   3.337   2.870   2.191
    2PC     H2B14940   3.461   2.994   2.240
    2PC     N3114941   3.285   3.066   2.154
    2PC     C3314942   3.169   3.006   2.081
    2PC     H3A14943   3.199   3.015   1.977
    2PC     H3B14944   3.149   2.901   2.102
    2PC     H3C14945   3.084   3.071   2.104
    2PC     C3414946   3.234   3.094   2.293
    2PC     H4A14947   3.154   3.167   2.280
    2PC     H4B14948   3.182   3.003   2.325
    2PC     H4C14949   3.322   3.122   2.350
    2PC     C3514950   3.325   3.199   2.099
    2PC     H5A14951   3.239   3.267   2.100
    2PC     H5B14952   3.369   3.193   2.000
    2PC     H5C14953   3.402   3.232   2.168
    2PC     O3314954   3.709   3.175   1.820
    2PC     O3414955   3.597   2.971   1.783
    2PC     O2114956   3.941   2.973   2.276
    2PC     C2114957   3.846   2.906   2.344
    2PC     O2214958   3.754   2.846   2.292
    3OL     C1214959   3.870   2.882   2.491
    3OL     H2R14960   3.887   2.774   2.498
    3OL     H2S14961   3.781   2.895   2.551
    3OL     C1314962   3.978   2.974   2.549
    3OL     H3R14963   3.946   3.078   2.548
    3OL     H3S14964   4.073   2.979   2.496
    3OL     C1414965   4.021   2.940   2.693
    3OL     H4R14966   4.069   2.842   2.692
    3OL     H4S14967   3.938   2.932   2.764
    3OL     C1514968   4.110   3.055   2.741
    3OL     H5R14969   4.048   3.144   2.747
    3OL     H5S14970   4.185   3.071   2.664
    3OL     C1614971   4.185   3.034   2.874
    3OL     H6R14972   4.244   3.125   2.884
    3OL     H6S14973   4.248   2.945   2.866
    3OL     C1714974   4.101   3.025   3.002
    3OL     H7R14975   4.017   3.095   2.990
    3OL     H7S14976   4.159   3.066   3.085
    3OL     C1814977   4.062   2.883   3.042
    3OL     H8R14978   4.161   2.840   3.060
    3OL     H8S14979   4.012   2.829   2.962
    3OL     C1914980   3.978   2.893   3.167
    3OL     H9R14981   4.034   2.876   3.258
    3OL    C11014982   3.846   2.903   3.179
    3OL    H10R14983   3.797   2.904   3.276
    3OL    C11114984   3.760   2.941   3.061
    3OL    H11R14985   3.816   2.965   2.970
    3OL    H11S14986   3.694   3.025   3.080
    3OL    C11214987   3.682   2.814   3.026
    3OL    H12R14988   3.575   2.836   3.014
    3OL    H12S14989   3.686   2.736   3.102
    3OL    C11314990   3.736   2.745   2.900
    3OL    H13R14991   3.836   2.704   2.917
    3OL    H13S14992   3.741   2.816   2.817
    3OL    C11414993   3.648   2.625   2.866
    3OL    H14R14994   3.675   2.581   2.769
    3OL    H14S14995   3.542   2.651   2.857
    3OL    C11514996   3.641   2.511   2.969
    3OL    H15R14997   3.563   2.442   2.934
    3OL    H15S14998   3.616   2.544   3.070
    3OL    C11614999   3.769   2.428   2.983
    3OL    H16R15000   3.853   2.491   3.014
    3OL    H16S15001   3.793   2.381   2.887
    3OL    C11715002   3.765   2.311   3.082
    3OL    H17R15003   3.671   2.256   3.073
    3OL    H17S15004   3.787   2.350   3.182
    3OL    C11815005   3.876   2.209   3.053
    3OL    H18R15006   3.859   2.132   3.129
    3OL    H18S15007   3.976   2.252   3.064
    3OL    H18T15008   3.864   2.165   2.954
    1PA    C11615009   1.981   2.815   3.425
    1PA    H16R15010   1.977   2.918   3.390
    1PA    H16S15011   2.037   2.807   3.518
    1PA    H16T15012   1.880   2.782   3.449
    1PA    C11515013   2.041   2.731   3.310
    1PA    H15R15014   2.148   2.753   3.309
    1PA    H15S15015   2.031   2.623   3.321
    1PA    C11415016   1.976   2.773   3.178
    1PA    H14R15017   1.868   2.754   3.187
    1PA    H14S15018   1.995   2.881   3.180
    1PA    C11315019   2.031   2.716   3.047
    1PA    H13R15020   2.019   2.607   3.047
    1PA    H13S15021   1.962   2.752   2.970
    1PA    C11215022   2.170   2.774   3.020
    1PA    H12R15023   2.150   2.881   3.012
    1PA    H12S15024   2.234   2.763   3.108
    1PA    C11115025   2.225   2.722   2.886
    1PA    H11R15026   2.212   2.615   2.870
    1PA    H11S15027   2.164   2.763   2.806
    1PA    C11015028   2.365   2.769   2.843
    1PA    H10R15029   2.359   2.877   2.829
    1PA    H10S15030   2.438   2.752   2.923
    1PA     C1915031   2.410   2.711   2.709
    1PA     H9R15032   2.422   2.603   2.696
    1PA     H9S15033   2.339   2.740   2.631
    1PA     C1815034   2.546   2.779   2.688
    1PA     H8R15035   2.532   2.888   2.691
    1PA     H8S15036   2.610   2.753   2.772
    1PA     C1715037   2.615   2.754   2.553
    1PA     H7R15038   2.626   2.645   2.550
    1PA     H7S15039   2.536   2.777   2.481
    1PA     C1615040   2.747   2.830   2.534
    1PA     H6R15041   2.730   2.938   2.533
    1PA     H6S15042   2.804   2.813   2.626
    1PA     C1515043   2.824   2.800   2.406
    1PA     H5R15044   2.916   2.858   2.390
    1PA     H5S15045   2.862   2.698   2.404
    1PA     C1415046   2.743   2.807   2.276
    1PA     H4R15047   2.677   2.720   2.284
    1PA     H4S15048   2.692   2.903   2.270
    1PA     C1315049   2.845   2.788   2.163
    1PA     H3R15050   2.916   2.871   2.168
    1PA     H3S15051   2.909   2.701   2.182
    1PA     C1215052   2.769   2.790   2.030
    1PA     H2R15053   2.717   2.696   2.010
    1PA     H2S15054   2.694   2.869   2.037
    2PC     C1115055   2.861   2.799   1.911
    2PC     O1215056   2.902   2.904   1.866
    2PC     O1115057   2.880   2.683   1.846
    2PC      C115058   2.958   2.670   1.726
    2PC      HR15059   2.947   2.566   1.695
    2PC      HS15060   2.912   2.735   1.651
    2PC      C215061   3.109   2.683   1.754
    2PC      HX15062   3.136   2.771   1.814
    2PC      C315063   3.166   2.688   1.612
    2PC      HA15064   3.170   2.592   1.560
    2PC      HB15065   3.101   2.742   1.542
    2PC     O3115066   3.301   2.737   1.614
    2PC     P3115067   3.380   2.734   1.474
    2PC     O3215068   3.445   2.589   1.499
    2PC     C3115069   3.459   2.502   1.385
    2PC     H1A15070   3.364   2.478   1.337
    2PC     H1B15071   3.517   2.552   1.307
    2PC     C3215072   3.530   2.370   1.417
    2PC     H2A15073   3.578   2.332   1.327
    2PC     H2B15074   3.616   2.390   1.481
    2PC     N3115075   3.463   2.252   1.480
    2PC     C3315076   3.349   2.300   1.564
    2PC     H3A15077   3.270   2.328   1.494
    2PC     H3B15078   3.322   2.219   1.632
    2PC     H3C15079   3.387   2.377   1.631
    2PC     C3415080   3.393   2.168   1.377
    2PC     H4A15081   3.333   2.088   1.419
    2PC     H4B15082   3.318   2.235   1.333
    2PC     H4C15083   3.476   2.140   1.312
    2PC     C3515084   3.558   2.164   1.555
    2PC     H5A15085   3.596   2.227   1.636
    2PC     H5B15086   3.642   2.150   1.487
    2PC     H5C15087   3.503   2.080   1.598
    2PC     O3315088   3.285   2.715   1.362
    2PC     O3415089   3.478   2.839   1.442
    2PC     O2115090   3.159   2.565   1.819
    2PC     C2115091   3.191   2.580   1.949
    2PC     O2215092   3.174   2.677   2.019
    3OL     C1215093   3.248   2.452   2.006
    3OL     H2R15094   3.320   2.397   1.945
    3OL     H2S15095   3.163   2.388   2.028
    3OL     C1315096   3.311   2.468   2.145
    3OL     H3R15097   3.229   2.483   2.216
    3OL     H3S15098   3.371   2.559   2.143
    3OL     C1415099   3.396   2.347   2.186
    3OL     H4R15100   3.485   2.332   2.125
    3OL     H4S15101   3.339   2.256   2.169
    3OL     C1515102   3.429   2.349   2.336
    3OL     H5R15103   3.350   2.396   2.394
    3OL     H5S15104   3.513   2.418   2.348
    3OL     C1615105   3.466   2.208   2.386
    3OL     H6R15106   3.548   2.171   2.324
    3OL     H6S15107   3.394   2.127   2.371
    3OL     C1715108   3.508   2.211   2.534
    3OL     H7R15109   3.415   2.228   2.588
    3OL     H7S15110   3.565   2.303   2.547
    3OL     C1815111   3.588   2.093   2.591
    3OL     H8R15112   3.685   2.095   2.541
    3OL     H8S15113   3.532   2.001   2.572
    3OL     C1915114   3.613   2.103   2.739
    3OL     H9R15115   3.656   2.197   2.771
    3OL    C11015116   3.571   2.016   2.829
    3OL    H10R15117   3.589   2.058   2.927
    3OL    C11115118   3.516   1.877   2.808
    3OL    H11R15119   3.542   1.805   2.887
    3OL    H11S15120   3.560   1.835   2.718
    3OL    C11215121   3.363   1.887   2.797
    3OL    H12R15122   3.333   1.785   2.772
    3OL    H12S15123   3.337   1.953   2.714
    3OL    C11315124   3.299   1.951   2.921
    3OL    H13R15125   3.190   1.941   2.923
    3OL    H13S15126   3.326   2.057   2.918
    3OL    C11415127   3.357   1.891   3.050
    3OL    H14R15128   3.465   1.907   3.048
    3OL    H14S15129   3.336   1.785   3.043
    3OL    C11515130   3.296   1.944   3.180
    3OL    H15R15131   3.333   1.873   3.255
    3OL    H15S15132   3.187   1.944   3.172
    3OL    C11615133   3.338   2.090   3.206
    3OL    H16R15134   3.285   2.115   3.298
    3OL    H16S15135   3.313   2.169   3.135
    3OL    C11715136   3.487   2.086   3.242
    3OL    H17R15137   3.553   2.074   3.156
    3OL    H17S15138   3.514   2.004   3.308
    3OL    C11815139   3.524   2.201   3.338
    3OL    H18R15140   3.612   2.198   3.402
    3OL    H18S15141   3.445   2.210   3.412
    3OL    H18T15142   3.518   2.297   3.287
    1PA    C11615143   6.078   0.630   3.641
    1PA    H16R15144   6.139   0.573   3.571
    1PA    H16S15145   6.101   0.597   3.743
    1PA    H16T15146   6.103   0.736   3.637
    1PA    C11515147   5.926   0.616   3.623
    1PA    H15R15148   5.891   0.527   3.676
    1PA    H15S15149   5.880   0.703   3.671
    1PA    C11415150   5.890   0.615   3.474
    1PA    H14R15151   5.914   0.715   3.438
    1PA    H14S15152   5.953   0.541   3.424
    1PA    C11315153   5.739   0.594   3.453
    1PA    H13R15154   5.713   0.497   3.497
    1PA    H13S15155   5.699   0.681   3.505
    1PA    C11215156   5.705   0.609   3.305
    1PA    H12R15157   5.750   0.702   3.272
    1PA    H12S15158   5.763   0.533   3.252
    1PA    C11115159   5.557   0.589   3.268
    1PA    H11R15160   5.530   0.492   3.310
    1PA    H11S15161   5.499   0.666   3.320
    1PA    C11015162   5.522   0.590   3.119
    1PA    H10R15163   5.559   0.679   3.067
    1PA    H10S15164   5.578   0.512   3.068
    1PA     C1915165   5.373   0.570   3.084
    1PA     H9R15166   5.338   0.479   3.132
    1PA     H9S15167   5.328   0.660   3.128
    1PA     C1815168   5.333   0.567   2.936
    1PA     H8R15169   5.225   0.561   2.924
    1PA     H8S15170   5.380   0.656   2.895
    1PA     C1715171   5.394   0.449   2.858
    1PA     H7R15172   5.503   0.455   2.858
    1PA     H7S15173   5.367   0.359   2.914
    1PA     C1615174   5.338   0.453   2.715
    1PA     H6R15175   5.230   0.447   2.722
    1PA     H6S15176   5.372   0.538   2.655
    1PA     C1515177   5.396   0.322   2.659
    1PA     H5R15178   5.505   0.318   2.658
    1PA     H5S15179   5.346   0.236   2.705
    1PA     C1415180   5.362   0.304   2.511
    1PA     H4R15181   5.255   0.316   2.494
    1PA     H4S15182   5.415   0.386   2.461
    1PA     C1315183   5.410   0.169   2.456
    1PA     H3R15184   5.346   0.102   2.514
    1PA     H3S15185   5.395   0.175   2.348
    1PA     C1215186   5.556   0.130   2.480
    1PA     H2R15187   5.617   0.213   2.443
    1PA     H2S15188   5.572   0.121   2.588
    2PC     C1115189   5.604   0.013   2.398
    2PC     O1215190   5.598   0.008   2.277
    2PC     O1115191   5.646  -0.092   2.471
    2PC      C115192   5.685  -0.214   2.406
    2PC      HR15193   5.701  -0.292   2.480
    2PC      HS15194   5.606  -0.242   2.335
    2PC      C215195   5.823  -0.193   2.341
    2PC      HX15196   5.816  -0.097   2.289
    2PC      C315197   5.845  -0.302   2.235
    2PC      HA15198   5.860  -0.394   2.293
    2PC      HB15199   5.765  -0.310   2.162
    2PC     O3115200   5.966  -0.272   2.164
    2PC     P3115201   5.956  -0.171   2.040
    2PC     O3215202   5.908  -0.276   1.929
    2PC     C3115203   5.887  -0.230   1.794
    2PC     H1A15204   5.805  -0.158   1.798
    2PC     H1B15205   5.975  -0.188   1.745
    2PC     C3215206   5.858  -0.354   1.710
    2PC     H2A15207   5.877  -0.332   1.605
    2PC     H2B15208   5.921  -0.435   1.747
    2PC     N3115209   5.716  -0.402   1.703
    2PC     C3315210   5.615  -0.291   1.703
    2PC     H3A15211   5.520  -0.343   1.708
    2PC     H3B15212   5.622  -0.236   1.797
    2PC     H3C15213   5.635  -0.228   1.616
    2PC     C3415214   5.702  -0.503   1.593
    2PC     H4A15215   5.766  -0.589   1.613
    2PC     H4B15216   5.602  -0.547   1.590
    2PC     H4C15217   5.719  -0.465   1.492
    2PC     C3515218   5.694  -0.470   1.835
    2PC     H5A15219   5.600  -0.525   1.831
    2PC     H5B15220   5.699  -0.393   1.912
    2PC     H5C15221   5.777  -0.539   1.850
    2PC     O3315222   5.849  -0.070   2.054
    2PC     O3415223   6.077  -0.091   2.009
    2PC     O2115224   5.928  -0.195   2.439
    2PC     C2115225   5.945  -0.072   2.490
    2PC     O2215226   5.892   0.031   2.455
    3OL     C1215227   6.043  -0.075   2.605
    3OL     H2R15228   6.056   0.030   2.634
    3OL     H2S15229   6.139  -0.099   2.560
    3OL     C1315230   6.005  -0.163   2.725
    3OL     H3R15231   5.941  -0.247   2.698
    3OL     H3S15232   5.943  -0.096   2.786
    3OL     C1415233   6.126  -0.227   2.793
    3OL     H4R15234   6.184  -0.281   2.719
    3OL     H4S15235   6.089  -0.300   2.865
    3OL     C1515236   6.215  -0.125   2.867
    3OL     H5R15237   6.274  -0.065   2.796
    3OL     H5S15238   6.295  -0.178   2.920
    3OL     C1615239   6.141  -0.041   2.971
    3OL     H6R15240   6.071   0.030   2.928
    3OL     H6S15241   6.219   0.011   3.028
    3OL     C1715242   6.074  -0.130   3.077
    3OL     H7R15243   6.146  -0.203   3.113
    3OL     H7S15244   6.002  -0.186   3.016
    3OL     C1815245   5.994  -0.058   3.186
    3OL     H8R15246   5.934  -0.126   3.246
    3OL     H8S15247   5.923   0.009   3.137
    3OL     C1915248   6.090   0.011   3.280
    3OL     H9R15249   6.142  -0.059   3.344
    3OL    C11015250   6.102   0.142   3.299
    3OL    H10R15251   6.175   0.173   3.374
    3OL    C11115252   6.017   0.253   3.242
    3OL    H11R15253   5.995   0.323   3.323
    3OL    H11S15254   5.924   0.208   3.206
    3OL    C11215255   6.080   0.333   3.127
    3OL    H12R15256   6.008   0.403   3.084
    3OL    H12S15257   6.101   0.258   3.050
    3OL    C11315258   6.209   0.404   3.168
    3OL    H13R15259   6.265   0.428   3.077
    3OL    H13S15260   6.285   0.334   3.204
    3OL    C11415261   6.179   0.527   3.255
    3OL    H14R15262   6.213   0.504   3.356
    3OL    H14S15263   6.072   0.549   3.255
    3OL    C11515264   6.237   0.655   3.194
    3OL    H15R15265   6.180   0.671   3.101
    3OL    H15S15266   6.342   0.643   3.167
    3OL    C11615267   6.207   0.770   3.291
    3OL    H16R15268   6.101   0.761   3.316
    3OL    H16S15269   6.218   0.863   3.234
    3OL    C11715270   6.294   0.787   3.416
    3OL    H17R15271   6.316   0.690   3.461
    3OL    H17S15272   6.243   0.839   3.497
    3OL    C11815273   6.417   0.870   3.378
    3OL    H18R15274   6.488   0.868   3.461
    3OL    H18S15275   6.396   0.977   3.367
    3OL    H18T15276   6.473   0.839   3.289
    1PA    C11615277   6.333   2.913   3.673
    1PA    H16R15278   6.268   2.826   3.685
    1PA    H16S15279   6.331   2.964   3.769
    1PA    H16T15280   6.434   2.877   3.654
    1PA    C11515281   6.289   3.016   3.568
    1PA    H15R15282   6.180   3.011   3.573
    1PA    H15S15283   6.327   3.114   3.596
    1PA    C11415284   6.341   2.972   3.430
    1PA    H14R15285   6.353   2.865   3.415
    1PA    H14S15286   6.274   3.008   3.352
    1PA    C11315287   6.477   3.033   3.393
    1PA    H13R15288   6.474   3.142   3.387
    1PA    H13S15289   6.555   3.010   3.466
    1PA    C11215290   6.518   2.974   3.257
    1PA    H12R15291   6.623   2.993   3.234
    1PA    H12S15292   6.501   2.866   3.259
    1PA    C11115293   6.430   3.022   3.140
    1PA    H11R15294   6.360   3.096   3.178
    1PA    H11S15295   6.495   3.071   3.067
    1PA    C11015296   6.363   2.901   3.072
    1PA    H10R15297   6.439   2.834   3.033
    1PA    H10S15298   6.296   2.849   3.141
    1PA     C1915299   6.272   2.946   2.957
    1PA     H9R15300   6.198   3.018   2.993
    1PA     H9S15301   6.336   3.000   2.887
    1PA     C1815302   6.204   2.823   2.896
    1PA     H8R15303   6.272   2.741   2.921
    1PA     H8S15304   6.109   2.785   2.935
    1PA     C1715305   6.191   2.843   2.744
    1PA     H7R15306   6.129   2.932   2.731
    1PA     H7S15307   6.289   2.854   2.698
    1PA     C1615308   6.118   2.721   2.686
    1PA     H6R15309   6.156   2.625   2.723
    1PA     H6S15310   6.013   2.733   2.713
    1PA     C1515311   6.116   2.726   2.533
    1PA     H5R15312   6.093   2.830   2.508
    1PA     H5S15313   6.216   2.705   2.495
    1PA     C1415314   6.019   2.626   2.467
    1PA     H4R15315   6.024   2.532   2.521
    1PA     H4S15316   5.919   2.670   2.468
    1PA     C1315317   6.042   2.600   2.317
    1PA     H3R15318   6.064   2.691   2.262
    1PA     H3S15319   6.126   2.532   2.304
    1PA     C1215320   5.922   2.535   2.246
    1PA     H2R15321   5.877   2.449   2.295
    1PA     H2S15322   5.849   2.615   2.260
    2PC     C1115323   5.933   2.516   2.097
    2PC     O1215324   5.839   2.505   2.020
    2PC     O1115325   6.058   2.484   2.060
    2PC      C115326   6.069   2.428   1.928
    2PC      HR15327   5.993   2.352   1.907
    2PC      HS15328   6.044   2.502   1.852
    2PC      C215329   6.210   2.380   1.890
    2PC      HX15330   6.270   2.472   1.894
    2PC      C315331   6.208   2.319   1.750
    2PC      HA15332   6.178   2.387   1.669
    2PC      HB15333   6.306   2.278   1.724
    2PC     O3115334   6.112   2.212   1.755
    2PC     P3115335   6.102   2.131   1.617
    2PC     O3215336   6.213   2.019   1.642
    2PC     C3115337   6.285   1.972   1.527
    2PC     H1A15338   6.216   1.935   1.450
    2PC     H1B15339   6.347   2.050   1.482
    2PC     C3215340   6.379   1.863   1.579
    2PC     H2A15341   6.311   1.793   1.629
    2PC     H2B15342   6.408   1.811   1.488
    2PC     N3115343   6.490   1.894   1.676
    2PC     C3315344   6.419   1.922   1.805
    2PC     H3A15345   6.499   1.909   1.879
    2PC     H3B15346   6.373   2.021   1.815
    2PC     H3C15347   6.347   1.841   1.817
    2PC     C3415348   6.570   1.768   1.682
    2PC     H4A15349   6.612   1.730   1.589
    2PC     H4B15350   6.657   1.787   1.746
    2PC     H4C15351   6.510   1.695   1.736
    2PC     C3515352   6.573   2.010   1.628
    2PC     H5A15353   6.511   2.094   1.596
    2PC     H5B15354   6.628   1.971   1.543
    2PC     H5C15355   6.640   2.045   1.706
    2PC     O3315356   5.966   2.077   1.600
    2PC     O3415357   6.125   2.204   1.490
    2PC     O2115358   6.265   2.273   1.969
    2PC     C2115359   6.397   2.263   1.989
    2PC     O2215360   6.483   2.339   1.951
    3OL     C1215361   6.431   2.152   2.086
    3OL     H2R15362   6.527   2.112   2.051
    3OL     H2S15363   6.363   2.068   2.081
    3OL     C1315364   6.437   2.208   2.229
    3OL     H3R15365   6.348   2.267   2.253
    3OL     H3S15366   6.522   2.274   2.244
    3OL     C1415367   6.453   2.093   2.330
    3OL     H4R15368   6.515   2.012   2.292
    3OL     H4S15369   6.355   2.046   2.331
    3OL     C1515370   6.509   2.135   2.466
    3OL     H5R15371   6.437   2.207   2.506
    3OL     H5S15372   6.609   2.179   2.457
    3OL     C1615373   6.517   2.023   2.571
    3OL     H6R15374   6.583   1.940   2.547
    3OL     H6S15375   6.417   1.980   2.577
    3OL     C1715376   6.543   2.074   2.713
    3OL     H7R15377   6.474   2.154   2.739
    3OL     H7S15378   6.645   2.110   2.701
    3OL     C1815379   6.536   1.961   2.817
    3OL     H8R15380   6.573   1.868   2.775
    3OL     H8S15381   6.430   1.941   2.834
    3OL     C1915382   6.593   2.012   2.947
    3OL     H9R15383   6.550   2.104   2.986
    3OL    C11015384   6.701   1.954   2.998
    3OL    H10R15385   6.747   2.004   3.082
    3OL    C11115386   6.756   1.816   2.970
    3OL    H11R15387   6.864   1.824   2.954
    3OL    H11S15388   6.719   1.774   2.876
    3OL    C11215389   6.743   1.709   3.079
    3OL    H12R15390   6.644   1.729   3.120
    3OL    H12S15391   6.812   1.728   3.161
    3OL    C11315392   6.762   1.567   3.024
    3OL    H13R15393   6.709   1.567   2.929
    3OL    H13S15394   6.717   1.489   3.086
    3OL    C11415395   6.910   1.530   3.003
    3OL    H14R15396   6.958   1.513   3.100
    3OL    H14S15397   6.973   1.612   2.968
    3OL    C11515398   6.931   1.412   2.908
    3OL    H15R15399   6.872   1.323   2.931
    3OL    H15S15400   7.032   1.374   2.924
    3OL    C11615401   6.914   1.450   2.760
    3OL    H16R15402   6.971   1.541   2.742
    3OL    H16S15403   6.809   1.476   2.741
    3OL    C11715404   6.961   1.331   2.676
    3OL    H17R15405   7.060   1.300   2.709
    3OL    H17S15406   6.974   1.368   2.574
    3OL    C11815407   6.870   1.207   2.684
    3OL    H18R15408   6.851   1.184   2.789
    3OL    H18S15409   6.913   1.115   2.644
    3OL    H18T15410   6.772   1.227   2.641
    1PA    C11615411  -0.178   3.631   3.766
    1PA    H16R15412  -0.108   3.674   3.838
    1PA    H16S15413  -0.144   3.528   3.752
    1PA    H16T15414  -0.276   3.636   3.813
    1PA    C11515415  -0.192   3.723   3.643
    1PA    H15R15416  -0.214   3.824   3.677
    1PA    H15S15417  -0.105   3.725   3.578
    1PA    C11415418  -0.305   3.675   3.551
    1PA    H14R15419  -0.390   3.658   3.618
    1PA    H14S15420  -0.318   3.745   3.468
    1PA    C11315421  -0.281   3.534   3.497
    1PA    H13R15422  -0.239   3.465   3.571
    1PA    H13S15423  -0.377   3.497   3.461
    1PA    C11215424  -0.177   3.538   3.384
    1PA    H12R15425  -0.156   3.636   3.341
    1PA    H12S15426  -0.085   3.502   3.431
    1PA    C11115427  -0.226   3.458   3.263
    1PA    H11R15428  -0.243   3.358   3.303
    1PA    H11S15429  -0.324   3.496   3.233
    1PA    C11015430  -0.122   3.464   3.150
    1PA    H10R15431  -0.117   3.567   3.114
    1PA    H10S15432  -0.023   3.432   3.185
    1PA     C1915433  -0.165   3.383   3.027
    1PA     H9R15434  -0.187   3.279   3.051
    1PA     H9S15435  -0.249   3.427   2.973
    1PA     C1815436  -0.052   3.379   2.923
    1PA     H8R15437  -0.033   3.482   2.892
    1PA     H8S15438   0.032   3.340   2.979
    1PA     C1715439  -0.092   3.299   2.798
    1PA     H7R15440  -0.168   3.222   2.815
    1PA     H7S15441  -0.133   3.361   2.719
    1PA     C1615442   0.034   3.228   2.747
    1PA     H6R15443   0.120   3.296   2.754
    1PA     H6S15444   0.061   3.138   2.802
    1PA     C1515445   0.009   3.181   2.603
    1PA     H5R15446  -0.059   3.095   2.592
    1PA     H5S15447  -0.039   3.260   2.545
    1PA     C1415448   0.152   3.153   2.554
    1PA     H4R15449   0.211   3.245   2.553
    1PA     H4S15450   0.192   3.085   2.629
    1PA     C1315451   0.135   3.103   2.410
    1PA     H3R15452   0.065   3.021   2.394
    1PA     H3S15453   0.104   3.184   2.344
    1PA     C1215454   0.272   3.065   2.352
    1PA     H2R15455   0.329   3.157   2.368
    1PA     H2S15456   0.308   2.976   2.404
    2PC     C1115457   0.264   3.030   2.205
    2PC     O1215458   0.204   3.091   2.118
    2PC     O1115459   0.334   2.917   2.186
    2PC      C115460   0.367   2.887   2.049
    2PC      HR15461   0.277   2.849   1.999
    2PC      HS15462   0.396   2.978   1.996
    2PC      C215463   0.477   2.779   2.048
    2PC      HX15464   0.574   2.817   2.079
    2PC      C315465   0.497   2.739   1.901
    2PC      HA15466   0.529   2.832   1.854
    2PC      HB15467   0.581   2.669   1.900
    2PC     O3115468   0.381   2.688   1.833
    2PC     P3115469   0.393   2.676   1.673
    2PC     O3215470   0.291   2.795   1.640
    2PC     C3115471   0.158   2.781   1.693
    2PC     H1A15472   0.128   2.678   1.672
    2PC     H1B15473   0.159   2.820   1.796
    2PC     C3215474   0.054   2.873   1.627
    2PC     H2A15475  -0.047   2.834   1.645
    2PC     H2B15476   0.063   2.977   1.660
    2PC     N3115477   0.056   2.883   1.478
    2PC     C3315478   0.054   2.743   1.425
    2PC     H3A15479   0.156   2.704   1.431
    2PC     H3B15480  -0.013   2.675   1.478
    2PC     H3C15481   0.021   2.747   1.321
    2PC     C3415482  -0.072   2.953   1.444
    2PC     H4A15483  -0.078   3.039   1.511
    2PC     H4B15484  -0.080   2.983   1.339
    2PC     H4C15485  -0.157   2.887   1.460
    2PC     C3515486   0.174   2.962   1.428
    2PC     H5A15487   0.268   2.909   1.439
    2PC     H5B15488   0.185   3.058   1.478
    2PC     H5C15489   0.169   2.982   1.321
    2PC     O3315490   0.532   2.705   1.632
    2PC     O3415491   0.344   2.545   1.626
    2PC     O2115492   0.425   2.668   2.124
    2PC     C2115493   0.496   2.554   2.130
    2PC     O2215494   0.610   2.545   2.089
    3OL     C1215495   0.420   2.443   2.198
    3OL     H2R15496   0.339   2.420   2.129
    3OL     H2S15497   0.384   2.484   2.293
    3OL     C1315498   0.494   2.312   2.230
    3OL     H3R15499   0.576   2.333   2.299
    3OL     H3S15500   0.537   2.274   2.137
    3OL     C1415501   0.401   2.208   2.294
    3OL     H4R15502   0.307   2.185   2.242
    3OL     H4S15503   0.362   2.258   2.382
    3OL     C1515504   0.468   2.075   2.333
    3OL     H5R15505   0.511   2.025   2.246
    3OL     H5S15506   0.391   2.005   2.365
    3OL     C1615507   0.580   2.085   2.438
    3OL     H6R15508   0.651   2.166   2.424
    3OL     H6S15509   0.636   1.991   2.436
    3OL     C1715510   0.531   2.099   2.583
    3OL     H7R15511   0.430   2.141   2.585
    3OL     H7S15512   0.592   2.173   2.635
    3OL     C1815513   0.537   1.972   2.669
    3OL     H8R15514   0.487   1.883   2.631
    3OL     H8S15515   0.483   1.988   2.763
    3OL     C1915516   0.679   1.928   2.692
    3OL     H9R15517   0.727   1.894   2.601
    3OL    C11015518   0.742   1.932   2.809
    3OL    H10R15519   0.845   1.897   2.816
    3OL    C11115520   0.696   1.989   2.940
    3OL    H11R15521   0.640   1.914   2.998
    3OL    H11S15522   0.627   2.072   2.925
    3OL    C11215523   0.808   2.042   3.031
    3OL    H12R15524   0.875   1.960   3.056
    3OL    H12S15525   0.779   2.082   3.128
    3OL    C11315526   0.892   2.144   2.953
    3OL    H13R15527   0.825   2.221   2.914
    3OL    H13S15528   0.938   2.092   2.869
    3OL    C11415529   1.007   2.207   3.033
    3OL    H14R15530   1.086   2.240   2.965
    3OL    H14S15531   1.060   2.136   3.098
    3OL    C11515532   0.966   2.330   3.114
    3OL    H15R15533   0.914   2.305   3.207
    3OL    H15S15534   0.904   2.383   3.041
    3OL    C11615535   1.080   2.428   3.148
    3OL    H16R15536   1.041   2.522   3.189
    3OL    H16S15537   1.139   2.452   3.059
    3OL    C11715538   1.175   2.359   3.247
    3OL    H17R15539   1.202   2.268   3.193
    3OL    H17S15540   1.135   2.333   3.345
    3OL    C11815541   1.301   2.444   3.263
    3OL    H18R15542   1.324   2.489   3.166
    3OL    H18S15543   1.395   2.396   3.291
    3OL    H18T15544   1.287   2.529   3.330
    1PA    C11615545   5.578   6.146   3.622
    1PA    H16R15546   5.582   6.078   3.707
    1PA    H16S15547   5.496   6.123   3.554
    1PA    H16T15548   5.566   6.246   3.663
    1PA    C11515549   5.708   6.138   3.542
    1PA    H15R15550   5.725   6.036   3.508
    1PA    H15S15551   5.702   6.209   3.459
    1PA    C11415552   5.834   6.162   3.626
    1PA    H14R15553   5.823   6.256   3.681
    1PA    H14S15554   5.849   6.080   3.697
    1PA    C11315555   5.964   6.182   3.547
    1PA    H13R15556   5.953   6.275   3.490
    1PA    H13S15557   6.054   6.190   3.609
    1PA    C11215558   5.994   6.069   3.448
    1PA    H12R15559   5.976   5.970   3.491
    1PA    H12S15560   5.935   6.088   3.358
    1PA    C11115561   6.144   6.077   3.416
    1PA    H11R15562   6.167   6.181   3.395
    1PA    H11S15563   6.197   6.046   3.506
    1PA    C11015564   6.180   5.982   3.301
    1PA    H10R15565   6.160   5.880   3.336
    1PA    H10S15566   6.110   5.998   3.219
    1PA     C1915567   6.329   5.979   3.263
    1PA     H9R15568   6.345   6.084   3.235
    1PA     H9S15569   6.392   5.944   3.345
    1PA     C1815570   6.362   5.884   3.148
    1PA     H8R15571   6.470   5.883   3.134
    1PA     H8S15572   6.347   5.778   3.171
    1PA     C1715573   6.285   5.907   3.016
    1PA     H7R15574   6.186   5.863   3.022
    1PA     H7S15575   6.275   6.014   2.997
    1PA     C1615576   6.346   5.825   2.902
    1PA     H6R15577   6.455   5.828   2.905
    1PA     H6S15578   6.339   5.717   2.921
    1PA     C1515579   6.300   5.855   2.759
    1PA     H5R15580   6.294   5.771   2.690
    1PA     H5S15581   6.193   5.875   2.764
    1PA     C1415582   6.382   5.965   2.690
    1PA     H4R15583   6.375   6.057   2.748
    1PA     H4S15584   6.487   5.936   2.687
    1PA     C1315585   6.341   6.004   2.547
    1PA     H3R15586   6.238   6.041   2.538
    1PA     H3S15587   6.406   6.084   2.513
    1PA     C1215588   6.368   5.886   2.452
    1PA     H2R15589   6.472   5.855   2.460
    1PA     H2S15590   6.305   5.801   2.480
    2PC     C1115591   6.332   5.932   2.313
    2PC     O1215592   6.387   6.026   2.259
    2PC     O1115593   6.250   5.844   2.253
    2PC      C115594   6.260   5.843   2.109
    2PC      HR15595   6.180   5.789   2.057
    2PC      HS15596   6.260   5.947   2.078
    2PC      C215597   6.396   5.785   2.067
    2PC      HX15598   6.478   5.832   2.121
    2PC      C315599   6.405   5.814   1.916
    2PC      HA15600   6.430   5.919   1.900
    2PC      HB15601   6.481   5.762   1.859
    2PC     O3115602   6.281   5.799   1.844
    2PC     P3115603   6.270   5.848   1.692
    2PC     O3215604   6.367   5.973   1.665
    2PC     C3115605   6.329   6.098   1.726
    2PC     H1A15606   6.239   6.135   1.675
    2PC     H1B15607   6.307   6.086   1.832
    2PC     C3215608   6.443   6.194   1.690
    2PC     H2A15609   6.427   6.288   1.743
    2PC     H2B15610   6.542   6.157   1.719
    2PC     N3115611   6.457   6.239   1.548
    2PC     C3315612   6.492   6.125   1.458
    2PC     H3A15613   6.588   6.092   1.498
    2PC     H3B15614   6.415   6.049   1.467
    2PC     H3C15615   6.494   6.158   1.354
    2PC     C3415616   6.326   6.292   1.498
    2PC     H4A15617   6.262   6.212   1.460
    2PC     H4B15618   6.285   6.355   1.578
    2PC     H4C15619   6.347   6.362   1.417
    2PC     C3515620   6.553   6.351   1.521
    2PC     H5A15621   6.601   6.360   1.619
    2PC     H5B15622   6.492   6.439   1.501
    2PC     H5C15623   6.621   6.311   1.446
    2PC     O3315624   6.306   5.737   1.601
    2PC     O3415625   6.126   5.876   1.670
    2PC     O2115626   6.391   5.643   2.088
    2PC     C2115627   6.435   5.591   2.205
    2PC     O2215628   6.500   5.654   2.285
    3OL     C1215629   6.393   5.448   2.226
    3OL     H2R15630   6.486   5.402   2.261
    3OL     H2S15631   6.380   5.400   2.129
    3OL     C1315632   6.269   5.422   2.312
    3OL     H3R15633   6.264   5.314   2.303
    3OL     H3S15634   6.178   5.466   2.270
    3OL     C1415635   6.285   5.466   2.459
    3OL     H4R15636   6.302   5.572   2.477
    3OL     H4S15637   6.376   5.414   2.490
    3OL     C1515638   6.166   5.412   2.539
    3OL     H5R15639   6.155   5.304   2.528
    3OL     H5S15640   6.071   5.451   2.502
    3OL     C1615641   6.171   5.456   2.686
    3OL     H6R15642   6.078   5.509   2.708
    3OL     H6S15643   6.260   5.516   2.704
    3OL     C1715644   6.186   5.335   2.780
    3OL     H7R15645   6.278   5.283   2.755
    3OL     H7S15646   6.103   5.265   2.769
    3OL     C1815647   6.193   5.366   2.931
    3OL     H8R15648   6.107   5.428   2.955
    3OL     H8S15649   6.291   5.414   2.933
    3OL     C1915650   6.203   5.235   3.005
    3OL     H9R15651   6.130   5.161   2.972
    3OL    C11015652   6.287   5.202   3.102
    3OL    H10R15653   6.277   5.109   3.157
    3OL    C11115654   6.394   5.287   3.167
    3OL    H11R15655   6.456   5.327   3.087
    3OL    H11S15656   6.459   5.228   3.233
    3OL    C11215657   6.331   5.398   3.252
    3OL    H12R15658   6.273   5.353   3.333
    3OL    H12S15659   6.266   5.456   3.186
    3OL    C11315660   6.437   5.490   3.314
    3OL    H13R15661   6.478   5.552   3.234
    3OL    H13S15662   6.524   5.432   3.347
    3OL    C11415663   6.379   5.583   3.421
    3OL    H14R15664   6.319   5.540   3.501
    3OL    H14S15665   6.312   5.658   3.377
    3OL    C11515666   6.497   5.652   3.492
    3OL    H15R15667   6.564   5.699   3.420
    3OL    H15S15668   6.565   5.573   3.525
    3OL    C11615669   6.443   5.760   3.587
    3OL    H16R15670   6.360   5.725   3.648
    3OL    H16S15671   6.405   5.851   3.540
    3OL    C11715672   6.554   5.803   3.684
    3OL    H17R15673   6.612   5.873   3.625
    3OL    H17S15674   6.614   5.718   3.718
    3OL    C11815675   6.497   5.883   3.802
    3OL    H18R15676   6.585   5.918   3.855
    3OL    H18S15677   6.448   5.815   3.873
    3OL    H18T15678   6.424   5.949   3.755
    1PA    C11615679   2.366   3.254   3.766
    1PA    H16R15680   2.326   3.217   3.861
    1PA    H16S15681   2.310   3.342   3.732
    1PA    H16T15682   2.467   3.291   3.781
    1PA    C11515683   2.374   3.151   3.652
    1PA    H15R15684   2.464   3.179   3.597
    1PA    H15S15685   2.396   3.057   3.703
    1PA    C11415686   2.247   3.141   3.565
    1PA    H14R15687   2.159   3.115   3.623
    1PA    H14S15688   2.230   3.237   3.516
    1PA    C11315689   2.261   3.032   3.458
    1PA    H13R15690   2.256   2.931   3.499
    1PA    H13S15691   2.174   3.033   3.391
    1PA    C11215692   2.379   3.057   3.363
    1PA    H12R15693   2.370   3.164   3.346
    1PA    H12S15694   2.468   3.048   3.426
    1PA    C11115695   2.386   2.968   3.238
    1PA    H11R15696   2.386   2.864   3.269
    1PA    H11S15697   2.302   2.989   3.172
    1PA    C11015698   2.518   2.989   3.163
    1PA    H10R15699   2.583   3.038   3.236
    1PA    H10S15700   2.568   2.896   3.132
    1PA     C1915701   2.512   3.088   3.046
    1PA     H9R15702   2.435   3.062   2.974
    1PA     H9S15703   2.492   3.186   3.090
    1PA     C1815704   2.644   3.091   2.969
    1PA     H8R15705   2.725   3.102   3.042
    1PA     H8S15706   2.658   2.991   2.927
    1PA     C1715707   2.647   3.199   2.860
    1PA     H7R15708   2.548   3.205   2.815
    1PA     H7S15709   2.674   3.292   2.912
    1PA     C1615710   2.755   3.165   2.756
    1PA     H6R15711   2.842   3.129   2.812
    1PA     H6S15712   2.718   3.078   2.701
    1PA     C1515713   2.775   3.292   2.673
    1PA     H5R15714   2.683   3.348   2.654
    1PA     H5S15715   2.826   3.364   2.737
    1PA     C1415716   2.853   3.273   2.542
    1PA     H4R15717   2.912   3.361   2.514
    1PA     H4S15718   2.921   3.193   2.573
    1PA     C1315719   2.757   3.227   2.432
    1PA     H3R15720   2.815   3.158   2.371
    1PA     H3S15721   2.671   3.169   2.467
    1PA     C1215722   2.704   3.346   2.351
    1PA     H2R15723   2.634   3.296   2.282
    1PA     H2S15724   2.645   3.418   2.408
    2PC     C1115725   2.808   3.408   2.261
    2PC     O1215726   2.929   3.402   2.268
    2PC     O1115727   2.750   3.464   2.154
    2PC      C115728   2.819   3.513   2.038
    2PC      HR15729   2.870   3.599   2.084
    2PC      HS15730   2.887   3.446   1.985
    2PC      C215731   2.712   3.561   1.939
    2PC      HX15732   2.647   3.477   1.911
    2PC      C315733   2.789   3.623   1.822
    2PC      HA15734   2.825   3.721   1.857
    2PC      HB15735   2.884   3.572   1.810
    2PC     O3115736   2.699   3.628   1.709
    2PC     P3115737   2.752   3.665   1.563
    2PC     O3215738   2.889   3.582   1.556
    2PC     C3115739   2.872   3.440   1.548
    2PC     H1A15740   2.810   3.411   1.634
    2PC     H1B15741   2.824   3.400   1.458
    2PC     C3215742   3.005   3.372   1.582
    2PC     H2A15743   3.047   3.411   1.676
    2PC     H2B15744   2.983   3.267   1.599
    2PC     N3115745   3.112   3.376   1.477
    2PC     C3315746   3.046   3.340   1.347
    2PC     H3A15747   3.118   3.313   1.270
    2PC     H3B15748   2.981   3.257   1.374
    2PC     H3C15749   2.985   3.422   1.309
    2PC     C3415750   3.172   3.513   1.460
    2PC     H4A15751   3.201   3.540   1.562
    2PC     H4B15752   3.255   3.515   1.390
    2PC     H4C15753   3.091   3.586   1.452
    2PC     C3515754   3.220   3.275   1.499
    2PC     H5A15755   3.266   3.252   1.402
    2PC     H5B15756   3.180   3.188   1.552
    2PC     H5C15757   3.282   3.326   1.572
    2PC     O3315758   2.658   3.626   1.455
    2PC     O3415759   2.783   3.803   1.518
    2PC     O2115760   2.640   3.667   2.005
    2PC     C2115761   2.520   3.648   2.062
    2PC     O2215762   2.479   3.536   2.084
    3OL     C1215763   2.453   3.782   2.081
    3OL     H2R15764   2.365   3.789   2.016
    3OL     H2S15765   2.518   3.858   2.037
    3OL     C1315766   2.424   3.821   2.227
    3OL     H3R15767   2.359   3.908   2.216
    3OL     H3S15768   2.515   3.846   2.281
    3OL     C1415769   2.335   3.726   2.310
    3OL     H4R15770   2.381   3.628   2.326
    3OL     H4S15771   2.246   3.690   2.258
    3OL     C1515772   2.302   3.792   2.444
    3OL     H5R15773   2.215   3.737   2.482
    3OL     H5S15774   2.275   3.897   2.445
    3OL     C1615775   2.416   3.764   2.543
    3OL     H6R15776   2.511   3.796   2.500
    3OL     H6S15777   2.431   3.656   2.549
    3OL     C1715778   2.396   3.826   2.682
    3OL     H7R15779   2.306   3.798   2.737
    3OL     H7S15780   2.382   3.932   2.658
    3OL     C1815781   2.517   3.803   2.774
    3OL     H8R15782   2.492   3.854   2.868
    3OL     H8S15783   2.606   3.855   2.738
    3OL     C1915784   2.555   3.660   2.804
    3OL     H9R15785   2.655   3.629   2.773
    3OL    C11015786   2.486   3.578   2.881
    3OL    H10R15787   2.522   3.478   2.902
    3OL    C11115788   2.341   3.589   2.922
    3OL    H11R15789   2.275   3.584   2.835
    3OL    H11S15790   2.315   3.676   2.982
    3OL    C11215791   2.304   3.472   3.015
    3OL    H12R15792   2.354   3.490   3.110
    3OL    H12S15793   2.341   3.380   2.970
    3OL    C11315794   2.154   3.478   3.048
    3OL    H13R15795   2.104   3.456   2.954
    3OL    H13S15796   2.126   3.579   3.077
    3OL    C11415797   2.113   3.374   3.153
    3OL    H14R15798   2.179   3.379   3.240
    3OL    H14S15799   2.136   3.275   3.115
    3OL    C11515800   1.963   3.377   3.185
    3OL    H15R15801   1.910   3.398   3.092
    3OL    H15S15802   1.947   3.464   3.249
    3OL    C11615803   1.927   3.249   3.261
    3OL    H16R15804   1.982   3.240   3.355
    3OL    H16S15805   1.970   3.171   3.198
    3OL    C11715806   1.776   3.229   3.279
    3OL    H17R15807   1.722   3.249   3.186
    3OL    H17S15808   1.738   3.299   3.354
    3OL    C11815809   1.731   3.089   3.323
    3OL    H18R15810   1.796   3.046   3.399
    3OL    H18S15811   1.740   3.027   3.234
    3OL    H18T15812   1.633   3.078   3.370
    1PA    C11615813   2.982   1.931   3.797
    1PA    H16R15814   3.083   1.894   3.811
    1PA    H16S15815   2.911   1.874   3.857
    1PA    H16T15816   2.964   2.034   3.832
    1PA    C11515817   2.938   1.934   3.650
    1PA    H15R15818   2.936   1.840   3.594
    1PA    H15S15819   2.832   1.958   3.658
    1PA    C11415820   3.024   2.037   3.576
    1PA    H14R15821   3.006   2.134   3.622
    1PA    H14S15822   3.130   2.023   3.598
    1PA    C11315823   3.001   2.047   3.425
    1PA    H13R15824   3.056   2.130   3.379
    1PA    H13S15825   3.047   1.959   3.380
    1PA    C11215826   2.853   2.059   3.384
    1PA    H12R15827   2.804   1.966   3.415
    1PA    H12S15828   2.805   2.142   3.436
    1PA    C11115829   2.832   2.085   3.234
    1PA    H11R15830   2.725   2.102   3.223
    1PA    H11S15831   2.887   2.174   3.203
    1PA    C11015832   2.857   1.962   3.145
    1PA    H10R15833   2.952   1.922   3.181
    1PA    H10S15834   2.775   1.894   3.168
    1PA     C1915835   2.860   1.991   2.995
    1PA     H9R15836   2.782   2.056   2.955
    1PA     H9S15837   2.951   2.045   2.970
    1PA     C1815838   2.858   1.857   2.919
    1PA     H8R15839   2.956   1.809   2.924
    1PA     H8S15840   2.776   1.792   2.950
    1PA     C1715841   2.845   1.879   2.768
    1PA     H7R15842   2.832   1.781   2.722
    1PA     H7S15843   2.754   1.931   2.738
    1PA     C1615844   2.956   1.951   2.690
    1PA     H6R15845   2.954   2.058   2.712
    1PA     H6S15846   3.053   1.910   2.717
    1PA     C1515847   2.928   1.937   2.539
    1PA     H5R15848   2.906   1.834   2.509
    1PA     H5S15849   2.842   2.002   2.522
    1PA     C1415850   3.044   1.984   2.451
    1PA     H4R15851   3.062   2.085   2.489
    1PA     H4S15852   3.139   1.929   2.455
    1PA     C1315853   2.991   2.007   2.309
    1PA     H3R15854   2.919   1.932   2.276
    1PA     H3S15855   2.936   2.101   2.311
    1PA     C1215856   3.108   2.017   2.210
    1PA     H2R15857   3.163   2.108   2.234
    1PA     H2S15858   3.170   1.928   2.219
    2PC     C1115859   3.059   2.017   2.067
    2PC     O1215860   2.965   1.954   2.023
    2PC     O1115861   3.127   2.106   1.993
    2PC      C115862   3.087   2.118   1.856
    2PC      HR15863   3.164   2.180   1.809
    2PC      HS15864   3.081   2.022   1.804
    2PC      C215865   2.948   2.182   1.840
    2PC      HX15866   2.870   2.115   1.877
    2PC      C315867   2.907   2.198   1.693
    2PC      HA15868   2.875   2.099   1.659
    2PC      HB15869   2.821   2.264   1.681
    2PC     O3115870   3.016   2.247   1.613
    2PC     P3115871   2.996   2.261   1.455
    2PC     O3215872   3.084   2.139   1.401
    2PC     C3115873   3.028   2.006   1.406
    2PC     H1A15874   3.028   1.977   1.511
    2PC     H1B15875   2.929   2.014   1.361
    2PC     C3215876   3.117   1.904   1.333
    2PC     H2A15877   3.218   1.923   1.368
    2PC     H2B15878   3.091   1.801   1.360
    2PC     N3115879   3.127   1.919   1.184
    2PC     C3315880   2.989   1.904   1.128
    2PC     H3A15881   2.949   1.803   1.142
    2PC     H3B15882   2.918   1.975   1.171
    2PC     H3C15883   3.003   1.925   1.022
    2PC     C3415884   3.184   2.051   1.143
    2PC     H4A15885   3.138   2.132   1.200
    2PC     H4B15886   3.292   2.043   1.155
    2PC     H4C15887   3.148   2.077   1.043
    2PC     C3515888   3.214   1.810   1.128
    2PC     H5A15889   3.309   1.804   1.180
    2PC     H5B15890   3.239   1.851   1.030
    2PC     H5C15891   3.171   1.710   1.133
    2PC     O3315892   2.856   2.272   1.406
    2PC     O3415893   3.053   2.389   1.407
    2PC     O2115894   2.949   2.306   1.914
    2PC     C2115895   2.831   2.358   1.952
    2PC     O2215896   2.722   2.339   1.904
    3OL     C1215897   2.846   2.432   2.083
    3OL     H2R15898   2.759   2.488   2.118
    3OL     H2S15899   2.930   2.500   2.067
    3OL     C1315900   2.892   2.341   2.198
    3OL     H3R15901   2.983   2.288   2.172
    3OL     H3S15902   2.806   2.276   2.219
    3OL     C1415903   2.909   2.430   2.322
    3OL     H4R15904   2.810   2.468   2.348
    3OL     H4S15905   2.977   2.510   2.292
    3OL     C1515906   2.976   2.357   2.439
    3OL     H5R15907   3.071   2.326   2.394
    3OL     H5S15908   2.924   2.268   2.475
    3OL     C1615909   2.997   2.456   2.554
    3OL     H6R15910   2.905   2.508   2.581
    3OL     H6S15911   3.069   2.534   2.529
    3OL     C1715912   3.055   2.372   2.668
    3OL     H7R15913   3.153   2.337   2.634
    3OL     H7S15914   2.994   2.282   2.683
    3OL     C1815915   3.064   2.445   2.803
    3OL     H8R15916   2.966   2.491   2.820
    3OL     H8S15917   3.140   2.522   2.801
    3OL     C1915918   3.086   2.349   2.918
    3OL     H9R15919   3.073   2.243   2.898
    3OL    C11015920   3.134   2.385   3.036
    3OL    H10R15921   3.157   2.305   3.106
    3OL    C11115922   3.153   2.522   3.095
    3OL    H11R15923   3.062   2.554   3.146
    3OL    H11S15924   3.180   2.586   3.010
    3OL    C11215925   3.277   2.519   3.186
    3OL    H12R15926   3.361   2.488   3.123
    3OL    H12S15927   3.260   2.444   3.263
    3OL    C11315928   3.313   2.655   3.247
    3OL    H13R15929   3.232   2.694   3.309
    3OL    H13S15930   3.334   2.728   3.169
    3OL    C11415931   3.437   2.654   3.338
    3OL    H14R15932   3.517   2.613   3.277
    3OL    H14S15933   3.412   2.593   3.425
    3OL    C11515934   3.482   2.794   3.383
    3OL    H15R15935   3.486   2.862   3.298
    3OL    H15S15936   3.589   2.794   3.405
    3OL    C11615937   3.391   2.862   3.485
    3OL    H16R15938   3.295   2.814   3.461
    3OL    H16S15939   3.372   2.969   3.474
    3OL    C11715940   3.434   2.826   3.628
    3OL    H17R15941   3.484   2.729   3.633
    3OL    H17S15942   3.346   2.818   3.693
    3OL    C11815943   3.531   2.930   3.686
    3OL    H18R15944   3.562   2.898   3.786
    3OL    H18S15945   3.484   3.028   3.686
    3OL    H18T15946   3.622   2.934   3.625
    1PA    C11615947   6.261   0.940   3.813
    1PA    H16R15948   6.295   0.845   3.769
    1PA    H16S15949   6.159   0.917   3.845
    1PA    H16T15950   6.303   0.959   3.912
    1PA    C11515951   6.286   1.062   3.724
    1PA    H15R15952   6.391   1.089   3.719
    1PA    H15S15953   6.261   1.034   3.621
    1PA    C11415954   6.191   1.180   3.749
    1PA    H14R15955   6.087   1.147   3.746
    1PA    H14S15956   6.218   1.224   3.845
    1PA    C11315957   6.214   1.286   3.641
    1PA    H13R15958   6.320   1.300   3.618
    1PA    H13S15959   6.172   1.261   3.544
    1PA    C11215960   6.167   1.429   3.671
    1PA    H12R15961   6.192   1.464   3.771
    1PA    H12S15962   6.206   1.506   3.603
    1PA    C11115963   6.015   1.438   3.650
    1PA    H11R15964   5.976   1.345   3.691
    1PA    H11S15965   5.980   1.526   3.706
    1PA    C11015966   5.986   1.451   3.500
    1PA    H10R15967   6.030   1.545   3.467
    1PA    H10S15968   6.040   1.371   3.448
    1PA     C1915969   5.835   1.445   3.477
    1PA     H9R15970   5.793   1.358   3.526
    1PA     H9S15971   5.794   1.531   3.532
    1PA     C1815972   5.798   1.451   3.328
    1PA     H8R15973   5.859   1.373   3.281
    1PA     H8S15974   5.694   1.421   3.317
    1PA     C1715975   5.815   1.591   3.267
    1PA     H7R15976   5.741   1.659   3.310
    1PA     H7S15977   5.902   1.648   3.302
    1PA     C1615978   5.795   1.579   3.116
    1PA     H6R15979   5.693   1.554   3.085
    1PA     H6S15980   5.792   1.682   3.079
    1PA     C1515981   5.889   1.484   3.040
    1PA     H5R15982   5.988   1.517   3.071
    1PA     H5S15983   5.874   1.380   3.068
    1PA     C1415984   5.867   1.506   2.890
    1PA     H4R15985   5.862   1.614   2.872
    1PA     H4S15986   5.947   1.475   2.823
    1PA     C1315987   5.733   1.455   2.836
    1PA     H3R15988   5.657   1.458   2.915
    1PA     H3S15989   5.701   1.504   2.744
    1PA     C1215990   5.744   1.307   2.795
    1PA     H2R15991   5.765   1.239   2.878
    1PA     H2S15992   5.646   1.273   2.762
    2PC     C1115993   5.844   1.276   2.687
    2PC     O1215994   5.908   1.174   2.676
    2PC     O1115995   5.859   1.376   2.598
    2PC      C115996   5.961   1.359   2.497
    2PC      HR15997   6.058   1.353   2.548
    2PC      HS15998   5.936   1.273   2.434
    2PC      C215999   5.963   1.490   2.417
    2PC      HX16000   5.862   1.530   2.402
    2PC      C316001   6.022   1.458   2.279
    2PC      HA16002   5.978   1.368   2.236
    2PC      HB16003   6.011   1.539   2.207
    2PC     O3116004   6.164   1.436   2.290
    2PC     P3116005   6.239   1.347   2.180
    2PC     O3216006   6.260   1.202   2.246
    2PC     C3116007   6.393   1.160   2.284
    2PC     H1A16008   6.451   1.241   2.329
    2PC     H1B16009   6.389   1.086   2.364
    2PC     C3216010   6.475   1.107   2.166
    2PC     H2A16011   6.496   1.182   2.090
    2PC     H2B16012   6.573   1.080   2.207
    2PC     N3116013   6.407   0.997   2.091
    2PC     C3316014   6.514   0.911   2.029
    2PC     H3A16015   6.577   0.975   1.967
    2PC     H3B16016   6.585   0.867   2.099
    2PC     H3C16017   6.461   0.831   1.978
    2PC     C3416018   6.325   0.906   2.177
    2PC     H4A16019   6.301   0.817   2.118
    2PC     H4B16020   6.375   0.878   2.269
    2PC     H4C16021   6.237   0.962   2.207
    2PC     C3516022   6.320   1.047   1.979
    2PC     H5A16023   6.376   1.101   1.902
    2PC     H5B16024   6.253   1.103   2.044
    2PC     H5C16025   6.270   0.959   1.941
    2PC     O3316026   6.144   1.342   2.067
    2PC     O3416027   6.361   1.411   2.124
    2PC     O2116028   6.043   1.594   2.476
    2PC     C2116029   6.038   1.721   2.430
    2PC     O2216030   5.957   1.775   2.358
    3OL     C1216031   6.144   1.810   2.489
    3OL     H2R16032   6.198   1.862   2.410
    3OL     H2S16033   6.223   1.751   2.535
    3OL     C1316034   6.099   1.905   2.602
    3OL     H3R16035   6.028   1.976   2.558
    3OL     H3S16036   6.177   1.966   2.647
    3OL     C1416037   6.029   1.836   2.720
    3OL     H4R16038   6.096   1.759   2.760
    3OL     H4S16039   5.935   1.789   2.694
    3OL     C1516040   6.010   1.939   2.833
    3OL     H5R16041   5.966   2.031   2.795
    3OL     H5S16042   6.108   1.974   2.867
    3OL     C1616043   5.925   1.891   2.950
    3OL     H6R16044   5.976   1.810   3.003
    3OL     H6S16045   5.828   1.852   2.917
    3OL     C1716046   5.900   2.003   3.052
    3OL     H7R16047   5.821   1.971   3.120
    3OL     H7S16048   5.863   2.095   3.005
    3OL     C1816049   6.028   2.031   3.132
    3OL     H8R16050   6.109   2.063   3.066
    3OL     H8S16051   6.062   1.939   3.180
    3OL     C1916052   6.016   2.146   3.228
    3OL     H9R16053   5.978   2.240   3.189
    3OL    C11016054   6.025   2.136   3.360
    3OL    H10R16055   5.995   2.220   3.423
    3OL    C11116056   6.041   2.016   3.450
    3OL    H11R16057   5.995   1.928   3.405
    3OL    H11S16058   5.999   2.032   3.550
    3OL    C11216059   6.189   1.981   3.472
    3OL    H12R16060   6.241   1.941   3.385
    3OL    H12S16061   6.191   1.899   3.545
    3OL    C11316062   6.271   2.106   3.507
    3OL    H13R16063   6.285   2.173   3.422
    3OL    H13S16064   6.367   2.063   3.533
    3OL    C11416065   6.210   2.182   3.627
    3OL    H14R16066   6.107   2.213   3.612
    3OL    H14S16067   6.260   2.279   3.630
    3OL    C11516068   6.222   2.105   3.759
    3OL    H15R16069   6.324   2.085   3.790
    3OL    H15S16070   6.174   2.007   3.755
    3OL    C11616071   6.170   2.194   3.873
    3OL    H16R16072   6.225   2.289   3.874
    3OL    H16S16073   6.191   2.141   3.966
    3OL    C11716074   6.018   2.216   3.867
    3OL    H17R16075   5.973   2.117   3.868
    3OL    H17S16076   5.993   2.263   3.772
    3OL    C11816077   5.967   2.305   3.982
    3OL    H18R16078   5.861   2.323   3.963
    3OL    H18S16079   6.021   2.399   3.984
    3OL    H18T16080   5.972   2.258   4.080
    1PA    C11616081   2.449   5.984   3.340
    1PA    H16R16082   2.373   6.043   3.391
    1PA    H16S16083   2.479   6.048   3.257
    1PA    H16T16084   2.532   5.979   3.410
    1PA    C11516085   2.402   5.842   3.304
    1PA    H15R16086   2.303   5.851   3.260
    1PA    H15S16087   2.471   5.800   3.229
    1PA    C11416088   2.380   5.743   3.419
    1PA    H14R16089   2.474   5.729   3.472
    1PA    H14S16090   2.306   5.781   3.490
    1PA    C11316091   2.341   5.603   3.367
    1PA    H13R16092   2.325   5.529   3.446
    1PA    H13S16093   2.252   5.625   3.308
    1PA    C11216094   2.444   5.541   3.272
    1PA    H12R16095   2.445   5.605   3.183
    1PA    H12S16096   2.539   5.552   3.325
    1PA    C11116097   2.397   5.402   3.227
    1PA    H11R16098   2.478   5.338   3.192
    1PA    H11S16099   2.356   5.347   3.311
    1PA    C11016100   2.280   5.404   3.127
    1PA    H10R16101   2.201   5.463   3.174
    1PA    H10S16102   2.319   5.448   3.035
    1PA     C1916103   2.232   5.264   3.086
    1PA     H9R16104   2.321   5.225   3.036
    1PA     H9S16105   2.214   5.196   3.170
    1PA     C1816106   2.114   5.277   2.989
    1PA     H8R16107   2.035   5.322   3.050
    1PA     H8S16108   2.135   5.349   2.910
    1PA     C1716109   2.080   5.144   2.920
    1PA     H7R16110   2.109   5.157   2.816
    1PA     H7S16111   2.140   5.063   2.963
    1PA     C1616112   1.935   5.095   2.929
    1PA     H6R16113   1.904   5.069   3.031
    1PA     H6S16114   1.870   5.174   2.890
    1PA     C1516115   1.911   4.966   2.849
    1PA     H5R16116   1.994   4.896   2.857
    1PA     H5S16117   1.827   4.915   2.897
    1PA     C1416118   1.868   5.008   2.708
    1PA     H4R16119   1.779   5.072   2.703
    1PA     H4S16120   1.939   5.069   2.652
    1PA     C1316121   1.847   4.875   2.634
    1PA     H3R16122   1.770   4.815   2.683
    1PA     H3S16123   1.811   4.898   2.533
    1PA     C1216124   1.976   4.794   2.618
    1PA     H2R16125   2.061   4.862   2.626
    1PA     H2S16126   1.983   4.728   2.705
    2PC     C1116127   1.979   4.716   2.489
    2PC     O1216128   1.881   4.695   2.421
    2PC     O1116129   2.105   4.674   2.468
    2PC      C116130   2.146   4.626   2.338
    2PC      HR16131   2.252   4.598   2.338
    2PC      HS16132   2.091   4.534   2.323
    2PC      C216133   2.112   4.727   2.228
    2PC      HX16134   2.014   4.777   2.233
    2PC      C316135   2.125   4.662   2.090
    2PC      HA16136   2.225   4.618   2.093
    2PC      HB16137   2.045   4.590   2.067
    2PC     O3116138   2.125   4.767   1.991
    2PC     P3116139   1.979   4.817   1.947
    2PC     O3216140   1.957   4.720   1.821
    2PC     C3116141   1.847   4.626   1.826
    2PC     H1A16142   1.860   4.556   1.909
    2PC     H1B16143   1.755   4.683   1.839
    2PC     C3216144   1.844   4.551   1.692
    2PC     H2A16145   1.933   4.489   1.685
    2PC     H2B16146   1.757   4.485   1.695
    2PC     N3116147   1.815   4.630   1.568
    2PC     C3316148   1.798   4.540   1.449
    2PC     H3A16149   1.889   4.479   1.447
    2PC     H3B16150   1.703   4.487   1.446
    2PC     H3C16151   1.785   4.609   1.365
    2PC     C3416152   1.686   4.707   1.579
    2PC     H4A16153   1.655   4.740   1.480
    2PC     H4B16154   1.611   4.652   1.637
    2PC     H4C16155   1.716   4.796   1.635
    2PC     C3516156   1.933   4.716   1.534
    2PC     H5A16157   2.012   4.643   1.516
    2PC     H5B16158   1.952   4.781   1.619
    2PC     H5C16159   1.898   4.765   1.443
    2PC     O3316160   1.872   4.784   2.043
    2PC     O3416161   1.976   4.960   1.907
    2PC     O2116162   2.225   4.816   2.230
    2PC     C2116163   2.211   4.935   2.292
    2PC     O2216164   2.116   4.975   2.356
    3OL     C1216165   2.322   5.034   2.268
    3OL     H2R16166   2.311   5.077   2.168
    3OL     H2S16167   2.415   4.979   2.276
    3OL     C1316168   2.330   5.154   2.363
    3OL     H3R16169   2.233   5.203   2.375
    3OL     H3S16170   2.412   5.214   2.322
    3OL     C1416171   2.372   5.115   2.505
    3OL     H4R16172   2.465   5.059   2.516
    3OL     H4S16173   2.292   5.062   2.557
    3OL     C1516174   2.386   5.246   2.584
    3OL     H5R16175   2.299   5.312   2.585
    3OL     H5S16176   2.472   5.303   2.547
    3OL     C1616177   2.409   5.221   2.733
    3OL     H6R16178   2.362   5.127   2.765
    3OL     H6S16179   2.373   5.310   2.785
    3OL     C1716180   2.559   5.206   2.765
    3OL     H7R16181   2.610   5.298   2.733
    3OL     H7S16182   2.602   5.128   2.703
    3OL     C1816183   2.601   5.178   2.910
    3OL     H8R16184   2.572   5.075   2.933
    3OL     H8S16185   2.544   5.243   2.976
    3OL     C1916186   2.746   5.199   2.944
    3OL     H9R16187   2.766   5.301   2.978
    3OL    C11016188   2.847   5.119   2.917
    3OL    H10R16189   2.949   5.156   2.923
    3OL    C11116190   2.843   4.969   2.896
    3OL    H11R16191   2.871   4.942   2.794
    3OL    H11S16192   2.741   4.930   2.904
    3OL    C11216193   2.936   4.889   2.989
    3OL    H12R16194   2.907   4.905   3.093
    3OL    H12S16195   3.034   4.935   2.983
    3OL    C11316196   2.937   4.738   2.964
    3OL    H13R16197   3.041   4.711   2.988
    3OL    H13S16198   2.915   4.706   2.862
    3OL    C11416199   2.839   4.647   3.040
    3OL    H14R16200   2.834   4.555   2.982
    3OL    H14S16201   2.739   4.691   3.035
    3OL    C11516202   2.895   4.615   3.179
    3OL    H15R16203   2.912   4.711   3.228
    3OL    H15S16204   2.994   4.568   3.180
    3OL    C11616205   2.802   4.527   3.264
    3OL    H16R16206   2.802   4.425   3.226
    3OL    H16S16207   2.699   4.560   3.253
    3OL    C11716208   2.860   4.531   3.406
    3OL    H17R16209   2.875   4.635   3.435
    3OL    H17S16210   2.953   4.476   3.419
    3OL    C11816211   2.760   4.457   3.496
    3OL    H18R16212   2.672   4.521   3.505
    3OL    H18S16213   2.796   4.445   3.598
    3OL    H18T16214   2.737   4.361   3.450
    1PA    C11616215   4.791   2.478   3.357
    1PA    H16R16216   4.715   2.556   3.349
    1PA    H16S16217   4.800   2.439   3.458
    1PA    H16T16218   4.770   2.389   3.296
    1PA    C11516219   4.934   2.526   3.329
    1PA    H15R16220   4.952   2.601   3.405
    1PA    H15S16221   5.007   2.445   3.331
    1PA    C11416222   4.942   2.598   3.193
    1PA    H14R16223   4.916   2.530   3.112
    1PA    H14S16224   4.873   2.682   3.193
    1PA    C11316225   5.081   2.662   3.176
    1PA    H13R16226   5.090   2.743   3.248
    1PA    H13S16227   5.152   2.579   3.175
    1PA    C11216228   5.100   2.736   3.043
    1PA    H12R16229   5.028   2.818   3.034
    1PA    H12S16230   5.201   2.776   3.055
    1PA    C11116231   5.104   2.647   2.918
    1PA    H11R16232   5.196   2.588   2.922
    1PA    H11S16233   5.019   2.578   2.908
    1PA    C11016234   5.112   2.744   2.800
    1PA    H10R16235   5.031   2.818   2.804
    1PA    H10S16236   5.202   2.805   2.808
    1PA     C1916237   5.103   2.688   2.657
    1PA     H9R16238   5.083   2.772   2.589
    1PA     H9S16239   5.187   2.621   2.638
    1PA     C1816240   4.979   2.602   2.631
    1PA     H8R16241   4.977   2.512   2.693
    1PA     H8S16242   4.894   2.664   2.659
    1PA     C1716243   4.970   2.562   2.483
    1PA     H7R16244   4.930   2.649   2.431
    1PA     H7S16245   5.071   2.553   2.443
    1PA     C1616246   4.873   2.445   2.456
    1PA     H6R16247   4.876   2.406   2.354
    1PA     H6S16248   4.917   2.364   2.514
    1PA     C1516249   4.731   2.477   2.503
    1PA     H5R16250   4.724   2.514   2.606
    1PA     H5S16251   4.702   2.561   2.439
    1PA     C1416252   4.621   2.373   2.479
    1PA     H4R16253   4.619   2.352   2.372
    1PA     H4S16254   4.643   2.279   2.530
    1PA     C1316255   4.486   2.420   2.534
    1PA     H3R16256   4.501   2.415   2.642
    1PA     H3S16257   4.449   2.518   2.503
    1PA     C1216258   4.380   2.313   2.504
    1PA     H2R16259   4.417   2.213   2.528
    1PA     H2S16260   4.295   2.335   2.570
    2PC     C1116261   4.333   2.320   2.361
    2PC     O1216262   4.363   2.237   2.278
    2PC     O1116263   4.282   2.442   2.335
    2PC      C116264   4.228   2.483   2.208
    2PC      HR16265   4.190   2.585   2.218
    2PC      HS16266   4.304   2.479   2.130
    2PC      C216267   4.113   2.390   2.167
    2PC      HX16268   4.154   2.291   2.148
    2PC      C316269   4.031   2.447   2.051
    2PC      HA16270   3.996   2.365   1.988
    2PC      HB16271   3.943   2.503   2.082
    2PC     O3116272   4.111   2.522   1.957
    2PC     P3116273   4.075   2.523   1.801
    2PC     O3216274   3.974   2.646   1.791
    2PC     C3116275   4.028   2.779   1.776
    2PC     H1A16276   4.048   2.798   1.882
    2PC     H1B16277   4.111   2.772   1.705
    2PC     C3216278   3.922   2.879   1.729
    2PC     H2A16279   3.838   2.884   1.799
    2PC     H2B16280   3.972   2.976   1.736
    2PC     N3116281   3.871   2.861   1.590
    2PC     C3316282   3.769   2.751   1.592
    2PC     H3A16283   3.807   2.659   1.636
    2PC     H3B16284   3.690   2.799   1.651
    2PC     H3C16285   3.737   2.736   1.489
    2PC     C3416286   3.811   2.989   1.538
    2PC     H4A16287   3.887   3.067   1.541
    2PC     H4B16288   3.780   2.969   1.435
    2PC     H4C16289   3.726   3.019   1.599
    2PC     C3516290   3.969   2.815   1.486
    2PC     H5A16291   4.049   2.889   1.474
    2PC     H5B16292   3.915   2.821   1.391
    2PC     H5C16293   3.999   2.712   1.506
    2PC     O3316294   4.199   2.552   1.725
    2PC     O3416295   4.038   2.392   1.742
    2PC     O2116296   4.021   2.391   2.278
    2PC     C2116297   3.927   2.298   2.298
    2PC     O2216298   3.905   2.207   2.220
    3OL     C1216299   3.842   2.322   2.420
    3OL     H2R16300   3.848   2.224   2.469
    3OL     H2S16301   3.743   2.343   2.379
    3OL     C1316302   3.871   2.436   2.519
    3OL     H3R16303   3.784   2.438   2.585
    3OL     H3S16304   3.856   2.537   2.481
    3OL     C1416305   4.000   2.414   2.600
    3OL     H4R16306   4.077   2.390   2.527
    3OL     H4S16307   4.000   2.328   2.668
    3OL     C1516308   4.020   2.536   2.690
    3OL     H5R16309   3.944   2.528   2.769
    3OL     H5S16310   4.002   2.628   2.634
    3OL     C1616311   4.154   2.528   2.764
    3OL     H6R16312   4.159   2.624   2.815
    3OL     H6S16313   4.240   2.518   2.697
    3OL     C1716314   4.156   2.413   2.866
    3OL     H7R16315   4.156   2.314   2.819
    3OL     H7S16316   4.060   2.409   2.917
    3OL     C1816317   4.257   2.427   2.981
    3OL     H8R16318   4.354   2.394   2.945
    3OL     H8S16319   4.230   2.355   3.058
    3OL     C1916320   4.255   2.566   3.039
    3OL     H9R16321   4.166   2.626   3.020
    3OL    C11016322   4.349   2.615   3.119
    3OL    H10R16323   4.351   2.713   3.165
    3OL    C11116324   4.465   2.534   3.170
    3OL    H11R16325   4.552   2.600   3.168
    3OL    H11S16326   4.495   2.454   3.101
    3OL    C11216327   4.451   2.484   3.315
    3OL    H12R16328   4.471   2.575   3.373
    3OL    H12S16329   4.534   2.414   3.318
    3OL    C11316330   4.314   2.430   3.358
    3OL    H13R16331   4.283   2.349   3.291
    3OL    H13S16332   4.235   2.506   3.352
    3OL    C11416333   4.313   2.357   3.493
    3OL    H14R16334   4.333   2.424   3.577
    3OL    H14S16335   4.381   2.272   3.489
    3OL    C11516336   4.171   2.308   3.525
    3OL    H15R16337   4.101   2.391   3.515
    3OL    H15S16338   4.158   2.291   3.632
    3OL    C11616339   4.139   2.174   3.459
    3OL    H16R16340   4.200   2.091   3.494
    3OL    H16S16341   4.167   2.182   3.354
    3OL    C11716342   3.991   2.133   3.467
    3OL    H17R16343   3.926   2.209   3.424
    3OL    H17S16344   3.967   2.129   3.574
    3OL    C11816345   3.975   2.003   3.388
    3OL    H18R16346   3.869   1.977   3.390
    3OL    H18S16347   4.039   1.925   3.430
    3OL    H18T16348   4.001   2.036   3.287
    1PA    C11616349   3.643   1.031   3.454
    1PA    H16R16350   3.654   0.925   3.475
    1PA    H16S16351   3.569   1.075   3.521
    1PA    H16T16352   3.740   1.077   3.471
    1PA    C11516353   3.601   1.039   3.306
    1PA    H15R16354   3.663   0.984   3.235
    1PA    H15S16355   3.499   0.999   3.304
    1PA    C11416356   3.582   1.185   3.264
    1PA    H14R16357   3.509   1.239   3.324
    1PA    H14S16358   3.685   1.222   3.265
    1PA    C11316359   3.528   1.193   3.121
    1PA    H13R16360   3.594   1.139   3.054
    1PA    H13S16361   3.429   1.146   3.117
    1PA    C11216362   3.538   1.340   3.081
    1PA    H12R16363   3.476   1.400   3.148
    1PA    H12S16364   3.639   1.379   3.093
    1PA    C11116365   3.499   1.358   2.933
    1PA    H11R16366   3.589   1.349   2.872
    1PA    H11S16367   3.437   1.272   2.907
    1PA    C11016368   3.416   1.481   2.895
    1PA    H10R16369   3.322   1.480   2.952
    1PA    H10S16370   3.472   1.569   2.927
    1PA     C1916371   3.382   1.486   2.746
    1PA     H9R16372   3.430   1.569   2.693
    1PA     H9S16373   3.417   1.396   2.695
    1PA     C1816374   3.229   1.487   2.729
    1PA     H8R16375   3.192   1.405   2.790
    1PA     H8S16376   3.181   1.573   2.776
    1PA     C1716377   3.177   1.469   2.585
    1PA     H7R16378   3.207   1.370   2.548
    1PA     H7S16379   3.069   1.458   2.587
    1PA     C1616380   3.216   1.580   2.488
    1PA     H6R16381   3.181   1.677   2.524
    1PA     H6S16382   3.325   1.580   2.482
    1PA     C1516383   3.161   1.557   2.346
    1PA     H5R16384   3.213   1.614   2.269
    1PA     H5S16385   3.187   1.452   2.327
    1PA     C1416386   3.008   1.563   2.335
    1PA     H4R16387   2.971   1.505   2.420
    1PA     H4S16388   2.970   1.663   2.355
    1PA     C1316389   2.957   1.517   2.197
    1PA     H3R16390   3.004   1.424   2.166
    1PA     H3S16391   2.852   1.504   2.227
    1PA     C1216392   2.981   1.628   2.094
    1PA     H2R16393   2.950   1.722   2.140
    1PA     H2S16394   3.085   1.644   2.066
    2PC     C1116395   2.888   1.609   1.977
    2PC     O1216396   2.782   1.666   1.964
    2PC     O1116397   2.943   1.527   1.885
    2PC      C116398   2.856   1.481   1.780
    2PC      HR16399   2.772   1.547   1.756
    2PC      HS16400   2.907   1.463   1.685
    2PC      C216401   2.803   1.344   1.825
    2PC      HX16402   2.879   1.270   1.850
    2PC      C316403   2.723   1.288   1.707
    2PC      HA16404   2.784   1.255   1.623
    2PC      HB16405   2.665   1.205   1.746
    2PC     O3116406   2.630   1.387   1.659
    2PC     P3116407   2.526   1.349   1.543
    2PC     O3216408   2.579   1.450   1.430
    2PC     C3116409   2.652   1.393   1.321
    2PC     H1A16410   2.713   1.470   1.272
    2PC     H1B16411   2.726   1.316   1.346
    2PC     C3216412   2.557   1.347   1.210
    2PC     H2A16413   2.616   1.315   1.124
    2PC     H2B16414   2.515   1.256   1.253
    2PC     N3116415   2.455   1.437   1.147
    2PC     C3316416   2.349   1.474   1.247
    2PC     H3A16417   2.391   1.466   1.347
    2PC     H3B16418   2.297   1.570   1.239
    2PC     H3C16419   2.284   1.386   1.238
    2PC     C3416420   2.506   1.559   1.077
    2PC     H4A16421   2.563   1.619   1.148
    2PC     H4B16422   2.566   1.515   0.997
    2PC     H4C16423   2.419   1.618   1.048
    2PC     C3516424   2.398   1.345   1.043
    2PC     H5A16425   2.291   1.360   1.028
    2PC     H5B16426   2.405   1.243   1.082
    2PC     H5C16427   2.466   1.334   0.958
    2PC     O3316428   2.528   1.206   1.506
    2PC     O3416429   2.394   1.390   1.596
    2PC     O2116430   2.702   1.382   1.921
    2PC     C2116431   2.656   1.288   2.004
    2PC     O2216432   2.689   1.171   2.000
    3OL     C1216433   2.569   1.341   2.115
    3OL     H2R16434   2.491   1.403   2.069
    3OL     H2S16435   2.613   1.415   2.183
    3OL     C1316436   2.504   1.238   2.208
    3OL     H3R16437   2.578   1.181   2.266
    3OL     H3S16438   2.454   1.163   2.147
    3OL     C1416439   2.401   1.301   2.303
    3OL     H4R16440   2.329   1.358   2.244
    3OL     H4S16441   2.452   1.372   2.368
    3OL     C1516442   2.323   1.191   2.378
    3OL     H5R16443   2.386   1.118   2.428
    3OL     H5S16444   2.274   1.125   2.306
    3OL     C1616445   2.216   1.240   2.476
    3OL     H6R16446   2.158   1.327   2.444
    3OL     H6S16447   2.276   1.269   2.562
    3OL     C1716448   2.116   1.130   2.515
    3OL     H7R16449   2.166   1.046   2.564
    3OL     H7S16450   2.076   1.092   2.421
    3OL     C1816451   1.994   1.178   2.594
    3OL     H8R16452   1.950   1.263   2.541
    3OL     H8S16453   2.032   1.196   2.694
    3OL     C1916454   1.883   1.078   2.613
    3OL     H9R16455   1.854   1.018   2.527
    3OL    C11016456   1.811   1.060   2.723
    3OL    H10R16457   1.734   0.983   2.720
    3OL    C11116458   1.845   1.120   2.857
    3OL    H11R16459   1.785   1.207   2.883
    3OL    H11S16460   1.948   1.147   2.880
    3OL    C11216461   1.802   1.020   2.966
    3OL    H12R16462   1.863   0.930   2.965
    3OL    H12S16463   1.700   0.983   2.950
    3OL    C11316464   1.817   1.088   3.103
    3OL    H13R16465   1.795   1.195   3.112
    3OL    H13S16466   1.924   1.090   3.122
    3OL    C11416467   1.746   1.010   3.214
    3OL    H14R16468   1.772   0.904   3.220
    3OL    H14S16469   1.637   1.009   3.204
    3OL    C11516470   1.789   1.053   3.355
    3OL    H15R16471   1.801   1.161   3.369
    3OL    H15S16472   1.887   1.005   3.350
    3OL    C11616473   1.706   0.990   3.467
    3OL    H16R16474   1.769   1.000   3.556
    3OL    H16S16475   1.673   0.888   3.445
    3OL    C11716476   1.586   1.074   3.512
    3OL    H17R16477   1.544   1.021   3.598
    3OL    H17S16478   1.507   1.082   3.437
    3OL    C11816479   1.634   1.212   3.560
    3OL    H18R16480   1.722   1.208   3.625
    3OL    H18S16481   1.563   1.264   3.625
    3OL    H18T16482   1.667   1.286   3.487
    1PA    C11616483   4.867   2.852   3.576
    1PA    H16R16484   4.794   2.833   3.655
    1PA    H16S16485   4.934   2.767   3.559
    1PA    H16T16486   4.802   2.872   3.490
    1PA    C11516487   4.954   2.974   3.606
    1PA    H15R16488   4.887   3.058   3.623
    1PA    H15S16489   5.013   2.974   3.699
    1PA    C11416490   5.055   3.006   3.495
    1PA    H14R16491   5.116   3.088   3.532
    1PA    H14S16492   5.121   2.920   3.480
    1PA    C11316493   4.990   3.039   3.360
    1PA    H13R16494   4.938   2.948   3.331
    1PA    H13S16495   4.923   3.125   3.368
    1PA    C11216496   5.102   3.063   3.258
    1PA    H12R16497   5.159   3.153   3.282
    1PA    H12S16498   5.161   2.971   3.266
    1PA    C11116499   5.036   3.081   3.121
    1PA    H11R16500   5.103   3.041   3.044
    1PA    H11S16501   4.945   3.022   3.108
    1PA    C11016502   5.020   3.229   3.084
    1PA    H10R16503   4.950   3.269   3.158
    1PA    H10S16504   5.114   3.283   3.089
    1PA     C1916505   4.961   3.250   2.944
    1PA     H9R16506   4.853   3.256   2.960
    1PA     H9S16507   4.997   3.350   2.921
    1PA     C1816508   4.990   3.147   2.835
    1PA     H8R16509   5.096   3.131   2.812
    1PA     H8S16510   4.956   3.052   2.877
    1PA     C1716511   4.900   3.164   2.711
    1PA     H7R16512   4.795   3.161   2.741
    1PA     H7S16513   4.922   3.261   2.666
    1PA     C1616514   4.940   3.057   2.609
    1PA     H6R16515   5.048   3.063   2.593
    1PA     H6S16516   4.924   2.956   2.647
    1PA     C1516517   4.859   3.058   2.479
    1PA     H5R16518   4.755   3.040   2.507
    1PA     H5S16519   4.848   3.156   2.431
    1PA     C1416520   4.918   2.949   2.388
    1PA     H4R16521   5.015   2.983   2.353
    1PA     H4S16522   4.931   2.859   2.448
    1PA     C1316523   4.829   2.916   2.267
    1PA     H3R16524   4.737   2.871   2.306
    1PA     H3S16525   4.808   3.013   2.222
    1PA     C1216526   4.891   2.820   2.165
    1PA     H2R16527   4.978   2.868   2.120
    1PA     H2S16528   4.922   2.727   2.213
    2PC     C1116529   4.787   2.782   2.063
    2PC     O1216530   4.751   2.667   2.049
    2PC     O1116531   4.754   2.884   1.983
    2PC      C116532   4.665   2.868   1.870
    2PC      HR16533   4.590   2.793   1.895
    2PC      HS16534   4.610   2.962   1.861
    2PC      C216535   4.736   2.845   1.736
    2PC      HX16536   4.661   2.849   1.656
    2PC      C316537   4.798   2.705   1.731
    2PC      HA16538   4.899   2.703   1.774
    2PC      HB16539   4.735   2.631   1.782
    2PC     O3116540   4.828   2.669   1.595
    2PC     P3116541   4.713   2.601   1.506
    2PC     O3216542   4.724   2.682   1.369
    2PC     C3116543   4.822   2.644   1.271
    2PC     H1A16544   4.920   2.632   1.319
    2PC     H1B16545   4.790   2.554   1.219
    2PC     C3216546   4.809   2.762   1.173
    2PC     H2A16547   4.800   2.847   1.240
    2PC     H2B16548   4.905   2.771   1.122
    2PC     N3116549   4.694   2.771   1.076
    2PC     C3316550   4.714   2.894   0.992
    2PC     H3A16551   4.704   2.978   1.060
    2PC     H3B16552   4.812   2.876   0.948
    2PC     H3C16553   4.642   2.895   0.910
    2PC     C3416554   4.694   2.659   0.977
    2PC     H4A16555   4.606   2.663   0.913
    2PC     H4B16556   4.791   2.660   0.927
    2PC     H4C16557   4.670   2.566   1.029
    2PC     C3516558   4.559   2.781   1.139
    2PC     H5A16559   4.525   2.681   1.168
    2PC     H5B16560   4.489   2.835   1.075
    2PC     H5C16561   4.573   2.846   1.226
    2PC     O3316562   4.725   2.456   1.479
    2PC     O3416563   4.571   2.623   1.542
    2PC     O2116564   4.836   2.946   1.712
    2PC     C2116565   4.811   3.077   1.705
    2PC     O2216566   4.699   3.124   1.702
    3OL     C1216567   4.938   3.155   1.723
    3OL     H2R16568   4.977   3.212   1.638
    3OL     H2S16569   5.022   3.087   1.741
    3OL     C1316570   4.932   3.253   1.841
    3OL     H3R16571   4.863   3.332   1.812
    3OL     H3S16572   5.034   3.293   1.850
    3OL     C1416573   4.890   3.184   1.971
    3OL     H4R16574   4.933   3.085   1.980
    3OL     H4S16575   4.782   3.167   1.960
    3OL     C1516576   4.892   3.269   2.099
    3OL     H5R16577   4.824   3.220   2.169
    3OL     H5S16578   4.849   3.367   2.078
    3OL     C1616579   5.036   3.262   2.153
    3OL     H6R16580   5.102   3.299   2.074
    3OL     H6S16581   5.068   3.159   2.170
    3OL     C1716582   5.062   3.341   2.281
    3OL     H7R16583   5.138   3.296   2.346
    3OL     H7S16584   4.973   3.355   2.343
    3OL     C1816585   5.105   3.480   2.231
    3OL     H8R16586   5.022   3.518   2.172
    3OL     H8S16587   5.189   3.475   2.161
    3OL     C1916588   5.119   3.570   2.351
    3OL     H9R16589   5.205   3.542   2.411
    3OL    C11016590   5.040   3.670   2.388
    3OL    H10R16591   5.064   3.716   2.483
    3OL    C11116592   4.926   3.728   2.308
    3OL    H11R16593   4.955   3.718   2.204
    3OL    H11S16594   4.917   3.835   2.330
    3OL    C11216595   4.789   3.661   2.324
    3OL    H12R16596   4.806   3.559   2.288
    3OL    H12S16597   4.714   3.704   2.257
    3OL    C11316598   4.727   3.647   2.464
    3OL    H13R16599   4.622   3.619   2.452
    3OL    H13S16600   4.733   3.746   2.511
    3OL    C11416601   4.785   3.544   2.562
    3OL    H14R16602   4.891   3.569   2.569
    3OL    H14S16603   4.772   3.443   2.522
    3OL    C11516604   4.727   3.552   2.704
    3OL    H15R16605   4.767   3.471   2.766
    3OL    H15S16606   4.619   3.540   2.692
    3OL    C11616607   4.758   3.692   2.759
    3OL    H16R16608   4.687   3.754   2.704
    3OL    H16S16609   4.856   3.728   2.730
    3OL    C11716610   4.745   3.706   2.911
    3OL    H17R16611   4.653   3.657   2.945
    3OL    H17S16612   4.736   3.814   2.927
    3OL    C11816613   4.866   3.663   2.996
    3OL    H18R16614   4.955   3.717   2.964
    3OL    H18S16615   4.885   3.555   2.994
    3OL    H18T16616   4.845   3.681   3.102
    1PA    C11616617   3.989   3.362   3.372
    1PA    H16R16618   3.914   3.377   3.294
    1PA    H16S16619   3.991   3.450   3.436
    1PA    H16T16620   3.948   3.285   3.437
    1PA    C11516621   4.129   3.321   3.323
    1PA    H15R16622   4.168   3.266   3.409
    1PA    H15S16623   4.134   3.249   3.240
    1PA    C11416624   4.216   3.443   3.293
    1PA    H14R16625   4.169   3.513   3.224
    1PA    H14S16626   4.218   3.503   3.385
    1PA    C11316627   4.361   3.400   3.267
    1PA    H13R16628   4.425   3.487   3.254
    1PA    H13S16629   4.407   3.344   3.349
    1PA    C11216630   4.372   3.317   3.138
    1PA    H12R16631   4.332   3.216   3.153
    1PA    H12S16632   4.318   3.366   3.057
    1PA    C11116633   4.517   3.306   3.089
    1PA    H11R16634   4.569   3.402   3.086
    1PA    H11S16635   4.563   3.250   3.171
    1PA    C11016636   4.524   3.226   2.959
    1PA    H10R16637   4.625   3.185   2.948
    1PA    H10S16638   4.458   3.139   2.961
    1PA     C1916639   4.483   3.316   2.841
    1PA     H9R16640   4.392   3.374   2.857
    1PA     H9S16641   4.564   3.388   2.832
    1PA     C1816642   4.469   3.245   2.706
    1PA     H8R16643   4.564   3.199   2.677
    1PA     H8S16644   4.394   3.167   2.715
    1PA     C1716645   4.418   3.343   2.600
    1PA     H7R16646   4.326   3.389   2.636
    1PA     H7S16647   4.491   3.423   2.588
    1PA     C1616648   4.402   3.276   2.462
    1PA     H6R16649   4.337   3.189   2.469
    1PA     H6S16650   4.345   3.347   2.402
    1PA     C1516651   4.532   3.251   2.384
    1PA     H5R16652   4.602   3.334   2.376
    1PA     H5S16653   4.586   3.164   2.423
    1PA     C1416654   4.489   3.198   2.247
    1PA     H4R16655   4.581   3.152   2.208
    1PA     H4S16656   4.415   3.118   2.246
    1PA     C1316657   4.441   3.305   2.148
    1PA     H3R16658   4.389   3.239   2.078
    1PA     H3S16659   4.371   3.380   2.186
    1PA     C1216660   4.553   3.377   2.071
    1PA     H2R16661   4.601   3.449   2.137
    1PA     H2S16662   4.627   3.305   2.036
    2PC     C1116663   4.498   3.454   1.954
    2PC     O1216664   4.517   3.416   1.840
    2PC     O1116665   4.416   3.559   1.972
    2PC      C116666   4.369   3.633   1.858
    2PC      HR16667   4.341   3.736   1.885
    2PC      HS16668   4.459   3.633   1.796
    2PC      C216669   4.255   3.564   1.782
    2PC      HX16670   4.279   3.460   1.755
    2PC      C316671   4.221   3.649   1.659
    2PC      HA16672   4.290   3.613   1.583
    2PC      HB16673   4.115   3.632   1.635
    2PC     O3116674   4.231   3.789   1.695
    2PC     P3116675   4.256   3.898   1.580
    2PC     O3216676   4.159   3.846   1.463
    2PC     C3116677   4.105   3.947   1.376
    2PC     H1A16678   4.033   4.008   1.430
    2PC     H1B16679   4.191   4.012   1.357
    2PC     C3216680   4.027   3.890   1.257
    2PC     H2A16681   3.972   3.799   1.284
    2PC     H2B16682   3.951   3.962   1.226
    2PC     N3116683   4.104   3.847   1.135
    2PC     C3316684   4.008   3.818   1.023
    2PC     H3A16685   3.964   3.906   0.976
    2PC     H3B16686   4.065   3.776   0.939
    2PC     H3C16687   3.928   3.756   1.063
    2PC     C3416688   4.201   3.950   1.086
    2PC     H4A16689   4.278   3.956   1.163
    2PC     H4B16690   4.247   3.920   0.991
    2PC     H4C16691   4.152   4.047   1.075
    2PC     C3516692   4.183   3.725   1.172
    2PC     H5A16693   4.262   3.703   1.100
    2PC     H5B16694   4.111   3.643   1.166
    2PC     H5C16695   4.213   3.725   1.277
    2PC     O3316696   4.225   4.035   1.626
    2PC     O3416697   4.395   3.914   1.533
    2PC     O2116698   4.137   3.560   1.863
    2PC     C2116699   4.125   3.459   1.950
    2PC     O2216700   4.196   3.361   1.947
    3OL     C1216701   4.001   3.476   2.034
    3OL     H2R16702   3.917   3.420   1.991
    3OL     H2S16703   3.981   3.583   2.037
    3OL     C1316704   4.028   3.434   2.179
    3OL     H3R16705   4.110   3.485   2.230
    3OL     H3S16706   4.063   3.330   2.176
    3OL     C1416707   3.904   3.417   2.268
    3OL     H4R16708   3.825   3.355   2.224
    3OL     H4S16709   3.861   3.515   2.291
    3OL     C1516710   3.948   3.358   2.402
    3OL     H5R16711   4.020   3.276   2.407
    3OL     H5S16712   3.858   3.316   2.448
    3OL     C1616713   4.011   3.473   2.482
    3OL     H6R16714   3.956   3.567   2.476
    3OL     H6S16715   4.101   3.491   2.424
    3OL     C1716716   4.047   3.438   2.627
    3OL     H7R16717   4.134   3.497   2.660
    3OL     H7S16718   4.072   3.332   2.627
    3OL     C1816719   3.932   3.459   2.727
    3OL     H8R16720   3.839   3.409   2.697
    3OL     H8S16721   3.902   3.562   2.742
    3OL     C1916722   3.957   3.397   2.862
    3OL     H9R16723   3.948   3.288   2.859
    3OL    C11016724   3.981   3.461   2.975
    3OL    H10R16725   4.008   3.402   3.063
    3OL    C11116726   3.970   3.610   2.992
    3OL    H11R16727   4.023   3.666   2.915
    3OL    H11S16728   4.032   3.635   3.079
    3OL    C11216729   3.823   3.652   3.012
    3OL    H12R16730   3.777   3.610   2.922
    3OL    H12S16731   3.809   3.760   3.010
    3OL    C11316732   3.768   3.583   3.137
    3OL    H13R16733   3.849   3.529   3.185
    3OL    H13S16734   3.692   3.508   3.111
    3OL    C11416735   3.702   3.680   3.236
    3OL    H14R16736   3.649   3.628   3.316
    3OL    H14S16737   3.624   3.741   3.190
    3OL    C11516738   3.806   3.776   3.294
    3OL    H15R16739   3.751   3.853   3.349
    3OL    H15S16740   3.862   3.823   3.212
    3OL    C11616741   3.901   3.709   3.395
    3OL    H16R16742   3.956   3.638   3.332
    3OL    H16S16743   3.845   3.647   3.466
    3OL    C11716744   3.993   3.800   3.477
    3OL    H17R16745   4.037   3.746   3.561
    3OL    H17S16746   3.931   3.884   3.510
    3OL    C11816747   4.107   3.849   3.387
    3OL    H18R16748   4.070   3.922   3.314
    3OL    H18S16749   4.146   3.764   3.331
    3OL    H18T16750   4.192   3.884   3.447
    1PA    C11616751   3.408   2.609   2.604
    1PA    H16R16752   3.503   2.626   2.656
    1PA    H16S16753   3.420   2.592   2.497
    1PA    H16T16754   3.374   2.511   2.639
    1PA    C11516755   3.314   2.724   2.643
    1PA    H15R16756   3.230   2.719   2.574
    1PA    H15S16757   3.280   2.699   2.743
    1PA    C11416758   3.387   2.859   2.650
    1PA    H14R16759   3.467   2.867   2.724
    1PA    H14S16760   3.431   2.867   2.550
    1PA    C11316761   3.287   2.970   2.684
    1PA    H13R16762   3.215   2.982   2.603
    1PA    H13S16763   3.229   2.940   2.772
    1PA    C11216764   3.359   3.103   2.713
    1PA    H12R16765   3.444   3.085   2.778
    1PA    H12S16766   3.390   3.138   2.614
    1PA    C11116767   3.257   3.207   2.761
    1PA    H11R16768   3.202   3.232   2.670
    1PA    H11S16769   3.184   3.165   2.832
    1PA    C11016770   3.321   3.335   2.814
    1PA    H10R16771   3.237   3.398   2.842
    1PA    H10S16772   3.385   3.306   2.898
    1PA     C1916773   3.401   3.418   2.712
    1PA     H9R16774   3.481   3.362   2.664
    1PA     H9S16775   3.332   3.442   2.630
    1PA     C1816776   3.445   3.550   2.776
    1PA     H8R16777   3.370   3.589   2.844
    1PA     H8S16778   3.529   3.539   2.845
    1PA     C1716779   3.492   3.647   2.666
    1PA     H7R16780   3.573   3.593   2.617
    1PA     H7S16781   3.413   3.654   2.592
    1PA     C1616782   3.554   3.780   2.712
    1PA     H6R16783   3.476   3.852   2.738
    1PA     H6S16784   3.626   3.763   2.792
    1PA     C1516785   3.626   3.851   2.596
    1PA     H5R16786   3.574   3.834   2.502
    1PA     H5S16787   3.622   3.959   2.615
    1PA     C1416788   3.772   3.805   2.583
    1PA     H4R16789   3.800   3.825   2.687
    1PA     H4S16790   3.769   3.701   2.551
    1PA     C1316791   3.856   3.889   2.485
    1PA     H3R16792   3.824   3.993   2.495
    1PA     H3S16793   3.960   3.887   2.520
    1PA     C1216794   3.861   3.845   2.338
    1PA     H2R16795   3.935   3.903   2.282
    1PA     H2S16796   3.900   3.744   2.353
    2PC     C1116797   3.727   3.853   2.269
    2PC     O1216798   3.670   3.755   2.226
    2PC     O1116799   3.686   3.981   2.261
    2PC      C116800   3.567   4.006   2.184
    2PC      HR16801   3.576   4.107   2.142
    2PC      HS16802   3.565   3.942   2.095
    2PC      C216803   3.449   3.974   2.276
    2PC      HX16804   3.452   3.872   2.314
    2PC      C316805   3.316   3.987   2.199
    2PC      HA16806   3.310   3.911   2.121
    2PC      HB16807   3.230   3.985   2.266
    2PC     O3116808   3.301   4.106   2.119
    2PC     P3116809   3.164   4.131   2.040
    2PC     O3216810   3.095   4.224   2.151
    2PC     C3116811   3.171   4.345   2.172
    2PC     H1A16812   3.145   4.396   2.266
    2PC     H1B16813   3.276   4.317   2.183
    2PC     C3216814   3.150   4.446   2.058
    2PC     H2A16815   3.198   4.544   2.069
    2PC     H2B16816   3.197   4.418   1.964
    2PC     N3116817   3.014   4.502   2.031
    2PC     C3316818   2.997   4.620   2.122
    2PC     H3A16819   3.066   4.700   2.095
    2PC     H3B16820   2.898   4.665   2.126
    2PC     H3C16821   3.026   4.580   2.220
    2PC     C3416822   3.015   4.562   1.894
    2PC     H4A16823   2.917   4.601   1.868
    2PC     H4B16824   3.093   4.639   1.888
    2PC     H4C16825   3.027   4.478   1.825
    2PC     C3516826   2.902   4.402   2.035
    2PC     H5A16827   2.925   4.346   2.125
    2PC     H5B16828   2.913   4.334   1.951
    2PC     H5C16829   2.809   4.459   2.040
    2PC     O3316830   3.175   4.195   1.907
    2PC     O3416831   3.101   3.998   2.024
    2PC     O2116832   3.456   4.062   2.390
    2PC     C2116833   3.379   4.041   2.497
    2PC     O2216834   3.307   3.943   2.504
    3OL     C1216835   3.375   4.147   2.604
    3OL     H2R16836   3.400   4.245   2.562
    3OL     H2S16837   3.454   4.126   2.676
    3OL     C1316838   3.238   4.156   2.672
    3OL     H3R16839   3.233   4.242   2.740
    3OL     H3S16840   3.221   4.067   2.733
    3OL     C1416841   3.126   4.192   2.573
    3OL     H4R16842   3.122   4.122   2.490
    3OL     H4S16843   3.149   4.293   2.537
    3OL     C1516844   2.987   4.183   2.638
    3OL     H5R16845   2.982   4.097   2.705
    3OL     H5S16846   2.912   4.178   2.559
    3OL     C1616847   2.962   4.303   2.732
    3OL     H6R16848   3.015   4.392   2.698
    3OL     H6S16849   3.006   4.279   2.829
    3OL     C1716850   2.812   4.336   2.728
    3OL     H7R16851   2.776   4.338   2.625
    3OL     H7S16852   2.809   4.436   2.771
    3OL     C1816853   2.717   4.248   2.810
    3OL     H8R16854   2.764   4.216   2.903
    3OL     H8S16855   2.709   4.150   2.761
    3OL     C1916856   2.586   4.322   2.822
    3OL     H9R16857   2.570   4.407   2.756
    3OL    C11016858   2.511   4.314   2.931
    3OL    H10R16859   2.421   4.375   2.932
    3OL    C11116860   2.529   4.230   3.055
    3OL    H11R16861   2.635   4.228   3.080
    3OL    H11S16862   2.482   4.133   3.042
    3OL    C11216863   2.469   4.299   3.178
    3OL    H12R16864   2.365   4.315   3.149
    3OL    H12S16865   2.509   4.400   3.189
    3OL    C11316866   2.490   4.221   3.308
    3OL    H13R16867   2.599   4.221   3.323
    3OL    H13S16868   2.453   4.119   3.296
    3OL    C11416869   2.426   4.280   3.434
    3OL    H14R16870   2.429   4.389   3.430
    3OL    H14S16871   2.488   4.250   3.518
    3OL    C11516872   2.283   4.231   3.460
    3OL    H15R16873   2.284   4.122   3.460
    3OL    H15S16874   2.227   4.265   3.372
    3OL    C11616875   2.226   4.294   3.588
    3OL    H16R16876   2.196   4.395   3.558
    3OL    H16S16877   2.295   4.301   3.672
    3OL    C11716878   2.094   4.224   3.623
    3OL    H17R16879   2.023   4.209   3.542
    3OL    H17S16880   2.042   4.287   3.696
    3OL    C11816881   2.113   4.083   3.681
    3OL    H18R16882   2.169   4.110   3.770
    3OL    H18S16883   2.172   4.021   3.612
    3OL    H18T16884   2.017   4.036   3.702
    1PA    C11616885   5.636   2.762   3.970
    1PA    H16R16886   5.562   2.692   4.011
    1PA    H16S16887   5.587   2.847   3.922
    1PA    H16T16888   5.691   2.794   4.058
    1PA    C11516889   5.729   2.693   3.868
    1PA    H15R16890   5.787   2.764   3.808
    1PA    H15S16891   5.790   2.616   3.915
    1PA    C11416892   5.644   2.627   3.759
    1PA    H14R16893   5.566   2.569   3.808
    1PA    H14S16894   5.602   2.709   3.701
    1PA    C11316895   5.719   2.534   3.663
    1PA    H13R16896   5.692   2.563   3.561
    1PA    H13S16897   5.825   2.559   3.672
    1PA    C11216898   5.693   2.387   3.700
    1PA    H12R16899   5.744   2.369   3.794
    1PA    H12S16900   5.590   2.357   3.721
    1PA    C11116901   5.738   2.296   3.585
    1PA    H11R16902   5.810   2.356   3.528
    1PA    H11S16903   5.774   2.201   3.623
    1PA    C11016904   5.621   2.265   3.491
    1PA    H10R16905   5.539   2.203   3.528
    1PA    H10S16906   5.566   2.355   3.463
    1PA     C1916907   5.655   2.182   3.367
    1PA     H9R16908   5.723   2.099   3.389
    1PA     H9S16909   5.566   2.125   3.338
    1PA     C1816910   5.701   2.257   3.241
    1PA     H8R16911   5.790   2.316   3.264
    1PA     H8S16912   5.736   2.184   3.168
    1PA     C1716913   5.586   2.337   3.178
    1PA     H7R16914   5.550   2.416   3.244
    1PA     H7S16915   5.632   2.391   3.094
    1PA     C1616916   5.463   2.259   3.130
    1PA     H6R16917   5.497   2.164   3.089
    1PA     H6S16918   5.396   2.226   3.209
    1PA     C1516919   5.391   2.339   3.021
    1PA     H5R16920   5.356   2.431   3.069
    1PA     H5S16921   5.457   2.372   2.940
    1PA     C1416922   5.285   2.265   2.937
    1PA     H4R16923   5.261   2.328   2.851
    1PA     H4S16924   5.333   2.179   2.889
    1PA     C1316925   5.159   2.230   3.017
    1PA     H3R16926   5.178   2.203   3.121
    1PA     H3S16927   5.111   2.328   3.026
    1PA     C1216928   5.086   2.121   2.937
    1PA     H2R16929   5.136   2.024   2.943
    1PA     H2S16930   4.985   2.111   2.977
    2PC     C1116931   5.078   2.157   2.791
    2PC     O1216932   5.022   2.255   2.746
    2PC     O1116933   5.154   2.081   2.710
    2PC      C116934   5.156   2.118   2.571
    2PC      HR16935   5.196   2.040   2.505
    2PC      HS16936   5.055   2.136   2.533
    2PC      C216937   5.241   2.241   2.536
    2PC      HX16938   5.217   2.326   2.600
    2PC      C316939   5.216   2.283   2.391
    2PC      HA16940   5.108   2.295   2.380
    2PC      HB16941   5.265   2.380   2.374
    2PC     O3116942   5.267   2.178   2.307
    2PC     P3116943   5.254   2.200   2.149
    2PC     O3216944   5.114   2.127   2.120
    2PC     C3116945   5.108   1.987   2.150
    2PC     H1A16946   5.200   1.932   2.127
    2PC     H1B16947   5.096   1.983   2.259
    2PC     C3216948   4.990   1.926   2.073
    2PC     H2A16949   4.969   1.826   2.110
    2PC     H2B16950   4.903   1.988   2.095
    2PC     N3116951   5.001   1.918   1.924
    2PC     C3316952   4.876   1.872   1.855
    2PC     H3A16953   4.798   1.944   1.879
    2PC     H3B16954   4.889   1.875   1.747
    2PC     H3C16955   4.850   1.770   1.885
    2PC     C3416956   5.046   2.040   1.849
    2PC     H4A16957   5.127   2.092   1.900
    2PC     H4B16958   5.083   2.009   1.751
    2PC     H4C16959   4.964   2.112   1.841
    2PC     C3516960   5.101   1.813   1.889
    2PC     H5A16961   5.195   1.847   1.934
    2PC     H5B16962   5.117   1.804   1.781
    2PC     H5C16963   5.077   1.715   1.931
    2PC     O3316964   5.249   2.336   2.090
    2PC     O3416965   5.360   2.135   2.068
    2PC     O2116966   5.378   2.204   2.561
    2PC     C2116967   5.471   2.301   2.566
    2PC     O2216968   5.437   2.416   2.547
    3OL     C1216969   5.610   2.260   2.604
    3OL     H2R16970   5.679   2.226   2.526
    3OL     H2S16971   5.587   2.175   2.669
    3OL     C1316972   5.679   2.377   2.676
    3OL     H3R16973   5.622   2.423   2.756
    3OL     H3S16974   5.692   2.458   2.604
    3OL     C1416975   5.815   2.330   2.729
    3OL     H4R16976   5.871   2.298   2.641
    3OL     H4S16977   5.792   2.241   2.789
    3OL     C1516978   5.887   2.442   2.804
    3OL     H5R16979   5.826   2.486   2.883
    3OL     H5S16980   5.909   2.521   2.731
    3OL     C1616981   6.019   2.396   2.868
    3OL     H6R16982   6.006   2.317   2.943
    3OL     H6S16983   6.069   2.478   2.918
    3OL     C1716984   6.118   2.345   2.763
    3OL     H7R16985   6.120   2.412   2.676
    3OL     H7S16986   6.081   2.246   2.735
    3OL     C1816987   6.262   2.322   2.811
    3OL     H8R16988   6.301   2.414   2.856
    3OL     H8S16989   6.316   2.307   2.718
    3OL     C1916990   6.274   2.202   2.901
    3OL     H9R16991   6.270   2.107   2.847
    3OL    C11016992   6.312   2.207   3.028
    3OL    H10R16993   6.341   2.116   3.080
    3OL    C11116994   6.324   2.330   3.113
    3OL    H11R16995   6.280   2.303   3.209
    3OL    H11S16996   6.266   2.403   3.055
    3OL    C11216997   6.470   2.369   3.140
    3OL    H12R16998   6.506   2.410   3.046
    3OL    H12S16999   6.522   2.277   3.169
    3OL    C11317000   6.490   2.467   3.256
    3OL    H13R17001   6.415   2.547   3.249
    3OL    H13S17002   6.588   2.510   3.239
    3OL    C11417003   6.496   2.383   3.385
    3OL    H14R17004   6.589   2.327   3.389
    3OL    H14S17005   6.410   2.318   3.400
    3OL    C11517006   6.503   2.483   3.502
    3OL    H15R17007   6.415   2.546   3.510
    3OL    H15S17008   6.592   2.543   3.482
    3OL    C11617009   6.529   2.399   3.628
    3OL    H16R17010   6.621   2.342   3.615
    3OL    H16S17011   6.450   2.328   3.653
    3OL    C11717012   6.560   2.504   3.736
    3OL    H17R17013   6.484   2.582   3.730
    3OL    H17S17014   6.650   2.560   3.713
    3OL    C11817015   6.575   2.452   3.880
    3OL    H18R17016   6.553   2.526   3.957
    3OL    H18S17017   6.679   2.423   3.895
    3OL    H18T17018   6.514   2.362   3.892
    1PA    C11617019   4.835   3.552   3.384
    1PA    H16R17020   4.872   3.516   3.287
    1PA    H16S17021   4.852   3.660   3.385
    1PA    H16T17022   4.732   3.528   3.409
    1PA    C11517023   4.921   3.493   3.497
    1PA    H15R17024   4.930   3.562   3.581
    1PA    H15S17025   4.864   3.404   3.524
    1PA    C11417026   5.065   3.467   3.452
    1PA    H14R17027   5.112   3.398   3.524
    1PA    H14S17028   5.063   3.414   3.357
    1PA    C11317029   5.150   3.592   3.424
    1PA    H13R17030   5.099   3.672   3.479
    1PA    H13S17031   5.250   3.591   3.468
    1PA    C11217032   5.167   3.622   3.275
    1PA    H12R17033   5.174   3.531   3.214
    1PA    H12S17034   5.076   3.678   3.251
    1PA    C11117035   5.276   3.726   3.250
    1PA    H11R17036   5.252   3.827   3.286
    1PA    H11S17037   5.365   3.696   3.306
    1PA    C11017038   5.305   3.740   3.100
    1PA    H10R17039   5.307   3.647   3.042
    1PA    H10S17040   5.216   3.783   3.053
    1PA     C1917041   5.430   3.823   3.066
    1PA     H9R17042   5.406   3.928   3.086
    1PA     H9S17043   5.505   3.796   3.141
    1PA     C1817044   5.477   3.789   2.924
    1PA     H8R17045   5.585   3.807   2.918
    1PA     H8S17046   5.466   3.681   2.911
    1PA     C1717047   5.392   3.854   2.814
    1PA     H7R17048   5.287   3.829   2.833
    1PA     H7S17049   5.399   3.963   2.811
    1PA     C1617050   5.422   3.798   2.675
    1PA     H6R17051   5.531   3.797   2.661
    1PA     H6S17052   5.369   3.703   2.664
    1PA     C1517053   5.355   3.877   2.561
    1PA     H5R17054   5.250   3.848   2.563
    1PA     H5S17055   5.358   3.985   2.568
    1PA     C1417056   5.425   3.837   2.430
    1PA     H4R17057   5.531   3.859   2.441
    1PA     H4S17058   5.415   3.729   2.414
    1PA     C1317059   5.375   3.925   2.315
    1PA     H3R17060   5.266   3.915   2.308
    1PA     H3S17061   5.404   4.024   2.349
    1PA     C1217062   5.442   3.887   2.183
    1PA     H2R17063   5.550   3.904   2.181
    1PA     H2S17064   5.439   3.779   2.161
    2PC     C1117065   5.391   3.944   2.053
    2PC     O1217066   5.376   4.064   2.039
    2PC     O1117067   5.356   3.850   1.964
    2PC      C117068   5.290   3.891   1.843
    2PC      HR17069   5.242   3.989   1.856
    2PC      HS17070   5.362   3.919   1.766
    2PC      C217071   5.194   3.780   1.797
    2PC      HX17072   5.246   3.686   1.818
    2PC      C317073   5.159   3.800   1.649
    2PC      HA17074   5.245   3.773   1.588
    2PC      HB17075   5.080   3.728   1.623
    2PC     O3117076   5.110   3.934   1.629
    2PC     P3117077   5.059   3.982   1.485
    2PC     O3217078   5.000   4.130   1.504
    2PC     C3117079   4.888   4.137   1.594
    2PC     H1A17080   4.799   4.083   1.561
    2PC     H1B17081   4.927   4.094   1.687
    2PC     C3217082   4.853   4.285   1.614
    2PC     H2A17083   4.791   4.306   1.701
    2PC     H2B17084   4.953   4.327   1.624
    2PC     N3117085   4.780   4.357   1.504
    2PC     C3317086   4.869   4.358   1.384
    2PC     H3A17087   4.814   4.409   1.305
    2PC     H3B17088   4.941   4.432   1.420
    2PC     H3C17089   4.906   4.257   1.364
    2PC     C3417090   4.651   4.289   1.469
    2PC     H4A17091   4.673   4.194   1.420
    2PC     H4B17092   4.592   4.278   1.560
    2PC     H4C17093   4.610   4.361   1.397
    2PC     C3517094   4.757   4.498   1.549
    2PC     H5A17095   4.850   4.542   1.585
    2PC     H5B17096   4.683   4.482   1.629
    2PC     H5C17097   4.717   4.562   1.470
    2PC     O3317098   5.149   3.974   1.367
    2PC     O3417099   4.958   3.887   1.433
    2PC     O2117100   5.076   3.786   1.878
    2PC     C2117101   4.995   3.679   1.871
    2PC     O2217102   5.028   3.569   1.830
    3OL     C1217103   4.857   3.702   1.927
    3OL     H2R17104   4.851   3.642   2.019
    3OL     H2S17105   4.796   3.656   1.850
    3OL     C1317106   4.815   3.848   1.952
    3OL     H3R17107   4.852   3.906   1.867
    3OL     H3S17108   4.878   3.879   2.036
    3OL     C1417109   4.668   3.881   1.981
    3OL     H4R17110   4.643   3.816   2.065
    3OL     H4S17111   4.615   3.868   1.886
    3OL     C1517112   4.649   4.026   2.027
    3OL     H5R17113   4.543   4.053   2.034
    3OL     H5S17114   4.691   4.099   1.958
    3OL     C1617115   4.714   4.049   2.163
    3OL     H6R17116   4.822   4.036   2.155
    3OL     H6S17117   4.683   3.970   2.232
    3OL     C1717118   4.687   4.185   2.230
    3OL     H7R17119   4.682   4.267   2.158
    3OL     H7S17120   4.764   4.206   2.305
    3OL     C1817121   4.548   4.185   2.294
    3OL     H8R17122   4.536   4.113   2.375
    3OL     H8S17123   4.467   4.166   2.223
    3OL     C1917124   4.522   4.319   2.359
    3OL     H9R17125   4.500   4.403   2.294
    3OL    C11017126   4.532   4.336   2.490
    3OL    H10R17127   4.520   4.438   2.527
    3OL    C11117128   4.560   4.227   2.589
    3OL    H11R17129   4.642   4.173   2.540
    3OL    H11S17130   4.468   4.169   2.596
    3OL    C11217131   4.607   4.294   2.719
    3OL    H12R17132   4.523   4.339   2.773
    3OL    H12S17133   4.686   4.367   2.703
    3OL    C11317134   4.662   4.185   2.813
    3OL    H13R17135   4.749   4.143   2.763
    3OL    H13S17136   4.579   4.117   2.829
    3OL    C11417137   4.711   4.235   2.950
    3OL    H14R17138   4.776   4.317   2.920
    3OL    H14S17139   4.776   4.154   2.983
    3OL    C11517140   4.603   4.264   3.054
    3OL    H15R17141   4.550   4.171   3.077
    3OL    H15S17142   4.529   4.333   3.014
    3OL    C11617143   4.666   4.323   3.181
    3OL    H16R17144   4.590   4.326   3.258
    3OL    H16S17145   4.692   4.427   3.160
    3OL    C11717146   4.770   4.233   3.249
    3OL    H17R17147   4.860   4.209   3.192
    3OL    H17S17148   4.728   4.133   3.264
    3OL    C11817149   4.819   4.292   3.382
    3OL    H18R17150   4.876   4.385   3.369
    3OL    H18S17151   4.884   4.214   3.422
    3OL    H18T17152   4.739   4.322   3.449
    4SOL     OW17153   2.998   1.429   6.414
    4SOL    HW117154   3.013   1.344   6.372
    4SOL    HW217155   3.047   1.424   6.496
    5SOL     OW17156   5.839   2.980   7.626
    5SOL    HW117157   5.861   2.956   7.716
    5SOL    HW217158   5.917   2.957   7.575
    6SOL     OW17159   0.246   0.508   6.753
    6SOL    HW117160   0.199   0.587   6.781
    6SOL    HW217161   0.271   0.465   6.835
    7SOL     OW17162   1.690   4.908   4.773
    7SOL    HW117163   1.717   4.987   4.819
    7SOL    HW217164   1.596   4.899   4.792
    8SOL     OW17165   2.311   4.882   1.191
    8SOL    HW117166   2.386   4.937   1.214
    8SOL    HW217167   2.325   4.801   1.241
    9SOL     OW17168   3.032   1.201   0.308
    9SOL    HW117169   3.056   1.196   0.215
    9SOL    HW217170   3.005   1.292   0.321
   10SOL     OW17171   0.112   0.633   0.035
   10SOL    HW117172   0.131   0.686  -0.042
   10SOL    HW217173   0.123   0.542   0.006
   11SOL     OW17174   6.142   1.402   6.352
   11SOL    HW117175   6.139   1.497   6.359
   11SOL    HW217176   6.225   1.377   6.392
   12SOL     OW17177   2.569   5.385   5.023
   12SOL    HW117178   2.609   5.425   5.101
   12SOL    HW217179   2.608   5.297   5.019
   13SOL     OW17180   3.041   3.437   0.839
   13SOL    HW117181   3.046   3.389   0.756
   13SOL    HW217182   3.128   3.428   0.878
   14SOL     OW17183   1.748   1.290   6.253
   14SOL    HW117184   1.786   1.225   6.194
   14SOL    HW217185   1.657   1.262   6.265
   15SOL     OW17186   0.628   4.573   0.264
   15SOL    HW117187   0.671   4.548   0.345
   15SOL    HW217188   0.552   4.514   0.258
   16SOL     OW17189   5.482   3.645   6.592
   16SOL    HW117190   5.461   3.638   6.685
   16SOL    HW217191   5.563   3.595   6.581
   17SOL     OW17192   6.238   0.911   1.183
   17SOL    HW117193   6.296   0.834   1.188
   17SOL    HW217194   6.292   0.984   1.211
   18SOL     OW17195   3.023   3.620   5.636
   18SOL    HW117196   3.028   3.525   5.621
   18SOL    HW217197   2.932   3.641   5.617
   19SOL     OW17198   4.301   2.593   6.631
   19SOL    HW117199   4.255   2.592   6.547
   19SOL    HW217200   4.249   2.650   6.686
   20SOL     OW17201   3.498   2.112   7.735
   20SOL    HW117202   3.500   2.096   7.829
   20SOL    HW217203   3.518   2.027   7.695
   21SOL     OW17204   5.459   1.712   1.539
   21SOL    HW117205   5.508   1.705   1.457
   21SOL    HW217206   5.403   1.789   1.527
   22SOL     OW17207   4.491   4.894   5.490
   22SOL    HW117208   4.471   4.888   5.583
   22SOL    HW217209   4.411   4.928   5.450
   23SOL     OW17210   4.318   5.794   0.408
   23SOL    HW117211   4.266   5.742   0.468
   23SOL    HW217212   4.255   5.853   0.366
   24SOL     OW17213   5.812   4.425   5.577
   24SOL    HW117214   5.741   4.413   5.514
   24SOL    HW217215   5.788   4.504   5.626
   25SOL     OW17216   3.700   3.701   0.692
   25SOL    HW117217   3.607   3.675   0.695
   25SOL    HW217218   3.712   3.735   0.604
   26SOL     OW17219   2.915   6.047   6.043
   26SOL    HW117220   2.972   6.046   5.967
   26SOL    HW217221   2.875   5.959   6.045
   27SOL     OW17222   3.814   4.888   7.821
   27SOL    HW117223   3.842   4.979   7.827
   27SOL    HW217224   3.890   4.842   7.783
   28SOL     OW17225   1.655   4.119   0.237
   28SOL    HW117226   1.638   4.136   0.144
   28SOL    HW217227   1.675   4.026   0.241
   29SOL     OW17228   4.469   6.025   1.617
   29SOL    HW117229   4.523   6.012   1.695
   29SOL    HW217230   4.497   5.956   1.557
   30SOL     OW17231   5.887   0.835   1.018
   30SOL    HW117232   5.907   0.744   0.995
   30SOL    HW217233   5.971   0.880   1.012
   31SOL     OW17234   0.659   4.419   6.516
   31SOL    HW117235   0.681   4.327   6.527
   31SOL    HW217236   0.735   4.466   6.551
   32SOL     OW17237   1.185   4.150   0.826
   32SOL    HW117238   1.235   4.075   0.858
   32SOL    HW217239   1.128   4.174   0.900
   33SOL     OW17240   6.107   1.081   0.039
   33SOL    HW117241   6.055   1.129   0.104
   33SOL    HW217242   6.071   1.108  -0.045
   34SOL     OW17243   5.247   6.322   1.830
   34SOL    HW117244   5.285   6.345   1.745
   34SOL    HW217245   5.156   6.299   1.809
   35SOL     OW17246   6.068   3.558   6.778
   35SOL    HW117247   6.058   3.464   6.762
   35SOL    HW217248   6.151   3.565   6.826
   36SOL     OW17249   2.358   5.311   7.152
   36SOL    HW117250   2.364   5.338   7.060
   36SOL    HW217251   2.389   5.388   7.201
   37SOL     OW17252   2.981   1.397   7.628
   37SOL    HW117253   2.941   1.392   7.542
   37SOL    HW217254   3.068   1.359   7.617
   38SOL     OW17255   4.637   1.595   1.134
   38SOL    HW117256   4.692   1.595   1.056
   38SOL    HW217257   4.669   1.521   1.186
   39SOL     OW17258   3.189   2.002   6.937
   39SOL    HW117259   3.128   2.044   6.998
   39SOL    HW217260   3.134   1.942   6.887
   40SOL     OW17261   5.668   4.136   7.096
   40SOL    HW117262   5.742   4.174   7.048
   40SOL    HW217263   5.667   4.045   7.068
   41SOL     OW17264   1.036   4.694   5.564
   41SOL    HW117265   1.105   4.644   5.608
   41SOL    HW217266   0.997   4.747   5.634
   42SOL     OW17267   3.282   2.028   6.478
   42SOL    HW117268   3.376   2.008   6.484
   42SOL    HW217269   3.269   2.095   6.546
   43SOL     OW17270   3.029   5.787   1.630
   43SOL    HW117271   2.951   5.798   1.575
   43SOL    HW217272   3.002   5.815   1.717
   44SOL     OW17273   2.956   2.923   6.664
   44SOL    HW117274   2.901   2.864   6.716
   44SOL    HW217275   2.938   2.899   6.573
   45SOL     OW17276   2.927   0.451   0.193
   45SOL    HW117277   3.022   0.461   0.189
   45SOL    HW217278   2.913   0.376   0.252
   46SOL     OW17279   0.916   5.749   6.003
   46SOL    HW117280   0.909   5.844   6.010
   46SOL    HW217281   1.004   5.734   5.968
   47SOL     OW17282   4.610   3.386   6.358
   47SOL    HW117283   4.621   3.480   6.340
   47SOL    HW217284   4.697   3.357   6.385
   48SOL     OW17285   0.497   1.188   7.150
   48SOL    HW117286   0.448   1.270   7.140
   48SOL    HW217287   0.500   1.151   7.061
   49SOL     OW17288   3.047   4.425   5.902
   49SOL    HW117289   3.027   4.518   5.910
   49SOL    HW217290   3.102   4.419   5.824
   50SOL     OW17291   5.079   1.977   0.092
   50SOL    HW117292   5.162   1.996   0.049
   50SOL    HW217293   5.084   2.021   0.177
   51SOL     OW17294   5.284   2.958   0.863
   51SOL    HW117295   5.326   2.895   0.921
   51SOL    HW217296   5.199   2.976   0.904
   52SOL     OW17297   0.172   5.266   6.141
   52SOL    HW117298   0.189   5.207   6.214
   52SOL    HW217299   0.090   5.233   6.103
   53SOL     OW17300   5.237   5.325   6.050
   53SOL    HW117301   5.256   5.413   6.017
   53SOL    HW217302   5.299   5.269   6.004
   54SOL     OW17303   2.215   4.125   2.046
   54SOL    HW117304   2.177   4.038   2.058
   54SOL    HW217305   2.189   4.150   1.957
   55SOL     OW17306   4.100   5.184   1.529
   55SOL    HW117307   4.156   5.262   1.529
   55SOL    HW217308   4.012   5.218   1.546
   56SOL     OW17309   0.244   4.062   4.436
   56SOL    HW117310   0.275   4.128   4.498
   56SOL    HW217311   0.280   3.980   4.469
   57SOL     OW17312   5.563   4.585   5.598
   57SOL    HW117313   5.560   4.503   5.549
   57SOL    HW217314   5.585   4.651   5.532
   58SOL     OW17315   1.153   2.854   5.664
   58SOL    HW117316   1.068   2.895   5.647
   58SOL    HW217317   1.136   2.760   5.663
   59SOL     OW17318   2.559   1.634   7.434
   59SOL    HW117319   2.504   1.609   7.360
   59SOL    HW217320   2.548   1.729   7.441
   60SOL     OW17321   2.345   6.231   6.430
   60SOL    HW117322   2.297   6.150   6.415
   60SOL    HW217323   2.415   6.230   6.365
   61SOL     OW17324   5.956   4.374   1.186
   61SOL    HW117325   6.016   4.408   1.253
   61SOL    HW217326   5.943   4.282   1.210
   62SOL     OW17327   1.075   3.118   6.244
   62SOL    HW117328   1.160   3.075   6.257
   62SOL    HW217329   1.063   3.118   6.149
   63SOL     OW17330   5.648   0.741   1.229
   63SOL    HW117331   5.630   0.722   1.321
   63SOL    HW217332   5.561   0.742   1.188
   64SOL     OW17333   3.228   1.784   5.342
   64SOL    HW117334   3.238   1.872   5.306
   64SOL    HW217335   3.134   1.772   5.352
   65SOL     OW17336   6.156   2.269   7.815
   65SOL    HW117337   6.190   2.330   7.750
   65SOL    HW217338   6.125   2.325   7.886
   66SOL     OW17339   0.441   5.953   6.895
   66SOL    HW117340   0.515   5.902   6.861
   66SOL    HW217341   0.449   5.944   6.990
   67SOL     OW17342   5.366   0.306   6.037
   67SOL    HW117343   5.369   0.368   5.964
   67SOL    HW217344   5.456   0.276   6.048
   68SOL     OW17345   5.923   0.603   6.967
   68SOL    HW117346   5.853   0.641   7.019
   68SOL    HW217347   5.880   0.538   6.911
   69SOL     OW17348   1.200   6.220   0.192
   69SOL    HW117349   1.221   6.178   0.276
   69SOL    HW217350   1.267   6.288   0.182
   70SOL     OW17351   6.185   5.243   4.936
   70SOL    HW117352   6.261   5.245   4.993
   70SOL    HW217353   6.147   5.330   4.942
   71SOL     OW17354   2.072   4.778   7.732
   71SOL    HW117355   2.021   4.792   7.812
   71SOL    HW217356   2.042   4.846   7.672
   72SOL     OW17357   2.284   5.769   5.812
   72SOL    HW117358   2.292   5.831   5.739
   72SOL    HW217359   2.305   5.684   5.773
   73SOL     OW17360   3.558   3.301   0.830
   73SOL    HW117361   3.651   3.284   0.841
   73SOL    HW217362   3.541   3.285   0.737
   74SOL     OW17363   4.174   2.076   7.640
   74SOL    HW117364   4.143   2.013   7.705
   74SOL    HW217365   4.125   2.057   7.562
   75SOL     OW17366   0.078   1.515   6.443
   75SOL    HW117367   0.101   1.581   6.508
   75SOL    HW217368   0.103   1.554   6.360
   76SOL     OW17369   2.376   3.411   7.509
   76SOL    HW117370   2.397   3.469   7.583
   76SOL    HW217371   2.357   3.327   7.550
   77SOL     OW17372   0.413   0.958   6.456
   77SOL    HW117373   0.321   0.934   6.458
   77SOL    HW217374   0.441   0.942   6.366
   78SOL     OW17375   4.946   6.334   7.478
   78SOL    HW117376   4.960   6.242   7.502
   78SOL    HW217377   5.033   6.366   7.454
   79SOL     OW17378   5.276   1.894   1.185
   79SOL    HW117379   5.297   1.938   1.268
   79SOL    HW217380   5.349   1.833   1.171
   80SOL     OW17381   0.706   4.606   1.308
   80SOL    HW117382   0.619   4.589   1.272
   80SOL    HW217383   0.756   4.526   1.291
   81SOL     OW17384   4.467   4.863   0.414
   81SOL    HW117385   4.480   4.865   0.319
   81SOL    HW217386   4.555   4.862   0.451
   82SOL     OW17387   0.576   0.886   7.135
   82SOL    HW117388   0.602   0.960   7.081
   82SOL    HW217389   0.512   0.839   7.082
   83SOL     OW17390   5.945   3.781   0.603
   83SOL    HW117391   5.909   3.741   0.682
   83SOL    HW217392   6.033   3.744   0.594
   84SOL     OW17393   3.479   1.990   5.651
   84SOL    HW117394   3.555   1.977   5.708
   84SOL    HW217395   3.432   1.907   5.654
   85SOL     OW17396   3.933   1.484   6.177
   85SOL    HW117397   3.854   1.538   6.174
   85SOL    HW217398   3.902   1.395   6.159
   86SOL     OW17399   6.345   1.647   0.882
   86SOL    HW117400   6.372   1.593   0.808
   86SOL    HW217401   6.425   1.688   0.914
   87SOL     OW17402   2.823   6.266   1.801
   87SOL    HW117403   2.823   6.336   1.866
   87SOL    HW217404   2.889   6.204   1.833
   88SOL     OW17405   1.253   1.873   1.148
   88SOL    HW117406   1.198   1.891   1.224
   88SOL    HW217407   1.241   1.779   1.132
   89SOL     OW17408   0.557   5.319   4.444
   89SOL    HW117409   0.603   5.347   4.524
   89SOL    HW217410   0.584   5.228   4.432
   90SOL     OW17411   0.434   1.469   0.161
   90SOL    HW117412   0.407   1.387   0.203
   90SOL    HW217413   0.391   1.468   0.076
   91SOL     OW17414   0.813   1.517   1.702
   91SOL    HW117415   0.751   1.589   1.696
   91SOL    HW217416   0.892   1.557   1.738
   92SOL     OW17417   1.939   6.378   1.089
   92SOL    HW117418   1.892   6.374   1.006
   92SOL    HW217419   1.895   6.313   1.145
   93SOL     OW17420   1.330   4.091   5.615
   93SOL    HW117421   1.404   4.131   5.568
   93SOL    HW217422   1.337   3.998   5.593
   94SOL     OW17423   1.817   0.621   2.020
   94SOL    HW117424   1.776   0.638   1.935
   94SOL    HW217425   1.773   0.543   2.053
   95SOL     OW17426   2.944   4.611   0.952
   95SOL    HW117427   3.031   4.616   0.992
   95SOL    HW217428   2.911   4.525   0.976
   96SOL     OW17429   1.902   6.411   0.410
   96SOL    HW117430   1.984   6.398   0.363
   96SOL    HW217431   1.868   6.494   0.377
   97SOL     OW17432   3.274   3.207   7.374
   97SOL    HW117433   3.308   3.137   7.429
   97SOL    HW217434   3.266   3.168   7.287
   98SOL     OW17435   0.974   6.074   6.969
   98SOL    HW117436   1.030   6.143   6.934
   98SOL    HW217437   0.952   6.020   6.893
   99SOL     OW17438   1.113   5.630   1.420
   99SOL    HW117439   1.094   5.583   1.502
   99SOL    HW217440   1.174   5.699   1.445
  100SOL     OW17441   3.638   5.465   7.093
  100SOL    HW117442   3.576   5.392   7.092
  100SOL    HW217443   3.723   5.424   7.106
  101SOL     OW17444   2.306   6.063   7.156
  101SOL    HW117445   2.350   6.121   7.094
  101SOL    HW217446   2.218   6.100   7.165
  102SOL     OW17447   3.585   5.476   7.627
  102SOL    HW117448   3.525   5.463   7.554
  102SOL    HW217449   3.575   5.568   7.650
  103SOL     OW17450   1.769   2.271   0.100
  103SOL    HW117451   1.841   2.281   0.038
  103SOL    HW217452   1.799   2.315   0.180
  104SOL     OW17453   1.198   1.395   7.591
  104SOL    HW117454   1.138   1.321   7.576
  104SOL    HW217455   1.274   1.375   7.536
  105SOL     OW17456   5.799   4.888   6.978
  105SOL    HW117457   5.765   4.889   6.889
  105SOL    HW217458   5.847   4.806   6.985
  106SOL     OW17459   6.408   2.827   5.772
  106SOL    HW117460   6.471   2.757   5.790
  106SOL    HW217461   6.371   2.805   5.687
  107SOL     OW17462   1.694   2.897   0.505
  107SOL    HW117463   1.604   2.927   0.519
  107SOL    HW217464   1.742   2.975   0.477
  108SOL     OW17465   0.119   2.310   0.966
  108SOL    HW117466   0.078   2.224   0.969
  108SOL    HW217467   0.071   2.362   1.031
  109SOL     OW17468   5.522   5.874   0.461
  109SOL    HW117469   5.537   5.784   0.488
  109SOL    HW217470   5.576   5.885   0.383
  110SOL     OW17471   1.107   2.870   0.101
  110SOL    HW117472   1.098   2.964   0.088
  110SOL    HW217473   1.195   2.850   0.068
  111SOL     OW17474   1.303   5.747   5.698
  111SOL    HW117475   1.309   5.702   5.614
  111SOL    HW217476   1.212   5.735   5.725
  112SOL     OW17477   0.165   2.705   0.753
  112SOL    HW117478   0.145   2.756   0.674
  112SOL    HW217479   0.158   2.613   0.725
  113SOL     OW17480   4.184   5.526   6.799
  113SOL    HW117481   4.231   5.458   6.848
  113SOL    HW217482   4.115   5.478   6.753
  114SOL     OW17483   2.045   1.870   6.388
  114SOL    HW117484   2.011   1.792   6.432
  114SOL    HW217485   2.123   1.840   6.341
  115SOL     OW17486   0.108   4.712   6.993
  115SOL    HW117487   0.105   4.618   6.972
  115SOL    HW217488   0.201   4.732   7.001
  116SOL     OW17489   2.558   1.192   0.379
  116SOL    HW117490   2.652   1.178   0.392
  116SOL    HW217491   2.551   1.240   0.297
  117SOL     OW17492   3.847   5.833   7.214
  117SOL    HW117493   3.916   5.797   7.157
  117SOL    HW217494   3.766   5.815   7.167
  118SOL     OW17495   5.451   6.321   6.896
  118SOL    HW117496   5.445   6.308   6.802
  118SOL    HW217497   5.375   6.273   6.931
  119SOL     OW17498   1.681   3.226   7.184
  119SOL    HW117499   1.708   3.184   7.102
  119SOL    HW217500   1.662   3.317   7.160
  120SOL     OW17501   5.805   4.512   7.724
  120SOL    HW117502   5.756   4.572   7.780
  120SOL    HW217503   5.784   4.425   7.759
  121SOL     OW17504   0.187   4.373   5.199
  121SOL    HW117505   0.272   4.386   5.156
  121SOL    HW217506   0.138   4.453   5.181
  122SOL     OW17507   0.218   4.206   0.079
  122SOL    HW117508   0.128   4.176   0.071
  122SOL    HW217509   0.220   4.290   0.035
  123SOL     OW17510   0.653   5.945   6.384
  123SOL    HW117511   0.682   6.036   6.390
  123SOL    HW217512   0.633   5.932   6.291
  124SOL     OW17513   2.788   2.512   1.321
  124SOL    HW117514   2.869   2.563   1.317
  124SOL    HW217515   2.818   2.422   1.338
  125SOL     OW17516   1.060   0.438   5.107
  125SOL    HW117517   1.117   0.387   5.165
  125SOL    HW217518   1.092   0.418   5.019
  126SOL     OW17519   6.179   2.138   5.650
  126SOL    HW117520   6.247   2.189   5.606
  126SOL    HW217521   6.228   2.078   5.707
  127SOL     OW17522   0.401   3.282   7.358
  127SOL    HW117523   0.496   3.294   7.357
  127SOL    HW217524   0.386   3.218   7.428
  128SOL     OW17525   1.000   3.313   0.839
  128SOL    HW117526   1.033   3.359   0.762
  128SOL    HW217527   0.929   3.258   0.806
  129SOL     OW17528   2.140   4.018   6.274
  129SOL    HW117529   2.186   4.033   6.357
  129SOL    HW217530   2.050   4.046   6.291
  130SOL     OW17531   5.184   6.370   5.839
  130SOL    HW117532   5.139   6.368   5.924
  130SOL    HW217533   5.270   6.407   5.858
  131SOL     OW17534   1.691   5.505   7.674
  131SOL    HW117535   1.766   5.489   7.617
  131SOL    HW217536   1.703   5.594   7.705
  132SOL     OW17537   4.849   5.663   7.119
  132SOL    HW117538   4.941   5.638   7.115
  132SOL    HW217539   4.811   5.628   7.038
  133SOL     OW17540   5.433   3.043   7.046
  133SOL    HW117541   5.420   3.003   6.960
  133SOL    HW217542   5.364   3.109   7.052
  134SOL     OW17543   1.578   5.296   0.933
  134SOL    HW117544   1.670   5.268   0.929
  134SOL    HW217545   1.582   5.391   0.927
  135SOL     OW17546   3.885   5.968   1.154
  135SOL    HW117547   3.912   5.900   1.216
  135SOL    HW217548   3.837   6.031   1.208
  136SOL     OW17549   3.592   1.249   7.365
  136SOL    HW117550   3.679   1.213   7.347
  136SOL    HW217551   3.545   1.179   7.408
  137SOL     OW17552   1.551   2.201   0.569
  137SOL    HW117553   1.470   2.181   0.618
  137SOL    HW217554   1.550   2.296   0.559
  138SOL     OW17555   2.548   0.933   0.189
  138SOL    HW117556   2.590   0.916   0.273
  138SOL    HW217557   2.613   0.904   0.124
  139SOL     OW17558   5.690   1.621   5.499
  139SOL    HW117559   5.736   1.616   5.415
  139SOL    HW217560   5.715   1.707   5.534
  140SOL     OW17561   0.260   2.227   5.451
  140SOL    HW117562   0.355   2.233   5.454
  140SOL    HW217563   0.229   2.317   5.458
  141SOL     OW17564   5.390   6.189   1.257
  141SOL    HW117565   5.297   6.175   1.273
  141SOL    HW217566   5.407   6.277   1.292
  142SOL     OW17567   5.611   2.849   7.172
  142SOL    HW117568   5.643   2.855   7.081
  142SOL    HW217569   5.535   2.906   7.174
  143SOL     OW17570   4.490   4.249   0.467
  143SOL    HW117571   4.516   4.307   0.539
  143SOL    HW217572   4.556   4.180   0.468
  144SOL     OW17573   5.009   2.451   0.482
  144SOL    HW117574   4.917   2.477   0.493
  144SOL    HW217575   5.007   2.383   0.415
  145SOL     OW17576   3.374   5.817   7.149
  145SOL    HW117577   3.423   5.739   7.174
  145SOL    HW217578   3.310   5.829   7.219
  146SOL     OW17579   4.930   1.921   6.025
  146SOL    HW117580   5.024   1.908   6.037
  146SOL    HW217581   4.898   1.945   6.112
  147SOL     OW17582   4.214   2.075   1.216
  147SOL    HW117583   4.124   2.108   1.226
  147SOL    HW217584   4.203   1.985   1.186
  148SOL     OW17585   4.116   5.609   0.146
  148SOL    HW117586   4.148   5.698   0.133
  148SOL    HW217587   4.187   5.553   0.114
  149SOL     OW17588   4.551   2.536   7.298
  149SOL    HW117589   4.558   2.562   7.390
  149SOL    HW217590   4.471   2.578   7.267
  150SOL     OW17591   1.839   2.720   6.466
  150SOL    HW117592   1.893   2.761   6.534
  150SOL    HW217593   1.901   2.691   6.400
  151SOL     OW17594   1.558   3.130   6.042
  151SOL    HW117595   1.553   3.074   6.120
  151SOL    HW217596   1.630   3.190   6.061
  152SOL     OW17597   4.066   3.979   7.267
  152SOL    HW117598   4.147   3.955   7.313
  152SOL    HW217599   4.082   3.955   7.176
  153SOL     OW17600   1.298   4.895   0.713
  153SOL    HW117601   1.216   4.845   0.714
  153SOL    HW217602   1.365   4.830   0.731
  154SOL     OW17603   3.071   2.293   6.826
  154SOL    HW117604   2.987   2.288   6.780
  154SOL    HW217605   3.052   2.264   6.915
  155SOL     OW17606   3.803   1.233   6.170
  155SOL    HW117607   3.809   1.138   6.155
  155SOL    HW217608   3.712   1.247   6.197
  156SOL     OW17609   0.117   3.047   0.150
  156SOL    HW117610   0.043   3.103   0.173
  156SOL    HW217611   0.076   2.964   0.125
  157SOL     OW17612   1.886   2.393   6.956
  157SOL    HW117613   1.815   2.425   6.900
  157SOL    HW217614   1.842   2.343   7.024
  158SOL     OW17615   3.166   4.897   0.079
  158SOL    HW117616   3.122   4.924  -0.002
  158SOL    HW217617   3.257   4.882   0.053
  159SOL     OW17618   1.292   1.967   0.888
  159SOL    HW117619   1.246   1.938   0.967
  159SOL    HW217620   1.385   1.953   0.907
  160SOL     OW17621   5.188   0.086   2.041
  160SOL    HW117622   5.234   0.036   1.973
  160SOL    HW217623   5.239   0.071   2.120
  161SOL     OW17624   4.921   1.871   7.007
  161SOL    HW117625   4.919   1.840   6.917
  161SOL    HW217626   4.945   1.963   7.001
  162SOL     OW17627   3.027   4.657   7.009
  162SOL    HW117628   3.043   4.691   7.097
  162SOL    HW217629   3.087   4.583   7.002
  163SOL     OW17630   1.714   0.308   1.375
  163SOL    HW117631   1.651   0.343   1.311
  163SOL    HW217632   1.664   0.300   1.456
  164SOL     OW17633   4.493   2.412   6.197
  164SOL    HW117634   4.489   2.430   6.103
  164SOL    HW217635   4.457   2.491   6.238
  165SOL     OW17636   1.868   1.872   0.304
  165SOL    HW117637   1.951   1.905   0.269
  165SOL    HW217638   1.807   1.876   0.229
  166SOL     OW17639   4.678   1.566   7.340
  166SOL    HW117640   4.654   1.518   7.261
  166SOL    HW217641   4.764   1.604   7.321
  167SOL     OW17642   0.326   1.287   0.501
  167SOL    HW117643   0.297   1.369   0.542
  167SOL    HW217644   0.263   1.222   0.531
  168SOL     OW17645   1.981   2.897   0.320
  168SOL    HW117646   1.936   2.978   0.342
  168SOL    HW217647   1.943   2.870   0.236
  169SOL     OW17648   4.239   2.039   7.075
  169SOL    HW117649   4.202   2.094   7.145
  169SOL    HW217650   4.333   2.036   7.093
  170SOL     OW17651   4.384   2.789   0.629
  170SOL    HW117652   4.349   2.741   0.704
  170SOL    HW217653   4.463   2.741   0.604
  171SOL     OW17654   2.150   3.961   0.306
  171SOL    HW117655   2.140   3.867   0.322
  171SOL    HW217656   2.195   3.966   0.222
  172SOL     OW17657   3.422   1.554   0.332
  172SOL    HW117658   3.332   1.584   0.350
  172SOL    HW217659   3.447   1.600   0.252
  173SOL     OW17660   0.120   2.795   7.627
  173SOL    HW117661   0.103   2.887   7.649
  173SOL    HW217662   0.051   2.747   7.672
  174SOL     OW17663   0.187   1.102   0.612
  174SOL    HW117664   0.164   1.012   0.588
  174SOL    HW217665   0.187   1.101   0.708
  175SOL     OW17666   3.277   0.690   5.585
  175SOL    HW117667   3.232   0.725   5.662
  175SOL    HW217668   3.335   0.762   5.558
  176SOL     OW17669   4.996   0.597   0.700
  176SOL    HW117670   4.995   0.520   0.756
  176SOL    HW217671   5.029   0.667   0.756
  177SOL     OW17672   5.858   0.079   6.669
  177SOL    HW117673   5.801   0.074   6.745
  177SOL    HW217674   5.900   0.165   6.675
  178SOL     OW17675   0.748   3.751   1.323
  178SOL    HW117676   0.681   3.811   1.289
  178SOL    HW217677   0.709   3.717   1.404
  179SOL     OW17678   6.052   0.176   0.470
  179SOL    HW117679   6.095   0.120   0.405
  179SOL    HW217680   6.117   0.186   0.539
  180SOL     OW17681   5.331   2.158   1.668
  180SOL    HW117682   5.330   2.223   1.738
  180SOL    HW217683   5.302   2.206   1.591
  181SOL     OW17684   5.994   3.589   7.600
  181SOL    HW117685   6.026   3.531   7.532
  181SOL    HW217686   6.047   3.567   7.677
  182SOL     OW17687   6.194   5.629   6.279
  182SOL    HW117688   6.192   5.593   6.191
  182SOL    HW217689   6.242   5.566   6.331
  183SOL     OW17690   4.037   4.760   7.323
  183SOL    HW117691   4.025   4.725   7.235
  183SOL    HW217692   4.045   4.855   7.311
  184SOL     OW17693   0.286   2.619   0.368
  184SOL    HW117694   0.211   2.670   0.339
  184SOL    HW217695   0.314   2.571   0.290
  185SOL     OW17696   6.237   2.324   7.516
  185SOL    HW117697   6.204   2.273   7.442
  185SOL    HW217698   6.216   2.415   7.494
  186SOL     OW17699   0.076   0.218   6.563
  186SOL    HW117700   0.098   0.303   6.525
  186SOL    HW217701   0.134   0.209   6.638
  187SOL     OW17702   2.870   1.380   1.013
  187SOL    HW117703   2.919   1.378   1.095
  187SOL    HW217704   2.936   1.361   0.946
  188SOL     OW17705   5.980   4.561   7.514
  188SOL    HW117706   5.942   4.489   7.464
  188SOL    HW217707   5.935   4.558   7.598
  189SOL     OW17708   2.025   3.697   1.222
  189SOL    HW117709   1.970   3.741   1.287
  189SOL    HW217710   2.064   3.624   1.270
  190SOL     OW17711   2.674   4.271   1.033
  190SOL    HW117712   2.620   4.193   1.049
  190SOL    HW217713   2.629   4.341   1.082
  191SOL     OW17714   5.948   3.900   7.883
  191SOL    HW117715   6.005   3.918   7.809
  191SOL    HW217716   5.867   3.869   7.844
  192SOL     OW17717   2.735   1.914   1.548
  192SOL    HW117718   2.765   1.863   1.473
  192SOL    HW217719   2.780   1.876   1.623
  193SOL     OW17720   2.773   4.223   7.034
  193SOL    HW117721   2.815   4.138   7.028
  193SOL    HW217722   2.769   4.255   6.944
  194SOL     OW17723   3.429   5.724   2.168
  194SOL    HW117724   3.478   5.766   2.238
  194SOL    HW217725   3.488   5.656   2.135
  195SOL     OW17726   5.441   4.736   1.256
  195SOL    HW117727   5.378   4.760   1.324
  195SOL    HW217728   5.495   4.814   1.244
  196SOL     OW17729   1.764   2.211   7.115
  196SOL    HW117730   1.752   2.242   7.204
  196SOL    HW217731   1.757   2.115   7.121
  197SOL     OW17732   0.790   1.547   6.854
  197SOL    HW117733   0.833   1.632   6.844
  197SOL    HW217734   0.747   1.551   6.939
  198SOL     OW17735   5.056   5.820   1.668
  198SOL    HW117736   5.063   5.892   1.605
  198SOL    HW217737   4.962   5.812   1.684
  199SOL     OW17738   4.557   5.848   7.594
  199SOL    HW117739   4.564   5.937   7.626
  199SOL    HW217740   4.463   5.832   7.585
  200SOL     OW17741   3.159   2.368   1.179
  200SOL    HW117742   3.127   2.387   1.267
  200SOL    HW217743   3.095   2.410   1.121
  201SOL     OW17744   2.291   5.005   6.288
  201SOL    HW117745   2.337   4.925   6.312
  201SOL    HW217746   2.284   5.002   6.192
  202SOL     OW17747   1.465   0.444   7.303
  202SOL    HW117748   1.557   0.446   7.328
  202SOL    HW217749   1.464   0.397   7.219
  203SOL     OW17750   5.304   1.918   1.509
  203SOL    HW117751   5.233   1.872   1.555
  203SOL    HW217752   5.322   1.995   1.563
  204SOL     OW17753   2.437   1.239   6.270
  204SOL    HW117754   2.531   1.251   6.266
  204SOL    HW217755   2.404   1.319   6.311
  205SOL     OW17756   1.231   2.389   7.307
  205SOL    HW117757   1.311   2.411   7.259
  205SOL    HW217758   1.197   2.311   7.263
  206SOL     OW17759   6.311   0.454   1.334
  206SOL    HW117760   6.232   0.437   1.384
  206SOL    HW217761   6.348   0.533   1.374
  207SOL     OW17762   6.140   0.736   7.020
  207SOL    HW117763   6.193   0.693   7.086
  207SOL    HW217764   6.054   0.695   7.027
  208SOL     OW17765   1.530   5.791   0.574
  208SOL    HW117766   1.606   5.734   0.585
  208SOL    HW217767   1.565   5.868   0.528
  209SOL     OW17768   1.737   2.552   1.198
  209SOL    HW117769   1.779   2.593   1.122
  209SOL    HW217770   1.810   2.515   1.248
  210SOL     OW17771   0.899   2.682   5.884
  210SOL    HW117772   0.848   2.634   5.818
  210SOL    HW217773   0.990   2.660   5.865
  211SOL     OW17774   2.355   3.921   5.639
  211SOL    HW117775   2.310   3.948   5.559
  211SOL    HW217776   2.415   3.852   5.612
  212SOL     OW17777   2.260   1.687   6.309
  212SOL    HW117778   2.289   1.614   6.364
  212SOL    HW217779   2.217   1.644   6.235
  213SOL     OW17780   5.606   2.513   1.278
  213SOL    HW117781   5.690   2.508   1.233
  213SOL    HW217782   5.582   2.606   1.273
  214SOL     OW17783   0.332   1.207   0.141
  214SOL    HW117784   0.346   1.122   0.099
  214SOL    HW217785   0.308   1.266   0.069
  215SOL     OW17786   4.624   6.038   6.688
  215SOL    HW117787   4.696   6.100   6.676
  215SOL    HW217788   4.639   5.972   6.620
  216SOL     OW17789   5.892   4.328   4.903
  216SOL    HW117790   5.914   4.239   4.930
  216SOL    HW217791   5.815   4.317   4.846
  217SOL     OW17792   2.194   4.464   1.483
  217SOL    HW117793   2.126   4.397   1.472
  217SOL    HW217794   2.276   4.416   1.484
  218SOL     OW17795   5.541   3.670   1.702
  218SOL    HW117796   5.492   3.606   1.650
  218SOL    HW217797   5.609   3.619   1.745
  219SOL     OW17798   2.725   3.410   5.559
  219SOL    HW117799   2.761   3.499   5.564
  219SOL    HW217800   2.643   3.421   5.510
  220SOL     OW17801   3.786   4.717   6.522
  220SOL    HW117802   3.809   4.688   6.433
  220SOL    HW217803   3.867   4.755   6.556
  221SOL     OW17804   5.533   2.103   2.348
  221SOL    HW117805   5.443   2.120   2.375
  221SOL    HW217806   5.531   2.015   2.311
  222SOL     OW17807   4.583   5.716   5.472
  222SOL    HW117808   4.516   5.690   5.409
  222SOL    HW217809   4.651   5.648   5.464
  223SOL     OW17810   5.606   5.359   5.707
  223SOL    HW117811   5.570   5.324   5.626
  223SOL    HW217812   5.699   5.334   5.705
  224SOL     OW17813   2.884   5.652   0.803
  224SOL    HW117814   2.795   5.628   0.781
  224SOL    HW217815   2.894   5.625   0.894
  225SOL     OW17816   0.446   4.322   1.455
  225SOL    HW117817   0.374   4.263   1.478
  225SOL    HW217818   0.417   4.408   1.485
  226SOL     OW17819   0.368   3.796   7.091
  226SOL    HW117820   0.390   3.819   7.181
  226SOL    HW217821   0.396   3.704   7.083
  227SOL     OW17822   3.163   2.569   0.136
  227SOL    HW117823   3.107   2.523   0.074
  227SOL    HW217824   3.225   2.617   0.080
  228SOL     OW17825   3.644   1.886   7.630
  228SOL    HW117826   3.711   1.827   7.665
  228SOL    HW217827   3.588   1.830   7.577
  229SOL     OW17828   5.219   5.832   0.114
  229SOL    HW117829   5.168   5.790   0.044
  229SOL    HW217830   5.181   5.799   0.195
  230SOL     OW17831   1.220   0.052   5.588
  230SOL    HW117832   1.256   0.048   5.677
  230SOL    HW217833   1.291   0.089   5.536
  231SOL     OW17834   0.039   5.134   0.564
  231SOL    HW117835   0.051   5.078   0.640
  231SOL    HW217836   0.065   5.080   0.489
  232SOL     OW17837   2.774   5.265   0.456
  232SOL    HW117838   2.745   5.355   0.440
  232SOL    HW217839   2.756   5.220   0.373
  233SOL     OW17840   0.040   2.207   6.243
  233SOL    HW117841  -0.020   2.210   6.168
  233SOL    HW217842   0.051   2.114   6.261
  234SOL     OW17843   5.966   1.828   7.240
  234SOL    HW117844   5.933   1.858   7.155
  234SOL    HW217845   5.924   1.885   7.304
  235SOL     OW17846   4.413   6.252   1.254
  235SOL    HW117847   4.372   6.338   1.254
  235SOL    HW217848   4.365   6.202   1.320
  236SOL     OW17849   5.230   5.874   5.587
  236SOL    HW117850   5.220   5.926   5.508
  236SOL    HW217851   5.270   5.792   5.557
  237SOL     OW17852   0.649   0.195   5.176
  237SOL    HW117853   0.639   0.290   5.172
  237SOL    HW217854   0.729   0.177   5.126
  238SOL     OW17855   3.257   5.517   7.222
  238SOL    HW117856   3.200   5.567   7.280
  238SOL    HW217857   3.343   5.559   7.230
  239SOL     OW17858   5.105   5.768   7.343
  239SOL    HW117859   5.059   5.785   7.425
  239SOL    HW217860   5.079   5.679   7.319
  240SOL     OW17861   5.346   4.732   7.074
  240SOL    HW117862   5.320   4.803   7.015
  240SOL    HW217863   5.333   4.652   7.023
  241SOL     OW17864   3.072   1.803   6.787
  241SOL    HW117865   2.987   1.762   6.771
  241SOL    HW217866   3.127   1.775   6.715
  242SOL     OW17867   2.152   6.119   2.004
  242SOL    HW117868   2.169   6.139   1.912
  242SOL    HW217869   2.238   6.107   2.043
  243SOL     OW17870   1.918   3.782   5.885
  243SOL    HW117871   1.873   3.866   5.898
  243SOL    HW217872   1.848   3.718   5.875
  244SOL     OW17873   2.785   4.654   7.564
  244SOL    HW117874   2.702   4.621   7.530
  244SOL    HW217875   2.780   4.642   7.658
  245SOL     OW17876   3.838   3.577   5.831
  245SOL    HW117877   3.873   3.555   5.744
  245SOL    HW217878   3.755   3.622   5.813
  246SOL     OW17879   0.993   0.188   0.907
  246SOL    HW117880   0.968   0.274   0.941
  246SOL    HW217881   0.911   0.141   0.896
  247SOL     OW17882   5.902   3.696   5.770
  247SOL    HW117883   5.875   3.771   5.717
  247SOL    HW217884   5.996   3.707   5.782
  248SOL     OW17885   0.666   1.911   0.147
  248SOL    HW117886   0.614   1.839   0.182
  248SOL    HW217887   0.733   1.869   0.094
  249SOL     OW17888   0.654   3.229   0.861
  249SOL    HW117889   0.701   3.158   0.817
  249SOL    HW217890   0.604   3.271   0.791
  250SOL     OW17891   2.433   2.100   7.679
  250SOL    HW117892   2.458   2.183   7.638
  250SOL    HW217893   2.344   2.084   7.646
  251SOL     OW17894   1.622   4.266   0.707
  251SOL    HW117895   1.610   4.263   0.802
  251SOL    HW217896   1.703   4.218   0.691
  252SOL     OW17897   6.331   1.772   2.168
  252SOL    HW117898   6.375   1.704   2.220
  252SOL    HW217899   6.335   1.740   2.078
  253SOL     OW17900   3.327   2.006   7.286
  253SOL    HW117901   3.283   2.052   7.215
  253SOL    HW217902   3.418   2.036   7.283
  254SOL     OW17903   5.292   1.155   7.172
  254SOL    HW117904   5.236   1.178   7.247
  254SOL    HW217905   5.241   1.089   7.124
  255SOL     OW17906   3.316   4.582   6.892
  255SOL    HW117907   3.380   4.517   6.861
  255SOL    HW217908   3.352   4.614   6.975
  256SOL     OW17909   2.586   1.362   0.766
  256SOL    HW117910   2.563   1.274   0.734
  256SOL    HW217911   2.502   1.406   0.777
  257SOL     OW17912   5.967   1.663   0.172
  257SOL    HW117913   5.884   1.663   0.125
  257SOL    HW217914   6.026   1.715   0.117
  258SOL     OW17915   3.878   0.802   7.130
  258SOL    HW117916   3.950   0.841   7.180
  258SOL    HW217917   3.920   0.740   7.071
  259SOL     OW17918   3.702   6.054   1.618
  259SOL    HW117919   3.757   6.127   1.589
  259SOL    HW217920   3.617   6.094   1.638
  260SOL     OW17921   4.530   3.885   6.496
  260SOL    HW117922   4.619   3.872   6.530
  260SOL    HW217923   4.491   3.951   6.553
  261SOL     OW17924   2.498   6.261   0.634
  261SOL    HW117925   2.424   6.204   0.618
  261SOL    HW217926   2.462   6.336   0.681
  262SOL     OW17927   6.212   0.273   0.249
  262SOL    HW117928   6.154   0.305   0.318
  262SOL    HW217929   6.180   0.185   0.229
  263SOL     OW17930   4.608   3.233   6.652
  263SOL    HW117931   4.539   3.207   6.712
  263SOL    HW217932   4.562   3.266   6.575
  264SOL     OW17933   4.836   3.292   5.447
  264SOL    HW117934   4.816   3.367   5.502
  264SOL    HW217935   4.780   3.304   5.370
  265SOL     OW17936   2.151   3.591   5.815
  265SOL    HW117937   2.070   3.620   5.772
  265SOL    HW217938   2.192   3.672   5.846
  266SOL     OW17939   1.952   4.706   1.165
  266SOL    HW117940   1.882   4.641   1.166
  266SOL    HW217941   1.913   4.783   1.206
  267SOL     OW17942   2.264   1.753   0.241
  267SOL    HW117943   2.217   1.684   0.194
  267SOL    HW217944   2.283   1.819   0.175
  268SOL     OW17945   2.030   0.776   1.012
  268SOL    HW117946   2.071   0.730   1.086
  268SOL    HW217947   2.011   0.863   1.047
  269SOL     OW17948   0.395   5.771   7.716
  269SOL    HW117949   0.392   5.706   7.646
  269SOL    HW217950   0.488   5.786   7.731
  270SOL     OW17951   2.504   0.113   1.788
  270SOL    HW117952   2.450   0.100   1.710
  270SOL    HW217953   2.473   0.045   1.849
  271SOL     OW17954   4.434   0.861   1.308
  271SOL    HW117955   4.469   0.949   1.314
  271SOL    HW217956   4.357   0.869   1.253
  272SOL     OW17957   1.118   4.744   0.431
  272SOL    HW117958   1.033   4.719   0.395
  272SOL    HW217959   1.180   4.725   0.361
  273SOL     OW17960   6.057   0.700   0.276
  273SOL    HW117961   6.128   0.663   0.224
  273SOL    HW217962   6.006   0.624   0.305
  274SOL     OW17963   5.318   1.067   5.715
  274SOL    HW117964   5.341   1.127   5.644
  274SOL    HW217965   5.224   1.055   5.706
  275SOL     OW17966   2.558   5.382   0.085
  275SOL    HW117967   2.647   5.410   0.063
  275SOL    HW217968   2.501   5.447   0.045
  276SOL     OW17969   2.206   3.425   1.066
  276SOL    HW117970   2.202   3.484   1.141
  276SOL    HW217971   2.171   3.342   1.099
  277SOL     OW17972   3.547   4.365   7.028
  277SOL    HW117973   3.509   4.314   6.957
  277SOL    HW217974   3.523   4.318   7.107
  278SOL     OW17975   5.900   4.178   6.896
  278SOL    HW117976   5.967   4.230   6.852
  278SOL    HW217977   5.929   4.087   6.887
  279SOL     OW17978   1.317   5.014   0.468
  279SOL    HW117979   1.288   4.971   0.549
  279SOL    HW217980   1.240   5.061   0.437
  280SOL     OW17981   4.942   3.291   7.647
  280SOL    HW117982   4.975   3.336   7.569
  280SOL    HW217983   4.925   3.362   7.709
  281SOL     OW17984   1.770   5.087   1.993
  281SOL    HW117985   1.843   5.044   1.948
  281SOL    HW217986   1.755   5.034   2.071
  282SOL     OW17987   5.563   2.052   7.691
  282SOL    HW117988   5.571   2.147   7.700
  282SOL    HW217989   5.487   2.040   7.634
  283SOL     OW17990   5.173   0.873   1.463
  283SOL    HW117991   5.215   0.787   1.459
  283SOL    HW217992   5.244   0.933   1.486
  284SOL     OW17993   0.365   5.443   5.581
  284SOL    HW117994   0.415   5.394   5.515
  284SOL    HW217995   0.385   5.535   5.562
  285SOL     OW17996   3.936   4.472   7.606
  285SOL    HW117997   3.940   4.408   7.534
  285SOL    HW217998   3.884   4.428   7.673
  286SOL     OW17999   2.877   1.973   7.469
  286SOL    HW118000   2.849   1.915   7.539
  286SOL    HW218001   2.972   1.971   7.471
  287SOL     OW18002   3.451   3.397   0.285
  287SOL    HW118003   3.381   3.450   0.246
  287SOL    HW218004   3.424   3.384   0.376
  288SOL     OW18005   3.827   0.042   1.447
  288SOL    HW118006   3.782   0.016   1.527
  288SOL    HW218007   3.918   0.057   1.474
  289SOL     OW18008   6.345   2.969   6.657
  289SOL    HW118009   6.430   3.010   6.672
  289SOL    HW218010   6.289   3.002   6.728
  290SOL     OW18011   1.297   2.364   1.631
  290SOL    HW118012   1.300   2.450   1.673
  290SOL    HW218013   1.331   2.303   1.697
  291SOL     OW18014   2.425   6.119   6.142
  291SOL    HW118015   2.378   6.193   6.105
  291SOL    HW218016   2.377   6.042   6.112
  292SOL     OW18017   4.770   1.954   7.443
  292SOL    HW118018   4.775   2.039   7.400
  292SOL    HW218019   4.679   1.926   7.430
  293SOL     OW18020   3.890   5.724   0.356
  293SOL    HW118021   3.941   5.732   0.275
  293SOL    HW218022   3.957   5.715   0.424
  294SOL     OW18023   0.424   3.622   6.246
  294SOL    HW118024   0.482   3.662   6.181
  294SOL    HW218025   0.355   3.686   6.259
  295SOL     OW18026   2.264   5.560   0.183
  295SOL    HW118027   2.278   5.623   0.113
  295SOL    HW218028   2.301   5.478   0.151
  296SOL     OW18029   1.625   2.378   5.385
  296SOL    HW118030   1.632   2.442   5.455
  296SOL    HW218031   1.710   2.335   5.382
  297SOL     OW18032   6.364   5.516   7.252
  297SOL    HW118033   6.374   5.563   7.169
  297SOL    HW218034   6.387   5.581   7.318
  298SOL     OW18035   2.200   4.549   6.279
  298SOL    HW118036   2.198   4.602   6.358
  298SOL    HW218037   2.113   4.509   6.275
  299SOL     OW18038   4.028   3.808   6.552
  299SOL    HW118039   4.071   3.727   6.522
  299SOL    HW218040   3.972   3.834   6.479
  300SOL     OW18041   0.420   1.495   6.338
  300SOL    HW118042   0.470   1.423   6.301
  300SOL    HW218043   0.361   1.453   6.401
  301SOL     OW18044   1.853   1.399   0.348
  301SOL    HW118045   1.895   1.474   0.391
  301SOL    HW218046   1.911   1.325   0.365
  302SOL     OW18047   0.273   1.311   6.489
  302SOL    HW118048   0.268   1.228   6.442
  302SOL    HW218049   0.189   1.354   6.473
  303SOL     OW18050   5.727   4.840   6.720
  303SOL    HW118051   5.696   4.920   6.678
  303SOL    HW218052   5.820   4.836   6.698
  304SOL     OW18053   3.978   1.043   0.604
  304SOL    HW118054   3.915   1.093   0.657
  304SOL    HW218055   3.995   0.964   0.656
  305SOL     OW18056   3.434   5.541   6.230
  305SOL    HW118057   3.364   5.601   6.255
  305SOL    HW218058   3.461   5.570   6.143
  306SOL     OW18059   2.846   6.046   7.264
  306SOL    HW118060   2.914   5.978   7.265
  306SOL    HW218061   2.890   6.122   7.225
  307SOL     OW18062   5.365   1.934   7.826
  307SOL    HW118063   5.459   1.939   7.811
  307SOL    HW218064   5.336   2.025   7.825
  308SOL     OW18065   4.971   3.181   6.196
  308SOL    HW118066   4.904   3.153   6.134
  308SOL    HW218067   5.053   3.150   6.158
  309SOL     OW18068   5.049   1.848   1.574
  309SOL    HW118069   5.010   1.761   1.572
  309SOL    HW218070   5.026   1.886   1.490
  310SOL     OW18071   2.389   3.659   6.818
  310SOL    HW118072   2.329   3.639   6.890
  310SOL    HW218073   2.344   3.627   6.740
  311SOL     OW18074   3.174   5.038   2.288
  311SOL    HW118075   3.266   5.054   2.309
  311SOL    HW218076   3.162   4.944   2.302
  312SOL     OW18077   5.200   1.478   2.061
  312SOL    HW118078   5.237   1.391   2.075
  312SOL    HW218079   5.271   1.529   2.021
  313SOL     OW18080   0.139   5.760   0.831
  313SOL    HW118081   0.132   5.830   0.766
  313SOL    HW218082   0.188   5.691   0.785
  314SOL     OW18083   0.761   4.846   6.534
  314SOL    HW118084   0.818   4.913   6.574
  314SOL    HW218085   0.817   4.803   6.470
  315SOL     OW18086   0.785   1.300   1.879
  315SOL    HW118087   0.844   1.354   1.931
  315SOL    HW218088   0.770   1.351   1.799
  316SOL     OW18089   0.126   0.386   5.624
  316SOL    HW118090   0.148   0.473   5.590
  316SOL    HW218091   0.116   0.331   5.546
  317SOL     OW18092   2.593   6.290   2.083
  317SOL    HW118093   2.547   6.280   2.000
  317SOL    HW218094   2.674   6.335   2.061
  318SOL     OW18095   0.080   2.905   0.573
  318SOL    HW118096   0.160   2.934   0.530
  318SOL    HW218097   0.085   2.941   0.661
  319SOL     OW18098   1.295   3.087   5.261
  319SOL    HW118099   1.262   3.023   5.199
  319SOL    HW218100   1.228   3.156   5.262
  320SOL     OW18101   1.909   4.413   0.125
  320SOL    HW118102   1.946   4.362   0.197
  320SOL    HW218103   1.884   4.496   0.165
  321SOL     OW18104   5.859   4.271   1.658
  321SOL    HW118105   5.769   4.303   1.648
  321SOL    HW218106   5.882   4.294   1.748
  322SOL     OW18107   3.485   2.052   0.117
  322SOL    HW118108   3.407   2.007   0.149
  322SOL    HW218109   3.558   1.996   0.146
  323SOL     OW18110   0.107   5.324   6.581
  323SOL    HW118111   0.141   5.411   6.603
  323SOL    HW218112   0.095   5.282   6.666
  324SOL     OW18113   4.564   1.872   6.902
  324SOL    HW118114   4.619   1.796   6.918
  324SOL    HW218115   4.550   1.909   6.990
  325SOL     OW18116   4.243   3.456   0.043
  325SOL    HW118117   4.188   3.519   0.090
  325SOL    HW218118   4.239   3.484  -0.048
  326SOL     OW18119   1.257   3.122   6.948
  326SOL    HW118120   1.213   3.137   7.032
  326SOL    HW218121   1.338   3.076   6.972
  327SOL     OW18122   2.875   1.347   7.370
  327SOL    HW118123   2.855   1.371   7.279
  327SOL    HW218124   2.906   1.257   7.365
  328SOL     OW18125   2.278   5.561   6.642
  328SOL    HW118126   2.293   5.486   6.585
  328SOL    HW218127   2.317   5.635   6.594
  329SOL     OW18128   6.079   1.935   5.500
  329SOL    HW118129   6.109   2.006   5.556
  329SOL    HW218130   6.155   1.915   5.444
  330SOL     OW18131   3.715   5.947   6.775
  330SOL    HW118132   3.647   5.978   6.714
  330SOL    HW218133   3.714   6.012   6.845
  331SOL     OW18134   4.923   1.856   0.799
  331SOL    HW118135   4.874   1.911   0.738
  331SOL    HW218136   5.007   1.840   0.755
  332SOL     OW18137   4.294   6.417   6.872
  332SOL    HW118138   4.355   6.490   6.864
  332SOL    HW218139   4.325   6.352   6.809
  333SOL     OW18140   2.216   6.157   1.739
  333SOL    HW118141   2.134   6.133   1.698
  333SOL    HW218142   2.283   6.130   1.676
  334SOL     OW18143   6.243   1.874   1.027
  334SOL    HW118144   6.275   1.804   0.970
  334SOL    HW218145   6.151   1.885   1.002
  335SOL     OW18146   5.782   1.865   0.994
  335SOL    HW118147   5.755   1.897   0.909
  335SOL    HW218148   5.731   1.916   1.057
  336SOL     OW18149   1.850   0.704   0.815
  336SOL    HW118150   1.916   0.726   0.880
  336SOL    HW218151   1.900   0.671   0.740
  337SOL     OW18152   4.588   3.253   7.547
  337SOL    HW118153   4.587   3.218   7.458
  337SOL    HW218154   4.498   3.283   7.562
  338SOL     OW18155   3.956   2.033   6.707
  338SOL    HW118156   3.898   2.094   6.752
  338SOL    HW218157   3.897   1.968   6.669
  339SOL     OW18158   0.793   2.633   0.786
  339SOL    HW118159   0.791   2.538   0.778
  339SOL    HW218160   0.741   2.652   0.864
  340SOL     OW18161   0.986   2.937   0.895
  340SOL    HW118162   0.999   3.004   0.962
  340SOL    HW218163   0.956   2.985   0.818
  341SOL     OW18164   6.379   3.265   1.751
  341SOL    HW118165   6.395   3.355   1.779
  341SOL    HW218166   6.388   3.268   1.656
  342SOL     OW18167   3.650   1.864   7.043
  342SOL    HW118168   3.669   1.787   7.096
  342SOL    HW218169   3.598   1.830   6.969
  343SOL     OW18170   5.922   1.934   5.276
  343SOL    HW118171   5.932   2.021   5.238
  343SOL    HW218172   5.961   1.941   5.363
  344SOL     OW18173   4.181   2.193   6.691
  344SOL    HW118174   4.098   2.147   6.682
  344SOL    HW218175   4.245   2.125   6.711
  345SOL     OW18176   3.188   5.835   5.573
  345SOL    HW118177   3.121   5.789   5.622
  345SOL    HW218178   3.141   5.901   5.522
  346SOL     OW18179   1.079   1.742   0.600
  346SOL    HW118180   1.101   1.804   0.530
  346SOL    HW218181   1.029   1.673   0.556
  347SOL     OW18182   0.108   6.349   6.086
  347SOL    HW118183   0.162   6.362   6.008
  347SOL    HW218184   0.166   6.370   6.159
  348SOL     OW18185   2.039   4.849   0.544
  348SOL    HW118186   2.031   4.848   0.449
  348SOL    HW218187   2.073   4.763   0.567
  349SOL     OW18188   5.742   3.435   7.015
  349SOL    HW118189   5.743   3.348   7.056
  349SOL    HW218190   5.722   3.418   6.923
  350SOL     OW18191   4.001   4.943   0.634
  350SOL    HW118192   4.084   4.992   0.639
  350SOL    HW218193   3.999   4.892   0.715
  351SOL     OW18194   0.927   4.784   5.832
  351SOL    HW118195   0.965   4.733   5.903
  351SOL    HW218196   0.835   4.759   5.831
  352SOL     OW18197   1.649   2.447   5.747
  352SOL    HW118198   1.559   2.422   5.725
  352SOL    HW218199   1.673   2.511   5.679
  353SOL     OW18200   5.107   4.928   7.630
  353SOL    HW118201   5.128   4.838   7.655
  353SOL    HW218202   5.187   4.961   7.591
  354SOL     OW18203   2.407   6.166   0.187
  354SOL    HW118204   2.363   6.248   0.163
  354SOL    HW218205   2.383   6.105   0.117
  355SOL     OW18206   3.549   0.824   6.554
  355SOL    HW118207   3.587   0.884   6.618
  355SOL    HW218208   3.516   0.751   6.607
  356SOL     OW18209   5.536   2.205   7.265
  356SOL    HW118210   5.551   2.277   7.203
  356SOL    HW218211   5.584   2.230   7.343
  357SOL     OW18212   4.107   3.292   6.823
  357SOL    HW118213   4.038   3.342   6.867
  357SOL    HW218214   4.175   3.356   6.805
  358SOL     OW18215   2.537   1.077   5.946
  358SOL    HW118216   2.610   1.127   5.984
  358SOL    HW218217   2.569   0.986   5.944
  359SOL     OW18218   6.107   4.422   5.704
  359SOL    HW118219   6.033   4.372   5.668
  359SOL    HW218220   6.183   4.388   5.658
  360SOL     OW18221   2.208   0.028   6.508
  360SOL    HW118222   2.250  -0.053   6.480
  360SOL    HW218223   2.259   0.097   6.466
  361SOL     OW18224   1.526   3.534   7.184
  361SOL    HW118225   1.490   3.538   7.096
  361SOL    HW218226   1.561   3.622   7.199
  362SOL     OW18227   6.398   3.562   6.819
  362SOL    HW118228   6.471   3.562   6.757
  362SOL    HW218229   6.425   3.621   6.889
  363SOL     OW18230   0.200   3.278   5.304
  363SOL    HW118231   0.218   3.243   5.391
  363SOL    HW218232   0.157   3.362   5.320
  364SOL     OW18233   3.457   4.747   0.228
  364SOL    HW118234   3.550   4.760   0.250
  364SOL    HW218235   3.448   4.783   0.140
  365SOL     OW18236   4.249   1.116   6.537
  365SOL    HW118237   4.313   1.185   6.520
  365SOL    HW218238   4.273   1.046   6.476
  366SOL     OW18239   0.379   6.158   1.624
  366SOL    HW118240   0.393   6.252   1.612
  366SOL    HW218241   0.453   6.130   1.677
  367SOL     OW18242   1.482   1.488   1.793
  367SOL    HW118243   1.519   1.557   1.848
  367SOL    HW218244   1.390   1.484   1.819
  368SOL     OW18245   2.580   1.104   6.696
  368SOL    HW118246   2.558   1.082   6.606
  368SOL    HW218247   2.652   1.167   6.689
  369SOL     OW18248   0.513   2.782   6.191
  369SOL    HW118249   0.593   2.815   6.233
  369SOL    HW218250   0.463   2.861   6.171
  370SOL     OW18251   5.969   4.064   6.342
  370SOL    HW118252   5.879   4.057   6.374
  370SOL    HW218253   6.022   4.055   6.421
  371SOL     OW18254   6.061   3.968   1.458
  371SOL    HW118255   6.078   4.062   1.459
  371SOL    HW218256   6.091   3.939   1.372
  372SOL     OW18257   4.895   4.195   1.062
  372SOL    HW118258   4.962   4.255   1.095
  372SOL    HW218259   4.823   4.251   1.036
  373SOL     OW18260   4.658   0.943   0.493
  373SOL    HW118261   4.667   0.965   0.400
  373SOL    HW218262   4.720   0.871   0.506
  374SOL     OW18263   5.702   0.207   1.162
  374SOL    HW118264   5.722   0.297   1.134
  374SOL    HW218265   5.739   0.152   1.093
  375SOL     OW18266   4.150   1.756   5.769
  375SOL    HW118267   4.094   1.698   5.820
  375SOL    HW218268   4.101   1.838   5.763
  376SOL     OW18269   5.265   4.898   1.398
  376SOL    HW118270   5.175   4.879   1.424
  376SOL    HW218271   5.295   4.963   1.462
  377SOL     OW18272   2.127   1.565   5.636
  377SOL    HW118273   2.147   1.474   5.611
  377SOL    HW218274   2.039   1.580   5.600
  378SOL     OW18275   5.215   3.191   7.138
  378SOL    HW118276   5.151   3.175   7.069
  378SOL    HW218277   5.175   3.152   7.216
  379SOL     OW18278   5.496   5.601   6.166
  379SOL    HW118279   5.515   5.507   6.164
  379SOL    HW218280   5.456   5.619   6.081
  380SOL     OW18281   6.133   0.546   6.128
  380SOL    HW118282   6.078   0.602   6.183
  380SOL    HW218283   6.071   0.501   6.070
  381SOL     OW18284   4.001   6.351   7.868
  381SOL    HW118285   3.931   6.412   7.890
  381SOL    HW218286   3.956   6.269   7.846
  382SOL     OW18287   3.814   1.053   0.883
  382SOL    HW118288   3.758   1.127   0.859
  382SOL    HW218289   3.752   0.983   0.905
  383SOL     OW18290   3.029   3.689   5.909
  383SOL    HW118291   3.067   3.720   5.827
  383SOL    HW218292   2.996   3.601   5.889
  384SOL     OW18293   4.176   0.714   0.876
  384SOL    HW118294   4.269   0.709   0.854
  384SOL    HW218295   4.165   0.656   0.951
  385SOL     OW18296   4.118   0.514   0.594
  385SOL    HW118297   4.042   0.462   0.621
  385SOL    HW218298   4.167   0.529   0.675
  386SOL     OW18299   3.183   4.873   0.721
  386SOL    HW118300   3.208   4.931   0.649
  386SOL    HW218301   3.266   4.835   0.750
  387SOL     OW18302   5.520   4.075   6.290
  387SOL    HW118303   5.530   3.983   6.268
  387SOL    HW218304   5.440   4.078   6.343
  388SOL     OW18305   2.941   0.827   5.577
  388SOL    HW118306   2.961   0.832   5.483
  388SOL    HW218307   2.930   0.919   5.603
  389SOL     OW18308   4.128   2.858   0.195
  389SOL    HW118309   4.211   2.811   0.190
  389SOL    HW218310   4.108   2.884   0.105
  390SOL     OW18311   0.416   3.525   7.790
  390SOL    HW118312   0.501   3.564   7.812
  390SOL    HW218313   0.392   3.566   7.707
  391SOL     OW18314   0.293   5.261   5.259
  391SOL    HW118315   0.375   5.282   5.303
  391SOL    HW218316   0.284   5.166   5.270
  392SOL     OW18317   5.302   5.790   2.131
  392SOL    HW118318   5.275   5.804   2.221
  392SOL    HW218319   5.229   5.824   2.079
  393SOL     OW18320   2.671   1.880   6.722
  393SOL    HW118321   2.734   1.936   6.769
  393SOL    HW218322   2.641   1.935   6.649
  394SOL     OW18323   2.088   3.365   6.294
  394SOL    HW118324   2.105   3.401   6.207
  394SOL    HW218325   1.996   3.383   6.311
  395SOL     OW18326   5.390   0.899   6.928
  395SOL    HW118327   5.376   0.904   7.023
  395SOL    HW218328   5.463   0.838   6.918
  396SOL     OW18329   2.413   3.127   2.050
  396SOL    HW118330   2.382   3.214   2.025
  396SOL    HW218331   2.362   3.067   1.996
  397SOL     OW18332   4.160   4.699   6.588
  397SOL    HW118333   4.125   4.676   6.675
  397SOL    HW218334   4.104   4.770   6.558
  398SOL     OW18335   4.900   2.622   6.572
  398SOL    HW118336   4.847   2.583   6.502
  398SOL    HW218337   4.891   2.560   6.645
  399SOL     OW18338   4.906   1.664   7.195
  399SOL    HW118339   4.911   1.747   7.147
  399SOL    HW218340   4.965   1.606   7.147
  400SOL     OW18341   4.755   3.415   6.788
  400SOL    HW118342   4.754   3.494   6.734
  400SOL    HW218343   4.700   3.352   6.740
  401SOL     OW18344   0.259   3.031   0.419
  401SOL    HW118345   0.224   3.054   0.333
  401SOL    HW218346   0.338   2.979   0.401
  402SOL     OW18347   4.139   1.188   5.935
  402SOL    HW118348   4.076   1.249   5.974
  402SOL    HW218349   4.146   1.216   5.844
  403SOL     OW18350   4.782   3.107   0.539
  403SOL    HW118351   4.731   3.181   0.505
  403SOL    HW218352   4.722   3.033   0.533
  404SOL     OW18353   5.708   3.474   6.517
  404SOL    HW118354   5.731   3.398   6.463
  404SOL    HW218355   5.749   3.549   6.472
  405SOL     OW18356   5.545   2.350   0.371
  405SOL    HW118357   5.455   2.382   0.369
  405SOL    HW218358   5.592   2.408   0.310
  406SOL     OW18359   2.317   3.976   7.753
  406SOL    HW118360   2.341   3.926   7.831
  406SOL    HW218361   2.309   4.066   7.784
  407SOL     OW18362   2.731   0.979   7.456
  407SOL    HW118363   2.817   1.013   7.433
  407SOL    HW218364   2.708   0.920   7.385
  408SOL     OW18365   1.236   0.823   5.783
  408SOL    HW118366   1.183   0.858   5.711
  408SOL    HW218367   1.195   0.739   5.804
  409SOL     OW18368   4.139   0.662   0.227
  409SOL    HW118369   4.088   0.731   0.185
  409SOL    HW218370   4.122   0.584   0.173
  410SOL     OW18371   1.492   5.430   5.354
  410SOL    HW118372   1.477   5.472   5.269
  410SOL    HW218373   1.583   5.449   5.374
  411SOL     OW18374   0.629   2.306   7.473
  411SOL    HW118375   0.604   2.219   7.442
  411SOL    HW218376   0.546   2.348   7.495
  412SOL     OW18377   0.407   0.610   2.155
  412SOL    HW118378   0.494   0.599   2.117
  412SOL    HW218379   0.418   0.676   2.223
  413SOL     OW18380   0.724   0.098   6.256
  413SOL    HW118381   0.807   0.080   6.299
  413SOL    HW218382   0.741   0.086   6.163
  414SOL     OW18383   4.680   3.431   7.709
  414SOL    HW118384   4.662   3.512   7.660
  414SOL    HW218385   4.663   3.361   7.646
  415SOL     OW18386   3.374   2.748   7.669
  415SOL    HW118387   3.301   2.699   7.706
  415SOL    HW218388   3.439   2.682   7.646
  416SOL     OW18389   3.952   5.635   6.176
  416SOL    HW118390   3.926   5.711   6.227
  416SOL    HW218391   3.871   5.583   6.168
  417SOL     OW18392   0.713   3.183   5.833
  417SOL    HW118393   0.732   3.095   5.866
  417SOL    HW218394   0.664   3.167   5.753
  418SOL     OW18395   2.814   2.181   0.900
  418SOL    HW118396   2.831   2.273   0.880
  418SOL    HW218397   2.789   2.181   0.993
  419SOL     OW18398   0.108   1.252   5.758
  419SOL    HW118399   0.096   1.183   5.693
  419SOL    HW218400   0.087   1.333   5.711
  420SOL     OW18401   5.145   5.771   0.367
  420SOL    HW118402   5.073   5.774   0.431
  420SOL    HW218403   5.213   5.827   0.404
  421SOL     OW18404   4.483   4.861   2.018
  421SOL    HW118405   4.513   4.771   2.033
  421SOL    HW218406   4.431   4.856   1.937
  422SOL     OW18407   6.325   0.694   5.460
  422SOL    HW118408   6.366   0.755   5.523
  422SOL    HW218409   6.295   0.621   5.514
  423SOL     OW18410   0.690   1.698   5.456
  423SOL    HW118411   0.774   1.739   5.475
  423SOL    HW218412   0.674   1.716   5.364
  424SOL     OW18413   1.952   3.286   0.610
  424SOL    HW118414   1.953   3.380   0.629
  424SOL    HW218415   2.032   3.270   0.561
  425SOL     OW18416   3.371   2.954   7.485
  425SOL    HW118417   3.382   2.909   7.568
  425SOL    HW218418   3.460   2.962   7.450
  426SOL     OW18419   4.738   4.272   6.933
  426SOL    HW118420   4.714   4.357   6.896
  426SOL    HW218421   4.730   4.284   7.028
  427SOL     OW18422   0.504   0.901   5.707
  427SOL    HW118423   0.499   0.807   5.728
  427SOL    HW218424   0.454   0.910   5.627
  428SOL     OW18425   2.164   2.648   0.963
  428SOL    HW118426   2.202   2.585   1.024
  428SOL    HW218427   2.085   2.679   1.007
  429SOL     OW18428   5.518   0.086   1.326
  429SOL    HW118429   5.599   0.101   1.277
  429SOL    HW218430   5.542   0.098   1.418
  430SOL     OW18431   0.537   2.961   0.567
  430SOL    HW118432   0.614   2.918   0.605
  430SOL    HW218433   0.475   2.969   0.640
  431SOL     OW18434   3.832   1.225   6.437
  431SOL    HW118435   3.865   1.136   6.448
  431SOL    HW218436   3.875   1.257   6.357
  432SOL     OW18437   5.369   5.619   7.052
  432SOL    HW118438   5.438   5.675   7.087
  432SOL    HW218439   5.413   5.562   6.989
  433SOL     OW18440   0.283   5.831   0.448
  433SOL    HW118441   0.236   5.881   0.515
  433SOL    HW218442   0.224   5.832   0.372
  434SOL     OW18443   0.133   3.147   6.694
  434SOL    HW118444   0.196   3.187   6.635
  434SOL    HW218445   0.060   3.209   6.696
  435SOL     OW18446   4.760   6.096   0.158
  435SOL    HW118447   4.795   6.063   0.241
  435SOL    HW218448   4.665   6.083   0.165
  436SOL     OW18449   6.173   4.598   6.972
  436SOL    HW118450   6.215   4.627   6.890
  436SOL    HW218451   6.167   4.503   6.962
  437SOL     OW18452   1.909   3.547   5.556
  437SOL    HW118453   1.928   3.470   5.503
  437SOL    HW218454   1.982   3.606   5.540
  438SOL     OW18455   2.207   3.568   6.615
  438SOL    HW118456   2.215   3.526   6.529
  438SOL    HW218457   2.178   3.657   6.595
  439SOL     OW18458   1.659   0.696   6.658
  439SOL    HW118459   1.582   0.742   6.692
  439SOL    HW218460   1.707   0.762   6.608
  440SOL     OW18461   5.605   1.970   6.950
  440SOL    HW118462   5.543   1.901   6.926
  440SOL    HW218463   5.579   2.045   6.897
  441SOL     OW18464   4.717   4.870   0.532
  441SOL    HW118465   4.776   4.859   0.457
  441SOL    HW218466   4.774   4.861   0.608
  442SOL     OW18467   5.004   1.067   1.309
  442SOL    HW118468   5.077   1.018   1.344
  442SOL    HW218469   5.043   1.148   1.275
  443SOL     OW18470   4.121   4.037   0.729
  443SOL    HW118471   4.193   3.993   0.683
  443SOL    HW218472   4.156   4.122   0.753
  444SOL     OW18473   5.198   4.754   5.166
  444SOL    HW118474   5.178   4.660   5.173
  444SOL    HW218475   5.122   4.792   5.123
  445SOL     OW18476   5.100   0.488   0.474
  445SOL    HW118477   5.193   0.488   0.496
  445SOL    HW218478   5.055   0.485   0.559
  446SOL     OW18479   0.567   2.729   0.223
  446SOL    HW118480   0.564   2.723   0.128
  446SOL    HW218481   0.503   2.665   0.254
  447SOL     OW18482   2.716   0.500   0.999
  447SOL    HW118483   2.773   0.444   0.946
  447SOL    HW218484   2.752   0.493   1.088
  448SOL     OW18485   0.616   5.266   7.778
  448SOL    HW118486   0.662   5.321   7.715
  448SOL    HW218487   0.594   5.187   7.729
  449SOL     OW18488   3.034   4.904   0.942
  449SOL    HW118489   3.085   4.905   0.861
  449SOL    HW218490   2.979   4.826   0.934
  450SOL     OW18491   3.766   1.921   0.663
  450SOL    HW118492   3.840   1.980   0.652
  450SOL    HW218493   3.699   1.955   0.603
  451SOL     OW18494   3.322   2.841   6.338
  451SOL    HW118495   3.307   2.797   6.422
  451SOL    HW218496   3.268   2.920   6.343
  452SOL     OW18497   2.476   3.393   0.718
  452SOL    HW118498   2.537   3.350   0.778
  452SOL    HW218499   2.397   3.405   0.770
  453SOL     OW18500   2.671   4.523   1.838
  453SOL    HW118501   2.662   4.432   1.867
  453SOL    HW218502   2.667   4.574   1.919
  454SOL     OW18503   0.899   3.034   6.764
  454SOL    HW118504   0.817   2.992   6.791
  454SOL    HW218505   0.905   3.017   6.670
  455SOL     OW18506   4.213   4.233   0.512
  455SOL    HW118507   4.216   4.239   0.607
  455SOL    HW218508   4.302   4.207   0.487
  456SOL     OW18509   4.101   1.804   0.263
  456SOL    HW118510   4.029   1.775   0.320
  456SOL    HW218511   4.109   1.898   0.280
  457SOL     OW18512   5.850   2.428   7.688
  457SOL    HW118513   5.914   2.359   7.706
  457SOL    HW218514   5.862   2.491   7.759
  458SOL     OW18515   2.185   1.948   0.455
  458SOL    HW118516   2.139   1.899   0.523
  458SOL    HW218517   2.210   1.881   0.391
  459SOL     OW18518   5.947   4.839   1.133
  459SOL    HW118519   5.996   4.775   1.082
  459SOL    HW218520   5.916   4.903   1.069
  460SOL     OW18521   5.006   6.407   0.615
  460SOL    HW118522   5.084   6.395   0.560
  460SOL    HW218523   4.960   6.480   0.575
  461SOL     OW18524   4.554   4.229   7.656
  461SOL    HW118525   4.534   4.313   7.614
  461SOL    HW218526   4.567   4.251   7.748
  462SOL     OW18527   4.253   6.404   7.775
  462SOL    HW118528   4.306   6.392   7.854
  462SOL    HW218529   4.174   6.352   7.791
  463SOL     OW18530   5.968   5.368   7.130
  463SOL    HW118531   5.877   5.361   7.158
  463SOL    HW218532   5.982   5.289   7.078
  464SOL     OW18533   0.677   6.199   5.395
  464SOL    HW118534   0.624   6.278   5.405
  464SOL    HW218535   0.732   6.217   5.318
  465SOL     OW18536   3.925   5.863   6.620
  465SOL    HW118537   3.994   5.920   6.655
  465SOL    HW218538   3.847   5.886   6.670
  466SOL     OW18539   4.608   5.596   1.805
  466SOL    HW118540   4.595   5.649   1.883
  466SOL    HW218541   4.535   5.534   1.806
  467SOL     OW18542   0.344   0.809   0.413
  467SOL    HW118543   0.253   0.796   0.389
  467SOL    HW218544   0.368   0.892   0.370
  468SOL     OW18545   2.634   3.633   6.472
  468SOL    HW118546   2.645   3.724   6.500
  468SOL    HW218547   2.662   3.581   6.548
  469SOL     OW18548   4.324   6.316   6.326
  469SOL    HW118549   4.230   6.333   6.318
  469SOL    HW218550   4.349   6.275   6.243
  470SOL     OW18551   1.442   4.312   6.338
  470SOL    HW118552   1.445   4.227   6.381
  470SOL    HW218553   1.389   4.298   6.260
  471SOL     OW18554   2.147   6.030   6.369
  471SOL    HW118555   2.106   5.956   6.415
  471SOL    HW218556   2.075   6.092   6.354
  472SOL     OW18557   2.943   0.962   6.073
  472SOL    HW118558   2.938   1.017   5.995
  472SOL    HW218559   2.952   1.024   6.145
  473SOL     OW18560   6.315   6.255   2.095
  473SOL    HW118561   6.317   6.191   2.166
  473SOL    HW218562   6.223   6.280   2.087
  474SOL     OW18563   4.085   5.822   5.779
  474SOL    HW118564   4.169   5.867   5.778
  474SOL    HW218565   4.074   5.789   5.690
  475SOL     OW18566   4.941   5.573   2.484
  475SOL    HW118567   4.846   5.582   2.490
  475SOL    HW218568   4.961   5.500   2.543
  476SOL     OW18569   3.401   0.024   5.938
  476SOL    HW118570   3.377  -0.066   5.958
  476SOL    HW218571   3.448   0.018   5.854
  477SOL     OW18572   0.649   3.779   0.526
  477SOL    HW118573   0.715   3.761   0.592
  477SOL    HW218574   0.608   3.694   0.508
  478SOL     OW18575   6.189   5.230   6.216
  478SOL    HW118576   6.171   5.204   6.306
  478SOL    HW218577   6.117   5.288   6.193
  479SOL     OW18578   0.942   5.141   6.075
  479SOL    HW118579   0.955   5.049   6.097
  479SOL    HW218580   0.912   5.181   6.157
  480SOL     OW18581   2.115   6.291   0.883
  480SOL    HW118582   2.100   6.206   0.923
  480SOL    HW218583   2.046   6.347   0.918
  481SOL     OW18584   5.553   0.910   0.286
  481SOL    HW118585   5.612   0.837   0.302
  481SOL    HW218586   5.480   0.897   0.347
  482SOL     OW18587   1.619   1.251   1.860
  482SOL    HW118588   1.588   1.337   1.831
  482SOL    HW218589   1.713   1.262   1.875
  483SOL     OW18590   3.710   4.756   0.845
  483SOL    HW118591   3.721   4.851   0.847
  483SOL    HW218592   3.629   4.740   0.894
  484SOL     OW18593   2.788   5.351   6.286
  484SOL    HW118594   2.766   5.273   6.236
  484SOL    HW218595   2.705   5.379   6.324
  485SOL     OW18596   0.279   1.261   7.606
  485SOL    HW118597   0.280   1.166   7.596
  485SOL    HW218598   0.218   1.291   7.539
  486SOL     OW18599   4.061   3.604   0.159
  486SOL    HW118600   4.105   3.660   0.222
  486SOL    HW218601   3.976   3.645   0.144
  487SOL     OW18602   0.772   0.331   1.506
  487SOL    HW118603   0.809   0.394   1.569
  487SOL    HW218604   0.826   0.340   1.428
  488SOL     OW18605   0.936   5.380   5.453
  488SOL    HW118606   0.865   5.406   5.394
  488SOL    HW218607   1.016   5.395   5.403
  489SOL     OW18608   2.418   1.197   5.730
  489SOL    HW118609   2.468   1.158   5.802
  489SOL    HW218610   2.347   1.135   5.713
  490SOL     OW18611   0.378   1.857   7.293
  490SOL    HW118612   0.330   1.861   7.376
  490SOL    HW218613   0.443   1.927   7.299
  491SOL     OW18614   0.257   2.923   5.464
  491SOL    HW118615   0.274   2.832   5.437
  491SOL    HW218616   0.163   2.934   5.450
  492SOL     OW18617   5.664   4.342   0.571
  492SOL    HW118618   5.668   4.437   0.580
  492SOL    HW218619   5.619   4.328   0.487
  493SOL     OW18620   1.816   6.400   0.840
  493SOL    HW118621   1.812   6.346   0.762
  493SOL    HW218622   1.770   6.480   0.817
  494SOL     OW18623   3.671   3.799   0.965
  494SOL    HW118624   3.672   3.744   1.043
  494SOL    HW218625   3.676   3.736   0.892
  495SOL     OW18626   4.308   2.164   6.116
  495SOL    HW118627   4.267   2.243   6.081
  495SOL    HW218628   4.337   2.189   6.204
  496SOL     OW18629   6.343   1.502   1.619
  496SOL    HW118630   6.296   1.445   1.680
  496SOL    HW218631   6.283   1.514   1.546
  497SOL     OW18632   3.406   2.729   6.079
  497SOL    HW118633   3.341   2.739   6.149
  497SOL    HW218634   3.360   2.758   6.000
  498SOL     OW18635   5.064   2.746   7.329
  498SOL    HW118636   5.057   2.803   7.253
  498SOL    HW218637   5.022   2.664   7.301
  499SOL     OW18638   6.061   3.683   7.193
  499SOL    HW118639   6.115   3.620   7.145
  499SOL    HW218640   5.983   3.633   7.219
  500SOL     OW18641   4.969   0.023   1.459
  500SOL    HW118642   4.964   0.073   1.540
  500SOL    HW218643   4.995  -0.065   1.487
  501SOL     OW18644   4.094   2.126   1.910
  501SOL    HW118645   4.067   2.188   1.842
  501SOL    HW218646   4.015   2.075   1.929
  502SOL     OW18647   3.971   1.955   0.987
  502SOL    HW118648   3.922   1.902   0.924
  502SOL    HW218649   4.009   1.892   1.047
  503SOL     OW18650   3.518   0.437   7.151
  503SOL    HW118651   3.468   0.420   7.072
  503SOL    HW218652   3.522   0.353   7.196
  504SOL     OW18653   6.310   2.721   7.040
  504SOL    HW118654   6.342   2.663   7.108
  504SOL    HW218655   6.304   2.666   6.962
  505SOL     OW18656   3.000   3.369   5.565
  505SOL    HW118657   2.912   3.341   5.592
  505SOL    HW218658   3.021   3.314   5.490
  506SOL     OW18659   0.733   5.451   7.294
  506SOL    HW118660   0.786   5.429   7.217
  506SOL    HW218661   0.684   5.371   7.313
  507SOL     OW18662   4.224   1.237   1.230
  507SOL    HW118663   4.217   1.319   1.280
  507SOL    HW218664   4.317   1.217   1.229
  508SOL     OW18665   0.866   4.764   0.302
  508SOL    HW118666   0.883   4.797   0.214
  508SOL    HW218667   0.789   4.708   0.293
  509SOL     OW18668   5.068   2.818   0.617
  509SOL    HW118669   4.976   2.808   0.640
  509SOL    HW218670   5.070   2.888   0.552
  510SOL     OW18671   4.659   5.094   2.045
  510SOL    HW118672   4.722   5.028   2.015
  510SOL    HW218673   4.574   5.052   2.033
  511SOL     OW18674   3.463   3.572   0.812
  511SOL    HW118675   3.425   3.602   0.895
  511SOL    HW218676   3.503   3.488   0.834
  512SOL     OW18677   4.630   5.232   6.328
  512SOL    HW118678   4.586   5.306   6.287
  512SOL    HW218679   4.700   5.208   6.267
  513SOL     OW18680   4.889   1.485   7.601
  513SOL    HW118681   4.841   1.424   7.545
  513SOL    HW218682   4.875   1.571   7.561
  514SOL     OW18683   3.413   1.355   1.509
  514SOL    HW118684   3.392   1.266   1.537
  514SOL    HW218685   3.476   1.344   1.438
  515SOL     OW18686   4.353   5.425   6.495
  515SOL    HW118687   4.307   5.429   6.411
  515SOL    HW218688   4.351   5.516   6.527
  516SOL     OW18689   0.348   4.144   6.487
  516SOL    HW118690   0.287   4.207   6.525
  516SOL    HW218691   0.358   4.172   6.396
  517SOL     OW18692   2.556   3.324   7.300
  517SOL    HW118693   2.500   3.369   7.363
  517SOL    HW218694   2.627   3.288   7.353
  518SOL     OW18695   1.314   0.665   7.423
  518SOL    HW118696   1.371   0.601   7.382
  518SOL    HW218697   1.266   0.617   7.490
  519SOL     OW18698   3.017   2.767   7.138
  519SOL    HW118699   3.073   2.705   7.184
  519SOL    HW218700   3.044   2.853   7.171
  520SOL     OW18701   4.095   2.600   7.846
  520SOL    HW118702   4.145   2.626   7.924
  520SOL    HW218703   4.004   2.620   7.870
  521SOL     OW18704   5.336   5.163   6.512
  521SOL    HW118705   5.312   5.138   6.423
  521SOL    HW218706   5.432   5.167   6.511
  522SOL     OW18707   3.257   6.396   0.471
  522SOL    HW118708   3.232   6.304   0.476
  522SOL    HW218709   3.249   6.418   0.378
  523SOL     OW18710   5.120   3.853   6.764
  523SOL    HW118711   5.193   3.871   6.823
  523SOL    HW218712   5.151   3.880   6.677
  524SOL     OW18713   4.657   4.504   6.808
  524SOL    HW118714   4.729   4.566   6.808
  524SOL    HW218715   4.609   4.521   6.727
  525SOL     OW18716   0.787   6.194   7.373
  525SOL    HW118717   0.808   6.113   7.420
  525SOL    HW218718   0.824   6.263   7.428
  526SOL     OW18719   5.691   0.817   0.795
  526SOL    HW118720   5.740   0.838   0.875
  526SOL    HW218721   5.759   0.801   0.729
  527SOL     OW18722   1.681   1.541   0.185
  527SOL    HW118723   1.674   1.614   0.246
  527SOL    HW218724   1.759   1.493   0.212
  528SOL     OW18725   4.820   4.011   7.209
  528SOL    HW118726   4.839   4.104   7.222
  528SOL    HW218727   4.842   3.995   7.117
  529SOL     OW18728   4.035   2.486   7.596
  529SOL    HW118729   4.075   2.509   7.679
  529SOL    HW218730   4.038   2.566   7.545
  530SOL     OW18731   3.574   2.964   0.786
  530SOL    HW118732   3.580   2.901   0.715
  530SOL    HW218733   3.634   3.034   0.761
  531SOL     OW18734   4.663   0.250   1.481
  531SOL    HW118735   4.573   0.223   1.501
  531SOL    HW218736   4.695   0.289   1.562
  532SOL     OW18737   4.959   0.867   0.315
  532SOL    HW118738   5.043   0.829   0.289
  532SOL    HW218739   4.982   0.946   0.364
  533SOL     OW18740   6.013   4.151   0.982
  533SOL    HW118741   6.096   4.198   0.988
  533SOL    HW218742   5.948   4.218   0.962
  534SOL     OW18743   2.948   1.732   5.310
  534SOL    HW118744   2.881   1.763   5.372
  534SOL    HW218745   2.898   1.693   5.238
  535SOL     OW18746   3.686   0.549   7.866
  535SOL    HW118747   3.646   0.561   7.952
  535SOL    HW218748   3.627   0.489   7.820
  536SOL     OW18749   1.005   0.819   0.164
  536SOL    HW118750   1.056   0.753   0.211
  536SOL    HW218751   0.915   0.807   0.196
  537SOL     OW18752   1.653   1.944   5.254
  537SOL    HW118753   1.577   1.918   5.203
  537SOL    HW218754   1.683   1.864   5.296
  538SOL     OW18755   2.387   5.127   5.834
  538SOL    HW118756   2.477   5.154   5.815
  538SOL    HW218757   2.396   5.065   5.906
  539SOL     OW18758   3.979   1.636   2.405
  539SOL    HW118759   3.898   1.683   2.425
  539SOL    HW218760   4.048   1.701   2.416
  540SOL     OW18761   0.462   0.758   7.340
  540SOL    HW118762   0.504   0.797   7.264
  540SOL    HW218763   0.400   0.694   7.304
  541SOL     OW18764   4.845   1.176   5.526
  541SOL    HW118765   4.812   1.253   5.479
  541SOL    HW218766   4.773   1.152   5.585
  542SOL     OW18767   3.014   1.629   6.157
  542SOL    HW118768   3.016   1.574   6.235
  542SOL    HW218769   3.097   1.676   6.159
  543SOL     OW18770   0.836   3.949   6.519
  543SOL    HW118771   0.818   3.856   6.503
  543SOL    HW218772   0.750   3.991   6.512
  544SOL     OW18773   4.036   3.494   6.565
  544SOL    HW118774   4.039   3.451   6.479
  544SOL    HW218775   4.122   3.477   6.604
  545SOL     OW18776   1.823   1.058   6.946
  545SOL    HW118777   1.882   1.016   6.884
  545SOL    HW218778   1.757   0.992   6.965
  546SOL     OW18779   2.776   2.976   1.394
  546SOL    HW118780   2.745   3.061   1.360
  546SOL    HW218781   2.766   2.983   1.488
  547SOL     OW18782   1.936   1.649   1.005
  547SOL    HW118783   1.963   1.569   0.960
  547SOL    HW218784   1.971   1.640   1.094
  548SOL     OW18785   1.685   2.603   1.761
  548SOL    HW118786   1.703   2.653   1.841
  548SOL    HW218787   1.768   2.604   1.713
  549SOL     OW18788   3.995   2.420   0.779
  549SOL    HW118789   3.918   2.379   0.819
  549SOL    HW218790   3.959   2.485   0.719
  550SOL     OW18791   1.132   5.582   6.583
  550SOL    HW118792   1.214   5.629   6.575
  550SOL    HW218793   1.124   5.532   6.502
  551SOL     OW18794   5.497   0.227   6.929
  551SOL    HW118795   5.578   0.178   6.939
  551SOL    HW218796   5.465   0.206   6.841
  552SOL     OW18797   0.228   1.918   6.150
  552SOL    HW118798   0.282   1.878   6.218
  552SOL    HW218799   0.222   1.851   6.082
  553SOL     OW18800   0.502   5.509   6.888
  553SOL    HW118801   0.557   5.565   6.944
  553SOL    HW218802   0.503   5.552   6.803
  554SOL     OW18803   3.177   0.499   7.539
  554SOL    HW118804   3.237   0.510   7.612
  554SOL    HW218805   3.156   0.588   7.511
  555SOL     OW18806   5.398   2.743   0.277
  555SOL    HW118807   5.410   2.700   0.361
  555SOL    HW218808   5.303   2.745   0.264
  556SOL     OW18809   5.855   0.875   7.314
  556SOL    HW118810   5.876   0.943   7.379
  556SOL    HW218811   5.769   0.900   7.281
  557SOL     OW18812   3.137   1.924   7.472
  557SOL    HW118813   3.211   1.942   7.413
  557SOL    HW218814   3.178   1.913   7.558
  558SOL     OW18815   5.864   0.930   0.248
  558SOL    HW118816   5.864   0.980   0.329
  558SOL    HW218817   5.954   0.897   0.239
  559SOL     OW18818   5.232   2.882   0.069
  559SOL    HW118819   5.171   2.818   0.032
  559SOL    HW218820   5.274   2.922  -0.008
  560SOL     OW18821   2.996   3.520   6.451
  560SOL    HW118822   2.903   3.505   6.464
  560SOL    HW218823   3.014   3.482   6.364
  561SOL     OW18824   3.158   3.289   1.849
  561SOL    HW118825   3.092   3.267   1.915
  561SOL    HW218826   3.211   3.357   1.890
  562SOL     OW18827   2.911   0.232   0.373
  562SOL    HW118828   2.988   0.181   0.400
  562SOL    HW218829   2.840   0.200   0.429
  563SOL     OW18830   4.981   0.319   7.233
  563SOL    HW118831   4.922   0.257   7.275
  563SOL    HW218832   5.023   0.268   7.164
  564SOL     OW18833   4.835   3.070   7.745
  564SOL    HW118834   4.863   3.155   7.711
  564SOL    HW218835   4.857   3.008   7.675
  565SOL     OW18836   4.924   3.218   1.014
  565SOL    HW118837   5.001   3.265   0.981
  565SOL    HW218838   4.957   3.131   1.038
  566SOL     OW18839   5.495   5.740   0.960
  566SOL    HW118840   5.477   5.834   0.965
  566SOL    HW218841   5.590   5.733   0.970
  567SOL     OW18842   5.323   1.235   2.084
  567SOL    HW118843   5.272   1.181   2.024
  567SOL    HW218844   5.373   1.172   2.136
  568SOL     OW18845   5.873   2.419   6.132
  568SOL    HW118846   5.884   2.356   6.061
  568SOL    HW218847   5.778   2.429   6.142
  569SOL     OW18848   3.596   0.289   7.792
  569SOL    HW118849   3.587   0.235   7.870
  569SOL    HW218850   3.517   0.272   7.741
  570SOL     OW18851   3.502   0.077   6.459
  570SOL    HW118852   3.532   0.120   6.379
  570SOL    HW218853   3.579   0.077   6.516
  571SOL     OW18854   1.042   2.542   7.424
  571SOL    HW118855   1.067   2.527   7.516
  571SOL    HW218856   1.099   2.483   7.375
  572SOL     OW18857   6.064   4.565   5.928
  572SOL    HW118858   5.993   4.518   5.972
  572SOL    HW218859   6.073   4.519   5.844
  573SOL     OW18860   2.479   3.158   6.589
  573SOL    HW118861   2.488   3.247   6.622
  573SOL    HW218862   2.412   3.164   6.521
  574SOL     OW18863   1.948   4.477   6.227
  574SOL    HW118864   1.856   4.504   6.235
  574SOL    HW218865   1.969   4.487   6.134
  575SOL     OW18866   5.034   3.164   6.930
  575SOL    HW118867   5.021   3.230   6.862
  575SOL    HW218868   4.972   3.095   6.908
  576SOL     OW18869   0.235   4.181   7.491
  576SOL    HW118870   0.211   4.199   7.400
  576SOL    HW218871   0.317   4.229   7.503
  577SOL     OW18872   0.067   5.223   1.095
  577SOL    HW118873   0.070   5.181   1.181
  577SOL    HW218874   0.130   5.296   1.102
  578SOL     OW18875   4.244   3.194   7.867
  578SOL    HW118876   4.257   3.224   7.777
  578SOL    HW218877   4.224   3.274   7.915
  579SOL     OW18878   5.798   4.025   1.558
  579SOL    HW118879   5.878   3.974   1.545
  579SOL    HW218880   5.826   4.103   1.605
  580SOL     OW18881   2.299   4.843   0.760
  580SOL    HW118882   2.274   4.752   0.745
  580SOL    HW218883   2.260   4.864   0.845
  581SOL     OW18884   5.513   5.061   6.866
  581SOL    HW118885   5.428   5.089   6.832
  581SOL    HW218886   5.494   5.030   6.955
  582SOL     OW18887   5.862   0.696   0.628
  582SOL    HW118888   5.890   0.605   0.634
  582SOL    HW218889   5.815   0.701   0.544
  583SOL     OW18890   2.423   4.366   6.970
  583SOL    HW118891   2.474   4.307   7.026
  583SOL    HW218892   2.399   4.438   7.028
  584SOL     OW18893   5.899   0.470   0.306
  584SOL    HW118894   5.896   0.467   0.401
  584SOL    HW218895   5.850   0.392   0.279
  585SOL     OW18896   2.215   4.457   0.186
  585SOL    HW118897   2.156   4.382   0.194
  585SOL    HW218898   2.262   4.458   0.270
  586SOL     OW18899   1.681   1.630   7.452
  586SOL    HW118900   1.592   1.648   7.420
  586SOL    HW218901   1.668   1.566   7.523
  587SOL     OW18902   6.111   0.246   7.694
  587SOL    HW118903   6.169   0.318   7.717
  587SOL    HW218904   6.059   0.279   7.621
  588SOL     OW18905   4.681   4.532   7.296
  588SOL    HW118906   4.666   4.623   7.268
  588SOL    HW218907   4.683   4.537   7.391
  589SOL     OW18908   6.297   5.455   1.354
  589SOL    HW118909   6.376   5.507   1.345
  589SOL    HW218910   6.227   5.519   1.368
  590SOL     OW18911   3.221   1.820   6.195
  590SOL    HW118912   3.196   1.910   6.216
  590SOL    HW218913   3.265   1.827   6.110
  591SOL     OW18914   0.115   0.460   1.045
  591SOL    HW118915   0.135   0.524   1.114
  591SOL    HW218916   0.165   0.382   1.070
  592SOL     OW18917   0.038   4.115   7.687
  592SOL    HW118918   0.118   4.145   7.644
  592SOL    HW218919  -0.024   4.188   7.678
  593SOL     OW18920   2.339   4.846   7.699
  593SOL    HW118921   2.408   4.797   7.743
  593SOL    HW218922   2.261   4.833   7.753
  594SOL     OW18923   5.713   4.752   0.290
  594SOL    HW118924   5.674   4.839   0.294
  594SOL    HW218925   5.706   4.719   0.380
  595SOL     OW18926   3.107   3.738   2.110
  595SOL    HW118927   3.042   3.742   2.180
  595SOL    HW218928   3.115   3.828   2.079
  596SOL     OW18929   2.665   4.195   0.744
  596SOL    HW118930   2.696   4.104   0.752
  596SOL    HW218931   2.683   4.234   0.830
  597SOL     OW18932   0.734   1.445   0.424
  597SOL    HW118933   0.734   1.375   0.489
  597SOL    HW218934   0.762   1.403   0.343
  598SOL     OW18935   0.101   4.033   6.071
  598SOL    HW118936   0.007   4.031   6.086
  598SOL    HW218937   0.110   4.033   5.976
  599SOL     OW18938   5.931   2.768   6.768
  599SOL    HW118939   5.976   2.736   6.846
  599SOL    HW218940   5.932   2.694   6.707
  600SOL     OW18941   1.572   5.659   1.481
  600SOL    HW118942   1.623   5.617   1.551
  600SOL    HW218943   1.564   5.750   1.508
  601SOL     OW18944   4.106   2.952   7.815
  601SOL    HW118945   4.130   2.934   7.724
  601SOL    HW218946   4.121   3.045   7.827
  602SOL     OW18947   4.909   4.709   1.213
  602SOL    HW118948   4.971   4.688   1.283
  602SOL    HW218949   4.954   4.776   1.161
  603SOL     OW18950   4.763   4.922   7.332
  603SOL    HW118951   4.728   4.843   7.291
  603SOL    HW218952   4.857   4.905   7.340
  604SOL     OW18953   4.223   3.209   1.383
  604SOL    HW118954   4.276   3.251   1.450
  604SOL    HW218955   4.178   3.138   1.428
  605SOL     OW18956   4.023   3.926   6.840
  605SOL    HW118957   3.980   3.871   6.906
  605SOL    HW218958   3.994   3.890   6.756
  606SOL     OW18959   2.755   5.012   7.859
  606SOL    HW118960   2.743   5.066   7.781
  606SOL    HW218961   2.684   4.948   7.854
  607SOL     OW18962   5.919   3.813   7.456
  607SOL    HW118963   5.940   3.735   7.508
  607SOL    HW218964   6.003   3.856   7.441
  608SOL     OW18965   2.313   0.793   1.272
  608SOL    HW118966   2.324   0.737   1.349
  608SOL    HW218967   2.361   0.873   1.293
  609SOL     OW18968   5.819   5.266   0.512
  609SOL    HW118969   5.855   5.178   0.506
  609SOL    HW218970   5.888   5.317   0.554
  610SOL     OW18971   3.164   2.537   7.238
  610SOL    HW118972   3.085   2.484   7.239
  610SOL    HW218973   3.231   2.480   7.198
  611SOL     OW18974   2.975   2.162   7.057
  611SOL    HW118975   2.940   2.235   7.108
  611SOL    HW218976   2.978   2.089   7.120
  612SOL     OW18977   2.356   0.111   1.560
  612SOL    HW118978   2.342   0.088   1.469
  612SOL    HW218979   2.309   0.194   1.571
  613SOL     OW18980   5.260   0.187   6.252
  613SOL    HW118981   5.296   0.220   6.170
  613SOL    HW218982   5.187   0.130   6.226
  614SOL     OW18983   5.972   0.043   7.800
  614SOL    HW118984   6.023   0.117   7.767
  614SOL    HW218985   6.032  -0.031   7.797
  615SOL     OW18986   6.001   2.024   6.210
  615SOL    HW118987   5.946   1.977   6.147
  615SOL    HW218988   6.020   1.960   6.278
  616SOL     OW18989   4.536   6.289   6.480
  616SOL    HW118990   4.463   6.327   6.432
  616SOL    HW218991   4.582   6.235   6.416
  617SOL     OW18992   3.667   0.972   6.114
  617SOL    HW118993   3.611   0.915   6.165
  617SOL    HW218994   3.610   1.007   6.045
  618SOL     OW18995   0.922   4.881   5.176
  618SOL    HW118996   0.958   4.968   5.188
  618SOL    HW218997   0.922   4.842   5.264
  619SOL     OW18998   5.826   1.681   5.249
  619SOL    HW118999   5.852   1.769   5.276
  619SOL    HW219000   5.768   1.695   5.175
  620SOL     OW19001   5.411   6.039   0.991
  620SOL    HW119002   5.445   6.091   1.064
  620SOL    HW219003   5.418   6.098   0.915
  621SOL     OW19004   5.849   0.088   5.537
  621SOL    HW119005   5.899   0.164   5.567
  621SOL    HW219006   5.895   0.013   5.575
  622SOL     OW19007   0.006   4.110   4.574
  622SOL    HW119008   0.064   4.152   4.510
  622SOL    HW219009   0.065   4.061   4.631
  623SOL     OW19010   0.449   3.376   0.721
  623SOL    HW119011   0.386   3.305   0.713
  623SOL    HW219012   0.462   3.408   0.632
  624SOL     OW19013   5.956   4.866   4.985
  624SOL    HW119014   5.923   4.777   5.001
  624SOL    HW219015   5.969   4.870   4.890
  625SOL     OW19016   3.218   3.688   7.461
  625SOL    HW119017   3.280   3.690   7.533
  625SOL    HW219018   3.249   3.618   7.404
  626SOL     OW19019   5.696   0.612   6.343
  626SOL    HW119020   5.648   0.624   6.425
  626SOL    HW219021   5.629   0.614   6.276
  627SOL     OW19022   4.978   4.773   6.568
  627SOL    HW119023   4.890   4.744   6.543
  627SOL    HW219024   4.973   4.869   6.564
  628SOL     OW19025   5.845   3.674   6.405
  628SOL    HW119026   5.850   3.736   6.333
  628SOL    HW219027   5.931   3.680   6.448
  629SOL     OW19028   2.870   2.681   6.791
  629SOL    HW119029   2.823   2.680   6.874
  629SOL    HW219030   2.829   2.613   6.738
  630SOL     OW19031   3.366   2.761   5.794
  630SOL    HW119032   3.452   2.719   5.793
  630SOL    HW219033   3.310   2.703   5.743
  631SOL     OW19034   1.943   3.959   5.455
  631SOL    HW119035   1.894   3.946   5.536
  631SOL    HW219036   2.034   3.939   5.478
  632SOL     OW19037   3.161   1.161   6.091
  632SOL    HW119038   3.221   1.228   6.060
  632SOL    HW219039   3.080   1.176   6.043
  633SOL     OW19040   5.896   2.986   0.766
  633SOL    HW119041   5.870   3.054   0.705
  633SOL    HW219042   5.813   2.954   0.803
  634SOL     OW19043   1.299   1.231   0.264
  634SOL    HW119044   1.340   1.147   0.287
  634SOL    HW219045   1.348   1.296   0.314
  635SOL     OW19046   1.300   4.512   0.506
  635SOL    HW119047   1.236   4.581   0.489
  635SOL    HW219048   1.248   4.432   0.514
  636SOL     OW19049   3.206   4.134   0.527
  636SOL    HW119050   3.127   4.090   0.495
  636SOL    HW219051   3.195   4.226   0.502
  637SOL     OW19052   3.995   4.490   0.815
  637SOL    HW119053   3.925   4.440   0.773
  637SOL    HW219054   3.990   4.576   0.774
  638SOL     OW19055   2.967   6.038   6.985
  638SOL    HW119056   2.985   6.126   7.018
  638SOL    HW219057   2.994   6.041   6.894
  639SOL     OW19058   4.750   2.193   7.314
  639SOL    HW119059   4.655   2.204   7.305
  639SOL    HW219060   4.787   2.238   7.238
  640SOL     OW19061   0.780   4.287   7.131
  640SOL    HW119062   0.867   4.328   7.133
  640SOL    HW219063   0.771   4.246   7.217
  641SOL     OW19064   0.101   4.714   0.804
  641SOL    HW119065   0.129   4.640   0.750
  641SOL    HW219066   0.133   4.693   0.892
  642SOL     OW19067   4.765   1.414   1.277
  642SOL    HW119068   4.748   1.320   1.288
  642SOL    HW219069   4.822   1.437   1.351
  643SOL     OW19070   3.324   1.008   0.719
  643SOL    HW119071   3.385   0.936   0.706
  643SOL    HW219072   3.269   0.980   0.792
  644SOL     OW19073   0.238   1.441   5.188
  644SOL    HW119074   0.278   1.513   5.140
  644SOL    HW219075   0.195   1.388   5.120
  645SOL     OW19076   4.019   6.308   7.524
  645SOL    HW119077   3.996   6.274   7.610
  645SOL    HW219078   4.025   6.403   7.537
  646SOL     OW19079   0.795   1.666   7.331
  646SOL    HW119080   0.774   1.595   7.391
  646SOL    HW219081   0.728   1.732   7.349
  647SOL     OW19082   2.887   2.938   7.620
  647SOL    HW119083   2.969   2.928   7.572
  647SOL    HW219084   2.826   2.878   7.577
  648SOL     OW19085   1.468   1.864   6.260
  648SOL    HW119086   1.513   1.782   6.239
  648SOL    HW219087   1.403   1.874   6.190
  649SOL     OW19088   5.203   0.055   1.322
  649SOL    HW119089   5.197   0.087   1.232
  649SOL    HW219090   5.115   0.069   1.358
  650SOL     OW19091   1.973   6.156   7.409
  650SOL    HW119092   2.069   6.154   7.407
  650SOL    HW219093   1.950   6.248   7.416
  651SOL     OW19094   5.715   6.252   1.420
  651SOL    HW119095   5.699   6.346   1.429
  651SOL    HW219096   5.738   6.240   1.328
  652SOL     OW19097   5.588   4.750   5.808
  652SOL    HW119098   5.567   4.838   5.778
  652SOL    HW219099   5.599   4.698   5.728
  653SOL     OW19100   1.052   3.753   5.647
  653SOL    HW119101   1.138   3.765   5.608
  653SOL    HW219102   1.016   3.677   5.600
  654SOL     OW19103   3.702   0.199   7.500
  654SOL    HW119104   3.773   0.259   7.523
  654SOL    HW219105   3.718   0.121   7.553
  655SOL     OW19106   3.538   3.463   7.135
  655SOL    HW119107   3.541   3.469   7.040
  655SOL    HW219108   3.542   3.554   7.166
  656SOL     OW19109   2.457   5.097   1.308
  656SOL    HW119110   2.440   5.131   1.395
  656SOL    HW219111   2.553   5.088   1.304
  657SOL     OW19112   5.069   5.974   0.932
  657SOL    HW119113   5.117   6.001   1.011
  657SOL    HW219114   5.014   5.901   0.961
  658SOL     OW19115   3.969   6.200   1.526
  658SOL    HW119116   3.956   6.217   1.620
  658SOL    HW219117   4.064   6.197   1.515
  659SOL     OW19118   1.522   4.458   7.285
  659SOL    HW119119   1.596   4.449   7.225
  659SOL    HW219120   1.540   4.395   7.355
  660SOL     OW19121   6.107   4.927   0.232
  660SOL    HW119122   6.169   4.997   0.253
  660SOL    HW219123   6.063   4.956   0.153
  661SOL     OW19124   3.059   0.706   5.775
  661SOL    HW119125   3.046   0.611   5.769
  661SOL    HW219126   3.006   0.741   5.703
  662SOL     OW19127   2.012   2.038   6.868
  662SOL    HW119128   1.994   1.947   6.891
  662SOL    HW219129   2.005   2.041   6.773
  663SOL     OW19130   0.090   1.617   7.316
  663SOL    HW119131   0.142   1.663   7.382
  663SOL    HW219132   0.065   1.685   7.254
  664SOL     OW19133   3.676   5.044   0.848
  664SOL    HW119134   3.761   5.088   0.844
  664SOL    HW219135   3.613   5.110   0.822
  665SOL     OW19136   3.735   1.339   0.772
  665SOL    HW119137   3.645   1.316   0.751
  665SOL    HW219138   3.778   1.351   0.687
  666SOL     OW19139   3.843   3.884   7.711
  666SOL    HW119140   3.862   3.958   7.769
  666SOL    HW219141   3.851   3.920   7.623
  667SOL     OW19142   3.431   2.042   6.838
  667SOL    HW119143   3.345   2.016   6.870
  667SOL    HW219144   3.413   2.112   6.774
  668SOL     OW19145   5.167   4.755   6.264
  668SOL    HW119146   5.222   4.808   6.322
  668SOL    HW219147   5.218   4.747   6.184
  669SOL     OW19148   5.595   2.317   7.780
  669SOL    HW119149   5.677   2.348   7.742
  669SOL    HW219150   5.608   2.323   7.875
  670SOL     OW19151   5.696   5.778   0.238
  670SOL    HW119152   5.633   5.733   0.182
  670SOL    HW219153   5.782   5.751   0.205
  671SOL     OW19154   6.060   3.927   1.172
  671SOL    HW119155   6.104   3.848   1.140
  671SOL    HW219156   6.070   3.990   1.101
  672SOL     OW19157   2.000   6.004   5.592
  672SOL    HW119158   1.960   6.071   5.536
  672SOL    HW219159   1.928   5.975   5.649
  673SOL     OW19160   3.320   3.196   5.521
  673SOL    HW119161   3.309   3.178   5.614
  673SOL    HW219162   3.238   3.166   5.480
  674SOL     OW19163   3.906   0.803   5.640
  674SOL    HW119164   3.991   0.758   5.645
  674SOL    HW219165   3.928   0.895   5.651
  675SOL     OW19166   5.498   5.235   5.499
  675SOL    HW119167   5.451   5.260   5.419
  675SOL    HW219168   5.515   5.141   5.487
  676SOL     OW19169   2.744   1.711   0.401
  676SOL    HW119170   2.824   1.681   0.358
  676SOL    HW219171   2.741   1.663   0.484
  677SOL     OW19172   0.965   1.668   7.107
  677SOL    HW119173   0.910   1.678   7.184
  677SOL    HW219174   0.956   1.576   7.082
  678SOL     OW19175   3.178   0.912   6.374
  678SOL    HW119176   3.131   0.881   6.451
  678SOL    HW219177   3.194   0.833   6.322
  679SOL     OW19178   2.558   3.671   7.637
  679SOL    HW119179   2.601   3.604   7.586
  679SOL    HW219180   2.540   3.742   7.576
  680SOL     OW19181   2.630   2.639   0.347
  680SOL    HW119182   2.658   2.552   0.374
  680SOL    HW219183   2.614   2.685   0.429
  681SOL     OW19184   0.652   0.326   6.375
  681SOL    HW119185   0.682   0.247   6.330
  681SOL    HW219186   0.730   0.361   6.418
  682SOL     OW19187   0.935   3.846   6.230
  682SOL    HW119188   1.027   3.848   6.258
  682SOL    HW219189   0.918   3.753   6.213
  683SOL     OW19190   4.794   3.691   0.974
  683SOL    HW119191   4.849   3.751   1.024
  683SOL    HW219192   4.705   3.709   1.004
  684SOL     OW19193   4.805   3.912   6.585
  684SOL    HW119194   4.859   3.915   6.505
  684SOL    HW219195   4.812   4.000   6.621
  685SOL     OW19196   0.324   4.993   0.214
  685SOL    HW119197   0.377   4.925   0.174
  685SOL    HW219198   0.341   4.985   0.308
  686SOL     OW19199   5.922   5.715   0.030
  686SOL    HW119200   5.877   5.645  -0.017
  686SOL    HW219201   5.935   5.783  -0.036
  687SOL     OW19202   5.963   4.585   4.957
  687SOL    HW119203   5.947   4.604   4.865
  687SOL    HW219204   5.926   4.498   4.971
  688SOL     OW19205   0.317   1.246   6.866
  688SOL    HW119206   0.345   1.337   6.876
  688SOL    HW219207   0.354   1.218   6.782
  689SOL     OW19208   3.541   4.046   6.959
  689SOL    HW119209   3.565   3.954   6.950
  689SOL    HW219210   3.534   4.079   6.870
  690SOL     OW19211   0.418   3.776   1.971
  690SOL    HW119212   0.416   3.820   2.056
  690SOL    HW219213   0.371   3.694   1.986
  691SOL     OW19214   2.988   4.239   6.368
  691SOL    HW119215   3.025   4.264   6.283
  691SOL    HW219216   2.955   4.150   6.354
  692SOL     OW19217   0.592   2.618   0.972
  692SOL    HW119218   0.522   2.678   0.996
  692SOL    HW219219   0.555   2.563   0.904
  693SOL     OW19220   4.993   0.090   7.752
  693SOL    HW119221   4.921   0.122   7.697
  693SOL    HW219222   4.949   0.057   7.830
  694SOL     OW19223   1.392   3.389   6.282
  694SOL    HW119224   1.384   3.336   6.361
  694SOL    HW219225   1.302   3.414   6.260
  695SOL     OW19226   5.645   2.602   6.359
  695SOL    HW119227   5.607   2.580   6.274
  695SOL    HW219228   5.610   2.537   6.419
  696SOL     OW19229   2.976   5.558   6.445
  696SOL    HW119230   2.995   5.612   6.522
  696SOL    HW219231   2.881   5.553   6.442
  697SOL     OW19232   4.541   1.399   0.507
  697SOL    HW119233   4.546   1.476   0.565
  697SOL    HW219234   4.606   1.416   0.439
  698SOL     OW19235   1.183   3.937   0.141
  698SOL    HW119236   1.207   4.001   0.208
  698SOL    HW219237   1.209   3.852   0.179
  699SOL     OW19238   4.602   2.966   7.546
  699SOL    HW119239   4.681   2.922   7.515
  699SOL    HW219240   4.633   3.050   7.581
  700SOL     OW19241   4.487   5.592   1.528
  700SOL    HW119242   4.440   5.542   1.595
  700SOL    HW219243   4.575   5.603   1.563
  701SOL     OW19244   1.589   0.406   7.753
  701SOL    HW119245   1.519   0.405   7.687
  701SOL    HW219246   1.669   0.386   7.704
  702SOL     OW19247   2.884   2.776   5.518
  702SOL    HW119248   2.881   2.871   5.513
  702SOL    HW219249   2.953   2.758   5.581
  703SOL     OW19250   5.671   4.751   6.158
  703SOL    HW119251   5.723   4.687   6.109
  703SOL    HW219252   5.648   4.707   6.240
  704SOL     OW19253   0.633   0.602   0.661
  704SOL    HW119254   0.642   0.531   0.725
  704SOL    HW219255   0.541   0.628   0.668
  705SOL     OW19256   4.620   0.627   6.647
  705SOL    HW119257   4.540   0.675   6.671
  705SOL    HW219258   4.650   0.669   6.567
  706SOL     OW19259   1.806   1.577   1.798
  706SOL    HW119260   1.821   1.491   1.837
  706SOL    HW219261   1.739   1.617   1.854
  707SOL     OW19262   2.493   2.762   0.142
  707SOL    HW119263   2.401   2.742   0.163
  707SOL    HW219264   2.542   2.730   0.217
  708SOL     OW19265   5.019   2.969   1.024
  708SOL    HW119266   5.099   2.979   1.075
  708SOL    HW219267   5.035   2.891   0.970
  709SOL     OW19268   4.493   0.141   7.280
  709SOL    HW119269   4.480   0.085   7.204
  709SOL    HW219270   4.449   0.096   7.352
  710SOL     OW19271   0.635   6.370   1.215
  710SOL    HW119272   0.665   6.461   1.218
  710SOL    HW219273   0.667   6.337   1.131
  711SOL     OW19274   6.387   1.628   1.941
  711SOL    HW119275   6.371   1.547   1.989
  711SOL    HW219276   6.310   1.639   1.885
  712SOL     OW19277   5.635   2.347   5.579
  712SOL    HW119278   5.650   2.434   5.541
  712SOL    HW219279   5.541   2.346   5.598
  713SOL     OW19280   3.203   4.062   5.456
  713SOL    HW119281   3.180   3.969   5.455
  713SOL    HW219282   3.289   4.065   5.498
  714SOL     OW19283   1.701   6.253   6.545
  714SOL    HW119284   1.697   6.288   6.634
  714SOL    HW219285   1.611   6.225   6.526
  715SOL     OW19286   2.832   6.323   5.495
  715SOL    HW119287   2.802   6.380   5.566
  715SOL    HW219288   2.854   6.240   5.537
  716SOL     OW19289   0.125   0.065   5.827
  716SOL    HW119290   0.084   0.099   5.747
  716SOL    HW219291   0.078   0.109   5.898
  717SOL     OW19292   4.407   0.693   5.788
  717SOL    HW119293   4.361   0.777   5.791
  717SOL    HW219294   4.356   0.640   5.726
  718SOL     OW19295   3.452   3.678   1.339
  718SOL    HW119296   3.539   3.679   1.298
  718SOL    HW219297   3.462   3.621   1.415
  719SOL     OW19298   1.686   3.361   0.346
  719SOL    HW119299   1.674   3.360   0.441
  719SOL    HW219300   1.638   3.439   0.317
  720SOL     OW19301   5.355   2.091   7.508
  720SOL    HW119302   5.379   2.019   7.449
  720SOL    HW219303   5.359   2.169   7.453
  721SOL     OW19304   3.638   3.350   1.372
  721SOL    HW119305   3.729   3.330   1.349
  721SOL    HW219306   3.632   3.327   1.465
  722SOL     OW19307   2.383   2.587   7.244
  722SOL    HW119308   2.391   2.612   7.336
  722SOL    HW219309   2.430   2.654   7.196
  723SOL     OW19310   0.333   2.960   6.721
  723SOL    HW119311   0.252   3.012   6.723
  723SOL    HW219312   0.308   2.879   6.677
  724SOL     OW19313   0.148   0.513   6.506
  724SOL    HW119314   0.130   0.605   6.487
  724SOL    HW219315   0.184   0.514   6.595
  725SOL     OW19316   1.386   1.153   7.423
  725SOL    HW119317   1.470   1.156   7.376
  725SOL    HW219318   1.404   1.195   7.507
  726SOL     OW19319   4.886   4.797   5.177
  726SOL    HW119320   4.895   4.886   5.141
  726SOL    HW219321   4.792   4.781   5.180
  727SOL     OW19322   6.018   3.199   7.266
  727SOL    HW119323   6.068   3.186   7.186
  727SOL    HW219324   6.052   3.281   7.302
  728SOL     OW19325   4.542   3.568   0.897
  728SOL    HW119326   4.606   3.504   0.929
  728SOL    HW219327   4.567   3.584   0.807
  729SOL     OW19328   5.935   4.247   0.447
  729SOL    HW119329   5.882   4.303   0.391
  729SOL    HW219330   5.883   4.167   0.456
  730SOL     OW19331   1.475   0.674   6.107
  730SOL    HW119332   1.518   0.588   6.112
  730SOL    HW219333   1.539   0.735   6.146
  731SOL     OW19334   0.564   4.963   5.713
  731SOL    HW119335   0.612   4.998   5.638
  731SOL    HW219336   0.615   4.989   5.789
  732SOL     OW19337   2.341   3.055   7.280
  732SOL    HW119338   2.279   3.078   7.350
  732SOL    HW219339   2.426   3.049   7.324
  733SOL     OW19340   6.260   0.555   7.199
  733SOL    HW119341   6.297   0.589   7.281
  733SOL    HW219342   6.301   0.470   7.188
  734SOL     OW19343   0.983   1.757   5.235
  734SOL    HW119344   1.076   1.779   5.226
  734SOL    HW219345   0.958   1.792   5.321
  735SOL     OW19346   4.624   5.488   2.128
  735SOL    HW119347   4.589   5.547   2.196
  735SOL    HW219348   4.554   5.482   2.063
  736SOL     OW19349   4.261   3.581   7.694
  736SOL    HW119350   4.216   3.604   7.613
  736SOL    HW219351   4.341   3.634   7.694
  737SOL     OW19352   1.830   3.404   7.843
  737SOL    HW119353   1.787   3.489   7.831
  737SOL    HW219354   1.861   3.406   7.933
  738SOL     OW19355   4.029   2.910   6.458
  738SOL    HW119356   3.957   2.855   6.427
  738SOL    HW219357   3.994   2.952   6.537
  739SOL     OW19358   1.757   2.244   1.399
  739SOL    HW119359   1.819   2.317   1.386
  739SOL    HW219360   1.711   2.266   1.480
  740SOL     OW19361   2.726   5.625   6.490
  740SOL    HW119362   2.637   5.595   6.510
  740SOL    HW219363   2.726   5.718   6.515
  741SOL     OW19364   6.409   5.247   5.093
  741SOL    HW119365   6.460   5.171   5.064
  741SOL    HW219366   6.469   5.321   5.084
  742SOL     OW19367   1.779   1.593   1.302
  742SOL    HW119368   1.855   1.650   1.293
  742SOL    HW219369   1.776   1.571   1.395
  743SOL     OW19370   5.942   4.996   0.490
  743SOL    HW119371   6.014   4.988   0.552
  743SOL    HW219372   5.982   5.032   0.411
  744SOL     OW19373   0.093   3.633   1.054
  744SOL    HW119374   0.012   3.670   1.089
  744SOL    HW219375   0.072   3.610   0.964
  745SOL     OW19376   2.405   5.271   1.886
  745SOL    HW119377   2.372   5.346   1.836
  745SOL    HW219378   2.327   5.233   1.927
  746SOL     OW19379   0.563   2.230   0.734
  746SOL    HW119380   0.596   2.142   0.754
  746SOL    HW219381   0.561   2.233   0.638
  747SOL     OW19382   2.780   4.577   7.830
  747SOL    HW119383   2.871   4.590   7.805
  747SOL    HW219384   2.783   4.516   7.903
  748SOL     OW19385   6.268   2.061   0.777
  748SOL    HW119386   6.203   2.060   0.847
  748SOL    HW219387   6.258   1.975   0.735
  749SOL     OW19388   4.374   3.466   6.504
  749SOL    HW119389   4.442   3.448   6.440
  749SOL    HW219390   4.349   3.557   6.489
  750SOL     OW19391   1.760   3.154   6.928
  750SOL    HW119392   1.744   3.061   6.910
  750SOL    HW219393   1.855   3.161   6.934
  751SOL     OW19394   3.084   5.564   1.214
  751SOL    HW119395   3.089   5.609   1.299
  751SOL    HW219396   3.113   5.474   1.233
  752SOL     OW19397   5.623   5.693   5.324
  752SOL    HW119398   5.559   5.641   5.276
  752SOL    HW219399   5.687   5.629   5.356
  753SOL     OW19400   0.509   5.085   6.774
  753SOL    HW119401   0.430   5.120   6.734
  753SOL    HW219402   0.518   5.132   6.857
  754SOL     OW19403   0.593   4.070   7.709
  754SOL    HW119404   0.512   4.051   7.755
  754SOL    HW219405   0.651   3.997   7.732
  755SOL     OW19406   2.196   4.631   1.040
  755SOL    HW119407   2.133   4.693   1.077
  755SOL    HW219408   2.165   4.616   0.951
  756SOL     OW19409   3.628   5.001   5.976
  756SOL    HW119410   3.587   5.075   6.023
  756SOL    HW219411   3.670   4.950   6.045
  757SOL     OW19412   6.030   0.423   1.318
  757SOL    HW119413   6.013   0.460   1.232
  757SOL    HW219414   5.984   0.339   1.317
  758SOL     OW19415   1.563   1.801   5.955
  758SOL    HW119416   1.623   1.750   6.009
  758SOL    HW219417   1.602   1.800   5.868
  759SOL     OW19418   1.022   3.956   7.778
  759SOL    HW119419   1.034   4.045   7.811
  759SOL    HW219420   1.063   3.899   7.844
  760SOL     OW19421   3.616   4.632   1.217
  760SOL    HW119422   3.599   4.595   1.131
  760SOL    HW219423   3.696   4.588   1.247
  761SOL     OW19424   4.139   2.725   1.123
  761SOL    HW119425   4.056   2.773   1.125
  761SOL    HW219426   4.163   2.722   1.031
  762SOL     OW19427   5.035   1.075   5.711
  762SOL    HW119428   4.978   1.139   5.669
  762SOL    HW219429   4.975   1.021   5.764
  763SOL     OW19430   1.977   1.989   6.147
  763SOL    HW119431   1.884   2.010   6.152
  763SOL    HW219432   1.998   1.950   6.232
  764SOL     OW19433   2.606   2.151   1.471
  764SOL    HW119434   2.679   2.208   1.445
  764SOL    HW219435   2.647   2.081   1.522
  765SOL     OW19436   0.620   4.115   6.483
  765SOL    HW119437   0.534   4.154   6.502
  765SOL    HW219438   0.635   4.135   6.391
  766SOL     OW19439   4.788   3.150   5.674
  766SOL    HW119440   4.813   3.240   5.653
  766SOL    HW219441   4.821   3.098   5.600
  767SOL     OW19442   2.409   5.438   1.182
  767SOL    HW119443   2.416   5.518   1.235
  767SOL    HW219444   2.400   5.367   1.246
  768SOL     OW19445   5.410   0.147   6.655
  768SOL    HW119446   5.328   0.146   6.607
  768SOL    HW219447   5.443   0.057   6.648
  769SOL     OW19448   4.150   3.453   1.362
  769SOL    HW119449   4.145   3.358   1.352
  769SOL    HW219450   4.243   3.473   1.363
  770SOL     OW19451   1.636   0.223   0.834
  770SOL    HW119452   1.716   0.276   0.830
  770SOL    HW219453   1.568   0.278   0.794
  771SOL     OW19454   6.232   6.255   5.524
  771SOL    HW119455   6.156   6.259   5.582
  771SOL    HW219456   6.259   6.164   5.526
  772SOL     OW19457   5.742   0.020   0.965
  772SOL    HW119458   5.795  -0.042   0.914
  772SOL    HW219459   5.655   0.015   0.926
  773SOL     OW19460   0.507   5.726   7.148
  773SOL    HW119461   0.476   5.766   7.229
  773SOL    HW219462   0.593   5.764   7.134
  774SOL     OW19463   1.629   0.062   6.149
  774SOL    HW119464   1.600   0.083   6.061
  774SOL    HW219465   1.548   0.059   6.201
  775SOL     OW19466   4.835   0.731   0.521
  775SOL    HW119467   4.900   0.759   0.456
  775SOL    HW219468   4.876   0.656   0.564
  776SOL     OW19469   0.257   2.279   0.493
  776SOL    HW119470   0.271   2.263   0.400
  776SOL    HW219471   0.340   2.317   0.523
  777SOL     OW19472   1.862   2.898   6.892
  777SOL    HW119473   1.781   2.862   6.855
  777SOL    HW219474   1.901   2.825   6.941
  778SOL     OW19475   1.776   5.620   0.549
  778SOL    HW119476   1.832   5.692   0.519
  778SOL    HW219477   1.834   5.564   0.601
  779SOL     OW19478   2.100   4.097   0.832
  779SOL    HW119479   2.116   4.004   0.816
  779SOL    HW219480   2.182   4.140   0.805
  780SOL     OW19481   4.321   2.648   0.172
  780SOL    HW119482   4.305   2.554   0.180
  780SOL    HW219483   4.408   2.654   0.132
  781SOL     OW19484   4.689   5.454   6.521
  781SOL    HW119485   4.643   5.524   6.566
  781SOL    HW219486   4.636   5.376   6.535
  782SOL     OW19487   1.550   6.300   1.299
  782SOL    HW119488   1.469   6.287   1.250
  782SOL    HW219489   1.582   6.212   1.317
  783SOL     OW19490   2.208   6.075   0.610
  783SOL    HW119491   2.225   6.002   0.669
  783SOL    HW219492   2.245   6.047   0.526
  784SOL     OW19493   5.270   6.175   7.129
  784SOL    HW119494   5.221   6.250   7.161
  784SOL    HW219495   5.203   6.116   7.094
  785SOL     OW19496   4.574   3.192   1.208
  785SOL    HW119497   4.635   3.132   1.250
  785SOL    HW219498   4.492   3.144   1.203
  786SOL     OW19499   3.489   1.419   7.684
  786SOL    HW119500   3.456   1.344   7.635
  786SOL    HW219501   3.422   1.487   7.672
  787SOL     OW19502   3.467   1.080   6.808
  787SOL    HW119503   3.526   1.036   6.870
  787SOL    HW219504   3.521   1.093   6.729
  788SOL     OW19505   0.512   4.329   1.174
  788SOL    HW119506   0.602   4.298   1.169
  788SOL    HW219507   0.485   4.312   1.264
  789SOL     OW19508   3.402   0.854   7.634
  789SOL    HW119509   3.424   0.835   7.725
  789SOL    HW219510   3.451   0.789   7.584
  790SOL     OW19511   2.515   0.148   0.229
  790SOL    HW119512   2.548   0.079   0.287
  790SOL    HW219513   2.577   0.148   0.155
  791SOL     OW19514   1.610   4.018   6.277
  791SOL    HW119515   1.692   3.981   6.311
  791SOL    HW219516   1.567   4.056   6.354
  792SOL     OW19517   6.349   3.346   6.663
  792SOL    HW119518   6.361   3.413   6.730
  792SOL    HW219519   6.273   3.296   6.692
  793SOL     OW19520   3.531   2.558   0.710
  793SOL    HW119521   3.470   2.632   0.716
  793SOL    HW219522   3.557   2.542   0.801
  794SOL     OW19523   1.522   4.024   7.875
  794SOL    HW119524   1.549   4.027   7.784
  794SOL    HW219525   1.434   3.986   7.872
  795SOL     OW19526   2.639   6.361   0.423
  795SOL    HW119527   2.585   6.339   0.499
  795SOL    HW219528   2.665   6.276   0.386
  796SOL     OW19529   3.738   5.477   6.163
  796SOL    HW119530   3.687   5.477   6.082
  796SOL    HW219531   3.678   5.442   6.229
  797SOL     OW19532   3.561   2.395   0.924
  797SOL    HW119533   3.637   2.337   0.930
  797SOL    HW219534   3.488   2.344   0.960
  798SOL     OW19535   2.814   2.617   7.059
  798SOL    HW119536   2.895   2.660   7.087
  798SOL    HW219537   2.744   2.677   7.087
  799SOL     OW19538   1.547   1.011   5.911
  799SOL    HW119539   1.462   1.027   5.952
  799SOL    HW219540   1.604   0.986   5.984
  800SOL     OW19541   0.236   0.544   0.804
  800SOL    HW119542   0.227   0.449   0.798
  800SOL    HW219543   0.199   0.566   0.890
  801SOL     OW19544   1.524   4.790   1.286
  801SOL    HW119545   1.491   4.817   1.200
  801SOL    HW219546   1.554   4.872   1.327
  802SOL     OW19547   1.277   1.249   6.708
  802SOL    HW119548   1.336   1.178   6.684
  802SOL    HW219549   1.200   1.205   6.744
  803SOL     OW19550   5.394   1.433   7.404
  803SOL    HW119551   5.346   1.514   7.422
  803SOL    HW219552   5.342   1.388   7.337
  804SOL     OW19553   0.356   4.840   6.954
  804SOL    HW119554   0.329   4.924   6.990
  804SOL    HW219555   0.452   4.846   6.949
  805SOL     OW19556   2.939   5.964   0.482
  805SOL    HW119557   2.858   5.954   0.531
  805SOL    HW219558   2.983   5.879   0.490
  806SOL     OW19559   2.657   2.635   6.169
  806SOL    HW119560   2.586   2.582   6.207
  806SOL    HW219561   2.616   2.720   6.152
  807SOL     OW19562   1.627   2.830   6.832
  807SOL    HW119563   1.571   2.763   6.792
  807SOL    HW219564   1.577   2.861   6.907
  808SOL     OW19565   3.197   2.332   0.551
  808SOL    HW119566   3.172   2.423   0.537
  808SOL    HW219567   3.172   2.287   0.471
  809SOL     OW19568   6.403   2.208   6.742
  809SOL    HW119569   6.409   2.233   6.649
  809SOL    HW219570   6.440   2.283   6.788
  810SOL     OW19571   5.187   2.286   1.458
  810SOL    HW119572   5.216   2.315   1.371
  810SOL    HW219573   5.125   2.215   1.440
  811SOL     OW19574   5.017   4.324   0.410
  811SOL    HW119575   4.949   4.289   0.352
  811SOL    HW219576   5.077   4.370   0.351
  812SOL     OW19577   4.078   5.874   0.770
  812SOL    HW119578   3.986   5.871   0.795
  812SOL    HW219579   4.118   5.933   0.835
  813SOL     OW19580   4.037   4.179   7.460
  813SOL    HW119581   3.957   4.166   7.511
  813SOL    HW219582   4.032   4.114   7.390
  814SOL     OW19583   2.765   2.425   0.157
  814SOL    HW119584   2.747   2.518   0.150
  814SOL    HW219585   2.762   2.407   0.251
  815SOL     OW19586   4.185   5.226   7.861
  815SOL    HW119587   4.251   5.172   7.817
  815SOL    HW219588   4.235   5.292   7.908
  816SOL     OW19589   0.250   3.201   0.646
  816SOL    HW119590   0.227   3.139   0.716
  816SOL    HW219591   0.242   3.151   0.565
  817SOL     OW19592   0.911   3.437   1.463
  817SOL    HW119593   0.962   3.511   1.430
  817SOL    HW219594   0.827   3.476   1.488
  818SOL     OW19595   1.662   3.746   7.272
  818SOL    HW119596   1.751   3.755   7.306
  818SOL    HW219597   1.664   3.792   7.188
  819SOL     OW19598   4.496   2.520   0.723
  819SOL    HW119599   4.418   2.488   0.768
  819SOL    HW219600   4.482   2.495   0.631
  820SOL     OW19601   2.164   0.034   6.788
  820SOL    HW119602   2.081   0.080   6.776
  820SOL    HW219603   2.189   0.008   6.700
  821SOL     OW19604   5.532   6.374   0.454
  821SOL    HW119605   5.613   6.344   0.413
  821SOL    HW219606   5.518   6.315   0.528
  822SOL     OW19607   3.673   3.826   0.261
  822SOL    HW119608   3.707   3.915   0.275
  822SOL    HW219609   3.583   3.839   0.234
  823SOL     OW19610   1.663   4.334   6.856
  823SOL    HW119611   1.579   4.353   6.898
  823SOL    HW219612   1.649   4.354   6.763
  824SOL     OW19613   6.334   5.883   1.266
  824SOL    HW119614   6.353   5.924   1.181
  824SOL    HW219615   6.323   5.791   1.245
  825SOL     OW19616   1.351   5.167   6.160
  825SOL    HW119617   1.295   5.131   6.230
  825SOL    HW219618   1.404   5.092   6.131
  826SOL     OW19619   5.749   0.481   1.121
  826SOL    HW119620   5.809   0.549   1.090
  826SOL    HW219621   5.672   0.529   1.152
  827SOL     OW19622   1.094   4.035   6.453
  827SOL    HW119623   1.022   3.982   6.485
  827SOL    HW219624   1.126   3.988   6.375
  828SOL     OW19625   2.109   3.401   1.887
  828SOL    HW119626   2.110   3.375   1.795
  828SOL    HW219627   2.046   3.342   1.928
  829SOL     OW19628   1.438   3.144   7.792
  829SOL    HW119629   1.469   3.125   7.881
  829SOL    HW219630   1.413   3.059   7.757
  830SOL     OW19631   4.483   5.937   7.260
  830SOL    HW119632   4.416   5.876   7.293
  830SOL    HW219633   4.472   6.016   7.313
  831SOL     OW19634   6.221   5.290   7.310
  831SOL    HW119635   6.252   5.366   7.260
  831SOL    HW219636   6.127   5.286   7.292
  832SOL     OW19637   5.798   1.647   7.076
  832SOL    HW119638   5.768   1.560   7.049
  832SOL    HW219639   5.733   1.676   7.140
  833SOL     OW19640   2.535   3.428   6.789
  833SOL    HW119641   2.547   3.411   6.883
  833SOL    HW219642   2.471   3.499   6.785
  834SOL     OW19643   2.401   0.734   0.457
  834SOL    HW119644   2.414   0.681   0.535
  834SOL    HW219645   2.478   0.791   0.454
  835SOL     OW19646   0.879   0.764   5.923
  835SOL    HW119647   0.884   0.756   5.828
  835SOL    HW219648   0.945   0.704   5.956
  836SOL     OW19649   1.896   5.009   6.509
  836SOL    HW119650   1.822   4.958   6.541
  836SOL    HW219651   1.859   5.064   6.440
  837SOL     OW19652   4.420   5.514   5.915
  837SOL    HW119653   4.352   5.549   5.973
  837SOL    HW219654   4.421   5.575   5.841
  838SOL     OW19655   4.416   1.195   6.247
  838SOL    HW119656   4.423   1.256   6.321
  838SOL    HW219657   4.505   1.192   6.210
  839SOL     OW19658   5.858   1.981   6.684
  839SOL    HW119659   5.838   1.912   6.620
  839SOL    HW219660   5.937   2.022   6.649
  840SOL     OW19661   1.461   1.652   7.314
  840SOL    HW119662   1.372   1.685   7.329
  840SOL    HW219663   1.448   1.563   7.282
  841SOL     OW19664   3.874   1.356   7.236
  841SOL    HW119665   3.848   1.444   7.263
  841SOL    HW219666   3.913   1.369   7.149
  842SOL     OW19667   2.671   3.049   0.650
  842SOL    HW119668   2.654   3.123   0.590
  842SOL    HW219669   2.727   3.086   0.718
  843SOL     OW19670   1.016   1.039   7.300
  843SOL    HW119671   1.101   0.995   7.292
  843SOL    HW219672   0.952   0.972   7.276
  844SOL     OW19673   5.457   4.005   7.851
  844SOL    HW119674   5.454   3.958   7.768
  844SOL    HW219675   5.407   3.949   7.911
  845SOL     OW19676   2.144   4.421   6.020
  845SOL    HW119677   2.186   4.341   6.049
  845SOL    HW219678   2.215   4.484   6.010
  846SOL     OW19679   1.574   0.071   7.627
  846SOL    HW119680   1.603   0.122   7.702
  846SOL    HW219681   1.518   0.002   7.664
  847SOL     OW19682   1.199   0.655   7.163
  847SOL    HW119683   1.117   0.680   7.121
  847SOL    HW219684   1.200   0.704   7.245
  848SOL     OW19685   0.734   4.728   7.873
  848SOL    HW119686   0.787   4.798   7.835
  848SOL    HW219687   0.705   4.677   7.798
  849SOL     OW19688   5.656   0.993   1.064
  849SOL    HW119689   5.733   0.939   1.082
  849SOL    HW219690   5.692   1.080   1.047
  850SOL     OW19691   1.214   1.801   7.062
  850SOL    HW119692   1.142   1.744   7.087
  850SOL    HW219693   1.265   1.812   7.142
  851SOL     OW19694   4.854   5.027   7.645
  851SOL    HW119695   4.816   4.967   7.710
  851SOL    HW219696   4.942   4.992   7.629
  852SOL     OW19697   2.321   6.199   6.703
  852SOL    HW119698   2.229   6.177   6.688
  852SOL    HW219699   2.357   6.212   6.615
  853SOL     OW19700   4.019   4.660   0.511
  853SOL    HW119701   3.933   4.702   0.512
  853SOL    HW219702   4.081   4.732   0.511
  854SOL     OW19703   6.257   0.592   0.123
  854SOL    HW119704   6.272   0.503   0.153
  854SOL    HW219705   6.336   0.615   0.073
  855SOL     OW19706   5.355   3.529   1.108
  855SOL    HW119707   5.322   3.612   1.144
  855SOL    HW219708   5.373   3.549   1.016
  856SOL     OW19709   6.273   3.518   5.621
  856SOL    HW119710   6.221   3.490   5.696
  856SOL    HW219711   6.363   3.496   5.645
  857SOL     OW19712   3.167   5.159   7.014
  857SOL    HW119713   3.245   5.128   6.969
  857SOL    HW219714   3.199   5.223   7.077
  858SOL     OW19715   2.571   1.515   6.262
  858SOL    HW119716   2.565   1.491   6.170
  858SOL    HW219717   2.619   1.598   6.262
  859SOL     OW19718   1.891   3.341   7.569
  859SOL    HW119719   1.867   3.349   7.661
  859SOL    HW219720   1.958   3.408   7.556
  860SOL     OW19721   0.150   1.648   6.906
  860SOL    HW119722   0.101   1.566   6.918
  860SOL    HW219723   0.226   1.638   6.963
  861SOL     OW19724   2.158   0.195   0.554
  861SOL    HW119725   2.154   0.220   0.646
  861SOL    HW219726   2.132   0.103   0.553
  862SOL     OW19727   0.859   6.039   6.708
  862SOL    HW119728   0.810   6.114   6.675
  862SOL    HW219729   0.916   6.015   6.635
  863SOL     OW19730   2.016   5.661   1.192
  863SOL    HW119731   2.054   5.585   1.148
  863SOL    HW219732   1.921   5.649   1.183
  864SOL     OW19733   0.258   6.161   7.216
  864SOL    HW119734   0.211   6.237   7.250
  864SOL    HW219735   0.351   6.187   7.221
  865SOL     OW19736   2.970   1.621   7.161
  865SOL    HW119737   2.885   1.659   7.138
  865SOL    HW219738   2.964   1.602   7.254
  866SOL     OW19739   1.488   2.444   0.475
  866SOL    HW119740   1.543   2.489   0.411
  866SOL    HW219741   1.455   2.514   0.532
  867SOL     OW19742   3.371   4.282   6.039
  867SOL    HW119743   3.464   4.305   6.040
  867SOL    HW219744   3.352   4.263   5.947
  868SOL     OW19745   1.397   6.327   7.447
  868SOL    HW119746   1.436   6.405   7.409
  868SOL    HW219747   1.415   6.333   7.541
  869SOL     OW19748   1.640   4.985   7.198
  869SOL    HW119749   1.644   4.899   7.239
  869SOL    HW219750   1.552   4.991   7.161
  870SOL     OW19751   0.086   1.952   6.418
  870SOL    HW119752   0.013   1.946   6.357
  870SOL    HW219753   0.076   1.877   6.476
  871SOL     OW19754   2.589   4.422   0.611
  871SOL    HW119755   2.613   4.337   0.649
  871SOL    HW219756   2.604   4.485   0.681
  872SOL     OW19757   5.581   5.368   0.176
  872SOL    HW119758   5.563   5.359   0.269
  872SOL    HW219759   5.558   5.459   0.156
  873SOL     OW19760   2.361   2.279   6.425
  873SOL    HW119761   2.317   2.272   6.510
  873SOL    HW219762   2.334   2.202   6.377
  874SOL     OW19763   2.677   3.903   6.627
  874SOL    HW119764   2.614   3.931   6.693
  874SOL    HW219765   2.740   3.975   6.621
  875SOL     OW19766   3.808   2.239   0.923
  875SOL    HW119767   3.763   2.170   0.875
  875SOL    HW219768   3.840   2.197   1.002
  876SOL     OW19769   3.830   4.823   6.816
  876SOL    HW119770   3.786   4.822   6.901
  876SOL    HW219771   3.906   4.766   6.828
  877SOL     OW19772   6.419   2.912   5.407
  877SOL    HW119773   6.374   2.992   5.438
  877SOL    HW219774   6.368   2.840   5.444
  878SOL     OW19775   5.386   1.396   1.377
  878SOL    HW119776   5.455   1.376   1.313
  878SOL    HW219777   5.432   1.399   1.461
  879SOL     OW19778   4.164   0.263   1.406
  879SOL    HW119779   4.118   0.249   1.489
  879SOL    HW219780   4.224   0.336   1.424
  880SOL     OW19781   3.679   5.882   1.400
  880SOL    HW119782   3.690   5.977   1.410
  880SOL    HW219783   3.730   5.844   1.471
  881SOL     OW19784   5.244   2.392   0.653
  881SOL    HW119785   5.289   2.315   0.618
  881SOL    HW219786   5.179   2.413   0.586
  882SOL     OW19787   2.821   3.538   6.974
  882SOL    HW119788   2.879   3.472   6.935
  882SOL    HW219789   2.738   3.492   6.986
  883SOL     OW19790   4.306   3.935   0.531
  883SOL    HW119791   4.336   3.844   0.523
  883SOL    HW219792   4.336   3.978   0.452
  884SOL     OW19793   5.072   6.122   0.471
  884SOL    HW119794   5.061   6.103   0.378
  884SOL    HW219795   5.154   6.079   0.495
  885SOL     OW19796   5.523   3.786   6.276
  885SOL    HW119797   5.530   3.747   6.363
  885SOL    HW219798   5.588   3.739   6.224
  886SOL     OW19799   3.895   3.497   1.278
  886SOL    HW119800   3.972   3.487   1.333
  886SOL    HW219801   3.876   3.409   1.246
  887SOL     OW19802   3.079   6.264   7.744
  887SOL    HW119803   3.059   6.235   7.655
  887SOL    HW219804   3.135   6.196   7.780
  888SOL     OW19805   2.187   1.372   7.607
  888SOL    HW119806   2.198   1.331   7.692
  888SOL    HW219807   2.102   1.415   7.611
  889SOL     OW19808   3.069   5.495   6.851
  889SOL    HW119809   3.062   5.407   6.815
  889SOL    HW219810   3.161   5.505   6.874
  890SOL     OW19811   6.308   5.996   7.106
  890SOL    HW119812   6.296   6.066   7.171
  890SOL    HW219813   6.347   6.041   7.030
  891SOL     OW19814   0.368   5.062   7.100
  891SOL    HW119815   0.324   5.082   7.183
  891SOL    HW219816   0.427   5.136   7.086
  892SOL     OW19817   6.003   0.528   1.024
  892SOL    HW119818   6.097   0.511   1.018
  892SOL    HW219819   5.962   0.446   0.995
  893SOL     OW19820   1.361   5.723   6.553
  893SOL    HW119821   1.456   5.714   6.557
  893SOL    HW219822   1.346   5.816   6.533
  894SOL     OW19823   5.650   1.003   6.465
  894SOL    HW119824   5.694   0.991   6.549
  894SOL    HW219825   5.565   0.960   6.477
  895SOL     OW19826   5.425   2.021   6.109
  895SOL    HW119827   5.433   2.015   6.013
  895SOL    HW219828   5.502   1.977   6.142
  896SOL     OW19829   5.232   2.197   7.212
  896SOL    HW119830   5.240   2.284   7.253
  896SOL    HW219831   5.289   2.202   7.135
  897SOL     OW19832   1.617   4.707   7.304
  897SOL    HW119833   1.567   4.754   7.371
  897SOL    HW219834   1.588   4.616   7.314
  898SOL     OW19835   2.364   3.260   5.995
  898SOL    HW119836   2.332   3.237   5.908
  898SOL    HW219837   2.349   3.182   6.048
  899SOL     OW19838   3.654   3.520   6.535
  899SOL    HW119839   3.576   3.565   6.565
  899SOL    HW219840   3.725   3.555   6.589
  900SOL     OW19841   5.373   3.920   6.830
  900SOL    HW119842   5.432   3.867   6.884
  900SOL    HW219843   5.378   4.007   6.868
  901SOL     OW19844   0.192   5.152   7.727
  901SOL    HW119845   0.275   5.118   7.760
  901SOL    HW219846   0.216   5.228   7.674
  902SOL     OW19847   4.321   2.694   7.733
  902SOL    HW119848   4.232   2.686   7.767
  902SOL    HW219849   4.331   2.622   7.671
  903SOL     OW19850   0.274   2.690   5.721
  903SOL    HW119851   0.313   2.740   5.793
  903SOL    HW219852   0.308   2.732   5.641
  904SOL     OW19853   3.279   4.437   0.769
  904SOL    HW119854   3.244   4.445   0.680
  904SOL    HW219855   3.311   4.347   0.774
  905SOL     OW19856   2.347   1.625   1.690
  905SOL    HW119857   2.411   1.644   1.759
  905SOL    HW219858   2.377   1.544   1.650
  906SOL     OW19859   4.404   2.797   7.113
  906SOL    HW119860   4.411   2.892   7.104
  906SOL    HW219861   4.442   2.779   7.199
  907SOL     OW19862   2.350   0.856   2.109
  907SOL    HW119863   2.319   0.845   2.019
  907SOL    HW219864   2.426   0.798   2.116
  908SOL     OW19865   4.598   5.123   0.594
  908SOL    HW119866   4.607   5.033   0.563
  908SOL    HW219867   4.518   5.122   0.646
  909SOL     OW19868   0.714   2.354   1.084
  909SOL    HW119869   0.673   2.434   1.051
  909SOL    HW219870   0.713   2.364   1.179
  910SOL     OW19871   3.173   3.765   0.074
  910SOL    HW119872   3.092   3.732   0.035
  910SOL    HW219873   3.159   3.859   0.084
  911SOL     OW19874   1.290   3.690   7.467
  911SOL    HW119875   1.229   3.743   7.518
  911SOL    HW219876   1.303   3.611   7.519
  912SOL     OW19877   0.641   5.464   6.266
  912SOL    HW119878   0.677   5.375   6.264
  912SOL    HW219879   0.562   5.459   6.212
  913SOL     OW19880   1.885   5.369   2.041
  913SOL    HW119881   1.843   5.283   2.035
  913SOL    HW219882   1.829   5.427   1.989
  914SOL     OW19883   1.904   4.315   5.295
  914SOL    HW119884   1.990   4.273   5.288
  914SOL    HW219885   1.922   4.407   5.273
  915SOL     OW19886   5.006   5.544   0.297
  915SOL    HW119887   5.008   5.456   0.333
  915SOL    HW219888   5.056   5.597   0.359
  916SOL     OW19889   0.631   0.788   1.299
  916SOL    HW119890   0.536   0.783   1.289
  916SOL    HW219891   0.666   0.768   1.212
  917SOL     OW19892   0.890   1.309   6.568
  917SOL    HW119893   0.905   1.230   6.516
  917SOL    HW219894   0.892   1.278   6.659
  918SOL     OW19895   4.225   1.493   1.311
  918SOL    HW119896   4.132   1.510   1.294
  918SOL    HW219897   4.271   1.546   1.247
  919SOL     OW19898   1.963   1.751   7.528
  919SOL    HW119899   1.906   1.674   7.521
  919SOL    HW219900   1.967   1.786   7.439
  920SOL     OW19901   1.076   1.483   1.362
  920SOL    HW119902   1.013   1.551   1.384
  920SOL    HW219903   1.036   1.435   1.290
  921SOL     OW19904   2.284   1.169   7.214
  921SOL    HW119905   2.375   1.142   7.217
  921SOL    HW219906   2.277   1.236   7.283
  922SOL     OW19907   4.988   5.676   5.991
  922SOL    HW119908   4.914   5.615   5.980
  922SOL    HW219909   5.044   5.658   5.916
  923SOL     OW19910   0.476   5.382   0.815
  923SOL    HW119911   0.430   5.305   0.782
  923SOL    HW219912   0.568   5.367   0.792
  924SOL     OW19913   3.629   3.020   7.320
  924SOL    HW119914   3.633   3.115   7.310
  924SOL    HW219915   3.694   3.000   7.388
  925SOL     OW19916   6.184   1.902   7.533
  925SOL    HW119917   6.247   1.969   7.561
  925SOL    HW219918   6.113   1.907   7.597
  926SOL     OW19919   3.824   4.674   7.446
  926SOL    HW119920   3.896   4.712   7.396
  926SOL    HW219921   3.861   4.593   7.482
  927SOL     OW19922   1.294   5.278   5.497
  927SOL    HW119923   1.204   5.309   5.493
  927SOL    HW219924   1.344   5.342   5.446
  928SOL     OW19925   3.167   5.301   1.279
  928SOL    HW119926   3.138   5.247   1.205
  928SOL    HW219927   3.262   5.295   1.277
  929SOL     OW19928   1.831   1.458   7.851
  929SOL    HW119929   1.764   1.465   7.920
  929SOL    HW219930   1.865   1.547   7.841
  930SOL     OW19931   3.424   5.732   6.496
  930SOL    HW119932   3.377   5.686   6.427
  930SOL    HW219933   3.360   5.792   6.534
  931SOL     OW19934   3.680   6.070   1.929
  931SOL    HW119935   3.668   6.157   1.892
  931SOL    HW219936   3.774   6.061   1.940
  932SOL     OW19937   5.679   5.401   1.341
  932SOL    HW119938   5.641   5.392   1.428
  932SOL    HW219939   5.623   5.348   1.285
  933SOL     OW19940   3.713   3.328   0.283
  933SOL    HW119941   3.619   3.328   0.264
  933SOL    HW219942   3.734   3.419   0.304
  934SOL     OW19943   5.234   4.335   0.745
  934SOL    HW119944   5.315   4.297   0.781
  934SOL    HW219945   5.238   4.314   0.652
  935SOL     OW19946   5.189   0.243   7.473
  935SOL    HW119947   5.249   0.293   7.417
  935SOL    HW219948   5.232   0.242   7.559
  936SOL     OW19949   3.047   3.247   0.098
  936SOL    HW119950   3.010   3.308   0.034
  936SOL    HW219951   3.117   3.202   0.051
  937SOL     OW19952   1.355   2.491   0.199
  937SOL    HW119953   1.306   2.410   0.183
  937SOL    HW219954   1.349   2.505   0.293
  938SOL     OW19955   5.605   0.179   6.036
  938SOL    HW119956   5.662   0.186   6.112
  938SOL    HW219957   5.663   0.191   5.961
  939SOL     OW19958   6.347   4.893   5.940
  939SOL    HW119959   6.380   4.805   5.956
  939SOL    HW219960   6.357   4.906   5.845
  940SOL     OW19961   0.805   6.375   4.907
  940SOL    HW119962   0.712   6.367   4.886
  940SOL    HW219963   0.825   6.467   4.889
  941SOL     OW19964   1.302   4.429   6.645
  941SOL    HW119965   1.230   4.382   6.603
  941SOL    HW219966   1.353   4.465   6.572
  942SOL     OW19967   2.297   0.955   0.608
  942SOL    HW119968   2.341   0.881   0.566
  942SOL    HW219969   2.238   0.915   0.672
  943SOL     OW19970   1.371   5.641   0.926
  943SOL    HW119971   1.341   5.729   0.904
  943SOL    HW219972   1.332   5.585   0.859
  944SOL     OW19973   0.065   6.226   0.724
  944SOL    HW119974  -0.020   6.233   0.768
  944SOL    HW219975   0.079   6.312   0.684
  945SOL     OW19976   0.610   1.635   6.013
  945SOL    HW119977   0.670   1.563   5.993
  945SOL    HW219978   0.526   1.608   5.976
  946SOL     OW19979   0.164   4.333   6.568
  946SOL    HW119980   0.227   4.402   6.545
  946SOL    HW219981   0.092   4.346   6.506
  947SOL     OW19982   1.503   6.070   7.381
  947SOL    HW119983   1.483   6.156   7.418
  947SOL    HW219984   1.444   6.010   7.426
  948SOL     OW19985   3.365   3.807   0.611
  948SOL    HW119986   3.301   3.878   0.619
  948SOL    HW219987   3.333   3.739   0.671
  949SOL     OW19988   5.046   5.124   1.211
  949SOL    HW119989   5.020   5.114   1.302
  949SOL    HW219990   4.963   5.125   1.162
  950SOL     OW19991   5.427   4.093   7.203
  950SOL    HW119992   5.519   4.114   7.187
  950SOL    HW219993   5.419   4.000   7.182
  951SOL     OW19994   2.706   0.593   5.833
  951SOL    HW119995   2.660   0.518   5.795
  951SOL    HW219996   2.795   0.561   5.847
  952SOL     OW19997   0.412   1.530   7.406
  952SOL    HW119998   0.469   1.492   7.339
  952SOL    HW219999   0.323   1.510   7.376
  953SOL     OW20000   3.242   1.939   0.168
  953SOL    HW120001   3.245   1.873   0.099
  953SOL    HW220002   3.151   1.942   0.196
  954SOL     OW20003   3.547   5.062   0.289
  954SOL    HW120004   3.617   5.021   0.239
  954SOL    HW220005   3.547   5.018   0.373
  955SOL     OW20006   4.230   1.078   0.483
  955SOL    HW120007   4.147   1.059   0.526
  955SOL    HW220008   4.274   0.993   0.477
  956SOL     OW20009   4.632   2.383   1.194
  956SOL    HW120010   4.663   2.370   1.284
  956SOL    HW220011   4.708   2.360   1.140
  957SOL     OW20012   4.324   2.994   0.945
  957SOL    HW120013   4.306   3.070   0.889
  957SOL    HW220014   4.334   3.031   1.033
  958SOL     OW20015   4.680   1.233   7.732
  958SOL    HW120016   4.725   1.305   7.775
  958SOL    HW220017   4.588   1.244   7.756
  959SOL     OW20018   2.458   2.154   0.129
  959SOL    HW120019   2.552   2.149   0.112
  959SOL    HW220020   2.447   2.120   0.218
  960SOL     OW20021   1.151   3.136   0.037
  960SOL    HW120022   1.170   3.201   0.104
  960SOL    HW220023   1.225   3.142  -0.024
  961SOL     OW20024   4.973   6.250   1.673
  961SOL    HW120025   4.902   6.214   1.726
  961SOL    HW220026   5.010   6.174   1.628
  962SOL     OW20027   0.737   1.730   5.096
  962SOL    HW120028   0.732   1.817   5.056
  962SOL    HW220029   0.813   1.735   5.153
  963SOL     OW20030   3.199   5.650   5.865
  963SOL    HW120031   3.213   5.740   5.834
  963SOL    HW220032   3.277   5.631   5.917
  964SOL     OW20033   2.541   3.232   0.204
  964SOL    HW120034   2.475   3.176   0.161
  964SOL    HW220035   2.507   3.321   0.193
  965SOL     OW20036   0.866   3.525   5.882
  965SOL    HW120037   0.835   3.568   5.802
  965SOL    HW220038   0.799   3.459   5.901
  966SOL     OW20039   4.698   3.652   6.335
  966SOL    HW120040   4.614   3.696   6.322
  966SOL    HW220041   4.752   3.683   6.263
  967SOL     OW20042   0.822   2.837   7.555
  967SOL    HW120043   0.854   2.927   7.554
  967SOL    HW220044   0.837   2.806   7.465
  968SOL     OW20045   5.381   5.663   5.937
  968SOL    HW120046   5.380   5.751   5.901
  968SOL    HW220047   5.347   5.607   5.867
  969SOL     OW20048   4.856   1.503   5.923
  969SOL    HW120049   4.899   1.427   5.960
  969SOL    HW220050   4.863   1.571   5.990
  970SOL     OW20051   3.891   1.713   7.072
  970SOL    HW120052   3.959   1.720   7.004
  970SOL    HW220053   3.816   1.675   7.026
  971SOL     OW20054   3.804   6.102   6.398
  971SOL    HW120055   3.881   6.120   6.344
  971SOL    HW220056   3.732   6.097   6.336
  972SOL     OW20057   4.063   4.292   1.106
  972SOL    HW120058   4.124   4.365   1.095
  972SOL    HW220059   4.074   4.264   1.196
  973SOL     OW20060   5.855   3.450   5.789
  973SOL    HW120061   5.859   3.546   5.786
  973SOL    HW220062   5.941   3.421   5.758
  974SOL     OW20063   0.323   2.909   7.432
  974SOL    HW120064   0.364   2.991   7.460
  974SOL    HW220065   0.285   2.873   7.512
  975SOL     OW20066   5.049   4.526   7.284
  975SOL    HW120067   4.980   4.522   7.350
  975SOL    HW220068   5.111   4.591   7.319
  976SOL     OW20069   5.120   3.434   7.401
  976SOL    HW120070   5.040   3.450   7.351
  976SOL    HW220071   5.183   3.402   7.337
  977SOL     OW20072   5.647   2.605   0.231
  977SOL    HW120073   5.700   2.669   0.280
  977SOL    HW220074   5.556   2.632   0.248
  978SOL     OW20075   2.732   2.150   0.061
  978SOL    HW120076   2.786   2.148  -0.018
  978SOL    HW220077   2.752   2.235   0.101
  979SOL     OW20078   2.521   0.950   0.882
  979SOL    HW120079   2.583   0.988   0.945
  979SOL    HW220080   2.522   1.012   0.808
  980SOL     OW20081   0.425   5.036   7.829
  980SOL    HW120082   0.481   4.958   7.832
  980SOL    HW220083   0.380   5.037   7.913
  981SOL     OW20084   0.303   4.714   5.487
  981SOL    HW120085   0.272   4.624   5.499
  981SOL    HW220086   0.312   4.724   5.392
  982SOL     OW20087   6.231   0.765   6.544
  982SOL    HW120088   6.252   0.678   6.509
  982SOL    HW220089   6.306   0.787   6.599
  983SOL     OW20090   5.688   2.537   0.562
  983SOL    HW120091   5.707   2.449   0.530
  983SOL    HW220092   5.594   2.538   0.576
  984SOL     OW20093   5.370   6.132   2.018
  984SOL    HW120094   5.307   6.156   1.950
  984SOL    HW220095   5.448   6.184   1.998
  985SOL     OW20096   5.458   4.021   0.869
  985SOL    HW120097   5.512   3.965   0.813
  985SOL    HW220098   5.482   4.110   0.843
  986SOL     OW20099   0.226   5.541   6.929
  986SOL    HW120100   0.319   5.522   6.937
  986SOL    HW220101   0.217   5.630   6.961
  987SOL     OW20102   0.215   3.548   5.393
  987SOL    HW120103   0.244   3.640   5.393
  987SOL    HW220104   0.282   3.502   5.444
  988SOL     OW20105   1.412   6.336   7.753
  988SOL    HW120106   1.317   6.332   7.738
  988SOL    HW220107   1.432   6.255   7.801
  989SOL     OW20108   5.607   5.372   1.595
  989SOL    HW120109   5.692   5.384   1.639
  989SOL    HW220110   5.547   5.427   1.644
  990SOL     OW20111   2.610   5.959   6.868
  990SOL    HW120112   2.671   5.886   6.874
  990SOL    HW220113   2.666   6.035   6.849
  991SOL     OW20114   6.140   3.919   0.806
  991SOL    HW120115   6.062   3.864   0.815
  991SOL    HW220116   6.108   4.000   0.767
  992SOL     OW20117   4.465   5.865   1.393
  992SOL    HW120118   4.489   5.781   1.434
  992SOL    HW220119   4.445   5.842   1.302
  993SOL     OW20120   4.569   2.610   7.550
  993SOL    HW120121   4.488   2.591   7.598
  993SOL    HW220122   4.636   2.558   7.595
  994SOL     OW20123   1.404   0.120   6.262
  994SOL    HW120124   1.419   0.215   6.262
  994SOL    HW220125   1.318   0.109   6.303
  995SOL     OW20126   4.978   1.379   6.327
  995SOL    HW120127   4.959   1.333   6.409
  995SOL    HW220128   5.031   1.317   6.277
  996SOL     OW20129   5.317   2.411   7.363
  996SOL    HW120130   5.341   2.502   7.344
  996SOL    HW220131   5.361   2.390   7.445
  997SOL     OW20132   3.450   2.294   0.242
  997SOL    HW120133   3.498   2.291   0.325
  997SOL    HW220134   3.472   2.212   0.199
  998SOL     OW20135   5.843   6.194   0.443
  998SOL    HW120136   5.852   6.246   0.363
  998SOL    HW220137   5.801   6.113   0.414
  999SOL     OW20138   4.503   5.152   1.033
  999SOL    HW120139   4.411   5.132   1.014
  999SOL    HW220140   4.528   5.215   0.966
 1000SOL     OW20141   4.292   0.952   7.187
 1000SOL    HW120142   4.297   0.857   7.175
 1000SOL    HW220143   4.378   0.977   7.222
 1001SOL     OW20144   4.748   4.014   1.223
 1001SOL    HW120145   4.799   4.086   1.186
 1001SOL    HW220146   4.812   3.942   1.232
 1002SOL     OW20147   1.646   0.452   6.144
 1002SOL    HW120148   1.580   0.395   6.183
 1002SOL    HW220149   1.663   0.414   6.058
 1003SOL     OW20150   6.400   5.764   1.027
 1003SOL    HW120151   6.336   5.696   1.007
 1003SOL    HW220152   6.467   5.755   0.960
 1004SOL     OW20153   2.324   4.204   6.787
 1004SOL    HW120154   2.355   4.221   6.697
 1004SOL    HW220155   2.373   4.267   6.840
 1005SOL     OW20156   3.343   4.499   6.227
 1005SOL    HW120157   3.254   4.463   6.227
 1005SOL    HW220158   3.398   4.427   6.195
 1006SOL     OW20159   0.187   2.708   6.498
 1006SOL    HW120160   0.218   2.624   6.464
 1006SOL    HW220161   0.097   2.690   6.526
 1007SOL     OW20162   1.643   1.641   6.580
 1007SOL    HW120163   1.693   1.570   6.619
 1007SOL    HW220164   1.682   1.720   6.616
 1008SOL     OW20165   6.071   4.083   1.841
 1008SOL    HW120166   6.141   4.147   1.851
 1008SOL    HW220167   6.116   4.002   1.820
 1009SOL     OW20168   4.726   5.145   5.864
 1009SOL    HW120169   4.734   5.217   5.800
 1009SOL    HW220170   4.636   5.113   5.852
 1010SOL     OW20171   2.484   1.007   1.353
 1010SOL    HW120172   2.519   1.069   1.416
 1010SOL    HW220173   2.555   0.993   1.290
 1011SOL     OW20174   2.767   4.379   7.489
 1011SOL    HW120175   2.790   4.380   7.397
 1011SOL    HW220176   2.790   4.466   7.522
 1012SOL     OW20177   1.399   6.379   5.300
 1012SOL    HW120178   1.383   6.468   5.334
 1012SOL    HW220179   1.428   6.329   5.376
 1013SOL     OW20180   1.985   4.359   7.122
 1013SOL    HW120181   1.950   4.363   7.033
 1013SOL    HW220182   2.039   4.437   7.131
 1014SOL     OW20183   0.195   2.043   0.028
 1014SOL    HW120184   0.226   1.982   0.095
 1014SOL    HW220185   0.226   2.006  -0.055
 1015SOL     OW20186   4.187   4.374   7.025
 1015SOL    HW120187   4.108   4.424   7.045
 1015SOL    HW220188   4.236   4.372   7.108
 1016SOL     OW20189   0.382   1.266   0.991
 1016SOL    HW120190   0.395   1.350   0.947
 1016SOL    HW220191   0.288   1.264   1.010
 1017SOL     OW20192   3.613   5.333   0.194
 1017SOL    HW120193   3.635   5.342   0.101
 1017SOL    HW220194   3.558   5.255   0.199
 1018SOL     OW20195   3.972   1.373   5.523
 1018SOL    HW120196   4.051   1.352   5.573
 1018SOL    HW220197   3.996   1.450   5.471
 1019SOL     OW20198   2.244   5.928   0.332
 1019SOL    HW120199   2.231   5.989   0.259
 1019SOL    HW220200   2.164   5.875   0.332
 1020SOL     OW20201   5.653   2.013   0.794
 1020SOL    HW120202   5.560   2.030   0.805
 1020SOL    HW220203   5.668   2.021   0.700
 1021SOL     OW20204   5.438   2.760   0.994
 1021SOL    HW120205   5.396   2.675   0.984
 1021SOL    HW220206   5.432   2.779   1.087
 1022SOL     OW20207   0.427   5.429   1.768
 1022SOL    HW120208   0.415   5.507   1.823
 1022SOL    HW220209   0.447   5.359   1.830
 1023SOL     OW20210   0.928   3.706   0.183
 1023SOL    HW120211   0.866   3.634   0.195
 1023SOL    HW220212   0.950   3.703   0.090
 1024SOL     OW20213   2.076   5.300   2.217
 1024SOL    HW120214   2.023   5.233   2.258
 1024SOL    HW220215   2.023   5.332   2.145
 1025SOL     OW20216   5.616   2.525   1.884
 1025SOL    HW120217   5.689   2.552   1.940
 1025SOL    HW220218   5.595   2.436   1.914
 1026SOL     OW20219   0.417   5.283   7.329
 1026SOL    HW120220   0.507   5.265   7.356
 1026SOL    HW220221   0.422   5.366   7.282
 1027SOL     OW20222   6.079   5.084   6.463
 1027SOL    HW120223   6.127   5.025   6.520
 1027SOL    HW220224   6.006   5.031   6.430
 1028SOL     OW20225   2.396   5.430   0.906
 1028SOL    HW120226   2.450   5.353   0.891
 1028SOL    HW220227   2.385   5.434   1.001
 1029SOL     OW20228   5.690   4.312   7.349
 1029SOL    HW120229   5.622   4.321   7.282
 1029SOL    HW220230   5.709   4.402   7.376
 1030SOL     OW20231   6.334   3.130   5.516
 1030SOL    HW120232   6.370   3.215   5.491
 1030SOL    HW220233   6.300   3.143   5.605
 1031SOL     OW20234   2.552   2.656   6.820
 1031SOL    HW120235   2.573   2.723   6.756
 1031SOL    HW220236   2.592   2.576   6.785
 1032SOL     OW20237   4.787   5.639   6.243
 1032SOL    HW120238   4.847   5.573   6.207
 1032SOL    HW220239   4.699   5.605   6.224
 1033SOL     OW20240   6.289   1.993   6.839
 1033SOL    HW120241   6.212   2.025   6.885
 1033SOL    HW220242   6.321   2.068   6.789
 1034SOL     OW20243   3.629   0.043   6.134
 1034SOL    HW120244   3.659   0.123   6.177
 1034SOL    HW220245   3.551   0.069   6.085
 1035SOL     OW20246   0.426   3.964   1.435
 1035SOL    HW120247   0.442   3.906   1.510
 1035SOL    HW220248   0.378   4.038   1.472
 1036SOL     OW20249   1.165   1.906   0.399
 1036SOL    HW120250   1.216   1.842   0.348
 1036SOL    HW220251   1.105   1.944   0.335
 1037SOL     OW20252   1.889   5.457   7.506
 1037SOL    HW120253   1.842   5.481   7.425
 1037SOL    HW220254   1.964   5.407   7.475
 1038SOL     OW20255   2.907   2.787   0.461
 1038SOL    HW120256   2.819   2.824   0.452
 1038SOL    HW220257   2.921   2.740   0.378
 1039SOL     OW20258   5.851   0.976   6.268
 1039SOL    HW120259   5.898   1.059   6.277
 1039SOL    HW220260   5.792   0.973   6.343
 1040SOL     OW20261   3.692   2.263   5.300
 1040SOL    HW120262   3.681   2.179   5.255
 1040SOL    HW220263   3.607   2.306   5.290
 1041SOL     OW20264   4.864   2.861   7.550
 1041SOL    HW120265   4.858   2.787   7.610
 1041SOL    HW220266   4.918   2.829   7.478
 1042SOL     OW20267   6.314   2.014   5.338
 1042SOL    HW120268   6.372   2.020   5.263
 1042SOL    HW220269   6.348   2.079   5.400
 1043SOL     OW20270   2.855   3.783   6.823
 1043SOL    HW120271   2.793   3.763   6.753
 1043SOL    HW220272   2.859   3.702   6.875
 1044SOL     OW20273   1.542   3.057   0.151
 1044SOL    HW120274   1.501   2.974   0.178
 1044SOL    HW220275   1.636   3.041   0.162
 1045SOL     OW20276   6.207   1.836   6.563
 1045SOL    HW120277   6.289   1.837   6.611
 1045SOL    HW220278   6.172   1.925   6.575
 1046SOL     OW20279   1.711   5.976   6.955
 1046SOL    HW120280   1.661   5.905   6.994
 1046SOL    HW220281   1.745   6.026   7.030
 1047SOL     OW20282   1.074   5.995   6.055
 1047SOL    HW120283   1.042   6.082   6.081
 1047SOL    HW220284   1.159   6.012   6.015
 1048SOL     OW20285   0.027   0.095   2.170
 1048SOL    HW120286  -0.003   0.141   2.249
 1048SOL    HW220287  -0.041   0.030   2.154
 1049SOL     OW20288   5.620   6.405   7.286
 1049SOL    HW120289   5.598   6.314   7.265
 1049SOL    HW220290   5.638   6.403   7.380
 1050SOL     OW20291   0.620   3.065   6.735
 1050SOL    HW120292   0.529   3.038   6.720
 1050SOL    HW220293   0.614   3.160   6.747
 1051SOL     OW20294   3.171   0.483   6.421
 1051SOL    HW120295   3.232   0.412   6.441
 1051SOL    HW220296   3.088   0.455   6.459
 1052SOL     OW20297   2.697   4.991   0.591
 1052SOL    HW120298   2.745   4.914   0.621
 1052SOL    HW220299   2.763   5.047   0.551
 1053SOL     OW20300   4.997   3.577   0.851
 1053SOL    HW120301   4.925   3.620   0.897
 1053SOL    HW220302   4.958   3.497   0.815
 1054SOL     OW20303   3.358   4.737   0.499
 1054SOL    HW120304   3.366   4.729   0.404
 1054SOL    HW220305   3.267   4.710   0.517
 1055SOL     OW20306   6.325   4.404   5.495
 1055SOL    HW120307   6.245   4.430   5.450
 1055SOL    HW220308   6.379   4.364   5.426
 1056SOL     OW20309   4.811   5.178   6.121
 1056SOL    HW120310   4.835   5.086   6.125
 1056SOL    HW220311   4.774   5.190   6.033
 1057SOL     OW20312   4.642   1.595   1.675
 1057SOL    HW120313   4.627   1.517   1.729
 1057SOL    HW220314   4.583   1.585   1.601
 1058SOL     OW20315   5.480   4.311   0.338
 1058SOL    HW120316   5.405   4.360   0.371
 1058SOL    HW220317   5.453   4.279   0.253
 1059SOL     OW20318   4.996   2.084   6.688
 1059SOL    HW120319   5.006   2.155   6.752
 1059SOL    HW220320   4.902   2.064   6.689
 1060SOL     OW20321   2.101   1.062   7.071
 1060SOL    HW120322   2.173   1.110   7.113
 1060SOL    HW220323   2.024   1.116   7.086
 1061SOL     OW20324   3.477   1.851   0.777
 1061SOL    HW120325   3.512   1.898   0.852
 1061SOL    HW220326   3.505   1.902   0.701
 1062SOL     OW20327   1.484   0.192   5.652
 1062SOL    HW120328   1.441   0.198   5.566
 1062SOL    HW220329   1.569   0.153   5.634
 1063SOL     OW20330   1.298   2.097   0.623
 1063SOL    HW120331   1.258   2.036   0.560
 1063SOL    HW220332   1.289   2.053   0.707
 1064SOL     OW20333   4.350   2.000   6.757
 1064SOL    HW120334   4.361   1.995   6.852
 1064SOL    HW220335   4.414   1.938   6.722
 1065SOL     OW20336   4.472   1.016   1.555
 1065SOL    HW120337   4.563   1.022   1.584
 1065SOL    HW220338   4.448   0.924   1.570
 1066SOL     OW20339   1.836   4.998   0.290
 1066SOL    HW120340   1.778   5.048   0.233
 1066SOL    HW220341   1.788   4.992   0.373
 1067SOL     OW20342   6.251   5.380   6.887
 1067SOL    HW120343   6.337   5.349   6.915
 1067SOL    HW220344   6.205   5.400   6.968
 1068SOL     OW20345   3.208   6.395   0.199
 1068SOL    HW120346   3.120   6.361   0.218
 1068SOL    HW220347   3.201   6.433   0.111
 1069SOL     OW20348   1.815   2.808   0.753
 1069SOL    HW120349   1.893   2.862   0.759
 1069SOL    HW220350   1.763   2.847   0.683
 1070SOL     OW20351   6.065   6.032   1.136
 1070SOL    HW120352   6.069   5.937   1.146
 1070SOL    HW220353   6.084   6.066   1.224
 1071SOL     OW20354   3.471   2.920   6.912
 1071SOL    HW120355   3.536   2.947   6.848
 1071SOL    HW220356   3.518   2.861   6.971
 1072SOL     OW20357   0.401   4.836   6.031
 1072SOL    HW120358   0.364   4.922   6.010
 1072SOL    HW220359   0.386   4.783   5.953
 1073SOL     OW20360   1.232   6.361   6.636
 1073SOL    HW120361   1.159   6.423   6.640
 1073SOL    HW220362   1.280   6.376   6.718
 1074SOL     OW20363   5.618   5.189   7.493
 1074SOL    HW120364   5.644   5.190   7.401
 1074SOL    HW220365   5.701   5.187   7.541
 1075SOL     OW20366   3.666   2.149   1.194
 1075SOL    HW120367   3.636   2.060   1.215
 1075SOL    HW220368   3.759   2.149   1.217
 1076SOL     OW20369   2.043   5.881   6.929
 1076SOL    HW120370   1.969   5.823   6.910
 1076SOL    HW220371   2.054   5.875   7.024
 1077SOL     OW20372   3.704   4.848   0.192
 1077SOL    HW120373   3.787   4.835   0.237
 1077SOL    HW220374   3.726   4.843   0.099
 1078SOL     OW20375   5.698   3.372   6.777
 1078SOL    HW120376   5.713   3.280   6.759
 1078SOL    HW220377   5.698   3.414   6.691
 1079SOL     OW20378   5.985   5.800   1.908
 1079SOL    HW120379   6.040   5.840   1.840
 1079SOL    HW220380   5.956   5.717   1.870
 1080SOL     OW20381   3.245   4.213   6.494
 1080SOL    HW120382   3.173   4.166   6.453
 1080SOL    HW220383   3.204   4.264   6.563
 1081SOL     OW20384   5.152   4.098   7.271
 1081SOL    HW120385   5.120   4.121   7.184
 1081SOL    HW220386   5.246   4.114   7.268
 1082SOL     OW20387   3.916   2.489   0.369
 1082SOL    HW120388   3.833   2.481   0.415
 1082SOL    HW220389   3.968   2.547   0.424
 1083SOL     OW20390   1.952   5.248   7.733
 1083SOL    HW120391   1.945   5.315   7.802
 1083SOL    HW220392   1.949   5.297   7.651
 1084SOL     OW20393   1.906   2.054   5.235
 1084SOL    HW120394   1.950   1.971   5.255
 1084SOL    HW220395   1.813   2.036   5.250
 1085SOL     OW20396   1.664   6.060   1.358
 1085SOL    HW120397   1.603   6.007   1.410
 1085SOL    HW220398   1.750   6.021   1.376
 1086SOL     OW20399   6.306   3.110   0.306
 1086SOL    HW120400   6.283   3.084   0.396
 1086SOL    HW220401   6.245   3.181   0.286
 1087SOL     OW20402   0.417   0.009   7.387
 1087SOL    HW120403   0.488  -0.005   7.324
 1087SOL    HW220404   0.448  -0.032   7.468
 1088SOL     OW20405   3.764   5.823   2.026
 1088SOL    HW120406   3.833   5.874   2.068
 1088SOL    HW220407   3.712   5.887   1.977
 1089SOL     OW20408   4.608   0.767   6.033
 1089SOL    HW120409   4.680   0.718   5.992
 1089SOL    HW220410   4.529   0.728   5.996
 1090SOL     OW20411   0.754   5.521   5.897
 1090SOL    HW120412   0.726   5.536   5.807
 1090SOL    HW220413   0.781   5.607   5.929
 1091SOL     OW20414   1.087   3.298   7.523
 1091SOL    HW120415   1.017   3.356   7.492
 1091SOL    HW220416   1.165   3.353   7.528
 1092SOL     OW20417   0.088   2.269   1.451
 1092SOL    HW120418   0.000   2.298   1.427
 1092SOL    HW220419   0.113   2.327   1.523
 1093SOL     OW20420   1.019   0.767   6.567
 1093SOL    HW120421   0.997   0.698   6.504
 1093SOL    HW220422   1.112   0.753   6.585
 1094SOL     OW20423   0.502   4.118   7.217
 1094SOL    HW120424   0.446   4.149   7.147
 1094SOL    HW220425   0.493   4.183   7.286
 1095SOL     OW20426   3.871   2.628   0.661
 1095SOL    HW120427   3.895   2.690   0.729
 1095SOL    HW220428   3.845   2.682   0.586
 1096SOL     OW20429   4.805   5.094   6.758
 1096SOL    HW120430   4.732   5.128   6.707
 1096SOL    HW220431   4.873   5.076   6.694
 1097SOL     OW20432   6.232   5.624   0.507
 1097SOL    HW120433   6.317   5.582   0.493
 1097SOL    HW220434   6.168   5.556   0.487
 1098SOL     OW20435   2.805   1.784   6.328
 1098SOL    HW120436   2.844   1.855   6.379
 1098SOL    HW220437   2.875   1.758   6.268
 1099SOL     OW20438   1.677   2.963   0.997
 1099SOL    HW120439   1.772   2.959   1.009
 1099SOL    HW220440   1.649   2.871   0.994
 1100SOL     OW20441   5.990   4.840   6.723
 1100SOL    HW120442   6.064   4.892   6.755
 1100SOL    HW220443   6.026   4.785   6.654
 1101SOL     OW20444   3.484   2.938   7.853
 1101SOL    HW120445   3.575   2.956   7.828
 1101SOL    HW220446   3.456   2.870   7.792
 1102SOL     OW20447   4.457   3.782   1.325
 1102SOL    HW120448   4.492   3.698   1.354
 1102SOL    HW220449   4.416   3.820   1.402
 1103SOL     OW20450   6.153   5.037   1.223
 1103SOL    HW120451   6.137   5.121   1.266
 1103SOL    HW220452   6.066   5.003   1.202
 1104SOL     OW20453   6.257   0.150   0.655
 1104SOL    HW120454   6.268   0.205   0.733
 1104SOL    HW220455   6.347   0.134   0.625
 1105SOL     OW20456   5.040   5.595   0.963
 1105SOL    HW120457   5.130   5.594   0.995
 1105SOL    HW220458   5.003   5.512   0.992
 1106SOL     OW20459   2.671   4.731   1.117
 1106SOL    HW120460   2.733   4.663   1.143
 1106SOL    HW220461   2.685   4.802   1.179
 1107SOL     OW20462   6.172   5.673   1.396
 1107SOL    HW120463   6.227   5.709   1.466
 1107SOL    HW220464   6.088   5.654   1.439
 1108SOL     OW20465   5.916   1.246   1.943
 1108SOL    HW120466   5.884   1.335   1.928
 1108SOL    HW220467   6.001   1.257   1.986
 1109SOL     OW20468   1.816   3.293   6.469
 1109SOL    HW120469   1.837   3.358   6.402
 1109SOL    HW220470   1.734   3.324   6.507
 1110SOL     OW20471   3.799   4.078   7.508
 1110SOL    HW120472   3.779   4.057   7.416
 1110SOL    HW220473   3.761   4.164   7.522
 1111SOL     OW20474   2.778   5.202   1.095
 1111SOL    HW120475   2.687   5.177   1.078
 1111SOL    HW220476   2.815   5.218   1.008
 1112SOL     OW20477   1.920   0.172   1.284
 1112SOL    HW120478   1.836   0.214   1.307
 1112SOL    HW220479   1.899   0.117   1.208
 1113SOL     OW20480   4.436   0.555   1.965
 1113SOL    HW120481   4.480   0.561   1.881
 1113SOL    HW220482   4.370   0.624   1.963
 1114SOL     OW20483   1.931   1.318   6.959
 1114SOL    HW120484   1.914   1.326   7.053
 1114SOL    HW220485   1.930   1.224   6.942
 1115SOL     OW20486   5.256   0.636   1.462
 1115SOL    HW120487   5.233   0.543   1.460
 1115SOL    HW220488   5.351   0.638   1.449
 1116SOL     OW20489   2.728   0.621   6.864
 1116SOL    HW120490   2.785   0.695   6.887
 1116SOL    HW220491   2.669   0.612   6.939
 1117SOL     OW20492   5.388   4.877   5.562
 1117SOL    HW120493   5.453   4.884   5.491
 1117SOL    HW220494   5.439   4.891   5.642
 1118SOL     OW20495   4.338   0.599   1.316
 1118SOL    HW120496   4.379   0.685   1.309
 1118SOL    HW220497   4.319   0.588   1.409
 1119SOL     OW20498   3.717   3.693   1.218
 1119SOL    HW120499   3.722   3.757   1.290
 1119SOL    HW220500   3.798   3.642   1.226
 1120SOL     OW20501   3.273   3.571   6.816
 1120SOL    HW120502   3.237   3.549   6.902
 1120SOL    HW220503   3.240   3.502   6.758
 1121SOL     OW20504   6.348   6.082   7.874
 1121SOL    HW120505   6.391   6.088   7.789
 1121SOL    HW220506   6.314   5.993   7.878
 1122SOL     OW20507   3.471   5.036   6.999
 1122SOL    HW120508   3.540   4.980   7.034
 1122SOL    HW220509   3.476   5.116   7.051
 1123SOL     OW20510   0.105   0.814   0.259
 1123SOL    HW120511   0.027   0.868   0.246
 1123SOL    HW220512   0.112   0.762   0.179
 1124SOL     OW20513   5.500   4.486   4.968
 1124SOL    HW120514   5.509   4.527   5.054
 1124SOL    HW220515   5.471   4.557   4.911
 1125SOL     OW20516   0.393   0.744   0.691
 1125SOL    HW120517   0.330   0.674   0.707
 1125SOL    HW220518   0.389   0.760   0.597
 1126SOL     OW20519   5.067   4.174   7.887
 1126SOL    HW120520   5.080   4.080   7.876
 1126SOL    HW220521   5.075   4.210   7.798
 1127SOL     OW20522   3.224   1.286   7.592
 1127SOL    HW120523   3.231   1.316   7.501
 1127SOL    HW220524   3.189   1.197   7.585
 1128SOL     OW20525   4.402   6.401   0.170
 1128SOL    HW120526   4.492   6.419   0.199
 1128SOL    HW220527   4.351   6.476   0.202
 1129SOL     OW20528   0.431   5.172   1.856
 1129SOL    HW120529   0.345   5.137   1.831
 1129SOL    HW220530   0.493   5.124   1.802
 1130SOL     OW20531   6.051   4.783   7.381
 1130SOL    HW120532   6.017   4.701   7.418
 1130SOL    HW220533   5.988   4.849   7.410
 1131SOL     OW20534   6.098   5.563   7.659
 1131SOL    HW120535   6.107   5.468   7.665
 1131SOL    HW220536   6.151   5.596   7.732
 1132SOL     OW20537   5.510   0.574   6.775
 1132SOL    HW120538   5.566   0.498   6.756
 1132SOL    HW220539   5.482   0.561   6.865
 1133SOL     OW20540   6.248   4.066   7.079
 1133SOL    HW120541   6.343   4.060   7.067
 1133SOL    HW220542   6.229   4.160   7.073
 1134SOL     OW20543   4.853   5.122   1.040
 1134SOL    HW120544   4.774   5.077   1.008
 1134SOL    HW220545   4.912   5.122   0.965
 1135SOL     OW20546   3.954   2.380   5.292
 1135SOL    HW120547   3.979   2.351   5.380
 1135SOL    HW220548   3.858   2.374   5.291
 1136SOL     OW20549   2.900   2.399   7.216
 1136SOL    HW120550   2.821   2.372   7.264
 1136SOL    HW220551   2.876   2.482   7.176
 1137SOL     OW20552   6.324   0.948   0.778
 1137SOL    HW120553   6.368   0.953   0.693
 1137SOL    HW220554   6.333   0.857   0.804
 1138SOL     OW20555   0.868   0.806   0.689
 1138SOL    HW120556   0.782   0.769   0.670
 1138SOL    HW220557   0.853   0.871   0.757
 1139SOL     OW20558   1.623   1.144   7.300
 1139SOL    HW120559   1.676   1.198   7.358
 1139SOL    HW220560   1.668   1.059   7.299
 1140SOL     OW20561   1.583   3.646   0.576
 1140SOL    HW120562   1.678   3.646   0.593
 1140SOL    HW220563   1.554   3.558   0.600
 1141SOL     OW20564   0.994   6.294   0.435
 1141SOL    HW120565   1.005   6.223   0.373
 1141SOL    HW220566   0.900   6.314   0.433
 1142SOL     OW20567   3.462   0.791   0.001
 1142SOL    HW120568   3.555   0.813   0.004
 1142SOL    HW220569   3.437   0.779   0.092
 1143SOL     OW20570   2.759   3.449   6.619
 1143SOL    HW120571   2.828   3.397   6.661
 1143SOL    HW220572   2.685   3.445   6.680
 1144SOL     OW20573   1.346   0.489   0.640
 1144SOL    HW120574   1.423   0.461   0.592
 1144SOL    HW220575   1.354   0.448   0.726
 1145SOL     OW20576   3.511   3.514   0.015
 1145SOL    HW120577   3.501   3.536   0.108
 1145SOL    HW220578   3.598   3.546  -0.008
 1146SOL     OW20579   5.262   1.678   6.637
 1146SOL    HW120580   5.316   1.717   6.705
 1146SOL    HW220581   5.302   1.593   6.619
 1147SOL     OW20582   1.429   5.366   7.324
 1147SOL    HW120583   1.405   5.393   7.413
 1147SOL    HW220584   1.496   5.300   7.336
 1148SOL     OW20585   3.529   0.914   1.895
 1148SOL    HW120586   3.559   0.998   1.929
 1148SOL    HW220587   3.480   0.875   1.968
 1149SOL     OW20588   1.073   3.670   7.810
 1149SOL    HW120589   1.121   3.729   7.752
 1149SOL    HW220590   1.004   3.633   7.754
 1150SOL     OW20591   3.523   0.245   5.618
 1150SOL    HW120592   3.547   0.165   5.665
 1150SOL    HW220593   3.520   0.220   5.526
 1151SOL     OW20594   0.282   1.405   7.818
 1151SOL    HW120595   0.220   1.475   7.797
 1151SOL    HW220596   0.294   1.359   7.734
 1152SOL     OW20597   3.409   0.318   6.191
 1152SOL    HW120598   3.377   0.351   6.275
 1152SOL    HW220599   3.503   0.303   6.205
 1153SOL     OW20600   3.545   3.710   7.264
 1153SOL    HW120601   3.489   3.787   7.251
 1153SOL    HW220602   3.570   3.714   7.356
 1154SOL     OW20603   0.984   6.297   1.012
 1154SOL    HW120604   0.921   6.227   1.028
 1154SOL    HW220605   0.968   6.324   0.922
 1155SOL     OW20606   1.419   0.950   1.513
 1155SOL    HW120607   1.479   1.021   1.490
 1155SOL    HW220608   1.451   0.917   1.597
 1156SOL     OW20609   1.902   0.631   7.108
 1156SOL    HW120610   1.911   0.712   7.058
 1156SOL    HW220611   1.906   0.659   7.200
 1157SOL     OW20612   1.973   1.692   6.992
 1157SOL    HW120613   1.971   1.645   7.076
 1157SOL    HW220614   1.881   1.699   6.967
 1158SOL     OW20615   2.652   2.221   6.846
 1158SOL    HW120616   2.574   2.192   6.893
 1158SOL    HW220617   2.623   2.233   6.756
 1159SOL     OW20618   4.486   0.196   6.889
 1159SOL    HW120619   4.545   0.238   6.952
 1159SOL    HW220620   4.436   0.269   6.851
 1160SOL     OW20621   5.840   3.959   0.945
 1160SOL    HW120622   5.760   3.985   0.993
 1160SOL    HW220623   5.902   4.029   0.965
 1161SOL     OW20624   3.470   6.310   6.959
 1161SOL    HW120625   3.456   6.288   7.051
 1161SOL    HW220626   3.561   6.340   6.955
 1162SOL     OW20627   3.390   4.713   7.139
 1162SOL    HW120628   3.442   4.691   7.216
 1162SOL    HW220629   3.382   4.808   7.142
 1163SOL     OW20630   5.901   2.108   7.503
 1163SOL    HW120631   5.945   2.086   7.585
 1163SOL    HW220632   5.835   2.040   7.492
 1164SOL     OW20633   6.405   5.991   5.807
 1164SOL    HW120634   6.421   6.084   5.790
 1164SOL    HW220635   6.370   5.957   5.725
 1165SOL     OW20636   2.089   3.855   6.568
 1165SOL    HW120637   2.174   3.898   6.569
 1165SOL    HW220638   2.038   3.901   6.635
 1166SOL     OW20639   0.624   0.326   5.452
 1166SOL    HW120640   0.560   0.258   5.428
 1166SOL    HW220641   0.709   0.287   5.433
 1167SOL     OW20642   5.809   3.060   5.934
 1167SOL    HW120643   5.870   3.081   5.863
 1167SOL    HW220644   5.746   3.000   5.894
 1168SOL     OW20645   3.394   4.280   6.801
 1168SOL    HW120646   3.322   4.224   6.773
 1168SOL    HW220647   3.408   4.340   6.728
 1169SOL     OW20648   4.991   2.135   6.996
 1169SOL    HW120649   5.055   2.201   7.020
 1169SOL    HW220650   4.907   2.182   6.994
 1170SOL     OW20651   1.322   2.727   0.447
 1170SOL    HW120652   1.233   2.704   0.419
 1170SOL    HW220653   1.310   2.767   0.533
 1171SOL     OW20654   2.213   0.043   1.311
 1171SOL    HW120655   2.195  -0.051   1.315
 1171SOL    HW220656   2.127   0.083   1.299
 1172SOL     OW20657   1.011   6.326   0.709
 1172SOL    HW120658   1.007   6.301   0.617
 1172SOL    HW220659   1.067   6.259   0.749
 1173SOL     OW20660   3.366   3.622   7.686
 1173SOL    HW120661   3.312   3.590   7.758
 1173SOL    HW220662   3.434   3.675   7.727
 1174SOL     OW20663   0.255   1.546   0.695
 1174SOL    HW120664   0.243   1.607   0.768
 1174SOL    HW220665   0.345   1.561   0.666
 1175SOL     OW20666   1.563   0.124   7.357
 1175SOL    HW120667   1.626   0.195   7.340
 1175SOL    HW220668   1.560   0.117   7.452
 1176SOL     OW20669   4.685   6.013   1.090
 1176SOL    HW120670   4.602   6.031   1.045
 1176SOL    HW220671   4.704   5.922   1.069
 1177SOL     OW20672   2.922   1.739   5.915
 1177SOL    HW120673   2.994   1.715   5.856
 1177SOL    HW220674   2.953   1.714   6.002
 1178SOL     OW20675   3.192   3.971   5.981
 1178SOL    HW120676   3.227   3.885   5.958
 1178SOL    HW220677   3.226   4.029   5.912
 1179SOL     OW20678   2.000   2.051   6.589
 1179SOL    HW120679   2.075   2.108   6.571
 1179SOL    HW220680   2.021   1.969   6.544
 1180SOL     OW20681   3.166   3.142   6.364
 1180SOL    HW120682   3.204   3.171   6.281
 1180SOL    HW220683   3.074   3.168   6.357
 1181SOL     OW20684   1.985   3.112   6.367
 1181SOL    HW120685   2.038   3.168   6.310
 1181SOL    HW220686   1.930   3.173   6.416
 1182SOL     OW20687   1.050   4.966   1.039
 1182SOL    HW120688   1.122   5.029   1.030
 1182SOL    HW220689   0.977   5.008   0.994
 1183SOL     OW20690   1.341   5.892   7.484
 1183SOL    HW120691   1.254   5.913   7.452
 1183SOL    HW220692   1.327   5.828   7.554
 1184SOL     OW20693   5.498   1.489   0.333
 1184SOL    HW120694   5.524   1.447   0.251
 1184SOL    HW220695   5.433   1.555   0.306
 1185SOL     OW20696   4.857   0.506   0.299
 1185SOL    HW120697   4.862   0.421   0.255
 1185SOL    HW220698   4.934   0.508   0.355
 1186SOL     OW20699   2.830   3.195   7.555
 1186SOL    HW120700   2.868   3.114   7.589
 1186SOL    HW220701   2.829   3.183   7.460
 1187SOL     OW20702   4.604   3.375   7.032
 1187SOL    HW120703   4.672   3.390   6.966
 1187SOL    HW220704   4.540   3.444   7.017
 1188SOL     OW20705   0.431   2.301   7.801
 1188SOL    HW120706   0.446   2.326   7.710
 1188SOL    HW220707   0.366   2.230   7.796
 1189SOL     OW20708   4.942   1.158   0.203
 1189SOL    HW120709   4.874   1.094   0.228
 1189SOL    HW220710   5.024   1.114   0.225
 1190SOL     OW20711   5.048   3.555   0.178
 1190SOL    HW120712   4.990   3.631   0.166
 1190SOL    HW220713   5.136   3.592   0.179
 1191SOL     OW20714   1.601   2.262   5.976
 1191SOL    HW120715   1.632   2.352   5.965
 1191SOL    HW220716   1.564   2.259   6.064
 1192SOL     OW20717   4.093   3.184   1.003
 1192SOL    HW120718   4.144   3.251   0.958
 1192SOL    HW220719   4.138   3.102   0.984
 1193SOL     OW20720   5.091   5.846   6.370
 1193SOL    HW120721   5.126   5.861   6.282
 1193SOL    HW220722   5.120   5.758   6.393
 1194SOL     OW20723   2.548   4.370   2.116
 1194SOL    HW120724   2.572   4.340   2.029
 1194SOL    HW220725   2.622   4.344   2.171
 1195SOL     OW20726   1.218   2.906   1.089
 1195SOL    HW120727   1.209   2.841   1.019
 1195SOL    HW220728   1.176   2.985   1.054
 1196SOL     OW20729   6.109   5.259   1.363
 1196SOL    HW120730   6.042   5.305   1.412
 1196SOL    HW220731   6.187   5.314   1.369
 1197SOL     OW20732   4.467   4.230   0.889
 1197SOL    HW120733   4.526   4.297   0.854
 1197SOL    HW220734   4.493   4.149   0.846
 1198SOL     OW20735   0.761   5.718   7.195
 1198SOL    HW120736   0.727   5.645   7.247
 1198SOL    HW220737   0.809   5.772   7.258
 1199SOL     OW20738   5.434   3.337   7.015
 1199SOL    HW120739   5.473   3.418   7.048
 1199SOL    HW220740   5.354   3.326   7.068
 1200SOL     OW20741   1.032   0.823   7.735
 1200SOL    HW120742   1.111   0.875   7.746
 1200SOL    HW220743   1.000   0.808   7.824
 1201SOL     OW20744   5.923   0.288   0.933
 1201SOL    HW120745   5.980   0.215   0.960
 1201SOL    HW220746   5.869   0.251   0.863
 1202SOL     OW20747   3.734   2.950   6.787
 1202SOL    HW120748   3.747   3.038   6.820
 1202SOL    HW220749   3.784   2.947   6.705
 1203SOL     OW20750   5.659   1.587   1.038
 1203SOL    HW120751   5.656   1.602   0.944
 1203SOL    HW220752   5.738   1.634   1.067
 1204SOL     OW20753   1.704   0.765   1.113
 1204SOL    HW120754   1.698   0.856   1.143
 1204SOL    HW220755   1.783   0.763   1.058
 1205SOL     OW20756   3.689   4.670   0.580
 1205SOL    HW120757   3.626   4.598   0.580
 1205SOL    HW220758   3.689   4.702   0.670
 1206SOL     OW20759   4.922   4.784   1.629
 1206SOL    HW120760   4.957   4.789   1.718
 1206SOL    HW220761   4.828   4.772   1.640
 1207SOL     OW20762   2.350   5.485   7.755
 1207SOL    HW120763   2.357   5.390   7.756
 1207SOL    HW220764   2.325   5.507   7.665
 1208SOL     OW20765   4.053   2.725   7.439
 1208SOL    HW120766   4.009   2.809   7.426
 1208SOL    HW220767   4.029   2.673   7.362
 1209SOL     OW20768   5.611   5.620   1.735
 1209SOL    HW120769   5.582   5.641   1.823
 1209SOL    HW220770   5.707   5.621   1.740
 1210SOL     OW20771   0.183   1.724   5.966
 1210SOL    HW120772   0.236   1.681   5.899
 1210SOL    HW220773   0.093   1.715   5.936
 1211SOL     OW20774   6.184   2.662   1.261
 1211SOL    HW120775   6.257   2.601   1.270
 1211SOL    HW220776   6.132   2.649   1.340
 1212SOL     OW20777   5.018   3.911   0.432
 1212SOL    HW120778   5.010   3.826   0.474
 1212SOL    HW220779   5.032   3.973   0.503
 1213SOL     OW20780   4.142   5.662   6.533
 1213SOL    HW120781   4.189   5.622   6.605
 1213SOL    HW220782   4.085   5.727   6.574
 1214SOL     OW20783   6.062   1.087   0.686
 1214SOL    HW120784   6.116   1.033   0.744
 1214SOL    HW220785   5.989   1.116   0.742
 1215SOL     OW20786   4.465   1.514   1.444
 1215SOL    HW120787   4.507   1.430   1.459
 1215SOL    HW220788   4.383   1.493   1.400
 1216SOL     OW20789   0.074   5.240   5.577
 1216SOL    HW120790   0.065   5.315   5.518
 1216SOL    HW220791   0.134   5.271   5.645
 1217SOL     OW20792   1.948   0.149   5.879
 1217SOL    HW120793   1.976   0.172   5.791
 1217SOL    HW220794   1.934   0.054   5.876
 1218SOL     OW20795   3.713   5.155   0.511
 1218SOL    HW120796   3.629   5.200   0.501
 1218SOL    HW220797   3.690   5.063   0.519
 1219SOL     OW20798   4.577   4.605   1.991
 1219SOL    HW120799   4.510   4.545   1.957
 1219SOL    HW220800   4.660   4.563   1.971
 1220SOL     OW20801   1.405   0.894   7.054
 1220SOL    HW120802   1.340   0.882   7.124
 1220SOL    HW220803   1.448   0.976   7.074
 1221SOL     OW20804   0.180   6.262   6.903
 1221SOL    HW120805   0.233   6.218   6.969
 1221SOL    HW220806   0.116   6.196   6.875
 1222SOL     OW20807   5.357   2.380   1.864
 1222SOL    HW120808   5.303   2.360   1.940
 1222SOL    HW220809   5.359   2.476   1.861
 1223SOL     OW20810   6.063   4.439   5.387
 1223SOL    HW120811   5.997   4.449   5.456
 1223SOL    HW220812   6.024   4.377   5.326
 1224SOL     OW20813   2.612   3.597   0.988
 1224SOL    HW120814   2.635   3.664   1.053
 1224SOL    HW220815   2.563   3.531   1.038
 1225SOL     OW20816   4.766   0.247   7.786
 1225SOL    HW120817   4.691   0.203   7.747
 1225SOL    HW220818   4.812   0.287   7.713
 1226SOL     OW20819   4.709   1.430   0.291
 1226SOL    HW120820   4.712   1.396   0.201
 1226SOL    HW220821   4.799   1.422   0.322
 1227SOL     OW20822   3.109   4.326   6.132
 1227SOL    HW120823   3.200   4.298   6.122
 1227SOL    HW220824   3.088   4.368   6.048
 1228SOL     OW20825   2.835   4.521   1.331
 1228SOL    HW120826   2.908   4.460   1.318
 1228SOL    HW220827   2.802   4.499   1.418
 1229SOL     OW20828   6.195   1.332   0.273
 1229SOL    HW120829   6.248   1.405   0.242
 1229SOL    HW220830   6.105   1.364   0.269
 1230SOL     OW20831   6.054   4.616   1.007
 1230SOL    HW120832   6.139   4.633   1.047
 1230SOL    HW220833   6.016   4.545   1.059
 1231SOL     OW20834   2.749   2.271   6.111
 1231SOL    HW120835   2.675   2.317   6.151
 1231SOL    HW220836   2.818   2.337   6.107
 1232SOL     OW20837   0.462   4.363   5.901
 1232SOL    HW120838   0.429   4.274   5.903
 1232SOL    HW220839   0.455   4.393   5.992
 1233SOL     OW20840   3.734   1.857   0.116
 1233SOL    HW120841   3.783   1.934   0.090
 1233SOL    HW220842   3.795   1.806   0.168
 1234SOL     OW20843   4.551   0.400   7.479
 1234SOL    HW120844   4.570   0.312   7.511
 1234SOL    HW220845   4.611   0.413   7.406
 1235SOL     OW20846   4.725   2.859   0.408
 1235SOL    HW120847   4.745   2.898   0.323
 1235SOL    HW220848   4.646   2.807   0.392
 1236SOL     OW20849   1.761   3.098   7.724
 1236SOL    HW120850   1.747   3.121   7.632
 1236SOL    HW220851   1.696   3.148   7.772
 1237SOL     OW20852   3.627   4.308   7.374
 1237SOL    HW120853   3.623   4.250   7.298
 1237SOL    HW220854   3.536   4.317   7.403
 1238SOL     OW20855   1.353   5.482   7.810
 1238SOL    HW120856   1.308   5.449   7.888
 1238SOL    HW220857   1.389   5.403   7.769
 1239SOL     OW20858   2.018   1.783   1.255
 1239SOL    HW120859   2.072   1.813   1.328
 1239SOL    HW220860   1.956   1.855   1.241
 1240SOL     OW20861   0.967   2.067   7.463
 1240SOL    HW120862   0.923   2.148   7.490
 1240SOL    HW220863   0.907   1.997   7.490
 1241SOL     OW20864   2.058   6.071   7.719
 1241SOL    HW120865   2.071   6.107   7.631
 1241SOL    HW220866   1.967   6.041   7.720
 1242SOL     OW20867   6.121   2.608   7.501
 1242SOL    HW120868   6.036   2.643   7.528
 1242SOL    HW220869   6.171   2.600   7.583
 1243SOL     OW20870   3.251   4.773   1.955
 1243SOL    HW120871   3.181   4.834   1.979
 1243SOL    HW220872   3.317   4.783   2.024
 1244SOL     OW20873   5.589   2.449   6.104
 1244SOL    HW120874   5.577   2.379   6.040
 1244SOL    HW220875   5.528   2.518   6.077
 1245SOL     OW20876   3.608   0.892   1.608
 1245SOL    HW120877   3.581   0.915   1.697
 1245SOL    HW220878   3.526   0.868   1.564
 1246SOL     OW20879   2.928   6.250   7.505
 1246SOL    HW120880   2.881   6.316   7.453
 1246SOL    HW220881   2.900   6.166   7.467
 1247SOL     OW20882   1.882   1.191   5.765
 1247SOL    HW120883   1.839   1.188   5.679
 1247SOL    HW220884   1.811   1.210   5.826
 1248SOL     OW20885   5.709   3.309   5.963
 1248SOL    HW120886   5.758   3.376   5.916
 1248SOL    HW220887   5.753   3.227   5.941
 1249SOL     OW20888   5.757   5.768   1.005
 1249SOL    HW120889   5.789   5.728   1.086
 1249SOL    HW220890   5.833   5.766   0.946
 1250SOL     OW20891   0.501   1.259   6.665
 1250SOL    HW120892   0.440   1.266   6.592
 1250SOL    HW220893   0.559   1.334   6.656
 1251SOL     OW20894   0.209   3.583   5.743
 1251SOL    HW120895   0.166   3.500   5.722
 1251SOL    HW220896   0.301   3.560   5.756
 1252SOL     OW20897   4.362   2.467   1.212
 1252SOL    HW120898   4.344   2.497   1.301
 1252SOL    HW220899   4.456   2.447   1.211
 1253SOL     OW20900   2.020   2.563   5.253
 1253SOL    HW120901   2.102   2.612   5.256
 1253SOL    HW220902   1.974   2.588   5.333
 1254SOL     OW20903   4.785   4.781   7.785
 1254SOL    HW120904   4.845   4.714   7.816
 1254SOL    HW220905   4.698   4.744   7.800
 1255SOL     OW20906   1.033   3.431   0.576
 1255SOL    HW120907   1.050   3.498   0.510
 1255SOL    HW220908   0.938   3.426   0.581
 1256SOL     OW20909   4.702   2.281   0.552
 1256SOL    HW120910   4.782   2.260   0.600
 1256SOL    HW220911   4.700   2.376   0.548
 1257SOL     OW20912   4.760   1.910   1.463
 1257SOL    HW120913   4.692   1.945   1.520
 1257SOL    HW220914   4.714   1.851   1.404
 1258SOL     OW20915   5.319   5.067   7.477
 1258SOL    HW120916   5.269   5.129   7.425
 1258SOL    HW220917   5.409   5.098   7.471
 1259SOL     OW20918   4.472   3.460   1.244
 1259SOL    HW120919   4.500   3.507   1.322
 1259SOL    HW220920   4.510   3.372   1.253
 1260SOL     OW20921   2.088   3.690   1.888
 1260SOL    HW120922   2.022   3.698   1.820
 1260SOL    HW220923   2.080   3.599   1.918
 1261SOL     OW20924   6.246   4.626   7.697
 1261SOL    HW120925   6.160   4.626   7.737
 1261SOL    HW220926   6.244   4.699   7.635
 1262SOL     OW20927   0.908   5.949   7.839
 1262SOL    HW120928   0.935   6.041   7.836
 1262SOL    HW220929   0.990   5.901   7.856
 1263SOL     OW20930   6.342   6.203   7.627
 1263SOL    HW120931   6.271   6.266   7.640
 1263SOL    HW220932   6.301   6.132   7.578
 1264SOL     OW20933   0.821   6.138   5.993
 1264SOL    HW120934   0.769   6.087   6.055
 1264SOL    HW220935   0.861   6.208   6.045
 1265SOL     OW20936   0.517   4.655   0.551
 1265SOL    HW120937   0.601   4.619   0.522
 1265SOL    HW220938   0.524   4.656   0.647
 1266SOL     OW20939   5.170   3.199   0.703
 1266SOL    HW120940   5.150   3.237   0.789
 1266SOL    HW220941   5.264   3.185   0.705
 1267SOL     OW20942   2.727   5.541   0.428
 1267SOL    HW120943   2.640   5.574   0.406
 1267SOL    HW220944   2.787   5.593   0.376
 1268SOL     OW20945   4.659   1.300   7.217
 1268SOL    HW120946   4.679   1.295   7.311
 1268SOL    HW220947   4.633   1.211   7.194
 1269SOL     OW20948   4.055   2.743   0.445
 1269SOL    HW120949   4.041   2.790   0.362
 1269SOL    HW220950   4.110   2.802   0.497
 1270SOL     OW20951   1.435   5.568   7.562
 1270SOL    HW120952   1.409   5.607   7.645
 1270SOL    HW220953   1.520   5.528   7.580
 1271SOL     OW20954   1.500   2.939   7.052
 1271SOL    HW120955   1.434   2.879   7.088
 1271SOL    HW220956   1.563   2.951   7.123
 1272SOL     OW20957   6.283   1.732   6.894
 1272SOL    HW120958   6.373   1.709   6.871
 1272SOL    HW220959   6.273   1.822   6.862
 1273SOL     OW20960   4.729   4.239   6.017
 1273SOL    HW120961   4.721   4.146   6.040
 1273SOL    HW220962   4.823   4.255   6.016
 1274SOL     OW20963   3.123   3.579   1.822
 1274SOL    HW120964   3.111   3.672   1.807
 1274SOL    HW220965   3.195   3.573   1.885
 1275SOL     OW20966   2.575   4.000   1.077
 1275SOL    HW120967   2.557   3.975   1.168
 1275SOL    HW220968   2.663   3.967   1.060
 1276SOL     OW20969   2.998   4.802   0.298
 1276SOL    HW120970   2.909   4.825   0.270
 1276SOL    HW220971   3.053   4.831   0.226
 1277SOL     OW20972   0.090   3.729   7.869
 1277SOL    HW120973   0.096   3.634   7.855
 1277SOL    HW220974   0.027   3.759   7.804
 1278SOL     OW20975   5.132   5.741   2.374
 1278SOL    HW120976   5.100   5.656   2.403
 1278SOL    HW220977   5.074   5.805   2.416
 1279SOL     OW20978   0.550   6.066   1.811
 1279SOL    HW120979   0.593   6.137   1.859
 1279SOL    HW220980   0.621   6.006   1.790
 1280SOL     OW20981   6.148   3.834   1.689
 1280SOL    HW120982   6.162   3.744   1.661
 1280SOL    HW220983   6.109   3.877   1.612
 1281SOL     OW20984   3.504   3.472   6.055
 1281SOL    HW120985   3.490   3.383   6.021
 1281SOL    HW220986   3.564   3.460   6.128
 1282SOL     OW20987   0.526   2.090   4.946
 1282SOL    HW120988   0.596   2.025   4.951
 1282SOL    HW220989   0.477   2.078   5.027
 1283SOL     OW20990   0.018   1.317   6.179
 1283SOL    HW120991   0.087   1.378   6.151
 1283SOL    HW220992  -0.058   1.373   6.192
 1284SOL     OW20993   5.619   4.367   1.661
 1284SOL    HW120994   5.576   4.431   1.717
 1284SOL    HW220995   5.546   4.317   1.622
 1285SOL     OW20996   0.323   3.864   5.659
 1285SOL    HW120997   0.285   3.847   5.573
 1285SOL    HW220998   0.394   3.800   5.667
 1286SOL     OW20999   1.262   3.116   1.993
 1286SOL    HW121000   1.237   3.131   1.902
 1286SOL    HW221001   1.286   3.023   1.996
 1287SOL     OW21002   1.799   0.633   7.371
 1287SOL    HW121003   1.802   0.653   7.465
 1287SOL    HW221004   1.881   0.588   7.353
 1288SOL     OW21005   0.450   5.769   0.118
 1288SOL    HW121006   0.481   5.721   0.196
 1288SOL    HW221007   0.467   5.709   0.045
 1289SOL     OW21008   2.743   6.105   5.716
 1289SOL    HW121009   2.837   6.122   5.715
 1289SOL    HW221010   2.736   6.012   5.694
 1290SOL     OW21011   5.139   0.281   6.775
 1290SOL    HW121012   5.174   0.367   6.750
 1290SOL    HW221013   5.140   0.231   6.694
 1291SOL     OW21014   0.453   3.080   5.637
 1291SOL    HW121015   0.394   3.047   5.570
 1291SOL    HW221016   0.399   3.087   5.716
 1292SOL     OW21017   5.764   3.260   0.035
 1292SOL    HW121018   5.732   3.251  -0.054
 1292SOL    HW221019   5.796   3.351   0.039
 1293SOL     OW21020   5.899   2.722   7.293
 1293SOL    HW121021   5.812   2.729   7.334
 1293SOL    HW221022   5.938   2.644   7.334
 1294SOL     OW21023   6.115   6.220   7.812
 1294SOL    HW121024   6.178   6.164   7.857
 1294SOL    HW221025   6.035   6.169   7.810
 1295SOL     OW21026   4.938   4.945   6.294
 1295SOL    HW121027   4.869   4.921   6.233
 1295SOL    HW221028   5.003   4.876   6.285
 1296SOL     OW21029   1.901   0.456   6.296
 1296SOL    HW121030   1.893   0.551   6.286
 1296SOL    HW221031   1.813   0.422   6.278
 1297SOL     OW21032   4.583   2.252   6.816
 1297SOL    HW121033   4.494   2.287   6.815
 1297SOL    HW221034   4.636   2.321   6.777
 1298SOL     OW21035   4.292   0.741   6.217
 1298SOL    HW121036   4.288   0.830   6.182
 1298SOL    HW221037   4.329   0.751   6.305
 1299SOL     OW21038   4.424   4.835   1.150
 1299SOL    HW121039   4.368   4.836   1.072
 1299SOL    HW221040   4.366   4.804   1.220
 1300SOL     OW21041   1.896   2.082   7.565
 1300SOL    HW121042   1.941   2.047   7.489
 1300SOL    HW221043   1.927   2.029   7.638
 1301SOL     OW21044   1.726   1.912   0.054
 1301SOL    HW121045   1.665   1.985   0.042
 1301SOL    HW221046   1.673   1.834   0.040
 1302SOL     OW21047   1.075   6.197   7.696
 1302SOL    HW121048   1.085   6.155   7.611
 1302SOL    HW221049   1.066   6.290   7.676
 1303SOL     OW21050   0.805   0.013   6.898
 1303SOL    HW121051   0.756  -0.054   6.851
 1303SOL    HW221052   0.825  -0.027   6.982
 1304SOL     OW21053   0.912   4.976   0.128
 1304SOL    HW121054   0.914   5.031   0.049
 1304SOL    HW221055   0.983   4.913   0.115
 1305SOL     OW21056   1.230   0.144   0.770
 1305SOL    HW121057   1.153   0.159   0.824
 1305SOL    HW221058   1.198   0.092   0.696
 1306SOL     OW21059   4.419   4.517   6.583
 1306SOL    HW121060   4.389   4.452   6.646
 1306SOL    HW221061   4.373   4.597   6.608
 1307SOL     OW21062   6.302   3.295   5.166
 1307SOL    HW121063   6.209   3.309   5.148
 1307SOL    HW221064   6.311   3.201   5.175
 1308SOL     OW21065   4.127   3.086   1.612
 1308SOL    HW121066   4.058   3.149   1.632
 1308SOL    HW221067   4.188   3.092   1.686
 1309SOL     OW21068   6.142   6.045   7.498
 1309SOL    HW121069   6.082   6.113   7.465
 1309SOL    HW221070   6.084   5.975   7.527
 1310SOL     OW21071   2.458   1.885   7.443
 1310SOL    HW121072   2.407   1.887   7.362
 1310SOL    HW221073   2.399   1.920   7.509
 1311SOL     OW21074   1.857   4.933   5.435
 1311SOL    HW121075   1.827   5.009   5.385
 1311SOL    HW221076   1.779   4.903   5.482
 1312SOL     OW21077   4.640   5.426   7.456
 1312SOL    HW121078   4.673   5.488   7.521
 1312SOL    HW221079   4.624   5.480   7.378
 1313SOL     OW21080   3.512   2.732   2.315
 1313SOL    HW121081   3.554   2.651   2.287
 1313SOL    HW221082   3.585   2.787   2.344
 1314SOL     OW21083   2.479   3.962   6.281
 1314SOL    HW121084   2.440   3.927   6.201
 1314SOL    HW221085   2.428   3.922   6.352
 1315SOL     OW21086   3.971   0.732   0.488
 1315SOL    HW121087   4.021   0.657   0.456
 1315SOL    HW221088   4.014   0.756   0.570
 1316SOL     OW21089   6.192   4.762   4.683
 1316SOL    HW121090   6.111   4.730   4.643
 1316SOL    HW221091   6.178   4.856   4.692
 1317SOL     OW21092   0.677   1.824   1.428
 1317SOL    HW121093   0.595   1.858   1.391
 1317SOL    HW221094   0.651   1.787   1.513
 1318SOL     OW21095   1.624   4.003   6.672
 1318SOL    HW121096   1.563   4.011   6.745
 1318SOL    HW221097   1.610   3.914   6.639
 1319SOL     OW21098   6.167   4.435   0.324
 1319SOL    HW121099   6.153   4.528   0.346
 1319SOL    HW221100   6.140   4.388   0.403
 1320SOL     OW21101   5.324   0.119   7.147
 1320SOL    HW121102   5.342   0.197   7.201
 1320SOL    HW221103   5.384   0.127   7.073
 1321SOL     OW21104   4.686   1.634   6.974
 1321SOL    HW121105   4.612   1.574   6.977
 1321SOL    HW221106   4.751   1.597   7.033
 1322SOL     OW21107   6.038   1.228   7.239
 1322SOL    HW121108   6.073   1.294   7.179
 1322SOL    HW221109   6.069   1.145   7.203
 1323SOL     OW21110   4.900   6.178   7.200
 1323SOL    HW121111   4.898   6.187   7.105
 1323SOL    HW221112   4.844   6.250   7.231
 1324SOL     OW21113   0.528   4.799   0.144
 1324SOL    HW121114   0.609   4.810   0.094
 1324SOL    HW221115   0.548   4.729   0.206
 1325SOL     OW21116   1.084   5.125   0.370
 1325SOL    HW121117   1.085   5.202   0.313
 1325SOL    HW221118   1.035   5.059   0.321
 1326SOL     OW21119   5.306   5.546   1.015
 1326SOL    HW121120   5.347   5.498   0.943
 1326SOL    HW221121   5.371   5.611   1.041
 1327SOL     OW21122   3.591   2.550   6.393
 1327SOL    HW121123   3.607   2.455   6.399
 1327SOL    HW221124   3.498   2.557   6.373
 1328SOL     OW21125   0.226   2.677   7.154
 1328SOL    HW121126   0.157   2.611   7.152
 1328SOL    HW221127   0.287   2.650   7.085
 1329SOL     OW21128   6.122   4.576   6.542
 1329SOL    HW121129   6.185   4.550   6.609
 1329SOL    HW221130   6.167   4.643   6.490
 1330SOL     OW21131   3.596   6.216   0.971
 1330SOL    HW121132   3.687   6.243   0.979
 1330SOL    HW221133   3.558   6.231   1.058
 1331SOL     OW21134   2.623   4.562   5.860
 1331SOL    HW121135   2.680   4.500   5.813
 1331SOL    HW221136   2.612   4.634   5.798
 1332SOL     OW21137   0.669   1.801   6.245
 1332SOL    HW121138   0.652   1.726   6.302
 1332SOL    HW221139   0.661   1.766   6.156
 1333SOL     OW21140   3.700   4.018   6.338
 1333SOL    HW121141   3.724   3.950   6.275
 1333SOL    HW221142   3.621   4.058   6.301
 1334SOL     OW21143   0.804   2.065   1.492
 1334SOL    HW121144   0.747   2.089   1.565
 1334SOL    HW221145   0.760   1.993   1.449
 1335SOL     OW21146   3.989   1.076   5.678
 1335SOL    HW121147   3.916   1.105   5.623
 1335SOL    HW221148   4.033   1.157   5.705
 1336SOL     OW21149   3.689   3.249   6.918
 1336SOL    HW121150   3.613   3.254   6.860
 1336SOL    HW221151   3.755   3.305   6.877
 1337SOL     OW21152   3.847   2.937   7.529
 1337SOL    HW121153   3.853   2.842   7.539
 1337SOL    HW221154   3.787   2.964   7.598
 1338SOL     OW21155   2.149   2.123   5.344
 1338SOL    HW121156   2.082   2.098   5.280
 1338SOL    HW221157   2.193   2.199   5.306
 1339SOL     OW21158   1.759   5.980   0.971
 1339SOL    HW121159   1.693   6.046   0.993
 1339SOL    HW221160   1.791   6.006   0.885
 1340SOL     OW21161   5.035   6.350   6.398
 1340SOL    HW121162   5.066   6.260   6.405
 1340SOL    HW221163   5.035   6.369   6.304
 1341SOL     OW21164   2.119   2.538   7.223
 1341SOL    HW121165   2.116   2.446   7.250
 1341SOL    HW221166   2.208   2.566   7.244
 1342SOL     OW21167   0.113   2.862   6.915
 1342SOL    HW121168   0.027   2.838   6.947
 1342SOL    HW221169   0.127   2.951   6.949
 1343SOL     OW21170   5.129   4.292   7.661
 1343SOL    HW121171   5.060   4.261   7.604
 1343SOL    HW221172   5.208   4.289   7.608
 1344SOL     OW21173   0.838   5.446   1.043
 1344SOL    HW121174   0.917   5.486   1.008
 1344SOL    HW221175   0.768   5.505   1.016
 1345SOL     OW21176   0.274   4.617   0.009
 1345SOL    HW121177   0.350   4.656   0.050
 1345SOL    HW221178   0.201   4.675   0.031
 1346SOL     OW21179   3.903   6.112   7.726
 1346SOL    HW121180   3.927   6.041   7.786
 1346SOL    HW221181   3.865   6.068   7.650
 1347SOL     OW21182   4.022   6.380   6.336
 1347SOL    HW121183   4.000   6.346   6.249
 1347SOL    HW221184   3.977   6.464   6.341
 1348SOL     OW21185   4.512   1.229   0.715
 1348SOL    HW121186   4.546   1.269   0.635
 1348SOL    HW221187   4.441   1.287   0.743
 1349SOL     OW21188   3.786   0.910   6.689
 1349SOL    HW121189   3.820   0.822   6.702
 1349SOL    HW221190   3.860   0.960   6.655
 1350SOL     OW21191   2.681   2.609   0.827
 1350SOL    HW121192   2.647   2.697   0.813
 1350SOL    HW221193   2.608   2.561   0.866
 1351SOL     OW21194   3.793   5.621   6.667
 1351SOL    HW121195   3.758   5.584   6.586
 1351SOL    HW221196   3.850   5.692   6.637
 1352SOL     OW21197   4.298   0.051   0.954
 1352SOL    HW121198   4.279   0.141   0.982
 1352SOL    HW221199   4.390   0.039   0.974
 1353SOL     OW21200   0.543   0.011   5.363
 1353SOL    HW121201   0.591   0.060   5.296
 1353SOL    HW221202   0.452   0.041   5.355
 1354SOL     OW21203   1.849   6.334   5.799
 1354SOL    HW121204   1.831   6.362   5.710
 1354SOL    HW221205   1.910   6.261   5.790
 1355SOL     OW21206   4.494   2.217   7.313
 1355SOL    HW121207   4.441   2.184   7.386
 1355SOL    HW221208   4.464   2.307   7.300
 1356SOL     OW21209   4.414   5.859   6.616
 1356SOL    HW121210   4.449   5.932   6.667
 1356SOL    HW221211   4.492   5.814   6.582
 1357SOL     OW21212   4.865   3.719   7.763
 1357SOL    HW121213   4.920   3.786   7.805
 1357SOL    HW221214   4.836   3.663   7.834
 1358SOL     OW21215   4.384   5.575   0.782
 1358SOL    HW121216   4.431   5.511   0.835
 1358SOL    HW221217   4.369   5.648   0.841
 1359SOL     OW21218   0.920   4.519   6.616
 1359SOL    HW121219   0.973   4.600   6.618
 1359SOL    HW221220   0.984   4.449   6.626
 1360SOL     OW21221   6.122   5.456   6.656
 1360SOL    HW121222   6.029   5.439   6.668
 1360SOL    HW221223   6.164   5.415   6.732
 1361SOL     OW21224   3.566   4.621   7.329
 1361SOL    HW121225   3.648   4.629   7.377
 1361SOL    HW221226   3.554   4.527   7.316
 1362SOL     OW21227   3.678   2.764   1.294
 1362SOL    HW121228   3.633   2.762   1.209
 1362SOL    HW221229   3.608   2.780   1.357
 1363SOL     OW21230   0.227   4.550   5.901
 1363SOL    HW121231   0.299   4.569   5.841
 1363SOL    HW221232   0.152   4.532   5.844
 1364SOL     OW21233   6.256   4.924   7.509
 1364SOL    HW121234   6.269   4.976   7.430
 1364SOL    HW221235   6.191   4.858   7.483
 1365SOL     OW21236   3.402   4.436   1.555
 1365SOL    HW121237   3.390   4.370   1.486
 1365SOL    HW221238   3.363   4.396   1.633
 1366SOL     OW21239   0.329   3.222   0.195
 1366SOL    HW121240   0.410   3.196   0.240
 1366SOL    HW221241   0.278   3.141   0.192
 1367SOL     OW21242   5.818   4.955   0.896
 1367SOL    HW121243   5.755   4.884   0.895
 1367SOL    HW221244   5.767   5.034   0.879
 1368SOL     OW21245   2.787   5.891   1.504
 1368SOL    HW121246   2.702   5.853   1.528
 1368SOL    HW221247   2.787   5.977   1.545
 1369SOL     OW21248   3.156   2.745   2.281
 1369SOL    HW121249   3.208   2.666   2.267
 1369SOL    HW221250   3.116   2.762   2.196
 1370SOL     OW21251   1.848   3.908   7.574
 1370SOL    HW121252   1.924   3.956   7.608
 1370SOL    HW221253   1.873   3.883   7.486
 1371SOL     OW21254   2.313   4.136   0.470
 1371SOL    HW121255   2.248   4.081   0.426
 1371SOL    HW221256   2.288   4.226   0.448
 1372SOL     OW21257   3.440   3.425   0.557
 1372SOL    HW121258   3.414   3.501   0.505
 1372SOL    HW221259   3.446   3.458   0.647
 1373SOL     OW21260   0.115   3.047   0.825
 1373SOL    HW121261   0.048   3.096   0.778
 1373SOL    HW221262   0.083   3.043   0.915
 1374SOL     OW21263   3.675   4.832   7.056
 1374SOL    HW121264   3.711   4.856   7.141
 1374SOL    HW221265   3.681   4.737   7.052
 1375SOL     OW21266   3.136   4.190   6.757
 1375SOL    HW121267   3.049   4.212   6.723
 1375SOL    HW221268   3.134   4.095   6.767
 1376SOL     OW21269   6.401   4.479   0.942
 1376SOL    HW121270   6.369   4.536   1.011
 1376SOL    HW221271   6.453   4.413   0.987
 1377SOL     OW21272   3.474   0.155   0.110
 1377SOL    HW121273   3.447   0.076   0.063
 1377SOL    HW221274   3.546   0.127   0.165
 1378SOL     OW21275   3.339   3.121   0.407
 1378SOL    HW121276   3.385   3.204   0.392
 1378SOL    HW221277   3.329   3.116   0.502
 1379SOL     OW21278   2.257   2.016   5.754
 1379SOL    HW121279   2.265   1.926   5.786
 1379SOL    HW221280   2.260   2.008   5.659
 1380SOL     OW21281   5.673   2.351   7.089
 1380SOL    HW121282   5.708   2.316   7.008
 1380SOL    HW221283   5.749   2.382   7.137
 1381SOL     OW21284   5.673   5.855   7.370
 1381SOL    HW121285   5.579   5.858   7.351
 1381SOL    HW221286   5.697   5.763   7.359
 1382SOL     OW21287   1.688   6.316   6.832
 1382SOL    HW121288   1.725   6.403   6.847
 1382SOL    HW221289   1.743   6.258   6.884
 1383SOL     OW21290   3.485   3.290   5.293
 1383SOL    HW121291   3.449   3.261   5.377
 1383SOL    HW221292   3.415   3.274   5.230
 1384SOL     OW21293   1.692   5.266   1.809
 1384SOL    HW121294   1.704   5.215   1.729
 1384SOL    HW221295   1.686   5.200   1.878
 1385SOL     OW21296   0.018   4.815   5.669
 1385SOL    HW121297   0.099   4.765   5.653
 1385SOL    HW221298   0.012   4.874   5.594
 1386SOL     OW21299   3.835   6.125   7.099
 1386SOL    HW121300   3.832   6.059   7.168
 1386SOL    HW221301   3.926   6.155   7.099
 1387SOL     OW21302   0.623   2.298   1.457
 1387SOL    HW121303   0.699   2.316   1.512
 1387SOL    HW221304   0.643   2.215   1.414
 1388SOL     OW21305   1.338   2.534   7.037
 1388SOL    HW121306   1.333   2.447   6.997
 1388SOL    HW221307   1.399   2.524   7.110
 1389SOL     OW21308   6.352   1.026   0.174
 1389SOL    HW121309   6.270   1.044   0.129
 1389SOL    HW221310   6.383   1.112   0.203
 1390SOL     OW21311   1.677   0.539   6.958
 1390SOL    HW121312   1.658   0.626   6.922
 1390SOL    HW221313   1.746   0.555   7.022
 1391SOL     OW21314   5.198   2.556   1.580
 1391SOL    HW121315   5.194   2.460   1.583
 1391SOL    HW221316   5.292   2.576   1.584
 1392SOL     OW21317   0.931   2.684   1.010
 1392SOL    HW121318   0.952   2.776   0.993
 1392SOL    HW221319   0.881   2.657   0.933
 1393SOL     OW21320   0.464   3.486   6.498
 1393SOL    HW121321   0.457   3.500   6.404
 1393SOL    HW221322   0.502   3.567   6.532
 1394SOL     OW21323   5.295   6.067   6.699
 1394SOL    HW121324   5.273   6.029   6.614
 1394SOL    HW221325   5.210   6.084   6.740
 1395SOL     OW21326   2.984   5.222   0.602
 1395SOL    HW121327   2.936   5.243   0.682
 1395SOL    HW221328   2.920   5.229   0.532
 1396SOL     OW21329   5.941   4.950   7.580
 1396SOL    HW121330   5.859   4.921   7.539
 1396SOL    HW221331   5.934   5.045   7.583
 1397SOL     OW21332   1.315   1.606   6.310
 1397SOL    HW121333   1.401   1.645   6.326
 1397SOL    HW221334   1.310   1.533   6.372
 1398SOL     OW21335   0.707   4.923   4.763
 1398SOL    HW121336   0.772   4.853   4.766
 1398SOL    HW221337   0.623   4.877   4.772
 1399SOL     OW21338   2.313   3.266   6.404
 1399SOL    HW121339   2.361   3.348   6.391
 1399SOL    HW221340   2.224   3.285   6.376
 1400SOL     OW21341   6.031   5.993   0.313
 1400SOL    HW121342   6.107   6.003   0.256
 1400SOL    HW221343   6.035   5.901   0.341
 1401SOL     OW21344   3.359   4.898   6.792
 1401SOL    HW121345   3.397   4.926   6.875
 1401SOL    HW221346   3.430   4.909   6.728
 1402SOL     OW21347   2.690   1.170   6.413
 1402SOL    HW121348   2.658   1.081   6.400
 1402SOL    HW221349   2.768   1.175   6.357
 1403SOL     OW21350   4.500   1.164   1.217
 1403SOL    HW121351   4.511   1.197   1.128
 1403SOL    HW221352   4.582   1.187   1.262
 1404SOL     OW21353   4.016   4.013   5.994
 1404SOL    HW121354   4.016   4.109   5.997
 1404SOL    HW221355   4.108   3.989   5.980
 1405SOL     OW21356   1.968   5.770   0.378
 1405SOL    HW121357   1.923   5.739   0.299
 1405SOL    HW221358   2.029   5.700   0.400
 1406SOL     OW21359   2.377   5.350   6.885
 1406SOL    HW121360   2.467   5.377   6.869
 1406SOL    HW221361   2.328   5.382   6.809
 1407SOL     OW21362   0.060   1.801   0.673
 1407SOL    HW121363   0.084   1.887   0.640
 1407SOL    HW221364   0.102   1.796   0.759
 1408SOL     OW21365   2.075   3.698   6.856
 1408SOL    HW121366   2.059   3.606   6.834
 1408SOL    HW221367   2.031   3.747   6.787
 1409SOL     OW21368   2.812   4.559   6.118
 1409SOL    HW121369   2.760   4.585   6.194
 1409SOL    HW221370   2.799   4.464   6.112
 1410SOL     OW21371   0.121   4.940   7.562
 1410SOL    HW121372   0.034   4.933   7.521
 1410SOL    HW221373   0.118   5.024   7.608
 1411SOL     OW21374   0.789   2.647   1.245
 1411SOL    HW121375   0.796   2.558   1.280
 1411SOL    HW221376   0.768   2.634   1.152
 1412SOL     OW21377   3.037   3.015   7.255
 1412SOL    HW121378   3.072   3.007   7.344
 1412SOL    HW221379   2.954   3.061   7.266
 1413SOL     OW21380   4.341   1.453   7.613
 1413SOL    HW121381   4.357   1.454   7.707
 1413SOL    HW221382   4.386   1.530   7.580
 1414SOL     OW21383   4.476   6.026   0.837
 1414SOL    HW121384   4.488   5.966   0.763
 1414SOL    HW221385   4.397   6.075   0.816
 1415SOL     OW21386   1.636   3.516   7.494
 1415SOL    HW121387   1.613   3.558   7.411
 1415SOL    HW221388   1.721   3.475   7.477
 1416SOL     OW21389   0.742   1.068   2.315
 1416SOL    HW121390   0.725   1.097   2.225
 1416SOL    HW221391   0.742   1.149   2.366
 1417SOL     OW21392   2.664   1.420   7.537
 1417SOL    HW121393   2.733   1.403   7.472
 1417SOL    HW221394   2.618   1.497   7.503
 1418SOL     OW21395   3.296   0.250   6.481
 1418SOL    HW121396   3.368   0.187   6.485
 1418SOL    HW221397   3.248   0.237   6.563
 1419SOL     OW21398   2.917   3.166   0.321
 1419SOL    HW121399   2.976   3.188   0.249
 1419SOL    HW221400   2.965   3.103   0.374
 1420SOL     OW21401   1.125   1.251   0.678
 1420SOL    HW121402   1.213   1.283   0.696
 1420SOL    HW221403   1.138   1.173   0.624
 1421SOL     OW21404   0.563   3.788   5.922
 1421SOL    HW121405   0.512   3.868   5.915
 1421SOL    HW221406   0.651   3.813   5.893
 1422SOL     OW21407   1.041   4.332   0.189
 1422SOL    HW121408   1.001   4.293   0.266
 1422SOL    HW221409   0.971   4.382   0.148
 1423SOL     OW21410   3.307   3.466   7.296
 1423SOL    HW121411   3.294   3.382   7.339
 1423SOL    HW221412   3.381   3.452   7.237
 1424SOL     OW21413   4.942   3.419   7.130
 1424SOL    HW121414   5.033   3.447   7.121
 1424SOL    HW221415   4.923   3.374   7.047
 1425SOL     OW21416   0.940   0.651   7.076
 1425SOL    HW121417   0.866   0.601   7.110
 1425SOL    HW221418   0.914   0.676   6.988
 1426SOL     OW21419   2.631   0.362   0.083
 1426SOL    HW121420   2.587   0.362   0.168
 1426SOL    HW221421   2.710   0.310   0.096
 1427SOL     OW21422   4.915   4.007   6.356
 1427SOL    HW121423   4.969   4.081   6.384
 1427SOL    HW221424   4.875   4.036   6.274
 1428SOL     OW21425   0.442   1.820   0.766
 1428SOL    HW121426   0.526   1.827   0.811
 1428SOL    HW221427   0.457   1.857   0.679
 1429SOL     OW21428   3.970   1.570   6.823
 1429SOL    HW121429   4.006   1.637   6.763
 1429SOL    HW221430   3.961   1.492   6.768
 1430SOL     OW21431   2.275   5.904   7.555
 1430SOL    HW121432   2.246   5.825   7.510
 1430SOL    HW221433   2.237   5.976   7.504
 1431SOL     OW21434   3.291   0.557   7.786
 1431SOL    HW121435   3.304   0.463   7.797
 1431SOL    HW221436   3.356   0.598   7.843
 1432SOL     OW21437   3.579   5.207   6.788
 1432SOL    HW121438   3.657   5.195   6.843
 1432SOL    HW221439   3.524   5.132   6.809
 1433SOL     OW21440   3.763   0.506   6.776
 1433SOL    HW121441   3.801   0.434   6.727
 1433SOL    HW221442   3.672   0.509   6.747
 1434SOL     OW21443   5.764   0.450  -0.001
 1434SOL    HW121444   5.693   0.446   0.064
 1434SOL    HW221445   5.791   0.359  -0.013
 1435SOL     OW21446   5.671   6.258   6.078
 1435SOL    HW121447   5.744   6.220   6.127
 1435SOL    HW221448   5.668   6.349   6.107
 1436SOL     OW21449   0.392   4.011   0.330
 1436SOL    HW121450   0.326   3.995   0.263
 1436SOL    HW221451   0.397   4.106   0.338
 1437SOL     OW21452   4.186   4.039   7.036
 1437SOL    HW121453   4.273   4.072   7.015
 1437SOL    HW221454   4.142   4.033   6.951
 1438SOL     OW21455   0.433   0.596   0.180
 1438SOL    HW121456   0.373   0.537   0.226
 1438SOL    HW221457   0.386   0.679   0.175
 1439SOL     OW21458   3.229   1.663   6.973
 1439SOL    HW121459   3.176   1.732   6.934
 1439SOL    HW221460   3.244   1.692   7.063
 1440SOL     OW21461   5.509   6.380   6.329
 1440SOL    HW121462   5.500   6.389   6.424
 1440SOL    HW221463   5.601   6.398   6.311
 1441SOL     OW21464   1.330   0.207   7.841
 1441SOL    HW121465   1.334   0.295   7.879
 1441SOL    HW221466   1.374   0.215   7.757
 1442SOL     OW21467   4.578   1.264   0.966
 1442SOL    HW121468   4.667   1.298   0.970
 1442SOL    HW221469   4.561   1.253   0.873
 1443SOL     OW21470   2.460   5.569   0.370
 1443SOL    HW121471   2.406   5.555   0.293
 1443SOL    HW221472   2.432   5.502   0.432
 1444SOL     OW21473   0.878   2.747   7.322
 1444SOL    HW121474   0.872   2.745   7.226
 1444SOL    HW221475   0.934   2.673   7.344
 1445SOL     OW21476   0.615   2.545   7.103
 1445SOL    HW121477   0.697   2.507   7.137
 1445SOL    HW221478   0.589   2.609   7.169
 1446SOL     OW21479   2.512   1.360   0.132
 1446SOL    HW121480   2.579   1.346   0.066
 1446SOL    HW221481   2.515   1.454   0.150
 1447SOL     OW21482   2.558   2.858   0.845
 1447SOL    HW121483   2.561   2.862   0.941
 1447SOL    HW221484   2.625   2.920   0.816
 1448SOL     OW21485   5.049   5.578   0.022
 1448SOL    HW121486   5.081   5.493  -0.008
 1448SOL    HW221487   5.035   5.566   0.116
 1449SOL     OW21488   2.535   1.624   1.861
 1449SOL    HW121489   2.582   1.657   1.938
 1449SOL    HW221490   2.576   1.540   1.842
 1450SOL     OW21491   6.083   0.926   5.517
 1450SOL    HW121492   6.093   1.019   5.494
 1450SOL    HW221493   6.173   0.893   5.522
 1451SOL     OW21494   3.354   4.357   7.435
 1451SOL    HW121495   3.280   4.402   7.396
 1451SOL    HW221496   3.318   4.311   7.511
 1452SOL     OW21497   6.235   0.626   5.220
 1452SOL    HW121498   6.269   0.537   5.219
 1452SOL    HW221499   6.260   0.661   5.306
 1453SOL     OW21500   2.345   3.968   6.542
 1453SOL    HW121501   2.389   3.935   6.620
 1453SOL    HW221502   2.364   4.062   6.542
 1454SOL     OW21503   6.156   2.642   6.444
 1454SOL    HW121504   6.198   2.595   6.373
 1454SOL    HW221505   6.226   2.660   6.506
 1455SOL     OW21506   1.325   5.506   6.380
 1455SOL    HW121507   1.366   5.432   6.424
 1455SOL    HW221508   1.342   5.580   6.439
 1456SOL     OW21509   1.135   1.101   7.770
 1456SOL    HW121510   1.081   1.136   7.700
 1456SOL    HW221511   1.222   1.138   7.753
 1457SOL     OW21512   5.351   1.311   7.682
 1457SOL    HW121513   5.263   1.337   7.706
 1457SOL    HW221514   5.389   1.390   7.642
 1458SOL     OW21515   4.584   1.686   6.377
 1458SOL    HW121516   4.607   1.658   6.465
 1458SOL    HW221517   4.571   1.781   6.385
 1459SOL     OW21518   3.226   4.426   0.466
 1459SOL    HW121519   3.199   4.394   0.380
 1459SOL    HW221520   3.170   4.502   0.482
 1460SOL     OW21521   1.203   4.618   0.908
 1460SOL    HW121522   1.159   4.659   0.833
 1460SOL    HW221523   1.133   4.602   0.971
 1461SOL     OW21524   4.801   5.455   6.829
 1461SOL    HW121525   4.891   5.455   6.862
 1461SOL    HW221526   4.797   5.376   6.775
 1462SOL     OW21527   4.897   3.985   6.903
 1462SOL    HW121528   4.964   3.924   6.871
 1462SOL    HW221529   4.841   4.002   6.827
 1463SOL     OW21530   5.961   3.220   6.911
 1463SOL    HW121531   5.923   3.295   6.958
 1463SOL    HW221532   5.896   3.199   6.844
 1464SOL     OW21533   5.744   2.243   2.271
 1464SOL    HW121534   5.673   2.190   2.307
 1464SOL    HW221535   5.729   2.331   2.306
 1465SOL     OW21536   5.095   6.078   7.419
 1465SOL    HW121537   5.058   6.120   7.342
 1465SOL    HW221538   5.083   5.984   7.404
 1466SOL     OW21539   2.439   3.707   0.649
 1466SOL    HW121540   2.518   3.668   0.687
 1466SOL    HW221541   2.425   3.787   0.700
 1467SOL     OW21542   5.707   0.415   1.421
 1467SOL    HW121543   5.720   0.487   1.359
 1467SOL    HW221544   5.660   0.454   1.494
 1468SOL     OW21545   3.426   6.060   0.802
 1468SOL    HW121546   3.476   6.109   0.867
 1468SOL    HW221547   3.341   6.103   0.799
 1469SOL     OW21548   0.338   2.681   5.360
 1469SOL    HW121549   0.418   2.630   5.377
 1469SOL    HW221550   0.288   2.626   5.299
 1470SOL     OW21551   0.793   3.326   1.748
 1470SOL    HW121552   0.867   3.311   1.689
 1470SOL    HW221553   0.740   3.392   1.703
 1471SOL     OW21554   2.299   1.194   0.461
 1471SOL    HW121555   2.390   1.214   0.442
 1471SOL    HW221556   2.298   1.099   0.477
 1472SOL     OW21557   4.951   1.302   6.707
 1472SOL    HW121558   4.972   1.227   6.762
 1472SOL    HW221559   4.916   1.367   6.768
 1473SOL     OW21560   2.157   5.384   0.680
 1473SOL    HW121561   2.141   5.290   0.691
 1473SOL    HW221562   2.170   5.416   0.770
 1474SOL     OW21563   0.363   1.781   6.342
 1474SOL    HW121564   0.441   1.834   6.355
 1474SOL    HW221565   0.393   1.690   6.352
 1475SOL     OW21566   0.929   1.505   2.015
 1475SOL    HW121567   0.997   1.447   2.046
 1475SOL    HW221568   0.971   1.557   1.946
 1476SOL     OW21569   2.871   2.748   6.375
 1476SOL    HW121570   2.884   2.813   6.307
 1476SOL    HW221571   2.776   2.737   6.381
 1477SOL     OW21572   1.985   1.360   5.147
 1477SOL    HW121573   1.926   1.359   5.222
 1477SOL    HW221574   1.936   1.405   5.078
 1478SOL     OW21575   5.873   3.371   6.187
 1478SOL    HW121576   5.819   3.324   6.123
 1478SOL    HW221577   5.841   3.461   6.185
 1479SOL     OW21578   5.429   0.479   0.532
 1479SOL    HW121579   5.509   0.491   0.582
 1479SOL    HW221580   5.448   0.408   0.471
 1480SOL     OW21581   5.100   5.303   7.847
 1480SOL    HW121582   5.150   5.225   7.823
 1480SOL    HW221583   5.053   5.326   7.766
 1481SOL     OW21584   2.077   4.040   7.214
 1481SOL    HW121585   2.071   4.134   7.230
 1481SOL    HW221586   2.168   4.018   7.232
 1482SOL     OW21587   4.840   5.404   1.066
 1482SOL    HW121588   4.777   5.421   1.135
 1482SOL    HW221589   4.824   5.313   1.041
 1483SOL     OW21590   4.809   1.643   6.159
 1483SOL    HW121591   4.819   1.617   6.250
 1483SOL    HW221592   4.764   1.727   6.162
 1484SOL     OW21593   0.435   5.746   6.045
 1484SOL    HW121594   0.432   5.655   6.074
 1484SOL    HW221595   0.343   5.773   6.041
 1485SOL     OW21596   0.632   2.141   6.669
 1485SOL    HW121597   0.678   2.126   6.752
 1485SOL    HW221598   0.674   2.220   6.633
 1486SOL     OW21599   1.351   3.935   0.935
 1486SOL    HW121600   1.339   3.841   0.948
 1486SOL    HW221601   1.405   3.941   0.856
 1487SOL     OW21602   6.021   1.905   0.647
 1487SOL    HW121603   6.031   1.924   0.554
 1487SOL    HW221604   5.962   1.830   0.651
 1488SOL     OW21605   1.135   3.878   7.560
 1488SOL    HW121606   1.092   3.920   7.486
 1488SOL    HW221607   1.095   3.918   7.637
 1489SOL     OW21608   4.532   2.649   6.866
 1489SOL    HW121609   4.501   2.666   6.955
 1489SOL    HW221610   4.470   2.584   6.832
 1490SOL     OW21611   3.780   0.550   0.814
 1490SOL    HW121612   3.827   0.473   0.782
 1490SOL    HW221613   3.767   0.534   0.908
 1491SOL     OW21614   4.106   1.871   6.865
 1491SOL    HW121615   4.152   1.928   6.927
 1491SOL    HW221616   4.050   1.931   6.815
 1492SOL     OW21617   5.575   1.415   5.646
 1492SOL    HW121618   5.624   1.476   5.591
 1492SOL    HW221619   5.505   1.383   5.589
 1493SOL     OW21620   6.041   4.254   1.451
 1493SOL    HW121621   5.979   4.288   1.515
 1493SOL    HW221622   6.127   4.283   1.482
 1494SOL     OW21623   3.727   4.779   5.761
 1494SOL    HW121624   3.806   4.809   5.717
 1494SOL    HW221625   3.657   4.833   5.723
 1495SOL     OW21626   6.056   5.770   1.179
 1495SOL    HW121627   5.979   5.720   1.206
 1495SOL    HW221628   6.122   5.749   1.244
 1496SOL     OW21629   1.689   4.564   0.298
 1496SOL    HW121630   1.768   4.616   0.310
 1496SOL    HW221631   1.617   4.627   0.302
 1497SOL     OW21632   3.046   2.741   5.935
 1497SOL    HW121633   3.064   2.717   5.844
 1497SOL    HW221634   3.115   2.804   5.957
 1498SOL     OW21635   2.253   5.957   5.587
 1498SOL    HW121636   2.278   5.998   5.504
 1498SOL    HW221637   2.159   5.974   5.594
 1499SOL     OW21638   5.429   2.642   0.542
 1499SOL    HW121639   5.410   2.729   0.577
 1499SOL    HW221640   5.369   2.584   0.590
 1500SOL     OW21641   3.271   5.911   5.839
 1500SOL    HW121642   3.276   5.902   5.744
 1500SOL    HW221643   3.231   5.997   5.853
 1501SOL     OW21644   1.579   1.834   5.669
 1501SOL    HW121645   1.501   1.857   5.618
 1501SOL    HW221646   1.641   1.801   5.605
 1502SOL     OW21647   0.079   4.086   6.955
 1502SOL    HW121648   0.061   4.137   6.877
 1502SOL    HW221649   0.173   4.069   6.952
 1503SOL     OW21650   2.047   5.933   1.242
 1503SOL    HW121651   2.013   5.851   1.206
 1503SOL    HW221652   1.997   5.946   1.323
 1504SOL     OW21653   1.916   5.141   2.357
 1504SOL    HW121654   1.860   5.066   2.339
 1504SOL    HW221655   2.002   5.102   2.375
 1505SOL     OW21656   5.571   1.214   7.386
 1505SOL    HW121657   5.652   1.228   7.434
 1505SOL    HW221658   5.525   1.298   7.388
 1506SOL     OW21659   5.920   4.194   5.675
 1506SOL    HW121660   5.880   4.249   5.608
 1506SOL    HW221661   5.867   4.115   5.676
 1507SOL     OW21662   0.958   4.027   5.943
 1507SOL    HW121663   1.042   3.986   5.966
 1507SOL    HW221664   0.915   3.963   5.886
 1508SOL     OW21665   4.835   2.309   5.869
 1508SOL    HW121666   4.778   2.385   5.854
 1508SOL    HW221667   4.910   2.325   5.811
 1509SOL     OW21668   3.910   3.270   1.693
 1509SOL    HW121669   3.893   3.357   1.657
 1509SOL    HW221670   3.830   3.246   1.739
 1510SOL     OW21671   3.645   4.350   1.470
 1510SOL    HW121672   3.682   4.437   1.452
 1510SOL    HW221673   3.566   4.367   1.521
 1511SOL     OW21674   3.945   1.640   1.011
 1511SOL    HW121675   3.969   1.548   1.003
 1511SOL    HW221676   3.858   1.646   0.970
 1512SOL     OW21677   2.277   5.677   7.419
 1512SOL    HW121678   2.364   5.682   7.379
 1512SOL    HW221679   2.225   5.627   7.356
 1513SOL     OW21680   5.914   4.724   0.516
 1513SOL    HW121681   6.006   4.709   0.494
 1513SOL    HW221682   5.904   4.819   0.514
 1514SOL     OW21683   4.240   1.649   7.138
 1514SOL    HW121684   4.278   1.737   7.135
 1514SOL    HW221685   4.198   1.644   7.224
 1515SOL     OW21686   4.608   3.650   7.522
 1515SOL    HW121687   4.558   3.686   7.595
 1515SOL    HW221688   4.593   3.711   7.450
 1516SOL     OW21689   1.614   1.629   6.276
 1516SOL    HW121690   1.671   1.610   6.202
 1516SOL    HW221691   1.637   1.563   6.342
 1517SOL     OW21692   0.550   5.273   7.007
 1517SOL    HW121693   0.645   5.280   6.993
 1517SOL    HW221694   0.514   5.347   6.958
 1518SOL     OW21695   3.276   3.831   1.215
 1518SOL    HW121696   3.322   3.904   1.174
 1518SOL    HW221697   3.341   3.791   1.273
 1519SOL     OW21698   1.263   4.091   6.093
 1519SOL    HW121699   1.177   4.098   6.134
 1519SOL    HW221700   1.246   4.058   6.005
 1520SOL     OW21701   2.990   5.326   1.501
 1520SOL    HW121702   3.046   5.354   1.574
 1520SOL    HW221703   3.050   5.323   1.426
 1521SOL     OW21704   5.459   3.056   7.345
 1521SOL    HW121705   5.439   3.051   7.251
 1521SOL    HW221706   5.374   3.044   7.388
 1522SOL     OW21707   0.419   4.699   1.787
 1522SOL    HW121708   0.441   4.606   1.786
 1522SOL    HW221709   0.387   4.718   1.699
 1523SOL     OW21710   2.135   4.636   7.304
 1523SOL    HW121711   2.125   4.726   7.336
 1523SOL    HW221712   2.059   4.621   7.249
 1524SOL     OW21713   2.867   2.022   6.085
 1524SOL    HW121714   2.795   1.970   6.050
 1524SOL    HW221715   2.832   2.111   6.092
 1525SOL     OW21716   5.756   0.721   0.365
 1525SOL    HW121717   5.788   0.644   0.317
 1525SOL    HW221718   5.794   0.795   0.318
 1526SOL     OW21719   5.769   4.107   1.871
 1526SOL    HW121720   5.765   4.193   1.912
 1526SOL    HW221721   5.863   4.089   1.861
 1527SOL     OW21722   5.401   2.885   6.490
 1527SOL    HW121723   5.359   2.971   6.483
 1527SOL    HW221724   5.422   2.861   6.400
 1528SOL     OW21725   1.334   1.370   2.088
 1528SOL    HW121726   1.346   1.432   2.160
 1528SOL    HW221727   1.295   1.421   2.018
 1529SOL     OW21728   0.458   1.038   0.342
 1529SOL    HW121729   0.405   1.118   0.337
 1529SOL    HW221730   0.541   1.067   0.380
 1530SOL     OW21731   4.170   1.200   0.951
 1530SOL    HW121732   4.133   1.112   0.942
 1530SOL    HW221733   4.217   1.198   1.034
 1531SOL     OW21734   0.730   4.245   7.407
 1531SOL    HW121735   0.663   4.271   7.470
 1531SOL    HW221736   0.801   4.210   7.461
 1532SOL     OW21737   0.877   2.596   7.673
 1532SOL    HW121738   0.944   2.561   7.614
 1532SOL    HW221739   0.848   2.677   7.630
 1533SOL     OW21740   3.585   2.460   6.683
 1533SOL    HW121741   3.559   2.486   6.594
 1533SOL    HW221742   3.591   2.543   6.731
 1534SOL     OW21743   5.501   6.331   0.904
 1534SOL    HW121744   5.458   6.339   0.819
 1534SOL    HW221745   5.453   6.392   0.960
 1535SOL     OW21746   5.418   4.867   6.327
 1535SOL    HW121747   5.471   4.921   6.385
 1535SOL    HW221748   5.462   4.781   6.327
 1536SOL     OW21749   6.266   5.461   6.040
 1536SOL    HW121750   6.289   5.389   6.099
 1536SOL    HW221751   6.348   5.508   6.026
 1537SOL     OW21752   6.002   3.944   7.107
 1537SOL    HW121753   6.095   3.963   7.110
 1537SOL    HW221754   5.996   3.849   7.114
 1538SOL     OW21755   5.156   3.769   0.984
 1538SOL    HW121756   5.107   3.738   0.909
 1538SOL    HW221757   5.247   3.744   0.966
 1539SOL     OW21758   1.205   4.295   5.187
 1539SOL    HW121759   1.279   4.267   5.242
 1539SOL    HW221760   1.246   4.325   5.106
 1540SOL     OW21761   0.539   5.747   0.646
 1540SOL    HW121762   0.470   5.685   0.670
 1540SOL    HW221763   0.621   5.697   0.656
 1541SOL     OW21764   4.595   3.799   7.062
 1541SOL    HW121765   4.681   3.756   7.056
 1541SOL    HW221766   4.558   3.791   6.974
 1542SOL     OW21767   0.216   5.346   5.781
 1542SOL    HW121768   0.279   5.378   5.716
 1542SOL    HW221769   0.270   5.320   5.856
 1543SOL     OW21770   1.317   0.829   4.996
 1543SOL    HW121771   1.227   0.863   5.001
 1543SOL    HW221772   1.372   0.907   5.004
 1544SOL     OW21773   3.267   6.151   7.277
 1544SOL    HW121774   3.339   6.113   7.227
 1544SOL    HW221775   3.311   6.198   7.349
 1545SOL     OW21776   1.108   4.724   6.565
 1545SOL    HW121777   1.199   4.698   6.549
 1545SOL    HW221778   1.115   4.796   6.627
 1546SOL     OW21779   2.403   3.832   6.036
 1546SOL    HW121780   2.318   3.844   5.995
 1546SOL    HW221781   2.462   3.812   5.964
 1547SOL     OW21782   4.414   4.364   1.919
 1547SOL    HW121783   4.404   4.272   1.892
 1547SOL    HW221784   4.325   4.400   1.914
 1548SOL     OW21785   5.239   5.097   6.762
 1548SOL    HW121786   5.271   5.111   6.672
 1548SOL    HW221787   5.233   5.002   6.771
 1549SOL     OW21788   2.728   0.335   0.737
 1549SOL    HW121789   2.646   0.331   0.786
 1549SOL    HW221790   2.730   0.253   0.687
 1550SOL     OW21791   3.365   4.639   1.325
 1550SOL    HW121792   3.456   4.657   1.301
 1550SOL    HW221793   3.371   4.575   1.396
 1551SOL     OW21794   5.702   1.436   6.507
 1551SOL    HW121795   5.647   1.360   6.527
 1551SOL    HW221796   5.782   1.422   6.558
 1552SOL     OW21797   4.771   2.494   6.767
 1552SOL    HW121798   4.721   2.570   6.737
 1552SOL    HW221799   4.823   2.527   6.840
 1553SOL     OW21800   2.994   6.249   7.156
 1553SOL    HW121801   3.070   6.266   7.213
 1553SOL    HW221802   2.944   6.331   7.157
 1554SOL     OW21803   0.480   4.641   0.827
 1554SOL    HW121804   0.568   4.648   0.862
 1554SOL    HW221805   0.447   4.557   0.860
 1555SOL     OW21806   4.951   2.230   5.240
 1555SOL    HW121807   4.936   2.173   5.315
 1555SOL    HW221808   4.942   2.319   5.275
 1556SOL     OW21809   0.706   4.960   0.405
 1556SOL    HW121810   0.793   4.922   0.397
 1556SOL    HW221811   0.703   5.028   0.338
 1557SOL     OW21812   6.399   1.432   7.024
 1557SOL    HW121813   6.304   1.443   7.024
 1557SOL    HW221814   6.421   1.409   7.115
 1558SOL     OW21815   1.530   0.698   0.869
 1558SOL    HW121816   1.615   0.690   0.825
 1558SOL    HW221817   1.549   0.680   0.961
 1559SOL     OW21818   3.866   3.534   6.101
 1559SOL    HW121819   3.785   3.511   6.146
 1559SOL    HW221820   3.841   3.540   6.009
 1560SOL     OW21821   3.027   3.023   1.527
 1560SOL    HW121822   2.950   3.014   1.584
 1560SOL    HW221823   3.100   3.040   1.587
 1561SOL     OW21824   2.993   4.196   0.304
 1561SOL    HW121825   2.930   4.237   0.363
 1561SOL    HW221826   2.949   4.116   0.275
 1562SOL     OW21827   1.895   5.001   1.653
 1562SOL    HW121828   1.903   5.009   1.748
 1562SOL    HW221829   1.818   5.053   1.631
 1563SOL     OW21830   5.571   0.929   5.686
 1563SOL    HW121831   5.554   0.849   5.735
 1563SOL    HW221832   5.498   0.988   5.709
 1564SOL     OW21833   3.351   1.745   5.584
 1564SOL    HW121834   3.287   1.700   5.638
 1564SOL    HW221835   3.324   1.726   5.494
 1565SOL     OW21836   2.618   5.946   7.645
 1565SOL    HW121837   2.541   5.983   7.688
 1565SOL    HW221838   2.601   5.957   7.552
 1566SOL     OW21839   5.182   3.594   7.148
 1566SOL    HW121840   5.146   3.679   7.173
 1566SOL    HW221841   5.277   3.608   7.149
 1567SOL     OW21842   1.904   3.864   7.287
 1567SOL    HW121843   1.955   3.945   7.284
 1567SOL    HW221844   1.954   3.802   7.235
 1568SOL     OW21845   5.812   5.548   5.456
 1568SOL    HW121846   5.840   5.492   5.529
 1568SOL    HW221847   5.890   5.598   5.433
 1569SOL     OW21848   5.717   2.688   7.823
 1569SOL    HW121849   5.649   2.753   7.842
 1569SOL    HW221850   5.722   2.635   7.902
 1570SOL     OW21851   6.083   4.815   6.019
 1570SOL    HW121852   6.087   4.720   6.012
 1570SOL    HW221853   6.168   4.846   5.985
 1571SOL     OW21854   0.273   3.319   5.592
 1571SOL    HW121855   0.339   3.258   5.626
 1571SOL    HW221856   0.213   3.332   5.665
 1572SOL     OW21857   2.510   5.827   0.330
 1572SOL    HW121858   2.417   5.848   0.319
 1572SOL    HW221859   2.511   5.734   0.354
 1573SOL     OW21860   4.863   4.249   0.173
 1573SOL    HW121861   4.938   4.241   0.114
 1573SOL    HW221862   4.833   4.159   0.187
 1574SOL     OW21863   0.443   4.886   0.436
 1574SOL    HW121864   0.436   4.795   0.463
 1574SOL    HW221865   0.536   4.908   0.445
 1575SOL     OW21866   2.024   3.643   7.797
 1575SOL    HW121867   2.048   3.638   7.705
 1575SOL    HW221868   1.935   3.606   7.801
 1576SOL     OW21869   4.958   1.790   6.429
 1576SOL    HW121870   5.030   1.739   6.391
 1576SOL    HW221871   4.932   1.740   6.507
 1577SOL     OW21872   0.619   2.183   0.199
 1577SOL    HW121873   0.664   2.242   0.138
 1577SOL    HW221874   0.629   2.096   0.159
 1578SOL     OW21875   3.560   0.229   6.841
 1578SOL    HW121876   3.602   0.230   6.926
 1578SOL    HW221877   3.628   0.199   6.780
 1579SOL     OW21878   0.014   3.550   5.162
 1579SOL    HW121879  -0.020   3.462   5.145
 1579SOL    HW221880   0.108   3.538   5.174
 1580SOL     OW21881   2.516   2.229   0.557
 1580SOL    HW121882   2.502   2.170   0.483
 1580SOL    HW221883   2.428   2.258   0.581
 1581SOL     OW21884   3.945   1.256   1.213
 1581SOL    HW121885   4.039   1.240   1.202
 1581SOL    HW221886   3.917   1.293   1.130
 1582SOL     OW21887   3.547   1.133   6.538
 1582SOL    HW121888   3.510   1.113   6.452
 1582SOL    HW221889   3.632   1.174   6.518
 1583SOL     OW21890   5.767   0.741   6.686
 1583SOL    HW121891   5.842   0.683   6.694
 1583SOL    HW221892   5.802   0.829   6.701
 1584SOL     OW21893   0.054   4.589   1.377
 1584SOL    HW121894   0.102   4.545   1.447
 1584SOL    HW221895   0.014   4.665   1.419
 1585SOL     OW21896   2.895   4.425   2.353
 1585SOL    HW121897   2.853   4.339   2.347
 1585SOL    HW221898   2.846   4.470   2.422
 1586SOL     OW21899   2.571   2.421   1.214
 1586SOL    HW121900   2.496   2.469   1.249
 1586SOL    HW221901   2.647   2.469   1.245
 1587SOL     OW21902   2.374   6.055   5.350
 1587SOL    HW121903   2.357   5.981   5.292
 1587SOL    HW221904   2.458   6.090   5.320
 1588SOL     OW21905   1.801   4.537   7.780
 1588SOL    HW121906   1.847   4.494   7.708
 1588SOL    HW221907   1.834   4.493   7.859
 1589SOL     OW21908   1.024   5.767   0.694
 1589SOL    HW121909   1.103   5.815   0.667
 1589SOL    HW221910   0.952   5.826   0.671
 1590SOL     OW21911   2.982   1.117   6.595
 1590SOL    HW121912   3.070   1.127   6.629
 1590SOL    HW221913   2.927   1.169   6.654
 1591SOL     OW21914   5.265   5.907   1.402
 1591SOL    HW121915   5.353   5.919   1.366
 1591SOL    HW221916   5.272   5.828   1.455
 1592SOL     OW21917   2.733   1.516   0.590
 1592SOL    HW121918   2.753   1.579   0.660
 1592SOL    HW221919   2.690   1.443   0.635
 1593SOL     OW21920   0.406   4.289   0.362
 1593SOL    HW121921   0.331   4.335   0.322
 1593SOL    HW221922   0.398   4.309   0.455
 1594SOL     OW21923   0.276   5.926   1.925
 1594SOL    HW121924   0.350   5.983   1.906
 1594SOL    HW221925   0.206   5.984   1.955
 1595SOL     OW21926   3.652   2.531   2.019
 1595SOL    HW121927   3.598   2.592   1.968
 1595SOL    HW221928   3.670   2.458   1.959
 1596SOL     OW21929   0.001   4.240   6.752
 1596SOL    HW121930   0.062   4.292   6.701
 1596SOL    HW221931  -0.075   4.228   6.695
 1597SOL     OW21932   4.347   2.927   6.530
 1597SOL    HW121933   4.260   2.916   6.493
 1597SOL    HW221934   4.407   2.916   6.456
 1598SOL     OW21935   4.703   2.822   6.147
 1598SOL    HW121936   4.724   2.729   6.148
 1598SOL    HW221937   4.612   2.826   6.116
 1599SOL     OW21938   3.852   2.043   7.057
 1599SOL    HW121939   3.804   1.964   7.030
 1599SOL    HW221940   3.891   2.019   7.141
 1600SOL     OW21941   3.183   1.531   1.289
 1600SOL    HW121942   3.103   1.479   1.283
 1600SOL    HW221943   3.213   1.518   1.379
 1601SOL     OW21944   1.909   1.724   7.810
 1601SOL    HW121945   1.834   1.771   7.847
 1601SOL    HW221946   1.922   1.762   7.724
 1602SOL     OW21947   3.503   3.817   7.811
 1602SOL    HW121948   3.558   3.893   7.828
 1602SOL    HW221949   3.457   3.801   7.893
 1603SOL     OW21950   1.606   4.543   6.651
 1603SOL    HW121951   1.599   4.509   6.562
 1603SOL    HW221952   1.692   4.585   6.655
 1604SOL     OW21953   5.948   4.387   6.600
 1604SOL    HW121954   6.030   4.435   6.586
 1604SOL    HW221955   5.880   4.447   6.571
 1605SOL     OW21956   1.360   0.389   5.802
 1605SOL    HW121957   1.412   0.452   5.753
 1605SOL    HW221958   1.381   0.304   5.763
 1606SOL     OW21959   2.893   6.162   6.286
 1606SOL    HW121960   2.906   6.142   6.194
 1606SOL    HW221961   2.908   6.079   6.332
 1607SOL     OW21962   4.144   1.587   7.389
 1607SOL    HW121963   4.089   1.653   7.433
 1607SOL    HW221964   4.208   1.562   7.456
 1608SOL     OW21965   2.408   1.726   6.059
 1608SOL    HW121966   2.425   1.809   6.015
 1608SOL    HW221967   2.363   1.749   6.139
 1609SOL     OW21968   0.884   4.878   6.158
 1609SOL    HW121969   0.801   4.921   6.180
 1609SOL    HW221970   0.884   4.798   6.210
 1610SOL     OW21971   0.557   2.642   7.827
 1610SOL    HW121972   0.559   2.716   7.766
 1610SOL    HW221973   0.605   2.573   7.782
 1611SOL     OW21974   1.238   3.904   7.003
 1611SOL    HW121975   1.240   3.959   7.081
 1611SOL    HW221976   1.330   3.881   6.988
 1612SOL     OW21977   0.703   6.183   1.400
 1612SOL    HW121978   0.664   6.103   1.365
 1612SOL    HW221979   0.675   6.252   1.339
 1613SOL     OW21980   0.973   1.045   6.511
 1613SOL    HW121981   0.948   0.953   6.520
 1613SOL    HW221982   1.058   1.051   6.556
 1614SOL     OW21983   4.079   6.249   7.045
 1614SOL    HW121984   4.159   6.201   7.026
 1614SOL    HW221985   4.053   6.286   6.960
 1615SOL     OW21986   3.055   4.472   1.559
 1615SOL    HW121987   3.083   4.425   1.480
 1615SOL    HW221988   3.028   4.403   1.620
 1616SOL     OW21989   0.594   2.801   5.602
 1616SOL    HW121990   0.548   2.867   5.654
 1616SOL    HW221991   0.634   2.850   5.530
 1617SOL     OW21992   2.948   4.522   5.424
 1617SOL    HW121993   2.865   4.556   5.458
 1617SOL    HW221994   3.013   4.546   5.490
 1618SOL     OW21995   4.354   6.001   1.126
 1618SOL    HW121996   4.389   6.087   1.146
 1618SOL    HW221997   4.289   6.016   1.057
 1619SOL     OW21998   0.979   1.018   2.196
 1619SOL    HW121999   1.049   0.982   2.250
 1619SOL    HW222000   0.900   1.008   2.248
 1620SOL     OW22001   5.546   2.909   7.778
 1620SOL    HW122002   5.636   2.939   7.796
 1620SOL    HW222003   5.492   2.986   7.793
 1621SOL     OW22004   5.110   6.398   5.312
 1621SOL    HW122005   5.131   6.369   5.400
 1621SOL    HW222006   5.135   6.325   5.256
 1622SOL     OW22007   1.943   4.226   6.345
 1622SOL    HW122008   1.945   4.257   6.436
 1622SOL    HW222009   1.946   4.306   6.293
 1623SOL     OW22010   0.545   1.159   1.655
 1623SOL    HW122011   0.615   1.097   1.675
 1623SOL    HW222012   0.520   1.196   1.739
 1624SOL     OW22013   3.854   3.134   7.096
 1624SOL    HW122014   3.785   3.179   7.048
 1624SOL    HW222015   3.850   3.172   7.184
 1625SOL     OW22016   2.569   4.668   6.935
 1625SOL    HW122017   2.655   4.624   6.937
 1625SOL    HW222018   2.522   4.630   7.009
 1626SOL     OW22019   1.618   1.038   7.674
 1626SOL    HW122020   1.549   0.980   7.709
 1626SOL    HW222021   1.689   1.032   7.738
 1627SOL     OW22022   6.038   4.160   0.672
 1627SOL    HW122023   5.988   4.230   0.714
 1627SOL    HW222024   6.021   4.170   0.579
 1628SOL     OW22025   2.540   4.186   0.311
 1628SOL    HW122026   2.582   4.123   0.252
 1628SOL    HW222027   2.490   4.131   0.372
 1629SOL     OW22028   4.792   4.543   5.833
 1629SOL    HW122029   4.719   4.604   5.822
 1629SOL    HW222030   4.868   4.599   5.845
 1630SOL     OW22031   5.886   4.193   6.111
 1630SOL    HW122032   5.929   4.142   6.179
 1630SOL    HW222033   5.860   4.129   6.045
 1631SOL     OW22034   5.180   0.131   6.511
 1631SOL    HW122035   5.122   0.067   6.469
 1631SOL    HW222036   5.225   0.174   6.438
 1632SOL     OW22037   3.322   3.524   5.497
 1632SOL    HW122038   3.414   3.543   5.519
 1632SOL    HW222039   3.278   3.524   5.582
 1633SOL     OW22040   2.152   1.104   5.648
 1633SOL    HW122041   2.084   1.131   5.709
 1633SOL    HW222042   2.184   1.021   5.683
 1634SOL     OW22043   4.554   0.820   7.428
 1634SOL    HW122044   4.618   0.814   7.499
 1634SOL    HW222045   4.492   0.750   7.445
 1635SOL     OW22046   2.726   2.391   0.430
 1635SOL    HW122047   2.670   2.350   0.496
 1635SOL    HW222048   2.799   2.330   0.420
 1636SOL     OW22049   3.924   0.890   1.257
 1636SOL    HW122050   3.867   0.930   1.190
 1636SOL    HW222051   3.864   0.839   1.312
 1637SOL     OW22052   2.475   3.364   1.156
 1637SOL    HW122053   2.465   3.415   1.236
 1637SOL    HW222054   2.388   3.362   1.117
 1638SOL     OW22055   0.139   1.347   1.153
 1638SOL    HW122056   0.045   1.357   1.171
 1638SOL    HW222057   0.177   1.430   1.181
 1639SOL     OW22058   4.390   1.919   6.067
 1639SOL    HW122059   4.483   1.919   6.089
 1639SOL    HW222060   4.363   2.010   6.081
 1640SOL     OW22061   6.275   0.446   1.076
 1640SOL    HW122062   6.370   0.460   1.073
 1640SOL    HW222063   6.254   0.447   1.170
 1641SOL     OW22064   2.109   5.562   7.223
 1641SOL    HW122065   2.026   5.518   7.241
 1641SOL    HW222066   2.114   5.566   7.128
 1642SOL     OW22067   1.995   2.783   5.061
 1642SOL    HW122068   1.960   2.716   5.120
 1642SOL    HW222069   1.931   2.787   4.989
 1643SOL     OW22070   4.777   1.588   0.868
 1643SOL    HW122071   4.727   1.553   0.794
 1643SOL    HW222072   4.799   1.677   0.842
 1644SOL     OW22073   0.917   4.682   6.381
 1644SOL    HW122074   0.897   4.588   6.388
 1644SOL    HW222075   0.998   4.693   6.430
 1645SOL     OW22076   4.676   3.383   1.607
 1645SOL    HW122077   4.647   3.390   1.698
 1645SOL    HW222078   4.710   3.294   1.600
 1646SOL     OW22079   2.889   3.135   0.817
 1646SOL    HW122080   2.899   3.188   0.896
 1646SOL    HW222081   2.933   3.185   0.748
 1647SOL     OW22082   5.555   6.021   6.116
 1647SOL    HW122083   5.592   6.105   6.088
 1647SOL    HW222084   5.467   6.043   6.146
 1648SOL     OW22085   0.747   0.658   1.521
 1648SOL    HW122086   0.703   0.680   1.603
 1648SOL    HW222087   0.704   0.714   1.456
 1649SOL     OW22088   0.662   0.197   0.659
 1649SOL    HW122089   0.738   0.235   0.614
 1649SOL    HW222090   0.609   0.159   0.589
 1650SOL     OW22091   5.396   0.454   7.002
 1650SOL    HW122092   5.307   0.455   6.966
 1650SOL    HW222093   5.426   0.364   6.991
 1651SOL     OW22094   0.563   5.801   5.788
 1651SOL    HW122095   0.555   5.761   5.874
 1651SOL    HW222096   0.494   5.761   5.736
 1652SOL     OW22097   0.880   3.088   0.676
 1652SOL    HW122098   0.886   3.119   0.586
 1652SOL    HW222099   0.869   2.993   0.668
 1653SOL     OW22100   0.809   3.732   7.052
 1653SOL    HW122101   0.779   3.645   7.027
 1653SOL    HW222102   0.904   3.728   7.045
 1654SOL     OW22103   1.969   5.126   5.690
 1654SOL    HW122104   1.922   5.111   5.773
 1654SOL    HW222105   1.914   5.186   5.642
 1655SOL     OW22106   2.753   2.217   1.163
 1655SOL    HW122107   2.686   2.286   1.166
 1655SOL    HW222108   2.812   2.239   1.235
 1656SOL     OW22109   2.385   4.738   6.191
 1656SOL    HW122110   2.352   4.672   6.252
 1656SOL    HW222111   2.446   4.791   6.243
 1657SOL     OW22112   3.326   2.588   6.489
 1657SOL    HW122113   3.263   2.582   6.417
 1657SOL    HW222114   3.276   2.561   6.567
 1658SOL     OW22115   0.137   5.825   7.791
 1658SOL    HW122116   0.213   5.791   7.745
 1658SOL    HW222117   0.071   5.837   7.722
 1659SOL     OW22118   0.164   2.466   5.604
 1659SOL    HW122119   0.071   2.475   5.582
 1659SOL    HW222120   0.183   2.544   5.656
 1660SOL     OW22121   1.068   1.283   2.098
 1660SOL    HW122122   1.031   1.199   2.125
 1660SOL    HW222123   1.162   1.273   2.113
 1661SOL     OW22124   4.733   1.151   1.337
 1661SOL    HW122125   4.702   1.165   1.427
 1661SOL    HW222126   4.816   1.104   1.348
 1662SOL     OW22127   0.881   4.221   0.378
 1662SOL    HW122128   0.804   4.168   0.357
 1662SOL    HW222129   0.893   4.210   0.472
 1663SOL     OW22130   5.428   3.971   7.572
 1663SOL    HW122131   5.502   4.031   7.579
 1663SOL    HW222132   5.466   3.891   7.535
 1664SOL     OW22133   4.539   4.499   6.301
 1664SOL    HW122134   4.508   4.590   6.293
 1664SOL    HW222135   4.521   4.476   6.392
 1665SOL     OW22136   6.254   2.739   0.484
 1665SOL    HW122137   6.323   2.806   0.490
 1665SOL    HW222138   6.188   2.766   0.547
 1666SOL     OW22139   2.406   0.007   0.815
 1666SOL    HW122140   2.334   0.069   0.826
 1666SOL    HW222141   2.406  -0.043   0.897
 1667SOL     OW22142   2.980   5.002   6.514
 1667SOL    HW122143   3.052   4.941   6.498
 1667SOL    HW222144   3.015   5.067   6.575
 1668SOL     OW22145   3.772   0.767   1.434
 1668SOL    HW122146   3.716   0.689   1.436
 1668SOL    HW222147   3.726   0.832   1.487
 1669SOL     OW22148   2.382   5.030   6.577
 1669SOL    HW122149   2.388   4.948   6.528
 1669SOL    HW222150   2.459   5.081   6.549
 1670SOL     OW22151   1.543   5.321   4.841
 1670SOL    HW122152   1.509   5.335   4.752
 1670SOL    HW222153   1.490   5.378   4.896
 1671SOL     OW22154   0.691   1.452   5.057
 1671SOL    HW122155   0.688   1.421   4.967
 1671SOL    HW222156   0.699   1.548   5.050
 1672SOL     OW22157   0.579   2.558   5.457
 1672SOL    HW122158   0.563   2.608   5.537
 1672SOL    HW222159   0.674   2.549   5.453
 1673SOL     OW22160   0.401   5.450   6.149
 1673SOL    HW122161   0.359   5.366   6.127
 1673SOL    HW222162   0.345   5.487   6.217
 1674SOL     OW22163   0.886   0.431   0.963
 1674SOL    HW122164   0.895   0.467   1.052
 1674SOL    HW222165   0.921   0.500   0.906
 1675SOL     OW22166   3.225   1.144   1.254
 1675SOL    HW122167   3.232   1.160   1.348
 1675SOL    HW222168   3.181   1.060   1.246
 1676SOL     OW22169   4.246   0.292   1.059
 1676SOL    HW122170   4.316   0.347   1.024
 1676SOL    HW222171   4.220   0.336   1.140
 1677SOL     OW22172   4.557   1.620   7.572
 1677SOL    HW122173   4.612   1.684   7.617
 1677SOL    HW222174   4.607   1.598   7.493
 1678SOL     OW22175   2.807   5.409   7.620
 1678SOL    HW122176   2.769   5.321   7.613
 1678SOL    HW222177   2.753   5.463   7.564
 1679SOL     OW22178   3.910   2.805   0.847
 1679SOL    HW122179   3.824   2.826   0.809
 1679SOL    HW222180   3.902   2.829   0.939
 1680SOL     OW22181   0.238   5.377   7.593
 1680SOL    HW122182   0.152   5.417   7.586
 1680SOL    HW222183   0.278   5.391   7.507
 1681SOL     OW22184   0.480   0.640   5.815
 1681SOL    HW122185   0.469   0.546   5.802
 1681SOL    HW222186   0.575   0.653   5.813
 1682SOL     OW22187   1.626   2.931   7.502
 1682SOL    HW122188   1.673   3.006   7.466
 1682SOL    HW222189   1.636   2.940   7.597
 1683SOL     OW22190   1.079   1.105   0.918
 1683SOL    HW122191   1.065   1.174   0.983
 1683SOL    HW222192   1.059   1.146   0.834
 1684SOL     OW22193   3.564   2.025   0.973
 1684SOL    HW122194   3.569   1.957   1.040
 1684SOL    HW222195   3.561   2.107   1.022
 1685SOL     OW22196   2.373   6.404   6.131
 1685SOL    HW122197   2.422   6.417   6.212
 1685SOL    HW222198   2.436   6.424   6.062
 1686SOL     OW22199   2.153   3.494   1.352
 1686SOL    HW122200   2.096   3.419   1.365
 1686SOL    HW222201   2.240   3.463   1.379
 1687SOL     OW22202   3.451   0.859   0.279
 1687SOL    HW122203   3.531   0.838   0.326
 1687SOL    HW222204   3.384   0.865   0.346
 1688SOL     OW22205   0.004   5.697   6.002
 1688SOL    HW122206  -0.082   5.716   5.964
 1688SOL    HW222207   0.064   5.702   5.927
 1689SOL     OW22208   5.746   4.333   0.269
 1689SOL    HW122209   5.771   4.250   0.227
 1689SOL    HW222210   5.651   4.326   0.280
 1690SOL     OW22211   5.637   5.879   7.839
 1690SOL    HW122212   5.655   5.951   7.777
 1690SOL    HW222213   5.711   5.819   7.827
 1691SOL     OW22214   5.005   1.592   5.481
 1691SOL    HW122215   4.949   1.533   5.430
 1691SOL    HW222216   5.010   1.672   5.428
 1692SOL     OW22217   0.093   4.808   0.074
 1692SOL    HW122218   0.023   4.755   0.113
 1692SOL    HW222219   0.068   4.898   0.096
 1693SOL     OW22220   1.441   3.530   6.932
 1693SOL    HW122221   1.516   3.485   6.892
 1693SOL    HW222222   1.386   3.555   6.859
 1694SOL     OW22223   1.318   1.642   0.651
 1694SOL    HW122224   1.341   1.704   0.719
 1694SOL    HW222225   1.227   1.664   0.629
 1695SOL     OW22226   1.672   4.596   0.978
 1695SOL    HW122227   1.720   4.552   0.908
 1695SOL    HW222228   1.689   4.543   1.056
 1696SOL     OW22229   0.453   3.114   7.581
 1696SOL    HW122230   0.533   3.166   7.574
 1696SOL    HW222231   0.419   3.134   7.668
 1697SOL     OW22232   3.684   1.428   1.589
 1697SOL    HW122233   3.710   1.378   1.667
 1697SOL    HW222234   3.588   1.427   1.591
 1698SOL     OW22235   0.449   2.272   6.836
 1698SOL    HW122236   0.480   2.202   6.778
 1698SOL    HW222237   0.466   2.353   6.787
 1699SOL     OW22238   6.265   2.396   1.438
 1699SOL    HW122239   6.212   2.319   1.458
 1699SOL    HW222240   6.211   2.470   1.464
 1700SOL     OW22241   1.594   4.029   7.611
 1700SOL    HW122242   1.541   3.978   7.550
 1700SOL    HW222243   1.683   3.993   7.603
 1701SOL     OW22244   3.285   2.107   6.129
 1701SOL    HW122245   3.225   2.174   6.097
 1701SOL    HW222246   3.369   2.129   6.089
 1702SOL     OW22247   4.358   1.007   5.986
 1702SOL    HW122248   4.313   0.951   5.922
 1702SOL    HW222249   4.307   1.088   5.988
 1703SOL     OW22250   5.267   3.682   5.695
 1703SOL    HW122251   5.316   3.760   5.719
 1703SOL    HW222252   5.331   3.611   5.701
 1704SOL     OW22253   5.212   0.825   6.729
 1704SOL    HW122254   5.180   0.736   6.740
 1704SOL    HW222255   5.255   0.846   6.812
 1705SOL     OW22256   2.857   1.864   1.782
 1705SOL    HW122257   2.802   1.799   1.826
 1705SOL    HW222258   2.914   1.898   1.850
 1706SOL     OW22259   3.432   3.243   5.914
 1706SOL    HW122260   3.484   3.301   5.859
 1706SOL    HW222261   3.410   3.169   5.856
 1707SOL     OW22262   0.794   4.144   5.227
 1707SOL    HW122263   0.734   4.218   5.230
 1707SOL    HW222264   0.739   4.068   5.247
 1708SOL     OW22265   2.016   4.782   6.650
 1708SOL    HW122266   1.935   4.798   6.700
 1708SOL    HW222267   2.028   4.862   6.598
 1709SOL     OW22268   1.871   1.911   1.004
 1709SOL    HW122269   1.838   1.923   0.915
 1709SOL    HW222270   1.887   1.816   1.011
 1710SOL     OW22271   0.145   1.742   6.614
 1710SOL    HW122272   0.234   1.734   6.579
 1710SOL    HW222273   0.152   1.713   6.705
 1711SOL     OW22274   0.283   2.461   6.453
 1711SOL    HW122275   0.264   2.370   6.477
 1711SOL    HW222276   0.377   2.470   6.469
 1712SOL     OW22277   3.697   4.202   6.699
 1712SOL    HW122278   3.745   4.257   6.637
 1712SOL    HW222279   3.660   4.264   6.762
 1713SOL     OW22280   0.349   4.017   7.813
 1713SOL    HW122281   0.317   4.080   7.877
 1713SOL    HW222282   0.298   4.035   7.734
 1714SOL     OW22283   4.533   3.373   0.052
 1714SOL    HW122284   4.446   3.413   0.055
 1714SOL    HW222285   4.572   3.405  -0.030
 1715SOL     OW22286   0.347   0.074   7.754
 1715SOL    HW122287   0.424   0.024   7.730
 1715SOL    HW222288   0.294   0.013   7.806
 1716SOL     OW22289   2.158   2.383   5.832
 1716SOL    HW122290   2.206   2.364   5.752
 1716SOL    HW222291   2.088   2.443   5.804
 1717SOL     OW22292   2.041   3.760   6.217
 1717SOL    HW122293   2.092   3.839   6.236
 1717SOL    HW222294   2.071   3.733   6.130
 1718SOL     OW22295   6.186   4.671   0.510
 1718SOL    HW122296   6.195   4.669   0.605
 1718SOL    HW222297   6.276   4.680   0.478
 1719SOL     OW22298   2.423   5.377   6.119
 1719SOL    HW122299   2.497   5.331   6.080
 1719SOL    HW222300   2.349   5.355   6.062
 1720SOL     OW22301   0.862   5.084   6.698
 1720SOL    HW122302   0.789   5.142   6.715
 1720SOL    HW222303   0.895   5.060   6.785
 1721SOL     OW22304   5.555   6.307   5.423
 1721SOL    HW122305   5.538   6.401   5.421
 1721SOL    HW222306   5.613   6.292   5.349
 1722SOL     OW22307   0.970   3.508   5.531
 1722SOL    HW122308   0.941   3.424   5.568
 1722SOL    HW222309   0.949   3.502   5.438
 1723SOL     OW22310   3.041   3.425   6.168
 1723SOL    HW122311   3.036   3.405   6.074
 1723SOL    HW222312   3.031   3.520   6.172
 1724SOL     OW22313   0.522   2.270   5.448
 1724SOL    HW122314   0.532   2.363   5.466
 1724SOL    HW222315   0.547   2.259   5.357
 1725SOL     OW22316   1.767   5.135   4.949
 1725SOL    HW122317   1.712   5.213   4.939
 1725SOL    HW222318   1.856   5.167   4.934
 1726SOL     OW22319   0.719   0.042   5.636
 1726SOL    HW122320   0.738   0.135   5.642
 1726SOL    HW222321   0.694   0.028   5.545
 1727SOL     OW22322   2.070   5.856   7.211
 1727SOL    HW122323   2.108   5.772   7.238
 1727SOL    HW222324   2.006   5.876   7.279
 1728SOL     OW22325   2.973   5.207   2.202
 1728SOL    HW122326   2.999   5.297   2.182
 1728SOL    HW222327   3.049   5.169   2.247
 1729SOL     OW22328   3.828   2.376   1.603
 1729SOL    HW122329   3.855   2.418   1.522
 1729SOL    HW222330   3.908   2.369   1.655
 1730SOL     OW22331   1.564   5.016   0.630
 1730SOL    HW122332   1.469   5.024   0.637
 1730SOL    HW222333   1.587   5.069   0.554
 1731SOL     OW22334   4.436   3.216   5.743
 1731SOL    HW122335   4.462   3.139   5.692
 1731SOL    HW222336   4.447   3.290   5.684
 1732SOL     OW22337   3.549   2.589   7.291
 1732SOL    HW122338   3.579   2.587   7.382
 1732SOL    HW222339   3.466   2.542   7.291
 1733SOL     OW22340   0.736   5.292   0.700
 1733SOL    HW122341   0.812   5.255   0.655
 1733SOL    HW222342   0.666   5.227   0.686
 1734SOL     OW22343   4.114   0.869   7.691
 1734SOL    HW122344   4.059   0.947   7.692
 1734SOL    HW222345   4.152   0.867   7.603
 1735SOL     OW22346   5.121   2.153   0.311
 1735SOL    HW122347   5.204   2.154   0.359
 1735SOL    HW222348   5.124   2.231   0.256
 1736SOL     OW22349   2.374   2.601   1.278
 1736SOL    HW122350   2.392   2.676   1.221
 1736SOL    HW222351   2.290   2.623   1.320
 1737SOL     OW22352   5.172   1.297   6.526
 1737SOL    HW122353   5.110   1.330   6.592
 1737SOL    HW222354   5.255   1.337   6.550
 1738SOL     OW22355   5.715   1.285   1.672
 1738SOL    HW122356   5.649   1.354   1.664
 1738SOL    HW222357   5.799   1.331   1.669
 1739SOL     OW22358   5.245   2.894   7.454
 1739SOL    HW122359   5.195   2.833   7.400
 1739SOL    HW222360   5.310   2.839   7.499
 1740SOL     OW22361   4.738   5.791   0.576
 1740SOL    HW122362   4.650   5.824   0.557
 1740SOL    HW222363   4.784   5.864   0.617
 1741SOL     OW22364   6.012   1.824   0.389
 1741SOL    HW122365   5.984   1.791   0.304
 1741SOL    HW222366   6.054   1.749   0.431
 1742SOL     OW22367   5.714   5.774   6.193
 1742SOL    HW122368   5.623   5.747   6.180
 1742SOL    HW222369   5.709   5.869   6.205
 1743SOL     OW22370   2.455   3.913   6.773
 1743SOL    HW122371   2.463   3.822   6.802
 1743SOL    HW222372   2.378   3.946   6.819
 1744SOL     OW22373   5.323   0.119   0.102
 1744SOL    HW122374   5.269   0.126   0.181
 1744SOL    HW222375   5.301   0.033   0.066
 1745SOL     OW22376   0.411   1.797   1.297
 1745SOL    HW122377   0.405   1.831   1.208
 1745SOL    HW222378   0.388   1.871   1.353
 1746SOL     OW22379   2.797   4.566   6.825
 1746SOL    HW122380   2.832   4.576   6.737
 1746SOL    HW222381   2.871   4.589   6.882
 1747SOL     OW22382   4.187   5.557   6.064
 1747SOL    HW122383   4.097   5.546   6.094
 1747SOL    HW222384   4.222   5.629   6.117
 1748SOL     OW22385   2.240   2.259   0.309
 1748SOL    HW122386   2.262   2.293   0.395
 1748SOL    HW222387   2.322   2.224   0.275
 1749SOL     OW22388   5.183   1.966   0.940
 1749SOL    HW122389   5.092   1.936   0.939
 1749SOL    HW222390   5.214   1.946   1.028
 1750SOL     OW22391   1.469   4.320   1.659
 1750SOL    HW122392   1.417   4.259   1.711
 1750SOL    HW222393   1.553   4.325   1.704
 1751SOL     OW22394   5.907   1.794   6.291
 1751SOL    HW122395   5.994   1.754   6.282
 1751SOL    HW222396   5.848   1.720   6.307
 1752SOL     OW22397   1.143   2.847   5.974
 1752SOL    HW122398   1.182   2.794   5.905
 1752SOL    HW222399   1.138   2.935   5.935
 1753SOL     OW22400   2.305   4.193   6.075
 1753SOL    HW122401   2.296   4.113   6.127
 1753SOL    HW222402   2.338   4.163   5.991
 1754SOL     OW22403   3.005   2.858   0.896
 1754SOL    HW122404   2.949   2.859   0.973
 1754SOL    HW222405   2.988   2.942   0.853
 1755SOL     OW22406   0.771   1.195   5.951
 1755SOL    HW122407   0.746   1.188   5.859
 1755SOL    HW222408   0.768   1.289   5.970
 1756SOL     OW22409   1.461   2.445   2.000
 1756SOL    HW122410   1.485   2.537   2.009
 1756SOL    HW222411   1.419   2.439   1.914
 1757SOL     OW22412   2.117   3.917   7.583
 1757SOL    HW122413   2.164   3.956   7.509
 1757SOL    HW222414   2.181   3.919   7.655
 1758SOL     OW22415   4.920   5.999   0.681
 1758SOL    HW122416   4.988   6.015   0.616
 1758SOL    HW222417   4.968   5.988   0.763
 1759SOL     OW22418   2.258   0.987   0.963
 1759SOL    HW122419   2.350   0.966   0.952
 1759SOL    HW222420   2.222   0.986   0.874
 1760SOL     OW22421   0.867   3.402   0.112
 1760SOL    HW122422   0.779   3.417   0.146
 1760SOL    HW222423   0.860   3.323   0.059
 1761SOL     OW22424   0.213   4.984   5.261
 1761SOL    HW122425   0.151   4.996   5.188
 1761SOL    HW222426   0.253   4.899   5.245
 1762SOL     OW22427   3.929   0.704   6.740
 1762SOL    HW122428   3.993   0.709   6.811
 1762SOL    HW222429   3.892   0.616   6.747
 1763SOL     OW22430   0.652   4.896   6.914
 1763SOL    HW122431   0.671   4.814   6.870
 1763SOL    HW222432   0.627   4.956   6.844
 1764SOL     OW22433   4.611   5.402   0.876
 1764SOL    HW122434   4.651   5.369   0.796
 1764SOL    HW222435   4.684   5.434   0.928
 1765SOL     OW22436   1.342   4.224   6.827
 1765SOL    HW122437   1.300   4.144   6.795
 1765SOL    HW222438   1.321   4.290   6.761
 1766SOL     OW22439   0.952   5.834   7.348
 1766SOL    HW122440   1.011   5.761   7.367
 1766SOL    HW222441   1.000   5.888   7.286
 1767SOL     OW22442   0.545   0.659   6.098
 1767SOL    HW122443   0.494   0.653   6.017
 1767SOL    HW222444   0.621   0.712   6.074
 1768SOL     OW22445   3.187   4.197   7.058
 1768SOL    HW122446   3.277   4.215   7.088
 1768SOL    HW222447   3.184   4.232   6.969
 1769SOL     OW22448   2.541   1.997   1.113
 1769SOL    HW122449   2.602   2.069   1.097
 1769SOL    HW222450   2.490   2.025   1.189
 1770SOL     OW22451   6.074   2.764   6.171
 1770SOL    HW122452   6.122   2.740   6.091
 1770SOL    HW222453   6.105   2.702   6.237
 1771SOL     OW22454   4.256   0.358   7.290
 1771SOL    HW122455   4.324   0.376   7.356
 1771SOL    HW222456   4.184   0.416   7.313
 1772SOL     OW22457   0.181   4.804   6.426
 1772SOL    HW122458   0.177   4.755   6.345
 1772SOL    HW222459   0.248   4.871   6.411
 1773SOL     OW22460   4.753   4.848   6.125
 1773SOL    HW122461   4.753   4.753   6.115
 1773SOL    HW222462   4.663   4.874   6.108
 1774SOL     OW22463   2.914   2.059   5.353
 1774SOL    HW122464   2.837   2.068   5.409
 1774SOL    HW222465   2.908   1.970   5.318
 1775SOL     OW22466   5.375   1.569   7.066
 1775SOL    HW122467   5.306   1.539   7.006
 1775SOL    HW222468   5.430   1.491   7.079
 1776SOL     OW22469   2.780   3.145   7.313
 1776SOL    HW122470   2.706   3.087   7.300
 1776SOL    HW222471   2.792   3.189   7.228
 1777SOL     OW22472   0.592   3.952   1.193
 1777SOL    HW122473   0.636   4.037   1.194
 1777SOL    HW222474   0.524   3.959   1.260
 1778SOL     OW22475   4.469   2.947   0.074
 1778SOL    HW122476   4.388   2.997   0.059
 1778SOL    HW222477   4.539   3.008   0.052
 1779SOL     OW22478   4.562   5.207   6.701
 1779SOL    HW122479   4.555   5.256   6.783
 1779SOL    HW222480   4.474   5.172   6.687
 1780SOL     OW22481   4.262   4.616   0.857
 1780SOL    HW122482   4.253   4.573   0.942
 1780SOL    HW222483   4.186   4.586   0.807
 1781SOL     OW22484   0.670   3.296   6.494
 1781SOL    HW122485   0.588   3.342   6.476
 1781SOL    HW222486   0.682   3.304   6.589
 1782SOL     OW22487   3.481   5.092   7.747
 1782SOL    HW122488   3.565   5.137   7.760
 1782SOL    HW222489   3.415   5.161   7.752
 1783SOL     OW22490   5.958   5.322   0.769
 1783SOL    HW122491   6.044   5.287   0.793
 1783SOL    HW222492   5.900   5.294   0.840
 1784SOL     OW22493   3.343   1.260   7.016
 1784SOL    HW122494   3.388   1.223   6.940
 1784SOL    HW222495   3.369   1.352   7.018
 1785SOL     OW22496   0.009   6.073   6.295
 1785SOL    HW122497  -0.046   6.149   6.312
 1785SOL    HW222498  -0.033   6.001   6.342
 1786SOL     OW22499   4.668   6.357   7.101
 1786SOL    HW122500   4.684   6.408   7.022
 1786SOL    HW222501   4.626   6.277   7.070
 1787SOL     OW22502   1.447   5.246   7.709
 1787SOL    HW122503   1.447   5.165   7.759
 1787SOL    HW222504   1.497   5.227   7.631
 1788SOL     OW22505   1.429   2.186   6.687
 1788SOL    HW122506   1.395   2.098   6.671
 1788SOL    HW222507   1.493   2.175   6.757
 1789SOL     OW22508   0.785   2.857   0.657
 1789SOL    HW122509   0.794   2.779   0.712
 1789SOL    HW222510   0.782   2.823   0.567
 1790SOL     OW22511   2.403   2.800   7.564
 1790SOL    HW122512   2.320   2.846   7.575
 1790SOL    HW222513   2.456   2.828   7.638
 1791SOL     OW22514   4.974   0.937   1.724
 1791SOL    HW122515   5.050   0.883   1.702
 1791SOL    HW222516   4.990   0.965   1.814
 1792SOL     OW22517   0.303   3.189   1.010
 1792SOL    HW122518   0.233   3.156   0.953
 1792SOL    HW222519   0.315   3.119   1.075
 1793SOL     OW22520   0.777   5.803   0.491
 1793SOL    HW122521   0.778   5.724   0.545
 1793SOL    HW222522   0.684   5.822   0.478
 1794SOL     OW22523   2.902   6.038   1.280
 1794SOL    HW122524   2.867   5.988   1.354
 1794SOL    HW222525   2.847   6.010   1.206
 1795SOL     OW22526   5.206   5.414   6.621
 1795SOL    HW122527   5.119   5.392   6.590
 1795SOL    HW222528   5.264   5.351   6.578
 1796SOL     OW22529   4.574   1.945   6.542
 1796SOL    HW122530   4.632   1.984   6.607
 1796SOL    HW222531   4.586   1.999   6.463
 1797SOL     OW22532   4.948   2.549   5.650
 1797SOL    HW122533   5.024   2.514   5.604
 1797SOL    HW222534   4.985   2.595   5.726
 1798SOL     OW22535   5.884   1.622   0.657
 1798SOL    HW122536   5.795   1.616   0.620
 1798SOL    HW222537   5.911   1.531   0.669
 1799SOL     OW22538   5.771   1.247   7.092
 1799SOL    HW122539   5.856   1.204   7.091
 1799SOL    HW222540   5.771   1.298   7.173
 1800SOL     OW22541   5.306   6.331   1.532
 1800SOL    HW122542   5.279   6.386   1.458
 1800SOL    HW222543   5.395   6.361   1.551
 1801SOL     OW22544   0.240   4.610   0.576
 1801SOL    HW122545   0.333   4.587   0.585
 1801SOL    HW222546   0.227   4.620   0.482
 1802SOL     OW22547   2.660   4.229   1.517
 1802SOL    HW122548   2.698   4.183   1.442
 1802SOL    HW222549   2.707   4.194   1.593
 1803SOL     OW22550   1.202   2.576   6.340
 1803SOL    HW122551   1.176   2.487   6.364
 1803SOL    HW222552   1.254   2.566   6.261
 1804SOL     OW22553   0.848   4.819   1.303
 1804SOL    HW122554   0.937   4.784   1.299
 1804SOL    HW222555   0.791   4.743   1.298
 1805SOL     OW22556   3.712   0.111   6.619
 1805SOL    HW122557   3.730   0.017   6.611
 1805SOL    HW222558   3.762   0.139   6.695
 1806SOL     OW22559   1.905   4.914   7.534
 1806SOL    HW122560   1.973   4.889   7.472
 1806SOL    HW222561   1.849   4.975   7.485
 1807SOL     OW22562   3.418   1.048   5.905
 1807SOL    HW122563   3.395   1.131   5.864
 1807SOL    HW222564   3.335   1.002   5.914
 1808SOL     OW22565   3.130   5.424   2.153
 1808SOL    HW122566   3.130   5.428   2.057
 1808SOL    HW222567   3.147   5.513   2.182
 1809SOL     OW22568   5.487   3.027   6.742
 1809SOL    HW122569   5.409   3.082   6.752
 1809SOL    HW222570   5.464   2.966   6.672
 1810SOL     OW22571   2.454   2.543   5.156
 1810SOL    HW122572   2.433   2.576   5.069
 1810SOL    HW222573   2.523   2.600   5.188
 1811SOL     OW22574   6.418   1.497   7.807
 1811SOL    HW122575   6.343   1.468   7.756
 1811SOL    HW222576   6.391   1.485   7.898
 1812SOL     OW22577   3.548   6.029   6.569
 1812SOL    HW122578   3.513   5.982   6.494
 1812SOL    HW222579   3.626   6.074   6.536
 1813SOL     OW22580   0.731   1.439   7.488
 1813SOL    HW122581   0.647   1.414   7.526
 1813SOL    HW222582   0.752   1.370   7.426
 1814SOL     OW22583   1.236   5.937   0.085
 1814SOL    HW122584   1.243   5.909   0.176
 1814SOL    HW222585   1.183   6.017   0.088
 1815SOL     OW22586   4.132   0.112   7.204
 1815SOL    HW122587   4.175   0.194   7.224
 1815SOL    HW222588   4.203   0.049   7.193
 1816SOL     OW22589   0.614   1.804   7.033
 1816SOL    HW122590   0.693   1.854   7.013
 1816SOL    HW222591   0.543   1.857   6.996
 1817SOL     OW22592   5.543   6.155   7.236
 1817SOL    HW122593   5.555   6.067   7.199
 1817SOL    HW222594   5.473   6.193   7.182
 1818SOL     OW22595   5.819   0.331   6.396
 1818SOL    HW122596   5.910   0.303   6.400
 1818SOL    HW222597   5.822   0.420   6.362
 1819SOL     OW22598   0.502   1.281   1.883
 1819SOL    HW122599   0.481   1.236   1.965
 1819SOL    HW222600   0.589   1.318   1.898
 1820SOL     OW22601   1.202   1.087   5.192
 1820SOL    HW122602   1.233   1.107   5.104
 1820SOL    HW222603   1.183   1.173   5.230
 1821SOL     OW22604   2.380   5.386   0.532
 1821SOL    HW122605   2.430   5.311   0.563
 1821SOL    HW222606   2.305   5.391   0.592
 1822SOL     OW22607   4.506   0.194   7.677
 1822SOL    HW122608   4.451   0.119   7.653
 1822SOL    HW222609   4.446   0.254   7.720
 1823SOL     OW22610   5.948   2.133   7.212
 1823SOL    HW122611   5.898   2.068   7.162
 1823SOL    HW222612   5.901   2.141   7.294
 1824SOL     OW22613   2.614   0.369   5.722
 1824SOL    HW122614   2.547   0.337   5.662
 1824SOL    HW222615   2.672   0.295   5.734
 1825SOL     OW22616   1.386   4.378   0.935
 1825SOL    HW122617   1.363   4.453   0.880
 1825SOL    HW222618   1.337   4.305   0.897
 1826SOL     OW22619   0.791   5.992   5.781
 1826SOL    HW122620   0.701   5.958   5.779
 1826SOL    HW222621   0.796   6.040   5.864
 1827SOL     OW22622   5.263   0.354   2.128
 1827SOL    HW122623   5.209   0.421   2.085
 1827SOL    HW222624   5.235   0.272   2.088
 1828SOL     OW22625   4.289   3.471   7.065
 1828SOL    HW122626   4.311   3.499   6.976
 1828SOL    HW222627   4.198   3.499   7.076
 1829SOL     OW22628   0.155   0.846   6.410
 1829SOL    HW122629   0.211   0.809   6.342
 1829SOL    HW222630   0.097   0.906   6.364
 1830SOL     OW22631   2.253   1.103   1.270
 1830SOL    HW122632   2.343   1.078   1.287
 1830SOL    HW222633   2.238   1.079   1.179
 1831SOL     OW22634   4.232   5.450   1.137
 1831SOL    HW122635   4.174   5.510   1.089
 1831SOL    HW222636   4.226   5.479   1.228
 1832SOL     OW22637   1.123   4.235   7.801
 1832SOL    HW122638   1.217   4.254   7.804
 1832SOL    HW222639   1.094   4.244   7.891
 1833SOL     OW22640   3.174   6.043   0.027
 1833SOL    HW122641   3.244   6.055   0.092
 1833SOL    HW222642   3.099   6.015   0.079
 1834SOL     OW22643   6.289   6.085   0.974
 1834SOL    HW122644   6.248   6.162   0.933
 1834SOL    HW222645   6.215   6.034   1.007
 1835SOL     OW22646   3.772   5.697   1.556
 1835SOL    HW122647   3.699   5.637   1.540
 1835SOL    HW222648   3.838   5.643   1.601
 1836SOL     OW22649   5.478   5.961   5.288
 1836SOL    HW122650   5.440   5.938   5.203
 1836SOL    HW222651   5.536   5.888   5.308
 1837SOL     OW22652   1.610   2.689   7.367
 1837SOL    HW122653   1.697   2.663   7.398
 1837SOL    HW222654   1.596   2.776   7.403
 1838SOL     OW22655   2.686   1.175   0.937
 1838SOL    HW122656   2.660   1.239   0.871
 1838SOL    HW222657   2.772   1.203   0.966
 1839SOL     OW22658   1.550   5.782   7.045
 1839SOL    HW122659   1.550   5.717   6.975
 1839SOL    HW222660   1.505   5.739   7.118
 1840SOL     OW22661   5.622   2.782   1.257
 1840SOL    HW122662   5.640   2.794   1.351
 1840SOL    HW222663   5.684   2.839   1.213
 1841SOL     OW22664   5.939   4.549   0.786
 1841SOL    HW122665   5.997   4.580   0.855
 1841SOL    HW222666   5.937   4.620   0.722
 1842SOL     OW22667   0.244   0.599   7.196
 1842SOL    HW122668   0.198   0.671   7.242
 1842SOL    HW222669   0.177   0.560   7.140
 1843SOL     OW22670   0.856   2.394   1.322
 1843SOL    HW122671   0.885   2.304   1.307
 1843SOL    HW222672   0.859   2.405   1.417
 1844SOL     OW22673   1.504   2.447   1.312
 1844SOL    HW122674   1.573   2.484   1.256
 1844SOL    HW222675   1.548   2.429   1.395
 1845SOL     OW22676   5.957   5.275   1.105
 1845SOL    HW122677   6.001   5.281   1.190
 1845SOL    HW222678   6.028   5.266   1.042
 1846SOL     OW22679   0.289   3.141   6.250
 1846SOL    HW122680   0.275   3.046   6.252
 1846SOL    HW222681   0.367   3.153   6.196
 1847SOL     OW22682   0.195   4.680   1.080
 1847SOL    HW122683   0.267   4.638   1.127
 1847SOL    HW222684   0.121   4.677   1.140
 1848SOL     OW22685   1.826   0.424   5.674
 1848SOL    HW122686   1.884   0.397   5.602
 1848SOL    HW222687   1.835   0.519   5.677
 1849SOL     OW22688   6.318   0.280   6.186
 1849SOL    HW122689   6.330   0.304   6.094
 1849SOL    HW222690   6.401   0.303   6.228
 1850SOL     OW22691   3.142   5.464   0.509
 1850SOL    HW122692   3.175   5.479   0.598
 1850SOL    HW222693   3.059   5.420   0.521
 1851SOL     OW22694   5.811   3.521   0.974
 1851SOL    HW122695   5.903   3.541   0.957
 1851SOL    HW222696   5.763   3.595   0.936
 1852SOL     OW22697   1.419   0.571   1.299
 1852SOL    HW122698   1.364   0.649   1.290
 1852SOL    HW222699   1.470   0.587   1.378
 1853SOL     OW22700   2.843   2.641   7.777
 1853SOL    HW122701   2.932   2.608   7.769
 1853SOL    HW222702   2.847   2.706   7.847
 1854SOL     OW22703   5.421   1.784   6.886
 1854SOL    HW122704   5.354   1.844   6.854
 1854SOL    HW222705   5.378   1.733   6.954
 1855SOL     OW22706   3.735   6.314   6.942
 1855SOL    HW122707   3.801   6.311   6.873
 1855SOL    HW222708   3.762   6.247   7.005
 1856SOL     OW22709   2.502   0.735   0.725
 1856SOL    HW122710   2.449   0.669   0.769
 1856SOL    HW222711   2.503   0.809   0.785
 1857SOL     OW22712   1.006   3.041   7.523
 1857SOL    HW122713   1.049   3.126   7.532
 1857SOL    HW222714   1.074   2.983   7.488
 1858SOL     OW22715   1.548   4.741   6.959
 1858SOL    HW122716   1.522   4.662   6.912
 1858SOL    HW222717   1.469   4.769   7.005
 1859SOL     OW22718   3.682   6.174   6.147
 1859SOL    HW122719   3.776   6.189   6.138
 1859SOL    HW222720   3.642   6.260   6.135
 1860SOL     OW22721   1.434   2.897   5.633
 1860SOL    HW122722   1.492   2.830   5.597
 1860SOL    HW222723   1.351   2.851   5.647
 1861SOL     OW22724   2.616   6.136   5.249
 1861SOL    HW122725   2.632   6.056   5.198
 1861SOL    HW222726   2.699   6.152   5.293
 1862SOL     OW22727   4.964   1.753   7.510
 1862SOL    HW122728   5.002   1.736   7.424
 1862SOL    HW222729   4.917   1.836   7.500
 1863SOL     OW22730   4.824   5.142   7.023
 1863SOL    HW122731   4.819   5.129   6.929
 1863SOL    HW222732   4.853   5.057   7.058
 1864SOL     OW22733   1.112   4.267   7.420
 1864SOL    HW122734   1.101   4.344   7.476
 1864SOL    HW222735   1.198   4.232   7.445
 1865SOL     OW22736   2.618   0.943   1.853
 1865SOL    HW122737   2.531   0.942   1.813
 1865SOL    HW222738   2.622   1.026   1.900
 1866SOL     OW22739   5.021   3.623   6.769
 1866SOL    HW122740   5.060   3.710   6.772
 1866SOL    HW222741   4.941   3.631   6.821
 1867SOL     OW22742   4.418   5.947   6.240
 1867SOL    HW122743   4.427   6.038   6.212
 1867SOL    HW222744   4.448   5.895   6.166
 1868SOL     OW22745   5.351   1.340   0.498
 1868SOL    HW122746   5.406   1.308   0.569
 1868SOL    HW222747   5.408   1.395   0.445
 1869SOL     OW22748   1.728   1.887   6.673
 1869SOL    HW122749   1.747   1.942   6.749
 1869SOL    HW222750   1.774   1.929   6.600
 1870SOL     OW22751   2.751   3.751   0.253
 1870SOL    HW122752   2.768   3.671   0.303
 1870SOL    HW222753   2.693   3.723   0.182
 1871SOL     OW22754   5.250   5.129   7.159
 1871SOL    HW122755   5.161   5.134   7.195
 1871SOL    HW222756   5.258   5.207   7.105
 1872SOL     OW22757   4.273   0.682   7.191
 1872SOL    HW122758   4.356   0.639   7.170
 1872SOL    HW222759   4.229   0.621   7.250
 1873SOL     OW22760   3.812   4.383   1.146
 1873SOL    HW122761   3.809   4.438   1.225
 1873SOL    HW222762   3.904   4.363   1.134
 1874SOL     OW22763   1.260   0.486   0.008
 1874SOL    HW122764   1.191   0.480   0.074
 1874SOL    HW222765   1.316   0.557   0.038
 1875SOL     OW22766   4.480   5.576   1.134
 1875SOL    HW122767   4.431   5.496   1.116
 1875SOL    HW222768   4.449   5.638   1.069
 1876SOL     OW22769   3.901   5.195   0.288
 1876SOL    HW122770   3.914   5.286   0.260
 1876SOL    HW222771   3.816   5.196   0.333
 1877SOL     OW22772   0.569   3.114   6.201
 1877SOL    HW122773   0.586   3.074   6.286
 1877SOL    HW222774   0.638   3.078   6.144
 1878SOL     OW22775   5.960   1.130   7.511
 1878SOL    HW122776   5.918   1.216   7.512
 1878SOL    HW222777   6.037   1.141   7.455
 1879SOL     OW22778   2.036   2.334   6.468
 1879SOL    HW122779   2.064   2.299   6.383
 1879SOL    HW222780   2.115   2.335   6.521
 1880SOL     OW22781   2.429   4.355   6.247
 1880SOL    HW122782   2.407   4.315   6.163
 1880SOL    HW222783   2.358   4.417   6.264
 1881SOL     OW22784   5.638   4.375   6.381
 1881SOL    HW122785   5.687   4.362   6.462
 1881SOL    HW222786   5.623   4.287   6.347
 1882SOL     OW22787   1.955   5.111   0.756
 1882SOL    HW122788   2.045   5.105   0.725
 1882SOL    HW222789   1.922   5.021   0.749
 1883SOL     OW22790   6.154   0.140   7.118
 1883SOL    HW122791   6.116   0.192   7.048
 1883SOL    HW222792   6.092   0.147   7.191
 1884SOL     OW22793   1.072   1.449   6.413
 1884SOL    HW122794   1.154   1.403   6.391
 1884SOL    HW222795   1.039   1.402   6.490
 1885SOL     OW22796   2.119   0.632   7.782
 1885SOL    HW122797   2.100   0.714   7.736
 1885SOL    HW222798   2.164   0.660   7.862
 1886SOL     OW22799   3.855   4.988   1.654
 1886SOL    HW122800   3.795   4.913   1.649
 1886SOL    HW222801   3.797   5.063   1.667
 1887SOL     OW22802   2.815   6.217   7.843
 1887SOL    HW122803   2.892   6.256   7.801
 1887SOL    HW222804   2.828   6.122   7.834
 1888SOL     OW22805   1.141   0.205   6.348
 1888SOL    HW122806   1.181   0.287   6.374
 1888SOL    HW222807   1.088   0.227   6.272
 1889SOL     OW22808   0.917   2.655   0.085
 1889SOL    HW122809   0.989   2.715   0.071
 1889SOL    HW222810   0.909   2.606   0.002
 1890SOL     OW22811   1.820   4.531   5.958
 1890SOL    HW122812   1.738   4.577   5.939
 1890SOL    HW222813   1.809   4.445   5.917
 1891SOL     OW22814   0.212   4.846   1.914
 1891SOL    HW122815   0.134   4.793   1.898
 1891SOL    HW222816   0.285   4.785   1.904
 1892SOL     OW22817   5.843   6.273   5.048
 1892SOL    HW122818   5.826   6.313   5.133
 1892SOL    HW222819   5.835   6.179   5.063
 1893SOL     OW22820   6.090   0.973   7.164
 1893SOL    HW122821   6.143   0.914   7.111
 1893SOL    HW222822   6.027   0.916   7.208
 1894SOL     OW22823   5.410   1.488   6.500
 1894SOL    HW122824   5.484   1.474   6.559
 1894SOL    HW222825   5.429   1.433   6.424
 1895SOL     OW22826   1.475   1.266   6.213
 1895SOL    HW122827   1.498   1.327   6.143
 1895SOL    HW222828   1.380   1.270   6.219
 1896SOL     OW22829   3.636   5.101   1.160
 1896SOL    HW122830   3.556   5.148   1.184
 1896SOL    HW222831   3.632   5.093   1.065
 1897SOL     OW22832   4.647   3.126   0.076
 1897SOL    HW122833   4.725   3.133   0.021
 1897SOL    HW222834   4.615   3.216   0.085
 1898SOL     OW22835   5.197   1.912   7.021
 1898SOL    HW122836   5.208   1.983   6.959
 1898SOL    HW222837   5.102   1.900   7.028
 1899SOL     OW22838   6.392   5.530   7.563
 1899SOL    HW122839   6.311   5.483   7.546
 1899SOL    HW222840   6.388   5.552   7.656
 1900SOL     OW22841   1.954   5.455   6.545
 1900SOL    HW122842   1.997   5.435   6.461
 1900SOL    HW222843   1.933   5.369   6.582
 1901SOL     OW22844   4.977   2.097   1.435
 1901SOL    HW122845   4.932   2.136   1.510
 1901SOL    HW222846   4.918   2.027   1.406
 1902SOL     OW22847   5.719   4.704   0.013
 1902SOL    HW122848   5.676   4.707   0.098
 1902SOL    HW222849   5.811   4.686   0.034
 1903SOL     OW22850   1.167   4.529   7.837
 1903SOL    HW122851   1.208   4.447   7.864
 1903SOL    HW222852   1.091   4.538   7.895
 1904SOL     OW22853   1.153   5.322   0.867
 1904SOL    HW122854   1.102   5.404   0.868
 1904SOL    HW222855   1.199   5.324   0.783
 1905SOL     OW22856   2.305   3.091   0.091
 1905SOL    HW122857   2.230   3.065   0.146
 1905SOL    HW222858   2.278   3.173   0.051
 1906SOL     OW22859   1.013   4.390   6.298
 1906SOL    HW122860   0.998   4.453   6.228
 1906SOL    HW222861   1.015   4.305   6.254
 1907SOL     OW22862   6.287   6.119   6.671
 1907SOL    HW122863   6.226   6.131   6.744
 1907SOL    HW222864   6.296   6.207   6.633
 1908SOL     OW22865   2.097   0.147   7.592
 1908SOL    HW122866   2.017   0.105   7.560
 1908SOL    HW222867   2.076   0.173   7.681
 1909SOL     OW22868   1.306   3.742   1.252
 1909SOL    HW122869   1.236   3.755   1.316
 1909SOL    HW222870   1.263   3.702   1.177
 1910SOL     OW22871   1.826   5.491   0.787
 1910SOL    HW122872   1.905   5.538   0.813
 1910SOL    HW222873   1.756   5.531   0.838
 1911SOL     OW22874   1.312   2.194   2.070
 1911SOL    HW122875   1.230   2.221   2.029
 1911SOL    HW222876   1.356   2.276   2.092
 1912SOL     OW22877   2.574   1.886   7.781
 1912SOL    HW122878   2.513   1.815   7.761
 1912SOL    HW222879   2.523   1.966   7.767
 1913SOL     OW22880   2.381   4.845   5.913
 1913SOL    HW122881   2.466   4.850   5.869
 1913SOL    HW222882   2.373   4.754   5.939
 1914SOL     OW22883   0.754   5.571   0.656
 1914SOL    HW122884   0.720   5.482   0.663
 1914SOL    HW222885   0.807   5.583   0.734
 1915SOL     OW22886   0.566   2.203   6.167
 1915SOL    HW122887   0.567   2.285   6.217
 1915SOL    HW222888   0.492   2.154   6.203
 1916SOL     OW22889   3.170   1.206   0.078
 1916SOL    HW122890   3.249   1.152   0.071
 1916SOL    HW222891   3.105   1.159   0.026
 1917SOL     OW22892   3.369   2.287   1.060
 1917SOL    HW122893   3.323   2.267   0.978
 1917SOL    HW222894   3.305   2.338   1.110
 1918SOL     OW22895   3.581   2.835   7.134
 1918SOL    HW122896   3.613   2.903   7.193
 1918SOL    HW222897   3.526   2.779   7.189
 1919SOL     OW22898   5.694   3.168   7.093
 1919SOL    HW122899   5.734   3.090   7.055
 1919SOL    HW222900   5.604   3.167   7.060
 1920SOL     OW22901   0.244   3.402   5.071
 1920SOL    HW122902   0.234   3.352   5.152
 1920SOL    HW222903   0.338   3.417   5.063
 1921SOL     OW22904   3.435   4.610   7.592
 1921SOL    HW122905   3.436   4.616   7.497
 1921SOL    HW222906   3.516   4.651   7.620
 1922SOL     OW22907   5.722   0.080   7.743
 1922SOL    HW122908   5.677   0.048   7.821
 1922SOL    HW222909   5.810   0.104   7.774
 1923SOL     OW22910   4.168   2.770   6.787
 1923SOL    HW122911   4.109   2.760   6.862
 1923SOL    HW222912   4.165   2.863   6.766
 1924SOL     OW22913   5.224   4.814   1.697
 1924SOL    HW122914   5.197   4.905   1.710
 1924SOL    HW222915   5.154   4.762   1.737
 1925SOL     OW22916   4.757   2.290   7.048
 1925SOL    HW122917   4.684   2.279   6.988
 1925SOL    HW222918   4.805   2.367   7.016
 1926SOL     OW22919   0.223   0.988   7.562
 1926SOL    HW122920   0.295   0.929   7.583
 1926SOL    HW222921   0.157   0.970   7.628
 1927SOL     OW22922   2.350   2.092   6.188
 1927SOL    HW122923   2.436   2.052   6.186
 1927SOL    HW222924   2.345   2.141   6.105
 1928SOL     OW22925   2.364   4.295   1.262
 1928SOL    HW122926   2.288   4.333   1.216
 1928SOL    HW222927   2.438   4.348   1.233
 1929SOL     OW22928   2.119   2.207   7.068
 1929SOL    HW122929   2.108   2.152   6.991
 1929SOL    HW222930   2.047   2.271   7.062
 1930SOL     OW22931   0.740   3.366   0.525
 1930SOL    HW122932   0.751   3.289   0.469
 1930SOL    HW222933   0.648   3.391   0.513
 1931SOL     OW22934   4.737   0.010   6.831
 1931SOL    HW122935   4.653   0.053   6.817
 1931SOL    HW222936   4.772  -0.005   6.743
 1932SOL     OW22937   2.407   0.575   0.042
 1932SOL    HW122938   2.460   0.538  -0.028
 1932SOL    HW222939   2.461   0.566   0.120
 1933SOL     OW22940   0.643   5.639   0.982
 1933SOL    HW122941   0.636   5.734   0.976
 1933SOL    HW222942   0.553   5.608   0.969
 1934SOL     OW22943   0.335   4.272   0.620
 1934SOL    HW122944   0.263   4.211   0.633
 1934SOL    HW222945   0.358   4.301   0.708
 1935SOL     OW22946   2.176   4.236   5.556
 1935SOL    HW122947   2.216   4.259   5.640
 1935SOL    HW222948   2.226   4.160   5.525
 1936SOL     OW22949   5.209   4.180   6.175
 1936SOL    HW122950   5.177   4.225   6.253
 1936SOL    HW222951   5.227   4.091   6.204
 1937SOL     OW22952   1.052   2.208   1.156
 1937SOL    HW122953   1.128   2.265   1.149
 1937SOL    HW222954   1.083   2.132   1.204
 1938SOL     OW22955   5.556   5.988   1.331
 1938SOL    HW122956   5.493   6.058   1.313
 1938SOL    HW222957   5.626   6.003   1.268
 1939SOL     OW22958   6.306   2.049   0.035
 1939SOL    HW122959   6.376   2.042  -0.029
 1939SOL    HW222960   6.259   2.129   0.012
 1940SOL     OW22961   6.390   1.090   1.578
 1940SOL    HW122962   6.307   1.134   1.597
 1940SOL    HW222963   6.445   1.108   1.654
 1941SOL     OW22964   1.105   5.094   7.162
 1941SOL    HW122965   1.029   5.068   7.215
 1941SOL    HW222966   1.131   5.179   7.198
 1942SOL     OW22967   2.148   0.243   0.827
 1942SOL    HW122968   2.159   0.228   0.921
 1942SOL    HW222969   2.113   0.332   0.821
 1943SOL     OW22970   5.258   1.330   0.230
 1943SOL    HW122971   5.262   1.350   0.323
 1943SOL    HW222972   5.190   1.262   0.223
 1944SOL     OW22973   3.015   3.951   1.066
 1944SOL    HW122974   3.111   3.945   1.064
 1944SOL    HW222975   2.993   4.017   1.001
 1945SOL     OW22976   2.055   5.230   4.970
 1945SOL    HW122977   2.047   5.259   5.061
 1945SOL    HW222978   2.131   5.277   4.936
 1946SOL     OW22979   3.287   4.139   5.794
 1946SOL    HW122980   3.331   4.112   5.714
 1946SOL    HW222981   3.249   4.224   5.774
 1947SOL     OW22982   5.956   1.084   1.713
 1947SOL    HW122983   5.915   1.135   1.782
 1947SOL    HW222984   5.995   1.009   1.759
 1948SOL     OW22985   1.421   4.267   5.343
 1948SOL    HW122986   1.448   4.306   5.426
 1948SOL    HW222987   1.484   4.197   5.328
 1949SOL     OW22988   6.327   2.523   0.086
 1949SOL    HW122989   6.392   2.462   0.052
 1949SOL    HW222990   6.337   2.518   0.181
 1950SOL     OW22991   5.950   1.370   6.690
 1950SOL    HW122992   6.015   1.318   6.643
 1950SOL    HW222993   5.984   1.460   6.686
 1951SOL     OW22994   1.773   1.935   7.130
 1951SOL    HW122995   1.701   1.932   7.193
 1951SOL    HW222996   1.742   1.883   7.056
 1952SOL     OW22997   0.277   0.352   7.755
 1952SOL    HW122998   0.217   0.399   7.697
 1952SOL    HW222999   0.246   0.261   7.752
 1953SOL     OW23000   3.515   5.540   1.513
 1953SOL    HW123001   3.484   5.452   1.534
 1953SOL    HW223002   3.490   5.554   1.422
 1954SOL     OW23003   4.379   1.546   1.904
 1954SOL    HW123004   4.441   1.617   1.923
 1954SOL    HW223005   4.435   1.473   1.877
 1955SOL     OW23006   0.720   5.025   7.155
 1955SOL    HW123007   0.679   4.975   7.084
 1955SOL    HW223008   0.703   5.116   7.134
 1956SOL     OW23009   3.323   1.871   2.040
 1956SOL    HW123010   3.299   1.820   1.962
 1956SOL    HW223011   3.373   1.944   2.005
 1957SOL     OW23012   0.484   0.972   5.091
 1957SOL    HW123013   0.569   0.969   5.134
 1957SOL    HW223014   0.476   1.063   5.061
 1958SOL     OW23015   1.460   2.307   5.637
 1958SOL    HW123016   1.492   2.252   5.565
 1958SOL    HW223017   1.430   2.244   5.703
 1959SOL     OW23018   3.971   4.761   0.851
 1959SOL    HW123019   3.876   4.770   0.848
 1959SOL    HW223020   3.989   4.714   0.932
 1960SOL     OW23021   0.290   2.731   0.984
 1960SOL    HW123022   0.249   2.675   1.050
 1960SOL    HW223023   0.234   2.724   0.907
 1961SOL     OW23024   4.854   0.258   6.672
 1961SOL    HW123025   4.928   0.210   6.710
 1961SOL    HW223026   4.891   0.342   6.646
 1962SOL     OW23027   2.113   5.041   0.005
 1962SOL    HW123028   2.064   5.096  -0.057
 1962SOL    HW223029   2.205   5.061  -0.013
 1963SOL     OW23030   0.190   6.194   7.610
 1963SOL    HW123031   0.214   6.232   7.694
 1963SOL    HW223032   0.095   6.205   7.605
 1964SOL     OW23033   4.793   3.368   0.739
 1964SOL    HW123034   4.747   3.352   0.822
 1964SOL    HW223035   4.830   3.283   0.716
 1965SOL     OW23036   2.974   6.401   6.571
 1965SOL    HW123037   2.994   6.451   6.650
 1965SOL    HW223038   3.058   6.362   6.545
 1966SOL     OW23039   1.522   3.088   5.382
 1966SOL    HW123040   1.516   3.013   5.440
 1966SOL    HW223041   1.443   3.084   5.328
 1967SOL     OW23042   3.566   6.046   7.667
 1967SOL    HW123043   3.548   6.044   7.761
 1967SOL    HW223044   3.492   5.999   7.628
 1968SOL     OW23045   4.857   6.350   0.116
 1968SOL    HW123046   4.845   6.390   0.202
 1968SOL    HW223047   4.865   6.256   0.134
 1969SOL     OW23048   0.403   4.116   5.728
 1969SOL    HW123049   0.484   4.109   5.678
 1969SOL    HW223050   0.359   4.032   5.714
 1970SOL     OW23051   1.571   4.299   1.111
 1970SOL    HW123052   1.549   4.373   1.169
 1970SOL    HW223053   1.526   4.319   1.029
 1971SOL     OW23054   2.722   4.666   5.499
 1971SOL    HW123055   2.643   4.612   5.496
 1971SOL    HW223056   2.699   4.741   5.554
 1972SOL     OW23057   0.487   4.776   6.570
 1972SOL    HW123058   0.435   4.847   6.532
 1972SOL    HW223059   0.578   4.800   6.552
 1973SOL     OW23060   0.816   6.221   5.155
 1973SOL    HW123061   0.884   6.266   5.206
 1973SOL    HW223062   0.818   6.264   5.070
 1974SOL     OW23063   2.156   6.346   0.596
 1974SOL    HW123064   2.180   6.350   0.688
 1974SOL    HW223065   2.150   6.252   0.576
 1975SOL     OW23066   1.524   4.975   6.449
 1975SOL    HW123067   1.522   5.010   6.539
 1975SOL    HW223068   1.432   4.975   6.421
 1976SOL     OW23069   0.615   3.964   5.310
 1976SOL    HW123070   0.599   3.870   5.313
 1976SOL    HW223071   0.529   4.002   5.291
 1977SOL     OW23072   3.300   1.704   1.825
 1977SOL    HW123073   3.250   1.635   1.783
 1977SOL    HW223074   3.387   1.666   1.839
 1978SOL     OW23075   5.583   5.363   0.439
 1978SOL    HW123076   5.664   5.326   0.475
 1978SOL    HW223077   5.560   5.433   0.500
 1979SOL     OW23078   0.624   3.881   7.457
 1979SOL    HW123079   0.655   3.897   7.368
 1979SOL    HW223080   0.637   3.964   7.502
 1980SOL     OW23081   6.276   5.722   6.742
 1980SOL    HW123082   6.260   5.648   6.683
 1980SOL    HW223083   6.343   5.774   6.697
 1981SOL     OW23084   6.063   5.056   1.594
 1981SOL    HW123085   6.086   5.106   1.516
 1981SOL    HW223086   6.147   5.033   1.634
 1982SOL     OW23087   1.917   4.707   4.730
 1982SOL    HW123088   1.855   4.779   4.739
 1982SOL    HW223089   1.951   4.716   4.641
 1983SOL     OW23090   3.162   1.646   7.668
 1983SOL    HW123091   3.203   1.654   7.755
 1983SOL    HW223092   3.120   1.560   7.668
 1984SOL     OW23093   1.631   1.613   5.184
 1984SOL    HW123094   1.675   1.657   5.257
 1984SOL    HW223095   1.557   1.670   5.163
 1985SOL     OW23096   5.077   2.324   7.849
 1985SOL    HW123097   5.110   2.379   7.779
 1985SOL    HW223098   5.011   2.268   7.808
 1986SOL     OW23099   3.593   2.534   7.576
 1986SOL    HW123100   3.641   2.518   7.657
 1986SOL    HW223101   3.571   2.447   7.543
 1987SOL     OW23102   2.604   0.633   1.331
 1987SOL    HW123103   2.570   0.670   1.250
 1987SOL    HW223104   2.530   0.634   1.392
 1988SOL     OW23105   3.937   4.887   5.649
 1988SOL    HW123106   4.011   4.830   5.671
 1988SOL    HW223107   3.978   4.970   5.626
 1989SOL     OW23108   3.211   1.948   0.791
 1989SOL    HW123109   3.156   1.870   0.794
 1989SOL    HW223110   3.300   1.916   0.805
 1990SOL     OW23111   5.379   1.117   1.250
 1990SOL    HW123112   5.410   1.057   1.318
 1990SOL    HW223113   5.459   1.141   1.201
 1991SOL     OW23114   2.387   3.957   0.132
 1991SOL    HW123115   2.370   4.051   0.124
 1991SOL    HW223116   2.482   3.951   0.143
 1992SOL     OW23117   3.352   4.181   0.788
 1992SOL    HW123118   3.413   4.113   0.817
 1992SOL    HW223119   3.310   4.145   0.710
 1993SOL     OW23120   3.464   6.037   1.378
 1993SOL    HW123121   3.375   6.002   1.372
 1993SOL    HW223122   3.521   5.960   1.366
 1994SOL     OW23123   2.264   1.067   6.458
 1994SOL    HW123124   2.234   1.151   6.493
 1994SOL    HW223125   2.349   1.086   6.419
 1995SOL     OW23126   0.921   5.601   7.708
 1995SOL    HW123127   0.982   5.588   7.635
 1995SOL    HW223128   0.976   5.624   7.783
 1996SOL     OW23129   1.096   3.806   1.425
 1996SOL    HW123130   1.044   3.758   1.360
 1996SOL    HW223131   1.082   3.758   1.506
 1997SOL     OW23132   3.041   2.980   5.704
 1997SOL    HW123133   2.995   3.014   5.627
 1997SOL    HW223134   3.025   2.886   5.702
 1998SOL     OW23135   3.233   0.290   0.071
 1998SOL    HW123136   3.225   0.370   0.123
 1998SOL    HW223137   3.323   0.261   0.086
 1999SOL     OW23138   2.429   5.752   6.490
 1999SOL    HW123139   2.396   5.801   6.415
 1999SOL    HW223140   2.497   5.808   6.527
 2000SOL     OW23141   1.377   5.548   0.469
 2000SOL    HW123142   1.416   5.627   0.505
 2000SOL    HW223143   1.451   5.494   0.442
 2001SOL     OW23144   1.256   6.105   6.933
 2001SOL    HW123145   1.291   6.195   6.935
 2001SOL    HW223146   1.282   6.068   7.017
 2002SOL     OW23147   4.634   1.964   6.151
 2002SOL    HW123148   4.655   2.052   6.118
 2002SOL    HW223149   4.708   1.943   6.208
 2003SOL     OW23150   5.360   3.755   0.086
 2003SOL    HW123151   5.431   3.786   0.142
 2003SOL    HW223152   5.398   3.681   0.037
 2004SOL     OW23153   1.491   2.891   1.685
 2004SOL    HW123154   1.437   2.883   1.764
 2004SOL    HW223155   1.462   2.972   1.644
 2005SOL     OW23156   5.058   4.196   7.012
 2005SOL    HW123157   5.006   4.124   6.976
 2005SOL    HW223158   4.998   4.270   7.017
 2006SOL     OW23159   1.383   5.284   7.025
 2006SOL    HW123160   1.397   5.191   7.043
 2006SOL    HW223161   1.411   5.328   7.105
 2007SOL     OW23162   3.549   6.358   0.522
 2007SOL    HW123163   3.589   6.329   0.604
 2007SOL    HW223164   3.457   6.332   0.528
 2008SOL     OW23165   5.696   0.037   6.893
 2008SOL    HW123166   5.746   0.002   6.967
 2008SOL    HW223167   5.615  -0.014   6.891
 2009SOL     OW23168   0.139   2.019   7.132
 2009SOL    HW123169   0.098   1.935   7.111
 2009SOL    HW223170   0.176   2.006   7.219
 2010SOL     OW23171   6.172   0.819   7.837
 2010SOL    HW123172   6.179   0.763   7.913
 2010SOL    HW223173   6.152   0.906   7.873
 2011SOL     OW23174   1.972   5.431   0.079
 2011SOL    HW123175   2.011   5.504   0.030
 2011SOL    HW223176   2.042   5.401   0.136
 2012SOL     OW23177   2.694   0.339   7.115
 2012SOL    HW123178   2.671   0.282   7.041
 2012SOL    HW223179   2.638   0.309   7.186
 2013SOL     OW23180   0.748   2.774   0.404
 2013SOL    HW123181   0.818   2.831   0.371
 2013SOL    HW223182   0.693   2.757   0.327
 2014SOL     OW23183   3.673   5.278   7.804
 2014SOL    HW123184   3.663   5.355   7.748
 2014SOL    HW223185   3.768   5.269   7.815
 2015SOL     OW23186   3.050   4.776   7.530
 2015SOL    HW123187   3.109   4.704   7.509
 2015SOL    HW223188   2.963   4.737   7.535
 2016SOL     OW23189   6.367   1.914   6.174
 2016SOL    HW123190   6.327   1.965   6.103
 2016SOL    HW223191   6.460   1.914   6.152
 2017SOL     OW23192   6.155   4.084   7.417
 2017SOL    HW123193   6.229   4.145   7.414
 2017SOL    HW223194   6.095   4.117   7.350
 2018SOL     OW23195   1.406   4.353   6.017
 2018SOL    HW123196   1.458   4.275   6.037
 2018SOL    HW223197   1.456   4.425   6.056
 2019SOL     OW23198   0.898   0.774   6.827
 2019SOL    HW123199   0.808   0.752   6.804
 2019SOL    HW223200   0.947   0.764   6.745
 2020SOL     OW23201   4.600   0.095   1.064
 2020SOL    HW123202   4.651   0.107   1.144
 2020SOL    HW223203   4.651   0.034   1.012
 2021SOL     OW23204   2.880   4.905   5.251
 2021SOL    HW123205   2.859   4.818   5.215
 2021SOL    HW223206   2.816   4.919   5.321
 2022SOL     OW23207   0.124   6.337   1.213
 2022SOL    HW123208   0.132   6.313   1.121
 2022SOL    HW223209   0.210   6.320   1.250
 2023SOL     OW23210   3.600   5.771   7.505
 2023SOL    HW123211   3.508   5.796   7.518
 2023SOL    HW223212   3.650   5.843   7.543
 2024SOL     OW23213   1.456   0.944   0.818
 2024SOL    HW123214   1.486   0.853   0.821
 2024SOL    HW223215   1.409   0.950   0.735
 2025SOL     OW23216   1.199   6.124   7.446
 2025SOL    HW123217   1.147   6.137   7.367
 2025SOL    HW223218   1.266   6.193   7.443
 2026SOL     OW23219   5.216   0.782   1.810
 2026SOL    HW123220   5.312   0.779   1.810
 2026SOL    HW223221   5.189   0.698   1.772
 2027SOL     OW23222   3.020   6.410   1.024
 2027SOL    HW123223   3.040   6.490   1.072
 2027SOL    HW223224   3.079   6.344   1.062
 2028SOL     OW23225   1.875   0.697   5.634
 2028SOL    HW123226   1.821   0.750   5.692
 2028SOL    HW223227   1.965   0.720   5.657
 2029SOL     OW23228   1.325   5.760   6.134
 2029SOL    HW123229   1.411   5.770   6.174
 2029SOL    HW223230   1.268   5.732   6.206
 2030SOL     OW23231   2.015   0.869   7.684
 2030SOL    HW123232   1.953   0.921   7.736
 2030SOL    HW223233   2.010   0.906   7.597
 2031SOL     OW23234   1.251   5.918   0.626
 2031SOL    HW123235   1.324   5.867   0.662
 2031SOL    HW223236   1.247   5.997   0.681
 2032SOL     OW23237   6.379   3.819   6.651
 2032SOL    HW123238   6.341   3.831   6.738
 2032SOL    HW223239   6.357   3.728   6.629
 2033SOL     OW23240   0.287   3.190   7.118
 2033SOL    HW123241   0.246   3.106   7.139
 2033SOL    HW223242   0.324   3.220   7.201
 2034SOL     OW23243   2.355   4.552   7.160
 2034SOL    HW123244   2.430   4.544   7.218
 2034SOL    HW223245   2.286   4.591   7.215
 2035SOL     OW23246   1.045   0.692   1.824
 2035SOL    HW123247   1.029   0.599   1.841
 2035SOL    HW223248   1.140   0.699   1.817
 2036SOL     OW23249   0.803   2.425   5.605
 2036SOL    HW123250   0.874   2.396   5.663
 2036SOL    HW223251   0.753   2.487   5.658
 2037SOL     OW23252   5.407   2.642   7.230
 2037SOL    HW123253   5.345   2.663   7.160
 2037SOL    HW223254   5.482   2.700   7.213
 2038SOL     OW23255   3.907   2.070   0.107
 2038SOL    HW123256   3.999   2.045   0.099
 2038SOL    HW223257   3.908   2.165   0.100
 2039SOL     OW23258   0.666   6.215   0.615
 2039SOL    HW123259   0.594   6.276   0.602
 2039SOL    HW223260   0.733   6.244   0.554
 2040SOL     OW23261   5.395   5.793   7.309
 2040SOL    HW123262   5.406   5.700   7.291
 2040SOL    HW223263   5.303   5.811   7.291
 2041SOL     OW23264   1.032   0.176   0.040
 2041SOL    HW123265   1.012   0.270   0.037
 2041SOL    HW223266   1.125   0.172   0.064
 2042SOL     OW23267   1.252   1.922   6.767
 2042SOL    HW123268   1.323   1.915   6.703
 2042SOL    HW223269   1.230   1.832   6.788
 2043SOL     OW23270   0.691   1.254   1.034
 2043SOL    HW123271   0.715   1.201   0.958
 2043SOL    HW223272   0.595   1.261   1.029
 2044SOL     OW23273   0.598   4.163   6.204
 2044SOL    HW123274   0.624   4.077   6.172
 2044SOL    HW223275   0.503   4.156   6.216
 2045SOL     OW23276   5.096   6.124   0.207
 2045SOL    HW123277   5.127   6.187   0.142
 2045SOL    HW223278   5.150   6.047   0.194
 2046SOL     OW23279   1.404   1.407   7.223
 2046SOL    HW123280   1.317   1.372   7.242
 2046SOL    HW223281   1.405   1.416   7.127
 2047SOL     OW23282   2.897   1.160   0.680
 2047SOL    HW123283   2.912   1.088   0.741
 2047SOL    HW223284   2.970   1.220   0.695
 2048SOL     OW23285   3.243   0.687   1.793
 2048SOL    HW123286   3.215   0.619   1.732
 2048SOL    HW223287   3.234   0.646   1.879
 2049SOL     OW23288   1.902   3.958   6.988
 2049SOL    HW123289   1.945   3.978   7.071
 2049SOL    HW223290   1.820   4.009   6.991
 2050SOL     OW23291   1.405   1.615   5.716
 2050SOL    HW123292   1.449   1.571   5.643
 2050SOL    HW223293   1.465   1.685   5.741
 2051SOL     OW23294   4.745   0.532   6.177
 2051SOL    HW123295   4.837   0.505   6.170
 2051SOL    HW223296   4.710   0.520   6.089
 2052SOL     OW23297   4.708   5.481   5.950
 2052SOL    HW123298   4.642   5.472   5.882
 2052SOL    HW223299   4.662   5.459   6.031
 2053SOL     OW23300   3.715   2.343   1.839
 2053SOL    HW123301   3.731   2.370   1.748
 2053SOL    HW223302   3.742   2.251   1.841
 2054SOL     OW23303   1.202   1.306   6.186
 2054SOL    HW123304   1.127   1.253   6.162
 2054SOL    HW223305   1.179   1.395   6.159
 2055SOL     OW23306   3.615   5.715   1.177
 2055SOL    HW123307   3.553   5.780   1.142
 2055SOL    HW223308   3.672   5.765   1.235
 2056SOL     OW23309   0.012   4.221   5.318
 2056SOL    HW123310   0.064   4.169   5.380
 2056SOL    HW223311   0.074   4.246   5.250
 2057SOL     OW23312   4.881   1.840   7.844
 2057SOL    HW123313   4.871   1.772   7.911
 2057SOL    HW223314   4.963   1.883   7.866
 2058SOL     OW23315   5.830   1.955   5.977
 2058SOL    HW123316   5.807   2.042   6.008
 2058SOL    HW223317   5.749   1.923   5.935
 2059SOL     OW23318   1.760   1.551   6.050
 2059SOL    HW123319   1.837   1.605   6.030
 2059SOL    HW223320   1.774   1.471   5.999
 2060SOL     OW23321   3.243   5.095   0.252
 2060SOL    HW123322   3.196   5.020   0.216
 2060SOL    HW223323   3.335   5.074   0.240
 2061SOL     OW23324   0.770   0.126   7.689
 2061SOL    HW123325   0.818   0.114   7.771
 2061SOL    HW223326   0.708   0.196   7.708
 2062SOL     OW23327   5.010   0.425   6.234
 2062SOL    HW123328   5.089   0.382   6.264
 2062SOL    HW223329   4.970   0.363   6.173
 2063SOL     OW23330   4.580   4.771   7.209
 2063SOL    HW123331   4.522   4.846   7.225
 2063SOL    HW223332   4.567   4.750   7.117
 2064SOL     OW23333   0.259   1.072   7.245
 2064SOL    HW123334   0.265   1.023   7.327
 2064SOL    HW223335   0.349   1.103   7.229
 2065SOL     OW23336   1.059   4.837   1.554
 2065SOL    HW123337   1.145   4.821   1.516
 2065SOL    HW223338   1.033   4.752   1.591
 2066SOL     OW23339   5.954   6.042   0.872
 2066SOL    HW123340   5.970   6.050   0.966
 2066SOL    HW223341   5.945   5.948   0.856
 2067SOL     OW23342   1.912   2.591   1.607
 2067SOL    HW123343   1.994   2.641   1.607
 2067SOL    HW223344   1.919   2.534   1.530
 2068SOL     OW23345   6.078   2.282   6.241
 2068SOL    HW123346   6.048   2.192   6.242
 2068SOL    HW223347   6.003   2.332   6.209
 2069SOL     OW23348   2.803   4.710   0.674
 2069SOL    HW123349   2.708   4.699   0.668
 2069SOL    HW223350   2.824   4.681   0.763
 2070SOL     OW23351   1.706   0.320   5.903
 2070SOL    HW123352   1.790   0.276   5.913
 2070SOL    HW223353   1.711   0.365   5.819
 2071SOL     OW23354   0.525   1.880   5.280
 2071SOL    HW123355   0.482   1.831   5.349
 2071SOL    HW223356   0.462   1.947   5.255
 2072SOL     OW23357   2.403   6.078   2.089
 2072SOL    HW123358   2.474   6.125   2.134
 2072SOL    HW223359   2.439   5.990   2.075
 2073SOL     OW23360   2.449   3.148   5.372
 2073SOL    HW123361   2.412   3.217   5.316
 2073SOL    HW223362   2.373   3.113   5.419
 2074SOL     OW23363   1.524   3.890   6.937
 2074SOL    HW123364   1.603   3.836   6.938
 2074SOL    HW223365   1.556   3.979   6.954
 2075SOL     OW23366   3.448   5.498   0.358
 2075SOL    HW123367   3.523   5.470   0.306
 2075SOL    HW223368   3.372   5.478   0.303
 2076SOL     OW23369   5.507   5.988   6.845
 2076SOL    HW123370   5.585   6.019   6.800
 2076SOL    HW223371   5.434   6.030   6.798
 2077SOL     OW23372   0.502   1.542   0.548
 2077SOL    HW123373   0.587   1.540   0.503
 2077SOL    HW223374   0.468   1.453   0.539
 2078SOL     OW23375   5.264   2.632   6.294
 2078SOL    HW123376   5.183   2.667   6.258
 2078SOL    HW223377   5.331   2.657   6.230
 2079SOL     OW23378   1.824   3.937   6.374
 2079SOL    HW123379   1.887   4.009   6.364
 2079SOL    HW223380   1.879   3.858   6.380
 2080SOL     OW23381   2.254   5.777   7.789
 2080SOL    HW123382   2.280   5.825   7.710
 2080SOL    HW223383   2.273   5.685   7.768
 2081SOL     OW23384   2.439   0.474   6.574
 2081SOL    HW123385   2.396   0.396   6.540
 2081SOL    HW223386   2.425   0.540   6.507
 2082SOL     OW23387   5.335   4.539   1.091
 2082SOL    HW123388   5.358   4.614   1.145
 2082SOL    HW223389   5.374   4.464   1.137
 2083SOL     OW23390   2.142   0.394   1.341
 2083SOL    HW123391   2.070   0.333   1.323
 2083SOL    HW223392   2.175   0.368   1.426
 2084SOL     OW23393   0.327   5.483   1.545
 2084SOL    HW123394   0.358   5.455   1.632
 2084SOL    HW223395   0.252   5.540   1.564
 2085SOL     OW23396   3.664   3.397   1.980
 2085SOL    HW123397   3.694   3.342   1.908
 2085SOL    HW223398   3.613   3.467   1.938
 2086SOL     OW23399   1.519   6.078   6.256
 2086SOL    HW123400   1.528   5.985   6.277
 2086SOL    HW223401   1.485   6.117   6.336
 2087SOL     OW23402   3.699   5.746   7.003
 2087SOL    HW123403   3.659   5.659   6.993
 2087SOL    HW223404   3.689   5.786   6.917
 2088SOL     OW23405   1.333   4.459   1.474
 2088SOL    HW123406   1.244   4.430   1.496
 2088SOL    HW223407   1.388   4.422   1.543
 2089SOL     OW23408   5.533   1.514   0.779
 2089SOL    HW123409   5.531   1.418   0.776
 2089SOL    HW223410   5.566   1.539   0.693
 2090SOL     OW23411   3.444   3.789   5.945
 2090SOL    HW123412   3.394   3.822   5.870
 2090SOL    HW223413   3.536   3.791   5.915
 2091SOL     OW23414   3.887   2.613   7.229
 2091SOL    HW123415   3.866   2.652   7.144
 2091SOL    HW223416   3.804   2.574   7.258
 2092SOL     OW23417   5.539   3.749   7.494
 2092SOL    HW123418   5.568   3.657   7.493
 2092SOL    HW223419   5.601   3.794   7.437
 2093SOL     OW23420   6.312   1.566   0.193
 2093SOL    HW123421   6.333   1.621   0.268
 2093SOL    HW223422   6.267   1.624   0.132
 2094SOL     OW23423   2.065   2.959   6.021
 2094SOL    HW123424   2.014   3.035   6.048
 2094SOL    HW223425   2.144   2.963   6.076
 2095SOL     OW23426   6.074   6.082   0.643
 2095SOL    HW123427   6.030   6.076   0.728
 2095SOL    HW223428   6.011   6.128   0.587
 2096SOL     OW23429   3.650   5.602   2.101
 2096SOL    HW123430   3.726   5.554   2.134
 2096SOL    HW223431   3.686   5.684   2.068
 2097SOL     OW23432   1.324   3.209   6.507
 2097SOL    HW123433   1.403   3.161   6.531
 2097SOL    HW223434   1.259   3.181   6.571
 2098SOL     OW23435   5.810   6.368   5.287
 2098SOL    HW123436   5.806   6.452   5.333
 2098SOL    HW223437   5.858   6.311   5.347
 2099SOL     OW23438   1.088   0.957   0.597
 2099SOL    HW123439   1.162   0.897   0.589
 2099SOL    HW223440   1.011   0.902   0.589
 2100SOL     OW23441   5.230   3.736   5.987
 2100SOL    HW123442   5.286   3.774   5.919
 2100SOL    HW223443   5.196   3.656   5.948
 2101SOL     OW23444   5.127   2.813   1.679
 2101SOL    HW123445   5.153   2.726   1.650
 2101SOL    HW223446   5.036   2.822   1.652
 2102SOL     OW23447   6.000   5.801   7.498
 2102SOL    HW123448   5.983   5.792   7.405
 2102SOL    HW223449   6.039   5.717   7.524
 2103SOL     OW23450   0.697   0.942   6.001
 2103SOL    HW123451   0.764   0.879   5.976
 2103SOL    HW223452   0.722   1.023   5.956
 2104SOL     OW23453   3.045   3.272   0.636
 2104SOL    HW123454   3.066   3.308   0.549
 2104SOL    HW223455   3.104   3.198   0.646
 2105SOL     OW23456   5.093   3.837   7.882
 2105SOL    HW123457   5.123   3.872   7.798
 2105SOL    HW223458   5.168   3.789   7.916
 2106SOL     OW23459   5.520   3.464   0.755
 2106SOL    HW123460   5.613   3.476   0.737
 2106SOL    HW223461   5.476   3.487   0.673
 2107SOL     OW23462   1.442   4.756   6.206
 2107SOL    HW123463   1.362   4.779   6.159
 2107SOL    HW223464   1.508   4.816   6.170
 2108SOL     OW23465   2.035   5.719   6.354
 2108SOL    HW123466   2.048   5.713   6.449
 2108SOL    HW223467   2.111   5.676   6.316
 2109SOL     OW23468   6.129   3.122   1.153
 2109SOL    HW123469   6.098   3.147   1.066
 2109SOL    HW223470   6.139   3.027   1.148
 2110SOL     OW23471   0.125   2.440   1.683
 2110SOL    HW123472   0.206   2.481   1.651
 2110SOL    HW223473   0.145   2.413   1.772
 2111SOL     OW23474   0.500   3.019   0.289
 2111SOL    HW123475   0.525   2.956   0.357
 2111SOL    HW223476   0.510   2.970   0.207
 2112SOL     OW23477   5.747   3.057   1.615
 2112SOL    HW123478   5.832   3.084   1.580
 2112SOL    HW223479   5.748   3.086   1.706
 2113SOL     OW23480   5.484   3.390   5.844
 2113SOL    HW123481   5.521   3.478   5.835
 2113SOL    HW223482   5.561   3.332   5.845
 2114SOL     OW23483   2.205   5.199   1.255
 2114SOL    HW123484   2.284   5.153   1.284
 2114SOL    HW223485   2.133   5.140   1.277
 2115SOL     OW23486   1.615   1.224   6.638
 2115SOL    HW123487   1.696   1.190   6.598
 2115SOL    HW223488   1.640   1.244   6.728
 2116SOL     OW23489   2.320   3.176   5.756
 2116SOL    HW123490   2.321   3.251   5.697
 2116SOL    HW223491   2.374   3.110   5.711
 2117SOL     OW23492   2.424   3.497   6.368
 2117SOL    HW123493   2.414   3.522   6.277
 2117SOL    HW223494   2.504   3.541   6.397
 2118SOL     OW23495   5.370   5.641   5.472
 2118SOL    HW123496   5.403   5.597   5.394
 2118SOL    HW223497   5.343   5.570   5.530
 2119SOL     OW23498   5.142   2.012   0.624
 2119SOL    HW123499   5.085   1.980   0.554
 2119SOL    HW223500   5.193   2.082   0.584
 2120SOL     OW23501   0.892   3.989   5.576
 2120SOL    HW123502   0.952   3.919   5.551
 2120SOL    HW223503   0.947   4.065   5.589
 2121SOL     OW23504   4.130   2.365   7.157
 2121SOL    HW123505   4.153   2.456   7.138
 2121SOL    HW223506   4.067   2.342   7.089
 2122SOL     OW23507   3.421   4.444   7.819
 2122SOL    HW123508   3.502   4.447   7.869
 2122SOL    HW223509   3.440   4.494   7.740
 2123SOL     OW23510   3.416   0.667   7.292
 2123SOL    HW123511   3.458   0.584   7.270
 2123SOL    HW223512   3.479   0.733   7.263
 2124SOL     OW23513   4.106   5.720   2.221
 2124SOL    HW123514   4.048   5.792   2.197
 2124SOL    HW223515   4.182   5.762   2.261
 2125SOL     OW23516   1.226   0.599   0.895
 2125SOL    HW123517   1.319   0.591   0.875
 2125SOL    HW223518   1.222   0.653   0.974
 2126SOL     OW23519   3.021   1.726   1.582
 2126SOL    HW123520   3.086   1.666   1.616
 2126SOL    HW223521   2.980   1.765   1.659
 2127SOL     OW23522   4.316   3.427   1.005
 2127SOL    HW123523   4.390   3.446   0.947
 2127SOL    HW223524   4.353   3.430   1.094
 2128SOL     OW23525   2.923   2.009   0.710
 2128SOL    HW123526   2.857   2.065   0.749
 2128SOL    HW223527   2.996   2.067   0.689
 2129SOL     OW23528   5.274   2.435   0.310
 2129SOL    HW123529   5.201   2.494   0.332
 2129SOL    HW223530   5.300   2.462   0.221
 2130SOL     OW23531   6.158   0.018   0.265
 2130SOL    HW123532   6.144  -0.060   0.319
 2130SOL    HW223533   6.241   0.002   0.221
 2131SOL     OW23534   1.482   4.927   6.722
 2131SOL    HW123535   1.496   4.846   6.770
 2131SOL    HW223536   1.387   4.936   6.717
 2132SOL     OW23537   3.017   2.325   6.295
 2132SOL    HW123538   3.070   2.342   6.372
 2132SOL    HW223539   3.063   2.255   6.249
 2133SOL     OW23540   2.985   1.454   6.912
 2133SOL    HW123541   3.018   1.449   7.002
 2133SOL    HW223542   3.009   1.542   6.883
 2134SOL     OW23543   2.821   5.530   7.016
 2134SOL    HW123544   2.780   5.487   7.091
 2134SOL    HW223545   2.912   5.542   7.041
 2135SOL     OW23546   2.968   5.973   5.516
 2135SOL    HW123547   2.881   5.947   5.548
 2135SOL    HW223548   2.999   6.037   5.581
 2136SOL     OW23549   4.338   6.331   0.675
 2136SOL    HW123550   4.352   6.344   0.769
 2136SOL    HW223551   4.338   6.420   0.638
 2137SOL     OW23552   1.109   5.336   6.980
 2137SOL    HW123553   1.192   5.297   7.009
 2137SOL    HW223554   1.135   5.416   6.934
 2138SOL     OW23555   4.804   0.278   6.957
 2138SOL    HW123556   4.811   0.228   6.876
 2138SOL    HW223557   4.894   0.297   6.981
 2139SOL     OW23558   4.843   2.247   1.622
 2139SOL    HW123559   4.796   2.313   1.572
 2139SOL    HW223560   4.778   2.214   1.684
 2140SOL     OW23561   0.237   0.377   5.925
 2140SOL    HW123562   0.330   0.355   5.927
 2140SOL    HW223563   0.199   0.318   5.860
 2141SOL     OW23564   2.498   1.107   7.844
 2141SOL    HW123565   2.555   1.182   7.828
 2141SOL    HW223566   2.531   1.068   7.925
 2142SOL     OW23567   5.601   6.285   2.001
 2142SOL    HW123568   5.563   6.372   2.009
 2142SOL    HW223569   5.694   6.296   2.021
 2143SOL     OW23570   0.908   0.019   5.874
 2143SOL    HW123571   0.844   0.066   5.820
 2143SOL    HW223572   0.931  -0.058   5.822
 2144SOL     OW23573   4.979   4.326   6.033
 2144SOL    HW123574   5.051   4.284   6.080
 2144SOL    HW223575   5.020   4.396   5.983
 2145SOL     OW23576   6.059   5.601   5.902
 2145SOL    HW123577   6.102   5.684   5.884
 2145SOL    HW223578   6.124   5.550   5.952
 2146SOL     OW23579   4.745   3.788   1.522
 2146SOL    HW123580   4.822   3.828   1.483
 2146SOL    HW223581   4.692   3.861   1.552
 2147SOL     OW23582   3.252   5.837   6.897
 2147SOL    HW123583   3.299   5.919   6.879
 2147SOL    HW223584   3.268   5.821   6.990
 2148SOL     OW23585   4.834   2.198   7.688
 2148SOL    HW123586   4.911   2.173   7.638
 2148SOL    HW223587   4.804   2.117   7.729
 2149SOL     OW23588   4.551   4.872   0.149
 2149SOL    HW123589   4.635   4.849   0.190
 2149SOL    HW223590   4.530   4.797   0.094
 2150SOL     OW23591   5.969   0.440   0.628
 2150SOL    HW123592   5.980   0.345   0.623
 2150SOL    HW223593   6.056   0.475   0.612
 2151SOL     OW23594   2.680   0.814   7.244
 2151SOL    HW123595   2.632   0.746   7.198
 2151SOL    HW223596   2.771   0.802   7.217
 2152SOL     OW23597   1.778   3.225   5.246
 2152SOL    HW123598   1.700   3.180   5.279
 2152SOL    HW223599   1.801   3.176   5.167
 2153SOL     OW23600   3.992   2.501   5.873
 2153SOL    HW123601   3.924   2.450   5.918
 2153SOL    HW223602   3.946   2.542   5.799
 2154SOL     OW23603   0.456   0.929   2.235
 2154SOL    HW123604   0.457   1.022   2.214
 2154SOL    HW223605   0.529   0.918   2.297
 2155SOL     OW23606   4.556   3.595   1.486
 2155SOL    HW123607   4.593   3.525   1.540
 2155SOL    HW223608   4.621   3.665   1.488
 2156SOL     OW23609   1.586   3.580   6.255
 2156SOL    HW123610   1.546   3.649   6.200
 2156SOL    HW223611   1.524   3.507   6.249
 2157SOL     OW23612   3.062   6.241   1.363
 2157SOL    HW123613   3.108   6.241   1.279
 2157SOL    HW223614   2.988   6.182   1.349
 2158SOL     OW23615   2.422   4.722   6.711
 2158SOL    HW123616   2.488   4.724   6.780
 2158SOL    HW223617   2.344   4.759   6.753
 2159SOL     OW23618   2.491   3.178   0.924
 2159SOL    HW123619   2.499   3.083   0.928
 2159SOL    HW223620   2.514   3.208   1.012
 2160SOL     OW23621   4.303   3.167   7.053
 2160SOL    HW123622   4.285   3.251   7.011
 2160SOL    HW223623   4.259   3.102   6.999
 2161SOL     OW23624   3.769   0.019   1.691
 2161SOL    HW123625   3.851   0.027   1.741
 2161SOL    HW223626   3.706  -0.014   1.754
 2162SOL     OW23627   6.290   0.474   7.703
 2162SOL    HW123628   6.384   0.484   7.685
 2162SOL    HW223629   6.249   0.549   7.661
 2163SOL     OW23630   0.947   0.220   1.288
 2163SOL    HW123631   1.004   0.153   1.252
 2163SOL    HW223632   1.006   0.287   1.322
 2164SOL     OW23633   3.502   4.682   6.366
 2164SOL    HW123634   3.448   4.613   6.327
 2164SOL    HW223635   3.447   4.720   6.435
 2165SOL     OW23636   3.443   0.911   5.535
 2165SOL    HW123637   3.479   0.881   5.619
 2165SOL    HW223638   3.520   0.940   5.485
 2166SOL     OW23639   1.228   4.423   4.938
 2166SOL    HW123640   1.220   4.447   4.845
 2166SOL    HW223641   1.188   4.496   4.985
 2167SOL     OW23642   3.932   5.126   7.871
 2167SOL    HW123643   3.904   5.130   7.963
 2167SOL    HW223644   4.021   5.163   7.872
 2168SOL     OW23645   5.633   4.936   1.248
 2168SOL    HW123646   5.612   5.007   1.309
 2168SOL    HW223647   5.691   4.976   1.184
 2169SOL     OW23648   0.038   1.246   7.216
 2169SOL    HW123649   0.112   1.186   7.215
 2169SOL    HW223650  -0.039   1.190   7.211
 2170SOL     OW23651   2.586   1.909   6.200
 2170SOL    HW123652   2.621   1.893   6.113
 2170SOL    HW223653   2.653   1.876   6.260
 2171SOL     OW23654   0.490   4.107   0.810
 2171SOL    HW123655   0.457   4.018   0.823
 2171SOL    HW223656   0.445   4.138   0.732
 2172SOL     OW23657   5.285   4.364   7.226
 2172SOL    HW123658   5.211   4.338   7.171
 2172SOL    HW223659   5.247   4.417   7.296
 2173SOL     OW23660   1.076   0.176   6.030
 2173SOL    HW123661   1.155   0.134   5.996
 2173SOL    HW223662   1.005   0.138   5.979
 2174SOL     OW23663   5.406   2.642   6.047
 2174SOL    HW123664   5.368   2.729   6.058
 2174SOL    HW223665   5.409   2.628   5.952
 2175SOL     OW23666   0.227   3.315   4.645
 2175SOL    HW123667   0.276   3.387   4.685
 2175SOL    HW223668   0.161   3.292   4.711
 2176SOL     OW23669   4.753   0.228   1.935
 2176SOL    HW123670   4.750   0.154   1.875
 2176SOL    HW223671   4.719   0.302   1.885
 2177SOL     OW23672   0.093   0.043   1.879
 2177SOL    HW123673   0.001   0.068   1.883
 2177SOL    HW223674   0.130   0.074   1.961
 2178SOL     OW23675   4.840   4.610   0.776
 2178SOL    HW123676   4.889   4.542   0.822
 2178SOL    HW223677   4.797   4.563   0.704
 2179SOL     OW23678   2.827   5.946   7.815
 2179SOL    HW123679   2.785   5.955   7.730
 2179SOL    HW223680   2.767   5.893   7.867
 2180SOL     OW23681   5.397   6.021   0.035
 2180SOL    HW123682   5.477   5.972   0.051
 2180SOL    HW223683   5.327   5.957   0.048
 2181SOL     OW23684   5.037   2.011   7.329
 2181SOL    HW123685   4.960   2.012   7.272
 2181SOL    HW223686   5.093   2.081   7.295
 2182SOL     OW23687   3.465   5.987   5.555
 2182SOL    HW123688   3.456   6.038   5.475
 2182SOL    HW223689   3.465   5.896   5.525
 2183SOL     OW23690   5.534   1.690   1.263
 2183SOL    HW123691   5.449   1.647   1.252
 2183SOL    HW223692   5.589   1.653   1.194
 2184SOL     OW23693   5.481   3.002   0.359
 2184SOL    HW123694   5.456   2.920   0.316
 2184SOL    HW223695   5.421   3.010   0.433
 2185SOL     OW23696   3.304   5.281   7.869
 2185SOL    HW123697   3.241   5.342   7.830
 2185SOL    HW223698   3.258   5.245   7.945
 2186SOL     OW23699   1.707   1.910   1.789
 2186SOL    HW123700   1.727   1.898   1.696
 2186SOL    HW223701   1.792   1.931   1.829
 2187SOL     OW23702   0.924   5.710   0.291
 2187SOL    HW123703   0.875   5.761   0.356
 2187SOL    HW223704   0.872   5.630   0.280
 2188SOL     OW23705   0.293   2.170   6.124
 2188SOL    HW123706   0.217   2.204   6.171
 2188SOL    HW223707   0.284   2.075   6.130
 2189SOL     OW23708   0.192   2.086   7.536
 2189SOL    HW123709   0.262   2.039   7.580
 2189SOL    HW223710   0.231   2.168   7.509
 2190SOL     OW23711   5.660   4.940   7.770
 2190SOL    HW123712   5.618   4.990   7.840
 2190SOL    HW223713   5.692   4.861   7.814
 2191SOL     OW23714   0.406   6.184   1.228
 2191SOL    HW123715   0.475   6.250   1.232
 2191SOL    HW223716   0.366   6.196   1.142
 2192SOL     OW23717   5.492   0.604   6.143
 2192SOL    HW123718   5.542   0.568   6.070
 2192SOL    HW223719   5.465   0.528   6.194
 2193SOL     OW23720   0.872   1.913   6.585
 2193SOL    HW123721   0.919   1.840   6.544
 2193SOL    HW223722   0.940   1.963   6.630
 2194SOL     OW23723   4.015   5.192   6.457
 2194SOL    HW123724   4.045   5.263   6.400
 2194SOL    HW223725   3.928   5.221   6.486
 2195SOL     OW23726   0.866   0.427   6.173
 2195SOL    HW123727   0.912   0.486   6.114
 2195SOL    HW223728   0.865   0.342   6.128
 2196SOL     OW23729   3.559   1.651   0.094
 2196SOL    HW123730   3.600   1.624   0.012
 2196SOL    HW223731   3.613   1.724   0.125
 2197SOL     OW23732   1.695   0.513   1.095
 2197SOL    HW123733   1.605   0.482   1.111
 2197SOL    HW223734   1.695   0.604   1.123
 2198SOL     OW23735   4.797   5.787   1.735
 2198SOL    HW123736   4.736   5.859   1.750
 2198SOL    HW223737   4.752   5.710   1.769
 2199SOL     OW23738   2.664   5.787   0.096
 2199SOL    HW123739   2.586   5.819   0.142
 2199SOL    HW223740   2.729   5.774   0.165
 2200SOL     OW23741   4.743   3.961   6.113
 2200SOL    HW123742   4.679   3.918   6.056
 2200SOL    HW223743   4.812   3.896   6.124
 2201SOL     OW23744   3.816   2.710   6.426
 2201SOL    HW123745   3.732   2.665   6.436
 2201SOL    HW223746   3.860   2.698   6.511
 2202SOL     OW23747   1.570   1.212   2.125
 2202SOL    HW123748   1.484   1.253   2.124
 2202SOL    HW223749   1.596   1.208   2.032
 2203SOL     OW23750   2.113   1.587   6.096
 2203SOL    HW123751   2.102   1.554   6.006
 2203SOL    HW223752   2.044   1.543   6.146
 2204SOL     OW23753   3.231   3.544   0.204
 2204SOL    HW123754   3.169   3.554   0.276
 2204SOL    HW223755   3.213   3.618   0.146
 2205SOL     OW23756   1.781   1.011   5.324
 2205SOL    HW123757   1.706   1.061   5.293
 2205SOL    HW223758   1.787   1.031   5.417
 2206SOL     OW23759   2.437   5.052   0.193
 2206SOL    HW123760   2.449   4.958   0.178
 2206SOL    HW223761   2.526   5.087   0.195
 2207SOL     OW23762   0.391   4.315   6.954
 2207SOL    HW123763   0.300   4.339   6.937
 2207SOL    HW223764   0.393   4.220   6.942
 2208SOL     OW23765   2.521   5.416   6.382
 2208SOL    HW123766   2.441   5.395   6.430
 2208SOL    HW223767   2.492   5.429   6.292
 2209SOL     OW23768   3.677   2.188   5.669
 2209SOL    HW123769   3.612   2.208   5.601
 2209SOL    HW223770   3.645   2.108   5.710
 2210SOL     OW23771   1.675   2.490   6.825
 2210SOL    HW123772   1.615   2.565   6.833
 2210SOL    HW223773   1.720   2.504   6.742
 2211SOL     OW23774   4.536   3.220   7.252
 2211SOL    HW123775   4.459   3.193   7.202
 2211SOL    HW223776   4.578   3.286   7.197
 2212SOL     OW23777   1.589   2.008   0.381
 2212SOL    HW123778   1.668   2.055   0.354
 2212SOL    HW223779   1.565   2.046   0.465
 2213SOL     OW23780   5.779   5.602   5.990
 2213SOL    HW123781   5.774   5.678   6.049
 2213SOL    HW223782   5.873   5.588   5.977
 2214SOL     OW23783   1.575   4.148   6.026
 2214SOL    HW123784   1.573   4.117   6.117
 2214SOL    HW223785   1.556   4.071   5.974
 2215SOL     OW23786   0.977   1.140   6.172
 2215SOL    HW123787   0.913   1.209   6.155
 2215SOL    HW223788   0.928   1.059   6.159
 2216SOL     OW23789   0.876   5.128   1.307
 2216SOL    HW123790   0.852   5.035   1.308
 2216SOL    HW223791   0.935   5.139   1.381
 2217SOL     OW23792   4.359   5.505   2.022
 2217SOL    HW123793   4.285   5.474   2.075
 2217SOL    HW223794   4.341   5.469   1.935
 2218SOL     OW23795   3.424   1.304   0.353
 2218SOL    HW123796   3.433   1.399   0.352
 2218SOL    HW223797   3.376   1.284   0.433
 2219SOL     OW23798   1.864   3.668   0.620
 2219SOL    HW123799   1.850   3.745   0.675
 2219SOL    HW223800   1.926   3.696   0.554
 2220SOL     OW23801   5.872   5.325   6.324
 2220SOL    HW123802   5.863   5.420   6.330
 2220SOL    HW223803   5.925   5.301   6.400
 2221SOL     OW23804   5.756   4.572   6.658
 2221SOL    HW123805   5.710   4.649   6.693
 2221SOL    HW223806   5.761   4.511   6.731
 2222SOL     OW23807   0.339   3.449   1.085
 2222SOL    HW123808   0.335   3.369   1.032
 2222SOL    HW223809   0.281   3.511   1.040
 2223SOL     OW23810   1.332   4.399   0.237
 2223SOL    HW123811   1.347   4.415   0.330
 2223SOL    HW223812   1.240   4.371   0.232
 2224SOL     OW23813   2.455   1.582   6.714
 2224SOL    HW123814   2.535   1.628   6.741
 2224SOL    HW223815   2.401   1.578   6.792
 2225SOL     OW23816   3.493   2.274   6.368
 2225SOL    HW123817   3.490   2.225   6.286
 2225SOL    HW223818   3.504   2.208   6.436
 2226SOL     OW23819   1.126   4.644   5.127
 2226SOL    HW123820   1.046   4.663   5.177
 2226SOL    HW223821   1.192   4.623   5.193
 2227SOL     OW23822   5.085   6.118   6.898
 2227SOL    HW123823   5.010   6.080   6.854
 2227SOL    HW223824   5.058   6.208   6.918
 2228SOL     OW23825   5.253   5.961   5.017
 2228SOL    HW123826   5.218   5.931   4.934
 2228SOL    HW223827   5.302   5.886   5.052
 2229SOL     OW23828   0.758   2.921   5.968
 2229SOL    HW123829   0.761   2.900   6.061
 2229SOL    HW223830   0.831   2.872   5.930
 2230SOL     OW23831   5.793   5.153   6.126
 2230SOL    HW123832   5.721   5.206   6.091
 2230SOL    HW223833   5.837   5.211   6.188
 2231SOL     OW23834   0.186   1.128   1.811
 2231SOL    HW123835   0.189   1.222   1.794
 2231SOL    HW223836   0.270   1.109   1.853
 2232SOL     OW23837   3.198   0.892   5.900
 2232SOL    HW123838   3.138   0.895   5.975
 2232SOL    HW223839   3.158   0.830   5.840
 2233SOL     OW23840   4.796   3.005   6.607
 2233SOL    HW123841   4.745   2.952   6.546
 2233SOL    HW223842   4.733   3.065   6.646
 2234SOL     OW23843   4.802   5.923   6.265
 2234SOL    HW123844   4.888   5.949   6.300
 2234SOL    HW223845   4.810   5.829   6.250
 2235SOL     OW23846   2.013   4.284   7.769
 2235SOL    HW123847   2.035   4.354   7.708
 2235SOL    HW223848   1.965   4.329   7.840
 2236SOL     OW23849   0.671   3.629   7.827
 2236SOL    HW123850   0.677   3.721   7.803
 2236SOL    HW223851   0.733   3.585   7.769
 2237SOL     OW23852   1.035   5.597   6.838
 2237SOL    HW123853   0.940   5.593   6.849
 2237SOL    HW223854   1.050   5.577   6.746
 2238SOL     OW23855   3.286   0.112   1.872
 2238SOL    HW123856   3.361   0.121   1.813
 2238SOL    HW223857   3.259   0.021   1.864
 2239SOL     OW23858   4.192   4.649   6.185
 2239SOL    HW123859   4.139   4.619   6.112
 2239SOL    HW223860   4.278   4.607   6.171
 2240SOL     OW23861   3.338   3.572   1.981
 2240SOL    HW123862   3.427   3.596   1.958
 2240SOL    HW223863   3.336   3.574   2.077
 2241SOL     OW23864   0.132   4.469   1.603
 2241SOL    HW123865   0.128   4.373   1.611
 2241SOL    HW223866   0.073   4.501   1.672
 2242SOL     OW23867   1.972   3.997   1.139
 2242SOL    HW123868   1.893   3.973   1.188
 2242SOL    HW223869   1.939   4.029   1.054
 2243SOL     OW23870   4.722   2.031   6.734
 2243SOL    HW123871   4.686   1.947   6.762
 2243SOL    HW223872   4.680   2.096   6.791
 2244SOL     OW23873   4.699   0.280   0.508
 2244SOL    HW123874   4.708   0.248   0.598
 2244SOL    HW223875   4.783   0.261   0.466
 2245SOL     OW23876   5.357   0.305   1.409
 2245SOL    HW123877   5.387   0.219   1.380
 2245SOL    HW223878   5.262   0.300   1.407
 2246SOL     OW23879   0.857   2.450   1.964
 2246SOL    HW123880   0.835   2.435   1.872
 2246SOL    HW223881   0.779   2.492   2.000
 2247SOL     OW23882   0.279   4.252   4.627
 2247SOL    HW123883   0.250   4.320   4.566
 2247SOL    HW223884   0.304   4.300   4.706
 2248SOL     OW23885   0.336   0.184   5.631
 2248SOL    HW123886   0.346   0.148   5.543
 2248SOL    HW223887   0.265   0.247   5.623
 2249SOL     OW23888   6.064   2.082   0.366
 2249SOL    HW123889   6.114   2.110   0.289
 2249SOL    HW223890   6.052   1.988   0.354
 2250SOL     OW23891   3.296   5.578   1.037
 2250SOL    HW123892   3.235   5.597   1.108
 2250SOL    HW223893   3.378   5.554   1.080
 2251SOL     OW23894   1.143   6.340   6.367
 2251SOL    HW123895   1.127   6.434   6.365
 2251SOL    HW223896   1.184   6.324   6.452
 2252SOL     OW23897   4.875   3.675   7.025
 2252SOL    HW123898   4.930   3.707   7.096
 2252SOL    HW223899   4.863   3.582   7.044
 2253SOL     OW23900   1.606   5.997   6.716
 2253SOL    HW123901   1.646   6.071   6.671
 2253SOL    HW223902   1.664   5.980   6.790
 2254SOL     OW23903   0.052   0.729   1.101
 2254SOL    HW123904   0.029   0.744   1.193
 2254SOL    HW223905   0.107   0.804   1.078
 2255SOL     OW23906   2.462   1.902   6.496
 2255SOL    HW123907   2.439   1.810   6.506
 2255SOL    HW223908   2.474   1.914   6.401
 2256SOL     OW23909   1.387   2.582   1.747
 2256SOL    HW123910   1.480   2.596   1.764
 2256SOL    HW223911   1.348   2.669   1.751
 2257SOL     OW23912   2.129   6.205   1.398
 2257SOL    HW123913   2.046   6.246   1.373
 2257SOL    HW223914   2.103   6.129   1.449
 2258SOL     OW23915   5.792   1.533   6.276
 2258SOL    HW123916   5.777   1.494   6.363
 2258SOL    HW223917   5.706   1.532   6.235
 2259SOL     OW23918   0.905   4.632   1.669
 2259SOL    HW123919   0.831   4.583   1.635
 2259SOL    HW223920   0.874   4.667   1.752
 2260SOL     OW23921   0.503   0.938   0.084
 2260SOL    HW123922   0.496   0.972   0.174
 2260SOL    HW223923   0.527   0.846   0.096
 2261SOL     OW23924   4.080   2.965   7.079
 2261SOL    HW123925   4.137   3.020   7.132
 2261SOL    HW223926   3.998   3.014   7.073
 2262SOL     OW23927   6.269   4.362   1.555
 2262SOL    HW123928   6.349   4.311   1.548
 2262SOL    HW223929   6.277   4.408   1.639
 2263SOL     OW23930   5.738   0.188   5.819
 2263SOL    HW123931   5.761   0.118   5.759
 2263SOL    HW223932   5.742   0.268   5.766
 2264SOL     OW23933   4.041   5.747   7.028
 2264SOL    HW123934   3.976   5.685   6.996
 2264SOL    HW223935   4.125   5.711   6.999
 2265SOL     OW23936   1.716   3.327   6.100
 2265SOL    HW123937   1.723   3.374   6.184
 2265SOL    HW223938   1.678   3.391   6.040
 2266SOL     OW23939   0.138   5.688   1.636
 2266SOL    HW123940   0.049   5.723   1.627
 2266SOL    HW223941   0.195   5.761   1.609
 2267SOL     OW23942   4.995   5.392   6.149
 2267SOL    HW123943   4.919   5.337   6.131
 2267SOL    HW223944   5.068   5.348   6.106
 2268SOL     OW23945   0.891   1.696   1.365
 2268SOL    HW123946   0.883   1.689   1.270
 2268SOL    HW223947   0.816   1.750   1.391
 2269SOL     OW23948   0.781   0.285   6.844
 2269SOL    HW123949   0.688   0.288   6.825
 2269SOL    HW223950   0.795   0.199   6.884
 2270SOL     OW23951   1.720   0.916   5.718
 2270SOL    HW123952   1.719   0.990   5.658
 2270SOL    HW223953   1.647   0.932   5.777
 2271SOL     OW23954   2.475   6.268   7.348
 2271SOL    HW123955   2.527   6.193   7.378
 2271SOL    HW223956   2.539   6.333   7.322
 2272SOL     OW23957   4.242   5.215   7.375
 2272SOL    HW123958   4.237   5.306   7.346
 2272SOL    HW223959   4.170   5.205   7.437
 2273SOL     OW23960   0.989   1.560   5.536
 2273SOL    HW123961   1.067   1.572   5.591
 2273SOL    HW223962   0.971   1.646   5.500
 2274SOL     OW23963   1.382   4.253   7.803
 2274SOL    HW123964   1.427   4.176   7.837
 2274SOL    HW223965   1.439   4.327   7.827
 2275SOL     OW23966   5.553   2.116   0.183
 2275SOL    HW123967   5.483   2.139   0.122
 2275SOL    HW223968   5.559   2.191   0.242
 2276SOL     OW23969   4.067   4.273   1.382
 2276SOL    HW123970   4.032   4.362   1.385
 2276SOL    HW223971   4.049   4.237   1.468
 2277SOL     OW23972   5.285   4.447   6.382
 2277SOL    HW123973   5.280   4.356   6.413
 2277SOL    HW223974   5.197   4.465   6.350
 2278SOL     OW23975   2.094   3.881   2.081
 2278SOL    HW123976   2.089   3.825   2.004
 2278SOL    HW223977   2.003   3.895   2.107
 2279SOL     OW23978   0.410   3.964   6.674
 2279SOL    HW123979   0.384   4.017   6.598
 2279SOL    HW223980   0.480   3.908   6.641
 2280SOL     OW23981   5.939   5.435   5.658
 2280SOL    HW123982   5.973   5.454   5.745
 2280SOL    HW223983   5.989   5.359   5.628
 2281SOL     OW23984   1.504   2.097   5.434
 2281SOL    HW123985   1.561   2.061   5.366
 2281SOL    HW223986   1.429   2.037   5.437
 2282SOL     OW23987   5.149   5.718   6.819
 2282SOL    HW123988   5.242   5.726   6.798
 2282SOL    HW223989   5.134   5.783   6.888
 2283SOL     OW23990   1.052   2.356   5.768
 2283SOL    HW123991   1.028   2.348   5.861
 2283SOL    HW223992   1.115   2.285   5.754
 2284SOL     OW23993   2.167   6.245   5.860
 2284SOL    HW123994   2.179   6.150   5.857
 2284SOL    HW223995   2.125   6.261   5.945
 2285SOL     OW23996   2.084   3.006   1.538
 2285SOL    HW123997   2.072   3.082   1.481
 2285SOL    HW223998   2.178   3.002   1.555
 2286SOL     OW23999   4.846   0.622   7.817
 2286SOL    HW124000   4.824   0.650   7.906
 2286SOL    HW224001   4.775   0.655   7.763
 2287SOL     OW24002   0.040   3.367   5.763
 2287SOL    HW124003   0.045   3.362   5.858
 2287SOL    HW224004  -0.030   3.307   5.739
 2288SOL     OW24005   2.923   5.771   1.077
 2288SOL    HW124006   2.970   5.691   1.101
 2288SOL    HW224007   2.833   5.756   1.106
 2289SOL     OW24008   2.057   2.569   0.401
 2289SOL    HW124009   2.113   2.527   0.466
 2289SOL    HW224010   2.062   2.663   0.423
 2290SOL     OW24011   5.451   1.292   6.315
 2290SOL    HW124012   5.481   1.208   6.280
 2290SOL    HW224013   5.475   1.356   6.248
 2291SOL     OW24014   5.088   0.354   1.396
 2291SOL    HW124015   5.035   0.331   1.319
 2291SOL    HW224016   5.046   0.308   1.468
 2292SOL     OW24017   2.410   4.230   6.518
 2292SOL    HW124018   2.400   4.259   6.427
 2292SOL    HW224019   2.500   4.252   6.540
 2293SOL     OW24020   2.144   2.410   6.861
 2293SOL    HW124021   2.053   2.406   6.893
 2293SOL    HW224022   2.184   2.479   6.914
 2294SOL     OW24023   1.061   1.723   0.068
 2294SOL    HW124024   1.086   1.650   0.011
 2294SOL    HW224025   1.124   1.721   0.140
 2295SOL     OW24026   2.969   4.788   6.269
 2295SOL    HW124027   2.919   4.731   6.328
 2295SOL    HW224028   2.926   4.779   6.184
 2296SOL     OW24029   3.405   5.523   0.045
 2296SOL    HW124030   3.358   5.551  -0.034
 2296SOL    HW224031   3.389   5.429   0.050
 2297SOL     OW24032   3.189   4.574   1.113
 2297SOL    HW124033   3.245   4.538   1.044
 2297SOL    HW224034   3.251   4.607   1.179
 2298SOL     OW24035   3.896   4.389   6.178
 2298SOL    HW124036   3.931   4.409   6.091
 2298SOL    HW224037   3.805   4.420   6.174
 2299SOL     OW24038   6.037   6.300   7.420
 2299SOL    HW124039   6.123   6.327   7.453
 2299SOL    HW224040   5.975   6.359   7.463
 2300SOL     OW24041   3.795   2.918   0.166
 2300SOL    HW124042   3.837   2.983   0.223
 2300SOL    HW224043   3.702   2.924   0.187
 2301SOL     OW24044   3.628   0.483   1.440
 2301SOL    HW124045   3.632   0.397   1.482
 2301SOL    HW224046   3.540   0.515   1.460
 2302SOL     OW24047   3.444   4.454   6.588
 2302SOL    HW124048   3.394   4.534   6.570
 2302SOL    HW224049   3.479   4.428   6.503
 2303SOL     OW24050   2.077   3.835   0.777
 2303SOL    HW124051   2.108   3.812   0.864
 2303SOL    HW224052   2.106   3.763   0.721
 2304SOL     OW24053   3.009   5.879   0.753
 2304SOL    HW124054   2.973   5.790   0.756
 2304SOL    HW224055   3.103   5.866   0.740
 2305SOL     OW24056   5.399   0.069   1.087
 2305SOL    HW124057   5.423   0.162   1.089
 2305SOL    HW224058   5.404   0.041   1.178
 2306SOL     OW24059   5.770   3.260   7.355
 2306SOL    HW124060   5.857   3.220   7.349
 2306SOL    HW224061   5.718   3.214   7.288
 2307SOL     OW24062   2.391   4.484   1.898
 2307SOL    HW124063   2.476   4.456   1.863
 2307SOL    HW224064   2.389   4.447   1.986
 2308SOL     OW24065   2.940   1.392   6.013
 2308SOL    HW124066   3.011   1.418   5.955
 2308SOL    HW224067   2.928   1.468   6.071
 2309SOL     OW24068   3.414   0.297   7.605
 2309SOL    HW124069   3.499   0.267   7.573
 2309SOL    HW224070   3.356   0.289   7.530
 2310SOL     OW24071   2.220   1.405   7.345
 2310SOL    HW124072   2.271   1.484   7.329
 2310SOL    HW224073   2.218   1.395   7.440
 2311SOL     OW24074   0.337   0.387   2.283
 2311SOL    HW124075   0.311   0.464   2.232
 2311SOL    HW224076   0.392   0.421   2.353
 2312SOL     OW24077   1.952   0.593   0.201
 2312SOL    HW124078   2.027   0.549   0.162
 2312SOL    HW224079   1.882   0.585   0.136
 2313SOL     OW24080   6.300   3.011   5.155
 2313SOL    HW124081   6.212   2.976   5.145
 2313SOL    HW224082   6.336   2.963   5.230
 2314SOL     OW24083   2.104   0.693   6.489
 2314SOL    HW124084   2.058   0.695   6.573
 2314SOL    HW224085   2.062   0.622   6.440
 2315SOL     OW24086   1.337   5.154   0.990
 2315SOL    HW124087   1.413   5.209   0.972
 2315SOL    HW224088   1.263   5.203   0.954
 2316SOL     OW24089   2.981   0.566   0.835
 2316SOL    HW124090   2.962   0.490   0.890
 2316SOL    HW224091   3.008   0.528   0.751
 2317SOL     OW24092   4.327   4.036   0.279
 2317SOL    HW124093   4.353   4.107   0.220
 2317SOL    HW224094   4.313   3.961   0.222
 2318SOL     OW24095   5.387   0.394   1.648
 2318SOL    HW124096   5.460   0.456   1.644
 2318SOL    HW224097   5.391   0.346   1.565
 2319SOL     OW24098   4.594   1.812   1.271
 2319SOL    HW124099   4.592   1.864   1.190
 2319SOL    HW224100   4.608   1.722   1.241
 2320SOL     OW24101   0.552   1.151   0.663
 2320SOL    HW124102   0.497   1.198   0.601
 2320SOL    HW224103   0.641   1.157   0.627
 2321SOL     OW24104   6.031   2.955   7.393
 2321SOL    HW124105   6.023   3.031   7.335
 2321SOL    HW224106   5.993   2.882   7.343
 2322SOL     OW24107   3.228   5.372   0.231
 2322SOL    HW124108   3.219   5.277   0.234
 2322SOL    HW224109   3.174   5.403   0.303
 2323SOL     OW24110   0.481   0.164   0.436
 2323SOL    HW124111   0.505   0.136   0.348
 2323SOL    HW224112   0.408   0.225   0.423
 2324SOL     OW24113   2.177   0.858   0.356
 2324SOL    HW124114   2.227   0.868   0.275
 2324SOL    HW224115   2.233   0.805   0.413
 2325SOL     OW24116   4.112   1.295   7.382
 2325SOL    HW124117   4.154   1.375   7.350
 2325SOL    HW224118   4.023   1.299   7.347
 2326SOL     OW24119   4.967   5.780   7.586
 2326SOL    HW124120   4.886   5.739   7.615
 2326SOL    HW224121   4.961   5.870   7.616
 2327SOL     OW24122   1.358   4.665   6.475
 2327SOL    HW124123   1.373   4.702   6.388
 2327SOL    HW224124   1.445   4.642   6.507
 2328SOL     OW24125   1.085   3.680   7.039
 2328SOL    HW124126   1.134   3.761   7.038
 2328SOL    HW224127   1.104   3.641   7.124
 2329SOL     OW24128   5.499   3.810   0.662
 2329SOL    HW124129   5.419   3.769   0.630
 2329SOL    HW224130   5.534   3.856   0.586
 2330SOL     OW24131   5.378   2.165   0.522
 2330SOL    HW124132   5.451   2.202   0.472
 2330SOL    HW224133   5.414   2.086   0.562
 2331SOL     OW24134   5.122   2.670   5.829
 2331SOL    HW124135   5.183   2.631   5.766
 2331SOL    HW224136   5.170   2.744   5.867
 2332SOL     OW24137   1.856   3.532   6.274
 2332SOL    HW124138   1.764   3.557   6.263
 2332SOL    HW224139   1.903   3.616   6.281
 2333SOL     OW24140   6.182   0.294   5.540
 2333SOL    HW124141   6.214   0.339   5.617
 2333SOL    HW224142   6.088   0.285   5.555
 2334SOL     OW24143   0.243   0.564   1.293
 2334SOL    HW124144   0.288   0.648   1.289
 2334SOL    HW224145   0.312   0.501   1.315
 2335SOL     OW24146   2.439   2.057   0.371
 2335SOL    HW124147   2.482   1.973   0.391
 2335SOL    HW224148   2.349   2.046   0.402
 2336SOL     OW24149   1.611   5.483   6.193
 2336SOL    HW124150   1.525   5.445   6.172
 2336SOL    HW224151   1.630   5.453   6.282
 2337SOL     OW24152   2.886   5.743   5.964
 2337SOL    HW124153   2.806   5.691   5.974
 2337SOL    HW224154   2.898   5.751   5.869
 2338SOL     OW24155   2.567   0.703   1.072
 2338SOL    HW124156   2.631   0.635   1.053
 2338SOL    HW224157   2.489   0.679   1.023
 2339SOL     OW24158   1.544   1.136   7.021
 2339SOL    HW124159   1.552   1.165   7.112
 2339SOL    HW224160   1.489   1.203   6.980
 2340SOL     OW24161   5.057   3.021   6.612
 2340SOL    HW124162   4.962   3.027   6.615
 2340SOL    HW224163   5.085   3.033   6.702
 2341SOL     OW24164   4.939   5.191   0.385
 2341SOL    HW124165   4.990   5.128   0.436
 2341SOL    HW224166   4.917   5.144   0.305
 2342SOL     OW24167   1.615   5.238   5.874
 2342SOL    HW124168   1.591   5.204   5.788
 2342SOL    HW224169   1.577   5.326   5.876
 2343SOL     OW24170   1.088   2.117   1.543
 2343SOL    HW124171   1.092   2.117   1.639
 2343SOL    HW224172   0.996   2.137   1.523
 2344SOL     OW24173   2.484   4.824   0.541
 2344SOL    HW124174   2.422   4.872   0.596
 2344SOL    HW224175   2.556   4.885   0.526
 2345SOL     OW24176   6.097   3.866   5.901
 2345SOL    HW124177   6.121   3.953   5.869
 2345SOL    HW224178   6.170   3.839   5.956
 2346SOL     OW24179   4.328   3.562   6.037
 2346SOL    HW124180   4.243   3.593   6.066
 2346SOL    HW224181   4.320   3.555   5.942
 2347SOL     OW24182   4.507   1.993   7.132
 2347SOL    HW124183   4.519   1.935   7.207
 2347SOL    HW224184   4.513   2.081   7.170
 2348SOL     OW24185   3.103   5.384   7.699
 2348SOL    HW124186   3.153   5.345   7.627
 2348SOL    HW224187   3.015   5.346   7.691
 2349SOL     OW24188   6.319   5.968   5.553
 2349SOL    HW124189   6.233   5.970   5.511
 2349SOL    HW224190   6.381   5.976   5.480
 2350SOL     OW24191   3.818   2.094   7.541
 2350SOL    HW124192   3.867   2.168   7.576
 2350SOL    HW224193   3.778   2.054   7.618
 2351SOL     OW24194   4.282   4.803   1.434
 2351SOL    HW124195   4.282   4.708   1.449
 2351SOL    HW224196   4.206   4.834   1.483
 2352SOL     OW24197   2.123   5.175   1.918
 2352SOL    HW124198   2.081   5.090   1.907
 2352SOL    HW224199   2.114   5.194   2.011
 2353SOL     OW24200   5.767   0.348   7.047
 2353SOL    HW124201   5.741   0.330   6.956
 2353SOL    HW224202   5.709   0.417   7.076
 2354SOL     OW24203   1.302   1.639   6.672
 2354SOL    HW124204   1.305   1.544   6.660
 2354SOL    HW224205   1.382   1.671   6.631
 2355SOL     OW24206   5.392   1.754   0.134
 2355SOL    HW124207   5.478   1.724   0.105
 2355SOL    HW224208   5.356   1.802   0.059
 2356SOL     OW24209   4.136   6.357   5.604
 2356SOL    HW124210   4.125   6.452   5.595
 2356SOL    HW224211   4.224   6.340   5.569
 2357SOL     OW24212   0.527   1.954   6.493
 2357SOL    HW124213   0.619   1.947   6.466
 2357SOL    HW224214   0.525   2.029   6.552
 2358SOL     OW24215   4.862   4.530   1.896
 2358SOL    HW124216   4.917   4.454   1.877
 2358SOL    HW224217   4.924   4.601   1.913
 2359SOL     OW24218   1.419   2.651   0.711
 2359SOL    HW124219   1.353   2.634   0.779
 2359SOL    HW224220   1.438   2.745   0.718
 2360SOL     OW24221   0.944   1.459   5.177
 2360SOL    HW124222   0.976   1.535   5.226
 2360SOL    HW224223   0.849   1.467   5.177
 2361SOL     OW24224   0.361   4.568   1.501
 2361SOL    HW124225   0.366   4.662   1.519
 2361SOL    HW224226   0.292   4.536   1.559
 2362SOL     OW24227   1.589   0.046   5.893
 2362SOL    HW124228   1.632   0.131   5.879
 2362SOL    HW224229   1.648  -0.016   5.850
 2363SOL     OW24230   0.727   0.435   0.078
 2363SOL    HW124231   0.660   0.403   0.018
 2363SOL    HW224232   0.678   0.464   0.155
 2364SOL     OW24233   0.181   3.997   4.773
 2364SOL    HW124234   0.217   4.050   4.845
 2364SOL    HW224235   0.224   3.912   4.782
 2365SOL     OW24236   0.740   1.104   0.350
 2365SOL    HW124237   0.785   1.155   0.282
 2365SOL    HW224238   0.744   1.014   0.319
 2366SOL     OW24239   4.584   4.990   7.540
 2366SOL    HW124240   4.669   4.985   7.584
 2366SOL    HW224241   4.605   5.009   7.449
 2367SOL     OW24242   4.458   0.606  -0.004
 2367SOL    HW124243   4.495   0.629   0.081
 2367SOL    HW224244   4.363   0.613   0.009
 2368SOL     OW24245   5.479   3.962   6.569
 2368SOL    HW124246   5.572   3.939   6.575
 2368SOL    HW224247   5.444   3.944   6.656
 2369SOL     OW24248   6.289   3.245   7.063
 2369SOL    HW124249   6.307   3.151   7.074
 2369SOL    HW224250   6.355   3.288   7.117
 2370SOL     OW24251   1.216   2.653   5.294
 2370SOL    HW124252   1.148   2.609   5.345
 2370SOL    HW224253   1.288   2.664   5.356
 2371SOL     OW24254   3.045   3.839   1.822
 2371SOL    HW124255   3.076   3.907   1.882
 2371SOL    HW224256   3.016   3.887   1.744
 2372SOL     OW24257   2.961   0.965   0.863
 2372SOL    HW124258   2.885   0.908   0.874
 2372SOL    HW224259   3.036   0.909   0.884
 2373SOL     OW24260   5.528   3.819   7.013
 2373SOL    HW124261   5.492   3.732   6.996
 2373SOL    HW224262   5.563   3.813   7.102
 2374SOL     OW24263   6.278   5.117   0.289
 2374SOL    HW124264   6.352   5.093   0.345
 2374SOL    HW224265   6.318   5.149   0.208
 2375SOL     OW24266   5.612   1.285   5.940
 2375SOL    HW124267   5.562   1.309   5.862
 2375SOL    HW224268   5.697   1.256   5.907
 2376SOL     OW24269   4.065   1.323   6.645
 2376SOL    HW124270   4.113   1.326   6.562
 2376SOL    HW224271   4.009   1.246   6.637
 2377SOL     OW24272   0.830   5.281   6.989
 2377SOL    HW124273   0.916   5.276   7.030
 2377SOL    HW224274   0.841   5.341   6.916
 2378SOL     OW24275   5.996   6.238   7.130
 2378SOL    HW124276   5.920   6.182   7.146
 2378SOL    HW224277   5.969   6.325   7.161
 2379SOL     OW24278   0.791   3.848   5.785
 2379SOL    HW124279   0.791   3.905   5.708
 2379SOL    HW224280   0.826   3.765   5.753
 2380SOL     OW24281   3.110   2.886   7.476
 2380SOL    HW124282   3.118   2.793   7.497
 2380SOL    HW224283   3.198   2.921   7.488
 2381SOL     OW24284   6.134   4.130   5.849
 2381SOL    HW124285   6.060   4.160   5.797
 2381SOL    HW224286   6.197   4.202   5.845
 2382SOL     OW24287   4.101   0.705   6.968
 2382SOL    HW124288   4.128   0.622   7.008
 2382SOL    HW224289   4.183   0.755   6.958
 2383SOL     OW24290   4.257   3.513   5.778
 2383SOL    HW124291   4.305   3.488   5.699
 2383SOL    HW224292   4.190   3.446   5.788
 2384SOL     OW24293   2.041   0.356   7.771
 2384SOL    HW124294   2.063   0.447   7.756
 2384SOL    HW224295   2.076   0.337   7.859
 2385SOL     OW24296   2.728   1.838   5.420
 2385SOL    HW124297   2.658   1.823   5.356
 2385SOL    HW224298   2.715   1.928   5.449
 2386SOL     OW24299   0.569   4.335   7.626
 2386SOL    HW124300   0.487   4.370   7.662
 2386SOL    HW224301   0.592   4.264   7.685
 2387SOL     OW24302   5.016   4.569   5.224
 2387SOL    HW124303   4.948   4.507   5.251
 2387SOL    HW224304   4.969   4.650   5.207
 2388SOL     OW24305   3.407   4.733   1.712
 2388SOL    HW124306   3.364   4.752   1.795
 2388SOL    HW224307   3.364   4.654   1.680
 2389SOL     OW24308   0.643   0.918   6.600
 2389SOL    HW124309   0.672   0.827   6.601
 2389SOL    HW224310   0.551   0.914   6.573
 2390SOL     OW24311   1.734   2.036   0.737
 2390SOL    HW124312   1.707   2.077   0.654
 2390SOL    HW224313   1.780   2.105   0.784
 2391SOL     OW24314   1.680   5.750   6.624
 2391SOL    HW124315   1.702   5.765   6.533
 2391SOL    HW224316   1.686   5.837   6.665
 2392SOL     OW24317   2.556   4.783   7.229
 2392SOL    HW124318   2.522   4.845   7.164
 2392SOL    HW224319   2.552   4.831   7.312
 2393SOL     OW24320   1.721   5.351   0.008
 2393SOL    HW124321   1.728   5.409  -0.068
 2393SOL    HW224322   1.803   5.364   0.055
 2394SOL     OW24323   2.990   0.803   7.262
 2394SOL    HW124324   3.078   0.783   7.293
 2394SOL    HW224325   2.970   0.888   7.301
 2395SOL     OW24326   2.566   4.599   0.863
 2395SOL    HW124327   2.509   4.668   0.829
 2395SOL    HW224328   2.584   4.625   0.953
 2396SOL     OW24329   5.503   3.060   1.240
 2396SOL    HW124330   5.426   3.110   1.268
 2396SOL    HW224331   5.490   2.973   1.277
 2397SOL     OW24332   1.413   2.565   5.501
 2397SOL    HW124333   1.507   2.579   5.507
 2397SOL    HW224334   1.397   2.486   5.553
 2398SOL     OW24335   2.381   1.591   7.205
 2398SOL    HW124336   2.367   1.524   7.138
 2398SOL    HW224337   2.309   1.653   7.193
 2399SOL     OW24338   2.527   1.152   7.390
 2399SOL    HW124339   2.610   1.117   7.422
 2399SOL    HW224340   2.464   1.080   7.403
 2400SOL     OW24341   2.132   3.416   6.022
 2400SOL    HW124342   2.212   3.364   6.028
 2400SOL    HW224343   2.149   3.480   5.954
 2401SOL     OW24344   5.033   4.505   6.311
 2401SOL    HW124345   4.964   4.511   6.244
 2401SOL    HW224346   5.075   4.591   6.309
 2402SOL     OW24347   4.848   2.614   7.722
 2402SOL    HW124348   4.800   2.555   7.780
 2402SOL    HW224349   4.847   2.569   7.637
 2403SOL     OW24350   4.414   0.621   6.882
 2403SOL    HW124351   4.363   0.543   6.859
 2403SOL    HW224352   4.455   0.599   6.965
 2404SOL     OW24353   3.004   1.644   0.178
 2404SOL    HW124354   2.939   1.636   0.109
 2404SOL    HW224355   3.069   1.576   0.158
 2405SOL     OW24356   3.124   1.117   6.895
 2405SOL    HW124357   3.173   1.181   6.948
 2405SOL    HW224358   3.175   1.109   6.814
 2406SOL     OW24359   4.931   6.017   7.703
 2406SOL    HW124360   5.021   6.049   7.701
 2406SOL    HW224361   4.883   6.083   7.753
 2407SOL     OW24362   4.311   1.310   0.372
 2407SOL    HW124363   4.382   1.337   0.431
 2407SOL    HW224364   4.266   1.240   0.420
 2408SOL     OW24365   4.261   6.009   6.446
 2408SOL    HW124366   4.309   5.995   6.365
 2408SOL    HW224367   4.299   5.947   6.508
 2409SOL     OW24368   2.783   0.038   5.714
 2409SOL    HW124369   2.819  -0.035   5.763
 2409SOL    HW224370   2.833   0.114   5.742
 2410SOL     OW24371   1.504   5.783   1.254
 2410SOL    HW124372   1.531   5.713   1.313
 2410SOL    HW224373   1.444   5.837   1.306
 2411SOL     OW24374   2.304   5.881   6.814
 2411SOL    HW124375   2.228   5.926   6.850
 2411SOL    HW224376   2.379   5.921   6.859
 2412SOL     OW24377   3.897   5.346   0.581
 2412SOL    HW124378   3.828   5.289   0.548
 2412SOL    HW224379   3.880   5.431   0.539
 2413SOL     OW24380   1.628   0.344   0.164
 2413SOL    HW124381   1.617   0.350   0.069
 2413SOL    HW224382   1.619   0.251   0.183
 2414SOL     OW24383   1.983   1.063   0.669
 2414SOL    HW124384   2.023   0.979   0.689
 2414SOL    HW224385   1.889   1.043   0.661
 2415SOL     OW24386   3.885   1.338   5.788
 2415SOL    HW124387   3.905   1.346   5.695
 2415SOL    HW224388   3.907   1.423   5.826
 2416SOL     OW24389   6.271   3.853   6.899
 2416SOL    HW124390   6.340   3.808   6.949
 2416SOL    HW224391   6.260   3.937   6.944
 2417SOL     OW24392   1.488   1.685   0.928
 2417SOL    HW124393   1.519   1.634   1.003
 2417SOL    HW224394   1.517   1.774   0.946
 2418SOL     OW24395   5.107   0.844   7.296
 2418SOL    HW124396   5.096   0.850   7.202
 2418SOL    HW224397   5.103   0.750   7.315
 2419SOL     OW24398   0.253   2.343   7.300
 2419SOL    HW124399   0.195   2.417   7.311
 2419SOL    HW224400   0.265   2.335   7.205
 2420SOL     OW24401   2.875   2.825   1.175
 2420SOL    HW124402   2.856   2.888   1.245
 2420SOL    HW224403   2.922   2.754   1.219
 2421SOL     OW24404   1.790   4.891   0.731
 2421SOL    HW124405   1.856   4.835   0.690
 2421SOL    HW224406   1.727   4.909   0.661
 2422SOL     OW24407   0.408   1.464   4.922
 2422SOL    HW124408   0.402   1.549   4.964
 2422SOL    HW224409   0.404   1.482   4.828
 2423SOL     OW24410   6.361   0.268   5.882
 2423SOL    HW124411   6.371   0.362   5.895
 2423SOL    HW224412   6.271   0.256   5.852
 2424SOL     OW24413   2.761   6.175   6.726
 2424SOL    HW124414   2.777   6.256   6.775
 2424SOL    HW224415   2.842   6.159   6.677
 2425SOL     OW24416   0.237   4.182   5.506
 2425SOL    HW124417   0.291   4.117   5.462
 2425SOL    HW224418   0.280   4.196   5.591
 2426SOL     OW24419   1.896   2.326   5.357
 2426SOL    HW124420   1.914   2.248   5.305
 2426SOL    HW224421   1.923   2.399   5.302
 2427SOL     OW24422   4.636   4.560   5.568
 2427SOL    HW124423   4.583   4.590   5.494
 2427SOL    HW224424   4.644   4.636   5.625
 2428SOL     OW24425   4.007   4.731   7.694
 2428SOL    HW124426   4.085   4.707   7.744
 2428SOL    HW224427   3.969   4.647   7.668
 2429SOL     OW24428   3.210   0.784   7.456
 2429SOL    HW124429   3.269   0.811   7.526
 2429SOL    HW224430   3.264   0.731   7.397
 2430SOL     OW24431   1.871   4.132   0.712
 2430SOL    HW124432   1.951   4.118   0.764
 2430SOL    HW224433   1.887   4.085   0.630
 2431SOL     OW24434   3.181   6.209   1.132
 2431SOL    HW124435   3.152   6.133   1.081
 2431SOL    HW224436   3.271   6.188   1.156
 2432SOL     OW24437   0.598   1.298   6.216
 2432SOL    HW124438   0.616   1.251   6.135
 2432SOL    HW224439   0.615   1.234   6.285
 2433SOL     OW24440   5.957   3.818   6.181
 2433SOL    HW124441   6.024   3.816   6.112
 2433SOL    HW224442   5.974   3.899   6.229
 2434SOL     OW24443   1.894   4.442   7.505
 2434SOL    HW124444   1.809   4.397   7.505
 2434SOL    HW224445   1.893   4.495   7.425
 2435SOL     OW24446   2.055   5.403   1.099
 2435SOL    HW124447   1.974   5.352   1.095
 2435SOL    HW224448   2.122   5.341   1.127
 2436SOL     OW24449   1.415   1.035   6.621
 2436SOL    HW124450   1.365   1.043   6.540
 2436SOL    HW224451   1.492   1.090   6.607
 2437SOL     OW24452   5.693   3.617   6.101
 2437SOL    HW124453   5.746   3.696   6.098
 2437SOL    HW224454   5.692   3.585   6.011
 2438SOL     OW24455   6.268   2.151   1.092
 2438SOL    HW124456   6.219   2.083   1.045
 2438SOL    HW224457   6.208   2.182   1.159
 2439SOL     OW24458   4.637   6.103   7.619
 2439SOL    HW124459   4.626   6.160   7.695
 2439SOL    HW224460   4.724   6.065   7.630
 2440SOL     OW24461   3.004   5.991   0.239
 2440SOL    HW124462   2.923   5.940   0.237
 2440SOL    HW224463   3.007   6.027   0.327
 2441SOL     OW24464   2.770   3.058   1.672
 2441SOL    HW124465   2.675   3.069   1.672
 2441SOL    HW224466   2.795   3.065   1.765
 2442SOL     OW24467   3.477   2.716   1.828
 2442SOL    HW124468   3.526   2.796   1.811
 2442SOL    HW224469   3.426   2.702   1.748
 2443SOL     OW24470   5.816   1.024   6.705
 2443SOL    HW124471   5.884   1.085   6.676
 2443SOL    HW224472   5.769   1.072   6.773
 2444SOL     OW24473   2.239   2.365   0.569
 2444SOL    HW124474   2.224   2.447   0.618
 2444SOL    HW224475   2.155   2.319   0.572
 2445SOL     OW24476   0.317   6.314   6.505
 2445SOL    HW124477   0.393   6.312   6.447
 2445SOL    HW224478   0.341   6.258   6.579
 2446SOL     OW24479   0.000   5.073   0.044
 2446SOL    HW124480  -0.077   5.082  -0.011
 2446SOL    HW224481   0.074   5.073  -0.017
 2447SOL     OW24482   3.223   3.518   4.967
 2447SOL    HW124483   3.142   3.569   4.956
 2447SOL    HW224484   3.259   3.549   5.050
 2448SOL     OW24485   0.794   0.469   7.423
 2448SOL    HW124486   0.792   0.477   7.327
 2448SOL    HW224487   0.830   0.553   7.453
 2449SOL     OW24488   0.159   2.587   1.185
 2449SOL    HW124489   0.078   2.540   1.165
 2449SOL    HW224490   0.221   2.519   1.210
 2450SOL     OW24491   5.704   4.529   4.684
 2450SOL    HW124492   5.635   4.578   4.728
 2450SOL    HW224493   5.682   4.437   4.700
 2451SOL     OW24494   0.360   3.862   1.023
 2451SOL    HW124495   0.356   3.791   1.087
 2451SOL    HW224496   0.420   3.926   1.060
 2452SOL     OW24497   2.079   2.473   6.071
 2452SOL    HW124498   2.116   2.433   5.992
 2452SOL    HW224499   2.046   2.400   6.122
 2453SOL     OW24500   2.682   3.468   5.862
 2453SOL    HW124501   2.677   3.465   5.766
 2453SOL    HW224502   2.683   3.376   5.888
 2454SOL     OW24503   0.427   1.944   7.680
 2454SOL    HW124504   0.451   1.853   7.665
 2454SOL    HW224505   0.507   1.985   7.713
 2455SOL     OW24506   2.668   1.859   0.147
 2455SOL    HW124507   2.737   1.926   0.149
 2455SOL    HW224508   2.629   1.868   0.060
 2456SOL     OW24509   3.191   2.957   6.026
 2456SOL    HW124510   3.236   3.041   6.040
 2456SOL    HW224511   3.100   2.974   6.052
 2457SOL     OW24512   6.076   2.105   5.892
 2457SOL    HW124513   5.991   2.061   5.899
 2457SOL    HW224514   6.088   2.118   5.798
 2458SOL     OW24515   5.534   0.408   2.131
 2458SOL    HW124516   5.546   0.477   2.066
 2458SOL    HW224517   5.440   0.389   2.128
 2459SOL     OW24518   2.889   4.385   7.253
 2459SOL    HW124519   2.953   4.321   7.283
 2459SOL    HW224520   2.840   4.340   7.185
 2460SOL     OW24521   4.186   3.266   5.882
 2460SOL    HW124522   4.233   3.261   5.965
 2460SOL    HW224523   4.255   3.268   5.816
 2461SOL     OW24524   3.392   3.922   7.172
 2461SOL    HW124525   3.370   3.885   7.087
 2461SOL    HW224526   3.311   3.915   7.223
 2462SOL     OW24527   2.666   4.983   5.419
 2462SOL    HW124528   2.739   4.997   5.479
 2462SOL    HW224529   2.616   4.911   5.458
 2463SOL     OW24530   0.405   4.668   4.873
 2463SOL    HW124531   0.366   4.740   4.923
 2463SOL    HW224532   0.427   4.602   4.939
 2464SOL     OW24533   6.389   4.767   7.239
 2464SOL    HW124534   6.398   4.714   7.160
 2464SOL    HW224535   6.359   4.852   7.207
 2465SOL     OW24536   2.664   6.268   5.935
 2465SOL    HW124537   2.700   6.210   5.868
 2465SOL    HW224538   2.644   6.210   6.009
 2466SOL     OW24539   1.886   6.300   1.368
 2466SOL    HW124540   1.808   6.355   1.366
 2466SOL    HW224541   1.853   6.211   1.355
 2467SOL     OW24542   3.169   0.490   1.275
 2467SOL    HW124543   3.102   0.440   1.322
 2467SOL    HW224544   3.235   0.425   1.251
 2468SOL     OW24545   1.308   2.199   1.411
 2468SOL    HW124546   1.310   2.277   1.467
 2468SOL    HW224547   1.217   2.171   1.413
 2469SOL     OW24548   2.799   1.771   7.662
 2469SOL    HW124549   2.729   1.829   7.692
 2469SOL    HW224550   2.819   1.715   7.737
 2470SOL     OW24551   4.650   6.400   0.338
 2470SOL    HW124552   4.647   6.486   0.378
 2470SOL    HW224553   4.720   6.354   0.385
 2471SOL     OW24554   0.832   0.820   7.283
 2471SOL    HW124555   0.738   0.810   7.270
 2471SOL    HW224556   0.872   0.766   7.214
 2472SOL     OW24557   1.488   2.406   0.898
 2472SOL    HW124558   1.415   2.354   0.865
 2472SOL    HW224559   1.470   2.495   0.866
 2473SOL     OW24560   4.120   1.108   6.278
 2473SOL    HW124561   4.118   1.200   6.305
 2473SOL    HW224562   4.210   1.094   6.248
 2474SOL     OW24563   2.760   4.004   7.263
 2474SOL    HW124564   2.834   4.040   7.312
 2474SOL    HW224565   2.792   3.998   7.173
 2475SOL     OW24566   0.274   4.449   5.433
 2475SOL    HW124567   0.256   4.358   5.454
 2475SOL    HW224568   0.232   4.462   5.347
 2476SOL     OW24569   3.995   0.899   0.111
 2476SOL    HW124570   3.969   0.977   0.160
 2476SOL    HW224571   4.040   0.932   0.034
 2477SOL     OW24572   3.428   0.003   0.844
 2477SOL    HW124573   3.469  -0.074   0.883
 2477SOL    HW224574   3.497   0.069   0.843
 2478SOL     OW24575   3.529   1.097   7.595
 2478SOL    HW124576   3.490   1.011   7.610
 2478SOL    HW224577   3.532   1.137   7.681
 2479SOL     OW24578   6.275   0.516   1.637
 2479SOL    HW124579   6.320   0.600   1.623
 2479SOL    HW224580   6.258   0.514   1.732
 2480SOL     OW24581   0.401   0.630   7.770
 2480SOL    HW124582   0.367   0.554   7.723
 2480SOL    HW224583   0.427   0.595   7.856
 2481SOL     OW24584   2.422   2.275   7.466
 2481SOL    HW124585   2.513   2.286   7.438
 2481SOL    HW224586   2.399   2.358   7.507
 2482SOL     OW24587   2.726   0.225   7.508
 2482SOL    HW124588   2.776   0.306   7.513
 2482SOL    HW224589   2.733   0.186   7.595
 2483SOL     OW24590   4.160   4.491   6.407
 2483SOL    HW124591   4.181   4.543   6.484
 2483SOL    HW224592   4.155   4.555   6.336
 2484SOL     OW24593   4.987   4.423   0.888
 2484SOL    HW124594   5.048   4.385   0.825
 2484SOL    HW224595   5.024   4.402   0.974
 2485SOL     OW24596   1.043   5.147   1.508
 2485SOL    HW124597   1.052   5.052   1.506
 2485SOL    HW224598   1.088   5.174   1.588
 2486SOL     OW24599   0.467   4.431   1.781
 2486SOL    HW124600   0.384   4.384   1.780
 2486SOL    HW224601   0.532   4.365   1.804
 2487SOL     OW24602   6.416   0.458   0.350
 2487SOL    HW124603   6.347   0.398   0.320
 2487SOL    HW224604   6.378   0.503   0.425
 2488SOL     OW24605   5.360   5.739   5.154
 2488SOL    HW124606   5.395   5.667   5.207
 2488SOL    HW224607   5.303   5.787   5.214
 2489SOL     OW24608   1.360   3.599   5.999
 2489SOL    HW124609   1.377   3.684   6.039
 2489SOL    HW224610   1.267   3.585   6.013
 2490SOL     OW24611   4.680   4.053   0.900
 2490SOL    HW124612   4.757   4.075   0.951
 2490SOL    HW224613   4.653   3.967   0.932
 2491SOL     OW24614   4.758   0.727   0.169
 2491SOL    HW124615   4.786   0.644   0.209
 2491SOL    HW224616   4.803   0.794   0.220
 2492SOL     OW24617   4.139   2.294   0.412
 2492SOL    HW124618   4.149   2.200   0.429
 2492SOL    HW224619   4.061   2.319   0.462
 2493SOL     OW24620   4.264   5.474   1.399
 2493SOL    HW124621   4.343   5.528   1.395
 2493SOL    HW224622   4.244   5.469   1.492
 2494SOL     OW24623   2.822   2.027   6.871
 2494SOL    HW124624   2.752   2.092   6.871
 2494SOL    HW224625   2.898   2.073   6.905
 2495SOL     OW24626   0.070   3.365   7.202
 2495SOL    HW124627   0.166   3.363   7.209
 2495SOL    HW224628   0.045   3.446   7.247
 2496SOL     OW24629   5.522   4.618   6.361
 2496SOL    HW124630   5.588   4.549   6.368
 2496SOL    HW224631   5.438   4.572   6.364
 2497SOL     OW24632   0.306   0.169   1.363
 2497SOL    HW124633   0.236   0.181   1.298
 2497SOL    HW224634   0.371   0.235   1.340
 2498SOL     OW24635   0.261   1.566   5.709
 2498SOL    HW124636   0.216   1.530   5.633
 2498SOL    HW224637   0.271   1.659   5.689
 2499SOL     OW24638   6.240   5.276   5.315
 2499SOL    HW124639   6.292   5.262   5.236
 2499SOL    HW224640   6.303   5.308   5.380
 2500SOL     OW24641   4.239   0.091   6.063
 2500SOL    HW124642   4.221   0.003   6.031
 2500SOL    HW224643   4.233   0.147   5.985
 2501SOL     OW24644   4.761   2.047   5.860
 2501SOL    HW124645   4.807   1.996   5.927
 2501SOL    HW224646   4.786   2.138   5.879
 2502SOL     OW24647   5.973   5.934   7.750
 2502SOL    HW124648   5.884   5.967   7.760
 2502SOL    HW224649   5.971   5.883   7.669
 2503SOL     OW24650   6.221   6.195   0.391
 2503SOL    HW124651   6.303   6.149   0.372
 2503SOL    HW224652   6.164   6.127   0.428
 2504SOL     OW24653   3.170   0.023   7.255
 2504SOL    HW124654   3.244   0.000   7.310
 2504SOL    HW224655   3.208   0.070   7.181
 2505SOL     OW24656   3.864   1.286   0.054
 2505SOL    HW124657   3.849   1.254   0.143
 2505SOL    HW224658   3.957   1.266   0.038
 2506SOL     OW24659   5.442   5.699   7.712
 2506SOL    HW124660   5.400   5.629   7.662
 2506SOL    HW224661   5.430   5.777   7.659
 2507SOL     OW24662   0.844   0.322   6.595
 2507SOL    HW124663   0.897   0.401   6.588
 2507SOL    HW224664   0.833   0.309   6.689
 2508SOL     OW24665   5.384   1.959   1.866
 2508SOL    HW124666   5.382   2.025   1.797
 2508SOL    HW224667   5.391   2.010   1.947
 2509SOL     OW24668   3.362   5.122   5.792
 2509SOL    HW124669   3.410   5.135   5.874
 2509SOL    HW224670   3.428   5.096   5.729
 2510SOL     OW24671   1.465   2.943   0.671
 2510SOL    HW124672   1.382   2.991   0.665
 2510SOL    HW224673   1.525   3.005   0.712
 2511SOL     OW24674   1.006   1.770   6.827
 2511SOL    HW124675   1.018   1.737   6.916
 2511SOL    HW224676   0.951   1.848   6.838
 2512SOL     OW24677   5.064   0.440   7.792
 2512SOL    HW124678   4.973   0.470   7.789
 2512SOL    HW224679   5.068   0.369   7.728
 2513SOL     OW24680   4.294   0.788   0.427
 2513SOL    HW124681   4.375   0.745   0.398
 2513SOL    HW224682   4.226   0.752   0.370
 2514SOL     OW24683   2.873   4.672   1.629
 2514SOL    HW124684   2.807   4.611   1.597
 2514SOL    HW224685   2.953   4.620   1.637
 2515SOL     OW24686   0.845   2.391   7.197
 2515SOL    HW124687   0.920   2.332   7.208
 2515SOL    HW224688   0.863   2.464   7.255
 2516SOL     OW24689   0.245   0.069   6.752
 2516SOL    HW124690   0.245   0.025   6.668
 2516SOL    HW224691   0.194   0.012   6.810
 2517SOL     OW24692   0.558   0.595   6.966
 2517SOL    HW124693   0.482   0.653   6.979
 2517SOL    HW224694   0.595   0.622   6.882
 2518SOL     OW24695   3.439   5.249   1.302
 2518SOL    HW124696   3.458   5.342   1.286
 2518SOL    HW224697   3.451   5.239   1.397
 2519SOL     OW24698   4.660   2.111   1.872
 2519SOL    HW124699   4.724   2.180   1.890
 2519SOL    HW224700   4.581   2.139   1.918
 2520SOL     OW24701   5.464   0.434   7.710
 2520SOL    HW124702   5.500   0.479   7.786
 2520SOL    HW224703   5.385   0.390   7.743
 2521SOL     OW24704   0.123   5.306   7.262
 2521SOL    HW124705   0.181   5.381   7.267
 2521SOL    HW224706   0.035   5.342   7.273
 2522SOL     OW24707   6.051   5.765   6.929
 2522SOL    HW124708   6.139   5.753   6.892
 2522SOL    HW224709   6.067   5.795   7.018
 2523SOL     OW24710   4.162   4.730   5.744
 2523SOL    HW124711   4.186   4.639   5.725
 2523SOL    HW224712   4.245   4.778   5.740
 2524SOL     OW24713   3.905   1.757   6.307
 2524SOL    HW124714   3.831   1.745   6.248
 2524SOL    HW224715   3.980   1.773   6.250
 2525SOL     OW24716   4.435   3.001   6.776
 2525SOL    HW124717   4.385   2.943   6.833
 2525SOL    HW224718   4.401   2.983   6.688
 2526SOL     OW24719   2.187   3.358   7.881
 2526SOL    HW124720   2.242   3.422   7.835
 2526SOL    HW224721   2.129   3.412   7.936
 2527SOL     OW24722   5.320   0.505   6.569
 2527SOL    HW124723   5.236   0.520   6.613
 2527SOL    HW224724   5.382   0.559   6.618
 2528SOL     OW24725   2.931   0.728   6.216
 2528SOL    HW124726   2.881   0.771   6.286
 2528SOL    HW224727   2.958   0.799   6.158
 2529SOL     OW24728   1.360   1.355   0.762
 2529SOL    HW124729   1.334   1.441   0.729
 2529SOL    HW224730   1.451   1.367   0.790
 2530SOL     OW24731   2.811   0.502   6.374
 2530SOL    HW124732   2.857   0.558   6.311
 2530SOL    HW224733   2.782   0.562   6.442
 2531SOL     OW24734   1.428   6.326   6.900
 2531SOL    HW124735   1.433   6.377   6.981
 2531SOL    HW224736   1.518   6.325   6.867
 2532SOL     OW24737   3.135   1.680   0.804
 2532SOL    HW124738   3.050   1.643   0.830
 2532SOL    HW224739   3.197   1.608   0.813
 2533SOL     OW24740   2.350   5.375   7.461
 2533SOL    HW124741   2.259   5.356   7.440
 2533SOL    HW224742   2.395   5.292   7.451
 2534SOL     OW24743   2.405   4.261   0.044
 2534SOL    HW124744   2.376   4.350   0.061
 2534SOL    HW224745   2.484   4.270  -0.008
 2535SOL     OW24746   4.409   3.417   5.555
 2535SOL    HW124747   4.481   3.452   5.503
 2535SOL    HW224748   4.333   3.423   5.497
 2536SOL     OW24749   1.684   4.273   1.792
 2536SOL    HW124750   1.680   4.182   1.822
 2536SOL    HW224751   1.778   4.294   1.791
 2537SOL     OW24752   2.765   2.316   6.438
 2537SOL    HW124753   2.713   2.298   6.360
 2537SOL    HW224754   2.854   2.326   6.406
 2538SOL     OW24755   2.697   5.483   5.724
 2538SOL    HW124756   2.657   5.519   5.803
 2538SOL    HW224757   2.624   5.475   5.662
 2539SOL     OW24758   0.080   0.846   7.174
 2539SOL    HW124759   0.015   0.870   7.239
 2539SOL    HW224760   0.138   0.923   7.168
 2540SOL     OW24761   5.898   1.213   5.891
 2540SOL    HW124762   5.930   1.217   5.801
 2540SOL    HW224763   5.975   1.193   5.943
 2541SOL     OW24764   3.209   0.503   1.606
 2541SOL    HW124765   3.280   0.439   1.595
 2541SOL    HW224766   3.136   0.466   1.557
 2542SOL     OW24767   4.709   4.141   7.472
 2542SOL    HW124768   4.670   4.195   7.404
 2542SOL    HW224769   4.646   4.143   7.544
 2543SOL     OW24770   6.281   1.423   1.220
 2543SOL    HW124771   6.220   1.397   1.151
 2543SOL    HW224772   6.253   1.510   1.246
 2544SOL     OW24773   0.568   3.013   7.886
 2544SOL    HW124774   0.521   3.094   7.865
 2544SOL    HW224775   0.563   2.960   7.806
 2545SOL     OW24776   1.305   0.562   5.029
 2545SOL    HW124777   1.320   0.654   5.004
 2545SOL    HW224778   1.225   0.564   5.081
 2546SOL     OW24779   6.265   4.326   7.653
 2546SOL    HW124780   6.306   4.410   7.672
 2546SOL    HW224781   6.269   4.318   7.558
 2547SOL     OW24782   5.202   0.816   0.822
 2547SOL    HW124783   5.165   0.877   0.759
 2547SOL    HW224784   5.172   0.848   0.907
 2548SOL     OW24785   3.459   4.053   6.192
 2548SOL    HW124786   3.439   4.070   6.100
 2548SOL    HW224787   3.403   3.979   6.216
 2549SOL     OW24788   0.380   5.966   0.958
 2549SOL    HW124789   0.299   5.993   1.001
 2549SOL    HW224790   0.358   5.961   0.865
 2550SOL     OW24791   2.669   0.563   0.539
 2550SOL    HW124792   2.688   0.484   0.590
 2550SOL    HW224793   2.629   0.624   0.601
 2551SOL     OW24794   4.043   0.064   1.270
 2551SOL    HW124795   3.949   0.080   1.263
 2551SOL    HW224796   4.075   0.133   1.328
 2552SOL     OW24797   6.367   2.232   0.504
 2552SOL    HW124798   6.290   2.282   0.476
 2552SOL    HW224799   6.363   2.235   0.600
 2553SOL     OW24800   1.179   6.049   5.736
 2553SOL    HW124801   1.228   6.023   5.814
 2553SOL    HW224802   1.126   6.123   5.765
 2554SOL     OW24803   6.180   1.709   6.279
 2554SOL    HW124804   6.232   1.765   6.222
 2554SOL    HW224805   6.195   1.742   6.367
 2555SOL     OW24806   3.620   3.745   7.527
 2555SOL    HW124807   3.634   3.840   7.531
 2555SOL    HW224808   3.639   3.714   7.615
 2556SOL     OW24809   4.864   1.359   0.016
 2556SOL    HW124810   4.877   1.302   0.092
 2556SOL    HW224811   4.951   1.364  -0.025
 2557SOL     OW24812   6.128   1.002   0.972
 2557SOL    HW124813   6.194   0.967   0.913
 2557SOL    HW224814   6.160   0.980   1.060
 2558SOL     OW24815   5.308   2.262   6.923
 2558SOL    HW124816   5.315   2.286   6.831
 2558SOL    HW224817   5.365   2.324   6.968
 2559SOL     OW24818   3.559   3.031   1.292
 2559SOL    HW124819   3.480   3.063   1.248
 2559SOL    HW224820   3.530   2.955   1.343
 2560SOL     OW24821   4.633   4.840   6.801
 2560SOL    HW124822   4.642   4.933   6.823
 2560SOL    HW224823   4.539   4.828   6.784
 2561SOL     OW24824   4.019   4.649   1.097
 2561SOL    HW124825   4.104   4.609   1.118
 2561SOL    HW224826   3.955   4.590   1.137
 2562SOL     OW24827   2.137   4.608   0.759
 2562SOL    HW124828   2.082   4.575   0.688
 2562SOL    HW224829   2.197   4.536   0.778
 2563SOL     OW24830   1.986   4.263   1.453
 2563SOL    HW124831   2.025   4.179   1.430
 2563SOL    HW224832   1.901   4.264   1.408
 2564SOL     OW24833   5.167   3.122   0.233
 2564SOL    HW124834   5.121   3.111   0.316
 2564SOL    HW224835   5.193   3.033   0.208
 2565SOL     OW24836   3.709   1.102   2.057
 2565SOL    HW124837   3.759   1.072   2.134
 2565SOL    HW224838   3.633   1.147   2.095
 2566SOL     OW24839   5.100   4.275   6.678
 2566SOL    HW124840   5.096   4.365   6.710
 2566SOL    HW224841   5.187   4.268   6.638
 2567SOL     OW24842   0.097   5.822   6.651
 2567SOL    HW124843   0.147   5.742   6.661
 2567SOL    HW224844   0.133   5.864   6.573
 2568SOL     OW24845   5.258   1.027   6.410
 2568SOL    HW124846   5.269   1.114   6.449
 2568SOL    HW224847   5.329   0.975   6.448
 2569SOL     OW24848   3.662   3.412   6.278
 2569SOL    HW124849   3.645   3.466   6.355
 2569SOL    HW224850   3.711   3.337   6.312
 2570SOL     OW24851   5.957   0.437   7.259
 2570SOL    HW124852   6.032   0.462   7.204
 2570SOL    HW224853   5.896   0.395   7.198
 2571SOL     OW24854   5.332   5.936   1.815
 2571SOL    HW124855   5.285   5.990   1.751
 2571SOL    HW224856   5.318   5.979   1.899
 2572SOL     OW24857   2.859   6.090   0.801
 2572SOL    HW124858   2.931   6.036   0.768
 2572SOL    HW224859   2.780   6.038   0.783
 2573SOL     OW24860   1.063   6.264   6.115
 2573SOL    HW124861   1.095   6.279   6.204
 2573SOL    HW224862   1.086   6.344   6.068
 2574SOL     OW24863   1.239   0.453   1.702
 2574SOL    HW124864   1.312   0.413   1.655
 2574SOL    HW224865   1.271   0.540   1.728
 2575SOL     OW24866   4.739   5.253   2.245
 2575SOL    HW124867   4.704   5.341   2.229
 2575SOL    HW224868   4.707   5.201   2.171
 2576SOL     OW24869   3.633   3.767   6.979
 2576SOL    HW124870   3.639   3.730   6.891
 2576SOL    HW224871   3.608   3.693   7.034
 2577SOL     OW24872   6.194   1.121   5.233
 2577SOL    HW124873   6.167   1.156   5.318
 2577SOL    HW224874   6.146   1.039   5.225
 2578SOL     OW24875   2.168   2.260   7.340
 2578SOL    HW124876   2.251   2.221   7.365
 2578SOL    HW224877   2.152   2.226   7.251
 2579SOL     OW24878   3.472   3.275   6.753
 2579SOL    HW124879   3.477   3.229   6.669
 2579SOL    HW224880   3.378   3.282   6.770
 2580SOL     OW24881   4.064   0.116   0.736
 2580SOL    HW124882   4.142   0.151   0.779
 2580SOL    HW224883   4.090   0.029   0.707
 2581SOL     OW24884   0.512   3.531   5.853
 2581SOL    HW124885   0.562   3.536   5.771
 2581SOL    HW224886   0.521   3.619   5.891
 2582SOL     OW24887   1.061   2.609   0.394
 2582SOL    HW124888   1.028   2.687   0.351
 2582SOL    HW224889   1.024   2.536   0.344
 2583SOL     OW24890   2.763   0.328   6.019
 2583SOL    HW124891   2.806   0.303   5.937
 2583SOL    HW224892   2.724   0.414   6.001
 2584SOL     OW24893   2.172   2.935   7.547
 2584SOL    HW124894   2.098   2.924   7.487
 2584SOL    HW224895   2.135   2.982   7.621
 2585SOL     OW24896   2.903   2.891   0.034
 2585SOL    HW124897   2.858   2.973   0.057
 2585SOL    HW224898   2.921   2.898  -0.059
 2586SOL     OW24899   2.413   0.341   5.539
 2586SOL    HW124900   2.327   0.383   5.536
 2586SOL    HW224901   2.447   0.349   5.450
 2587SOL     OW24902   0.682   2.409   6.629
 2587SOL    HW124903   0.762   2.434   6.676
 2587SOL    HW224904   0.619   2.476   6.653
 2588SOL     OW24905   6.166   6.323   0.765
 2588SOL    HW124906   6.179   6.412   0.733
 2588SOL    HW224907   6.151   6.270   0.687
 2589SOL     OW24908   1.941   4.389   0.899
 2589SOL    HW124909   1.962   4.465   0.845
 2589SOL    HW224910   1.930   4.318   0.836
 2590SOL     OW24911   5.100   2.660   7.847
 2590SOL    HW124912   5.127   2.597   7.781
 2590SOL    HW224913   5.010   2.683   7.825
 2591SOL     OW24914   5.365   4.809   0.438
 2591SOL    HW124915   5.387   4.785   0.528
 2591SOL    HW224916   5.274   4.783   0.428
 2592SOL     OW24917   5.138   0.213   0.950
 2592SOL    HW124918   5.167   0.138   1.001
 2592SOL    HW224919   5.219   0.258   0.926
 2593SOL     OW24920   3.885   6.108   0.461
 2593SOL    HW124921   3.831   6.113   0.382
 2593SOL    HW224922   3.823   6.092   0.532
 2594SOL     OW24923   1.451   2.633   6.793
 2594SOL    HW124924   1.415   2.586   6.869
 2594SOL    HW224925   1.389   2.615   6.722
 2595SOL     OW24926   6.298   4.209   0.565
 2595SOL    HW124927   6.344   4.291   0.587
 2595SOL    HW224928   6.236   4.197   0.637
 2596SOL     OW24929   3.825   3.819   6.187
 2596SOL    HW124930   3.879   3.739   6.187
 2596SOL    HW224931   3.824   3.847   6.095
 2597SOL     OW24932   4.939   2.369   0.191
 2597SOL    HW124933   4.870   2.433   0.175
 2597SOL    HW224934   4.996   2.377   0.114
 2598SOL     OW24935   2.600   6.133   6.359
 2598SOL    HW124936   2.681   6.162   6.317
 2598SOL    HW224937   2.552   6.087   6.291
 2599SOL     OW24938   5.011   4.107   0.620
 2599SOL    HW124939   5.030   4.186   0.570
 2599SOL    HW224940   5.081   4.101   0.684
 2600SOL     OW24941   4.935   1.538   2.184
 2600SOL    HW124942   4.847   1.514   2.154
 2600SOL    HW224943   4.994   1.507   2.115
 2601SOL     OW24944   2.468   2.535   7.854
 2601SOL    HW124945   2.425   2.467   7.906
 2601SOL    HW224946   2.484   2.606   7.917
 2602SOL     OW24947   0.935   0.868   1.002
 2602SOL    HW124948   1.015   0.828   1.037
 2602SOL    HW224949   0.964   0.952   0.966
 2603SOL     OW24950   3.977   4.170   6.303
 2603SOL    HW124951   3.898   4.117   6.314
 2603SOL    HW224952   3.948   4.245   6.250
 2604SOL     OW24953   1.311   4.912   7.406
 2604SOL    HW124954   1.370   4.867   7.466
 2604SOL    HW224955   1.241   4.849   7.389
 2605SOL     OW24956   4.767   5.297   0.688
 2605SOL    HW124957   4.740   5.217   0.644
 2605SOL    HW224958   4.808   5.350   0.619
 2606SOL     OW24959   1.826   5.212   1.054
 2606SOL    HW124960   1.784   5.129   1.075
 2606SOL    HW224961   1.885   5.191   0.981
 2607SOL     OW24962   6.040   3.003   7.870
 2607SOL    HW124963   6.115   2.976   7.923
 2607SOL    HW224964   6.059   2.969   7.783
 2608SOL     OW24965   5.746   6.297   6.546
 2608SOL    HW124966   5.821   6.251   6.508
 2608SOL    HW224967   5.782   6.382   6.572
 2609SOL     OW24968   0.717   1.765   0.823
 2609SOL    HW124969   0.709   1.670   0.821
 2609SOL    HW224970   0.789   1.782   0.884
 2610SOL     OW24971   0.402   4.369   0.905
 2610SOL    HW124972   0.311   4.374   0.935
 2610SOL    HW224973   0.451   4.344   0.984
 2611SOL     OW24974   1.778   3.967   5.257
 2611SOL    HW124975   1.820   3.938   5.176
 2611SOL    HW224976   1.847   3.959   5.323
 2612SOL     OW24977   4.699   2.228   6.111
 2612SOL    HW124978   4.745   2.274   6.041
 2612SOL    HW224979   4.632   2.291   6.140
 2613SOL     OW24980   4.808   2.211   6.455
 2613SOL    HW124981   4.796   2.286   6.397
 2613SOL    HW224982   4.813   2.249   6.543
 2614SOL     OW24983   5.412   1.177   0.027
 2614SOL    HW124984   5.410   1.213  -0.062
 2614SOL    HW224985   5.335   1.213   0.069
 2615SOL     OW24986   2.036   0.674   0.600
 2615SOL    HW124987   1.987   0.723   0.534
 2615SOL    HW224988   2.091   0.614   0.550
 2616SOL     OW24989   3.607   4.355   5.992
 2616SOL    HW124990   3.671   4.298   5.949
 2616SOL    HW224991   3.643   4.443   5.982
 2617SOL     OW24992   0.844   1.274   6.830
 2617SOL    HW124993   0.829   1.368   6.837
 2617SOL    HW224994   0.766   1.234   6.869
 2618SOL     OW24995   5.942   1.783   1.565
 2618SOL    HW124996   5.959   1.876   1.584
 2618SOL    HW224997   5.848   1.773   1.578
 2619SOL     OW24998   0.246   0.884   1.674
 2619SOL    HW124999   0.215   0.958   1.726
 2619SOL    HW225000   0.326   0.855   1.719
 2620SOL     OW25001   3.449   6.213   1.586
 2620SOL    HW125002   3.381   6.276   1.563
 2620SOL    HW225003   3.438   6.141   1.523
 2621SOL     OW25004   5.187   1.269   6.152
 2621SOL    HW125005   5.239   1.293   6.229
 2621SOL    HW225006   5.251   1.236   6.089
 2622SOL     OW25007   4.125   5.555   5.777
 2622SOL    HW125008   4.095   5.644   5.763
 2622SOL    HW225009   4.167   5.557   5.863
 2623SOL     OW25010   5.922   2.750   6.423
 2623SOL    HW125011   5.857   2.682   6.401
 2623SOL    HW225012   6.006   2.704   6.422
 2624SOL     OW25013   0.418   3.312   5.953
 2624SOL    HW125014   0.504   3.302   5.994
 2624SOL    HW225015   0.419   3.400   5.916
 2625SOL     OW25016   5.385   0.329   0.893
 2625SOL    HW125017   5.451   0.307   0.826
 2625SOL    HW225018   5.387   0.425   0.897
 2626SOL     OW25019   5.767   3.910   7.666
 2626SOL    HW125020   5.727   3.979   7.615
 2626SOL    HW225021   5.826   3.865   7.606
 2627SOL     OW25022   4.905   1.613   1.591
 2627SOL    HW125023   4.892   1.614   1.496
 2627SOL    HW225024   4.817   1.624   1.627
 2628SOL     OW25025   6.174   2.933   7.621
 2628SOL    HW125026   6.225   3.005   7.585
 2628SOL    HW225027   6.141   2.885   7.546
 2629SOL     OW25028   1.721   2.211   1.837
 2629SOL    HW125029   1.783   2.285   1.837
 2629SOL    HW225030   1.775   2.135   1.858
 2630SOL     OW25031   5.817   3.920   5.626
 2630SOL    HW125032   5.796   3.884   5.541
 2630SOL    HW225033   5.732   3.933   5.669
 2631SOL     OW25034   1.013   1.666   5.934
 2631SOL    HW125035   0.994   1.743   5.988
 2631SOL    HW225036   1.066   1.699   5.862
 2632SOL     OW25037   6.293   4.933   5.094
 2632SOL    HW125038   6.385   4.958   5.108
 2632SOL    HW225039   6.267   4.982   5.016
 2633SOL     OW25040   1.087   2.529   6.668
 2633SOL    HW125041   1.131   2.612   6.689
 2633SOL    HW225042   1.150   2.461   6.692
 2634SOL     OW25043   6.282   5.665   5.398
 2634SOL    HW125044   6.293   5.697   5.308
 2634SOL    HW225045   6.371   5.654   5.430
 2635SOL     OW25046   4.342   2.975   0.350
 2635SOL    HW125047   4.401   2.982   0.274
 2635SOL    HW225048   4.259   2.944   0.314
 2636SOL     OW25049   5.813   2.269   5.888
 2636SOL    HW125050   5.830   2.239   5.799
 2636SOL    HW225051   5.717   2.279   5.891
 2637SOL     OW25052   3.742   5.338   1.293
 2637SOL    HW125053   3.684   5.271   1.257
 2637SOL    HW225054   3.727   5.415   1.238
 2638SOL     OW25055   3.752   1.427   7.713
 2638SOL    HW125056   3.659   1.414   7.695
 2638SOL    HW225057   3.771   1.371   7.788
 2639SOL     OW25058   3.636   4.060   0.831
 2639SOL    HW125059   3.719   4.105   0.845
 2639SOL    HW225060   3.642   3.980   0.884
 2640SOL     OW25061   1.740   4.225   1.327
 2640SOL    HW125062   1.734   4.129   1.321
 2640SOL    HW225063   1.679   4.257   1.260
 2641SOL     OW25064   0.307   5.444   1.032
 2641SOL    HW125065   0.320   5.537   1.051
 2641SOL    HW225066   0.381   5.420   0.976
 2642SOL     OW25067   2.887   3.192   6.378
 2642SOL    HW125068   2.877   3.179   6.473
 2642SOL    HW225069   2.805   3.233   6.351
 2643SOL     OW25070   4.136   5.075   0.207
 2643SOL    HW125071   4.143   5.150   0.147
 2643SOL    HW225072   4.069   5.101   0.270
 2644SOL     OW25073   0.865   1.850   1.742
 2644SOL    HW125074   0.930   1.782   1.763
 2644SOL    HW225075   0.798   1.804   1.691
 2645SOL     OW25076   4.330   1.727   0.360
 2645SOL    HW125077   4.268   1.776   0.307
 2645SOL    HW225078   4.355   1.652   0.306
 2646SOL     OW25079   1.852   5.136   5.957
 2646SOL    HW125080   1.764   5.170   5.941
 2646SOL    HW225081   1.840   5.073   6.029
 2647SOL     OW25082   4.718   1.593   2.018
 2647SOL    HW125083   4.685   1.582   1.929
 2647SOL    HW225084   4.668   1.667   2.053
 2648SOL     OW25085   5.247   3.365   0.329
 2648SOL    HW125086   5.322   3.400   0.282
 2648SOL    HW225087   5.218   3.290   0.276
 2649SOL     OW25088   3.461   5.281   6.294
 2649SOL    HW125089   3.453   5.375   6.283
 2649SOL    HW225090   3.497   5.269   6.382
 2650SOL     OW25091   2.272   4.381   2.161
 2650SOL    HW125092   2.261   4.290   2.136
 2650SOL    HW225093   2.363   4.386   2.191
 2651SOL     OW25094   1.581   3.374   6.574
 2651SOL    HW125095   1.514   3.307   6.578
 2651SOL    HW225096   1.593   3.402   6.665
 2652SOL     OW25097   3.492   6.085   7.147
 2652SOL    HW125098   3.455   5.997   7.147
 2652SOL    HW225099   3.587   6.071   7.155
 2653SOL     OW25100   2.952   0.360   1.007
 2653SOL    HW125101   3.016   0.289   1.016
 2653SOL    HW225102   2.957   0.408   1.089
 2654SOL     OW25103   2.494   0.271   0.867
 2654SOL    HW125104   2.434   0.267   0.942
 2654SOL    HW225105   2.458   0.209   0.804
 2655SOL     OW25106   5.832   4.298   0.817
 2655SOL    HW125107   5.845   4.392   0.806
 2655SOL    HW225108   5.770   4.274   0.748
 2656SOL     OW25109   1.034   0.414   6.780
 2656SOL    HW125110   0.960   0.366   6.817
 2656SOL    HW225111   1.096   0.346   6.755
 2657SOL     OW25112   5.840   0.085   7.146
 2657SOL    HW125113   5.816   0.149   7.080
 2657SOL    HW225114   5.760   0.069   7.196
 2658SOL     OW25115   5.867   1.996   0.118
 2658SOL    HW125116   5.806   1.929   0.148
 2658SOL    HW225117   5.824   2.079   0.141
 2659SOL     OW25118   3.210   3.090   6.771
 2659SOL    HW125119   3.140   3.054   6.716
 2659SOL    HW225120   3.277   3.021   6.773
 2660SOL     OW25121   5.166   3.378   7.880
 2660SOL    HW125122   5.144   3.335   7.797
 2660SOL    HW225123   5.082   3.411   7.912
 2661SOL     OW25124   3.249   1.675   6.626
 2661SOL    HW125125   3.287   1.703   6.543
 2661SOL    HW225126   3.226   1.583   6.612
 2662SOL     OW25127   6.033   1.619   6.660
 2662SOL    HW125128   6.006   1.673   6.734
 2662SOL    HW225129   6.077   1.680   6.600
 2663SOL     OW25130   4.884   0.307   0.127
 2663SOL    HW125131   4.971   0.332   0.098
 2663SOL    HW225132   4.835   0.291   0.046
 2664SOL     OW25133   2.672   5.394   6.823
 2664SOL    HW125134   2.710   5.426   6.905
 2664SOL    HW225135   2.740   5.411   6.757
 2665SOL     OW25136   6.111   1.273   0.994
 2665SOL    HW125137   6.105   1.300   0.902
 2665SOL    HW225138   6.149   1.185   0.991
 2666SOL     OW25139   3.666   5.606   6.410
 2666SOL    HW125140   3.664   5.685   6.355
 2666SOL    HW225141   3.576   5.597   6.441
 2667SOL     OW25142   1.155   2.522   7.679
 2667SOL    HW125143   1.225   2.459   7.664
 2667SOL    HW225144   1.176   2.561   7.764
 2668SOL     OW25145   1.336   4.895   0.197
 2668SOL    HW125146   1.315   4.962   0.262
 2668SOL    HW225147   1.397   4.837   0.241
 2669SOL     OW25148   4.134   0.296   6.566
 2669SOL    HW125149   4.141   0.255   6.480
 2669SOL    HW225150   4.040   0.297   6.585
 2670SOL     OW25151   2.157   1.273   0.749
 2670SOL    HW125152   2.152   1.208   0.679
 2670SOL    HW225153   2.138   1.224   0.829
 2671SOL     OW25154   4.053   6.296   0.613
 2671SOL    HW125155   4.019   6.221   0.566
 2671SOL    HW225156   4.147   6.281   0.618
 2672SOL     OW25157   4.606   1.990   1.059
 2672SOL    HW125158   4.654   2.049   1.001
 2672SOL    HW225159   4.562   2.048   1.121
 2673SOL     OW25160   5.226   4.225   1.739
 2673SOL    HW125161   5.203   4.192   1.652
 2673SOL    HW225162   5.317   4.198   1.752
 2674SOL     OW25163   2.919   3.003   6.188
 2674SOL    HW125164   2.942   3.056   6.112
 2674SOL    HW225165   2.911   3.066   6.260
 2675SOL     OW25166   0.870   0.296   5.748
 2675SOL    HW125167   0.960   0.295   5.716
 2675SOL    HW225168   0.844   0.388   5.741
 2676SOL     OW25169   1.321   6.151   0.410
 2676SOL    HW125170   1.295   6.059   0.415
 2676SOL    HW225171   1.383   6.162   0.482
 2677SOL     OW25172   2.220   0.684   7.399
 2677SOL    HW125173   2.278   0.745   7.445
 2677SOL    HW225174   2.208   0.612   7.461
 2678SOL     OW25175   2.488   4.727   0.256
 2678SOL    HW125176   2.474   4.768   0.341
 2678SOL    HW225177   2.530   4.644   0.275
 2679SOL     OW25178   2.672   5.952   0.549
 2679SOL    HW125179   2.639   5.883   0.492
 2679SOL    HW225180   2.634   6.033   0.514
 2680SOL     OW25181   6.113   5.491   4.997
 2680SOL    HW125182   6.174   5.558   4.966
 2680SOL    HW225183   6.028   5.535   5.000
 2681SOL     OW25184   2.350   0.626   6.340
 2681SOL    HW125185   2.351   0.660   6.250
 2681SOL    HW225186   2.264   0.650   6.374
 2682SOL     OW25187   4.250   5.765   7.835
 2682SOL    HW125188   4.343   5.756   7.857
 2682SOL    HW225189   4.249   5.773   7.740
 2683SOL     OW25190   2.550   2.764   7.082
 2683SOL    HW125191   2.541   2.729   6.994
 2683SOL    HW225192   2.583   2.853   7.069
 2684SOL     OW25193   4.428   3.375   0.431
 2684SOL    HW125194   4.516   3.357   0.395
 2684SOL    HW225195   4.434   3.348   0.522
 2685SOL     OW25196   4.584   0.504   0.452
 2685SOL    HW125197   4.655   0.558   0.486
 2685SOL    HW225198   4.617   0.414   0.459
 2686SOL     OW25199   0.106   2.321   0.026
 2686SOL    HW125200   0.118   2.238  -0.020
 2686SOL    HW225201   0.151   2.308   0.109
 2687SOL     OW25202   4.574   3.800   1.067
 2687SOL    HW125203   4.536   3.796   1.154
 2687SOL    HW225204   4.524   3.735   1.016
 2688SOL     OW25205   6.140   4.355   6.108
 2688SOL    HW125206   6.078   4.285   6.087
 2688SOL    HW225207   6.101   4.401   6.181
 2689SOL     OW25208   2.930   3.780   1.307
 2689SOL    HW125209   2.934   3.864   1.261
 2689SOL    HW225210   2.874   3.798   1.383
 2690SOL     OW25211   2.990   4.672   5.793
 2690SOL    HW125212   2.938   4.750   5.773
 2690SOL    HW225213   3.035   4.652   5.712
 2691SOL     OW25214   0.140   3.218   7.854
 2691SOL    HW125215   0.134   3.142   7.912
 2691SOL    HW225216   0.233   3.223   7.831
 2692SOL     OW25217   6.383   1.510   0.658
 2692SOL    HW125218   6.476   1.530   0.659
 2692SOL    HW225219   6.379   1.415   0.645
 2693SOL     OW25220   2.618   6.105   0.323
 2693SOL    HW125221   2.541   6.149   0.285
 2693SOL    HW225222   2.601   6.012   0.312
 2694SOL     OW25223   2.373   5.207   7.829
 2694SOL    HW125224   2.449   5.232   7.881
 2694SOL    HW225225   2.299   5.219   7.888
 2695SOL     OW25226   5.861   2.289   5.350
 2695SOL    HW125227   5.769   2.284   5.326
 2695SOL    HW225228   5.908   2.272   5.268
 2696SOL     OW25229  -0.001   3.759   5.819
 2696SOL    HW125230  -0.040   3.722   5.898
 2696SOL    HW225231   0.074   3.701   5.801
 2697SOL     OW25232   5.938   3.715   0.196
 2697SOL    HW125233   5.953   3.780   0.127
 2697SOL    HW225234   6.026   3.697   0.230
 2698SOL     OW25235   0.989   5.155   0.648
 2698SOL    HW125236   1.040   5.205   0.712
 2698SOL    HW225237   1.036   5.167   0.566
 2699SOL     OW25238   2.108   0.445   7.055
 2699SOL    HW125239   2.026   0.493   7.065
 2699SOL    HW225240   2.096   0.394   6.975
 2700SOL     OW25241   5.312   5.064   1.182
 2700SOL    HW125242   5.220   5.091   1.183
 2700SOL    HW225243   5.316   4.991   1.244
 2701SOL     OW25244   6.379   5.892   7.578
 2701SOL    HW125245   6.291   5.923   7.557
 2701SOL    HW225246   6.434   5.926   7.507
 2702SOL     OW25247   0.935   4.550   6.044
 2702SOL    HW125248   0.852   4.512   6.074
 2702SOL    HW225249   0.969   4.487   5.981
 2703SOL     OW25250   0.620   5.204   0.236
 2703SOL    HW125251   0.579   5.190   0.151
 2703SOL    HW225252   0.564   5.268   0.279
 2704SOL     OW25253   5.187   5.593   1.771
 2704SOL    HW125254   5.133   5.664   1.737
 2704SOL    HW225255   5.274   5.609   1.733
 2705SOL     OW25256   3.241   3.088   7.858
 2705SOL    HW125257   3.323   3.040   7.858
 2705SOL    HW225258   3.263   3.174   7.824
 2706SOL     OW25259   5.288   1.628   0.920
 2706SOL    HW125260   5.268   1.697   0.857
 2706SOL    HW225261   5.374   1.595   0.893
 2707SOL     OW25262   5.162   5.813   7.074
 2707SOL    HW125263   5.222   5.739   7.062
 2707SOL    HW225264   5.132   5.805   7.165
 2708SOL     OW25265   0.297   3.633   7.557
 2708SOL    HW125266   0.298   3.611   7.464
 2708SOL    HW225267   0.330   3.723   7.561
 2709SOL     OW25268   1.857   1.246   6.503
 2709SOL    HW125269   1.925   1.192   6.462
 2709SOL    HW225270   1.810   1.285   6.429
 2710SOL     OW25271   5.476   1.889   2.205
 2710SOL    HW125272   5.412   1.817   2.207
 2710SOL    HW225273   5.443   1.948   2.138
 2711SOL     OW25274   0.308   1.999   6.684
 2711SOL    HW125275   0.225   1.951   6.685
 2711SOL    HW225276   0.370   1.939   6.643
 2712SOL     OW25277   4.911   3.970   0.164
 2712SOL    HW125278   4.919   3.963   0.259
 2712SOL    HW225279   4.986   3.921   0.130
 2713SOL     OW25280   6.416   2.217   7.023
 2713SOL    HW125281   6.372   2.186   6.943
 2713SOL    HW225282   6.476   2.146   7.045
 2714SOL     OW25283   5.243   6.075   2.270
 2714SOL    HW125284   5.317   6.078   2.331
 2714SOL    HW225285   5.283   6.086   2.184
 2715SOL     OW25286   3.645   1.622   5.866
 2715SOL    HW125287   3.712   1.684   5.838
 2715SOL    HW225288   3.669   1.540   5.824
 2716SOL     OW25289   3.927   5.092   6.778
 2716SOL    HW125290   3.913   5.001   6.803
 2716SOL    HW225291   4.020   5.097   6.755
 2717SOL     OW25292   3.522   5.990   6.281
 2717SOL    HW125293   3.558   6.070   6.242
 2717SOL    HW225294   3.491   5.939   6.207
 2718SOL     OW25295   4.307   1.565   6.356
 2718SOL    HW125296   4.394   1.601   6.376
 2718SOL    HW225297   4.246   1.626   6.397
 2719SOL     OW25298   0.779   2.077   0.818
 2719SOL    HW125299   0.765   2.081   0.913
 2719SOL    HW225300   0.786   1.983   0.799
 2720SOL     OW25301   6.333   5.631   7.815
 2720SOL    HW125302   6.396   5.603   7.882
 2720SOL    HW225303   6.342   5.726   7.811
 2721SOL     OW25304   3.766   4.330   0.714
 2721SOL    HW125305   3.824   4.276   0.661
 2721SOL    HW225306   3.690   4.345   0.658
 2722SOL     OW25307   2.370   2.892   1.253
 2722SOL    HW125308   2.442   2.924   1.198
 2722SOL    HW225309   2.376   2.945   1.333
 2723SOL     OW25310   4.643   3.927   0.407
 2723SOL    HW125311   4.663   3.967   0.492
 2723SOL    HW225312   4.582   3.856   0.428
 2724SOL     OW25313   2.365   0.551   0.855
 2724SOL    HW125314   2.269   0.552   0.855
 2724SOL    HW225315   2.388   0.458   0.853
 2725SOL     OW25316   0.890   0.022   7.464
 2725SOL    HW125317   0.856   0.068   7.540
 2725SOL    HW225318   0.984   0.042   7.463
 2726SOL     OW25319   2.007   4.731   6.000
 2726SOL    HW125320   2.054   4.660   6.043
 2726SOL    HW225321   1.918   4.698   5.989
 2727SOL     OW25322   5.226   5.311   6.960
 2727SOL    HW125323   5.224   5.223   6.924
 2727SOL    HW225324   5.294   5.356   6.909
 2728SOL     OW25325   2.000   4.027   7.879
 2728SOL    HW125326   2.024   4.110   7.839
 2728SOL    HW225327   2.014   3.962   7.810
 2729SOL     OW25328   5.141   4.687   0.945
 2729SOL    HW125329   5.217   4.644   0.986
 2729SOL    HW225330   5.079   4.616   0.929
 2730SOL     OW25331   5.455   0.841   6.570
 2730SOL    HW125332   5.516   0.779   6.610
 2730SOL    HW225333   5.377   0.838   6.626
 2731SOL     OW25334   4.383   6.202   6.692
 2731SOL    HW125335   4.309   6.193   6.633
 2731SOL    HW225336   4.457   6.223   6.636
 2732SOL     OW25337   0.550   5.941   0.404
 2732SOL    HW125338   0.469   5.892   0.389
 2732SOL    HW225339   0.522   6.018   0.454
 2733SOL     OW25340   6.220   2.884   0.200
 2733SOL    HW125341   6.246   2.969   0.235
 2733SOL    HW225342   6.234   2.822   0.271
 2734SOL     OW25343   0.191   2.078   0.668
 2734SOL    HW125344   0.190   2.134   0.590
 2734SOL    HW225345   0.280   2.042   0.671
 2735SOL     OW25346   0.752   1.104   5.694
 2735SOL    HW125347   0.667   1.063   5.678
 2735SOL    HW225348   0.813   1.055   5.638
 2736SOL     OW25349   1.014   4.984   6.908
 2736SOL    HW125350   0.997   4.891   6.924
 2736SOL    HW225351   1.049   5.017   6.991
 2737SOL     OW25352   6.105   6.148   6.864
 2737SOL    HW125353   6.109   6.242   6.845
 2737SOL    HW225354   6.067   6.143   6.952
 2738SOL     OW25355   2.887   4.182   7.633
 2738SOL    HW125356   2.857   4.102   7.591
 2738SOL    HW225357   2.852   4.253   7.579
 2739SOL     OW25358   5.839   1.841   5.568
 2739SOL    HW125359   5.813   1.905   5.634
 2739SOL    HW225360   5.931   1.862   5.550
 2740SOL     OW25361   2.175   3.133   6.837
 2740SOL    HW125362   2.152   3.046   6.871
 2740SOL    HW225363   2.204   3.116   6.747
 2741SOL     OW25364   2.117   1.439   6.807
 2741SOL    HW125365   2.078   1.525   6.794
 2741SOL    HW225366   2.057   1.395   6.867
 2742SOL     OW25367   6.076   3.177   0.899
 2742SOL    HW125368   6.034   3.126   0.830
 2742SOL    HW225369   6.056   3.268   0.877
 2743SOL     OW25370   6.136   0.649   7.591
 2743SOL    HW125371   6.109   0.710   7.659
 2743SOL    HW225372   6.064   0.651   7.528
 2744SOL     OW25373   5.079   4.099   2.098
 2744SOL    HW125374   5.080   4.010   2.064
 2744SOL    HW225375   5.171   4.122   2.109
 2745SOL     OW25376   0.120   0.520   7.582
 2745SOL    HW125377   0.180   0.490   7.513
 2745SOL    HW225378   0.064   0.584   7.538
 2746SOL     OW25379   2.743   0.014   6.848
 2746SOL    HW125380   2.802   0.076   6.805
 2746SOL    HW225381   2.697   0.066   6.913
 2747SOL     OW25382   2.867   2.147   7.701
 2747SOL    HW125383   2.939   2.126   7.641
 2747SOL    HW225384   2.822   2.220   7.658
 2748SOL     OW25385   4.964   4.893   7.084
 2748SOL    HW125386   5.047   4.935   7.062
 2748SOL    HW225387   4.975   4.864   7.175
 2749SOL     OW25388   4.911   5.638   5.620
 2749SOL    HW125389   4.897   5.729   5.595
 2749SOL    HW225390   4.888   5.588   5.542
 2750SOL     OW25391   0.017   6.029   6.864
 2750SOL    HW125392  -0.042   6.067   6.799
 2750SOL    HW225393   0.062   5.958   6.818
 2751SOL     OW25394   0.816   6.418   0.091
 2751SOL    HW125395   0.895   6.472   0.087
 2751SOL    HW225396   0.846   6.329   0.073
 2752SOL     OW25397   5.575   3.258   0.304
 2752SOL    HW125398   5.527   3.175   0.306
 2752SOL    HW225399   5.660   3.236   0.267
 2753SOL     OW25400   2.684   2.706   5.269
 2753SOL    HW125401   2.617   2.769   5.295
 2753SOL    HW225402   2.741   2.699   5.345
 2754SOL     OW25403   2.396   0.965   1.677
 2754SOL    HW125404   2.339   1.040   1.694
 2754SOL    HW225405   2.452   0.993   1.604
 2755SOL     OW25406   3.040   4.993   7.716
 2755SOL    HW125407   2.948   4.998   7.740
 2755SOL    HW225408   3.041   4.947   7.632
 2756SOL     OW25409   4.877   0.944   5.902
 2756SOL    HW125410   4.863   0.850   5.912
 2756SOL    HW225411   4.793   0.984   5.925
 2757SOL     OW25412   0.389   1.522   6.857
 2757SOL    HW125413   0.407   1.576   6.780
 2757SOL    HW225414   0.441   1.562   6.927
 2758SOL     OW25415   3.929   0.775   0.758
 2758SOL    HW125416   3.889   0.689   0.775
 2758SOL    HW225417   4.019   0.766   0.789
 2759SOL     OW25418   3.871   3.552   5.570
 2759SOL    HW125419   3.810   3.504   5.513
 2759SOL    HW225420   3.875   3.640   5.531
 2760SOL     OW25421   3.899   0.348   0.709
 2760SOL    HW125422   3.835   0.338   0.639
 2760SOL    HW225423   3.946   0.264   0.711
 2761SOL     OW25424   6.341   1.918   5.788
 2761SOL    HW125425   6.424   1.964   5.798
 2761SOL    HW225426   6.359   1.828   5.815
 2762SOL     OW25427   1.991   6.105   6.038
 2762SOL    HW125428   1.899   6.119   6.059
 2762SOL    HW225429   2.038   6.172   6.088
 2763SOL     OW25430   5.979   2.963   6.599
 2763SOL    HW125431   5.986   2.910   6.520
 2763SOL    HW225432   5.959   2.900   6.669
 2764SOL     OW25433   0.407   1.005   1.932
 2764SOL    HW125434   0.407   0.920   1.888
 2764SOL    HW225435   0.488   1.004   1.984
 2765SOL     OW25436   1.239   4.028   0.423
 2765SOL    HW125437   1.325   4.069   0.415
 2765SOL    HW225438   1.241   3.985   0.508
 2766SOL     OW25439   0.245   5.696   5.833
 2766SOL    HW125440   0.300   5.708   5.756
 2766SOL    HW225441   0.267   5.609   5.866
 2767SOL     OW25442   1.557   0.622   1.525
 2767SOL    HW125443   1.524   0.700   1.570
 2767SOL    HW225444   1.598   0.570   1.594
 2768SOL     OW25445   1.782   3.894   0.146
 2768SOL    HW125446   1.834   3.966   0.111
 2768SOL    HW225447   1.723   3.871   0.074
 2769SOL     OW25448   2.903   5.024   6.972
 2769SOL    HW125449   2.977   5.084   6.983
 2769SOL    HW225450   2.924   4.974   6.893
 2770SOL     OW25451   5.114   1.374   7.407
 2770SOL    HW125452   5.122   1.281   7.428
 2770SOL    HW225453   5.102   1.417   7.491
 2771SOL     OW25454   5.640   1.363   1.201
 2771SOL    HW125455   5.718   1.324   1.162
 2771SOL    HW225456   5.624   1.442   1.150
 2772SOL     OW25457   4.751   0.962   7.875
 2772SOL    HW125458   4.843   0.933   7.871
 2772SOL    HW225459   4.751   1.049   7.836
 2773SOL     OW25460   4.385   2.332   6.557
 2773SOL    HW125461   4.393   2.414   6.605
 2773SOL    HW225462   4.335   2.275   6.616
 2774SOL     OW25463   5.549   6.205   0.150
 2774SOL    HW125464   5.625   6.149   0.163
 2774SOL    HW225465   5.489   6.153   0.096
 2775SOL     OW25466   6.342   4.990   1.008
 2775SOL    HW125467   6.411   5.055   1.022
 2775SOL    HW225468   6.276   5.011   1.074
 2776SOL     OW25469   4.912   0.277   7.541
 2776SOL    HW125470   4.864   0.222   7.478
 2776SOL    HW225471   5.003   0.272   7.513
 2777SOL     OW25472   1.383   5.904   5.898
 2777SOL    HW125473   1.372   5.850   5.820
 2777SOL    HW225474   1.375   5.843   5.971
 2778SOL     OW25475   3.278   5.872   0.670
 2778SOL    HW125476   3.314   5.803   0.614
 2778SOL    HW225477   3.355   5.921   0.700
 2779SOL     OW25478   6.357   2.083   7.593
 2779SOL    HW125479   6.322   2.153   7.537
 2779SOL    HW225480   6.452   2.092   7.587
 2780SOL     OW25481   6.270   3.729   1.132
 2780SOL    HW125482   6.318   3.811   1.150
 2780SOL    HW225483   6.241   3.700   1.219
 2781SOL     OW25484   5.942   0.421   5.982
 2781SOL    HW125485   5.902   0.348   6.029
 2781SOL    HW225486   6.013   0.381   5.933
 2782SOL     OW25487   3.162   5.179   7.539
 2782SOL    HW125488   3.191   5.141   7.621
 2782SOL    HW225489   3.088   5.125   7.512
 2783SOL     OW25490   1.684   5.537   6.930
 2783SOL    HW125491   1.773   5.534   6.895
 2783SOL    HW225492   1.631   5.498   6.860
 2784SOL     OW25493   1.192   2.144   5.728
 2784SOL    HW125494   1.174   2.083   5.657
 2784SOL    HW225495   1.275   2.113   5.766
 2785SOL     OW25496   2.759   0.095   0.061
 2785SOL    HW125497   2.782   0.002   0.061
 2785SOL    HW225498   2.836   0.139   0.024
 2786SOL     OW25499   2.689   5.123   7.607
 2786SOL    HW125500   2.606   5.117   7.561
 2786SOL    HW225501   2.756   5.122   7.538
 2787SOL     OW25502   3.883   5.577   7.357
 2787SOL    HW125503   3.938   5.588   7.435
 2787SOL    HW225504   3.871   5.666   7.323
 2788SOL     OW25505   1.185   1.740   7.338
 2788SOL    HW125506   1.148   1.751   7.426
 2788SOL    HW225507   1.121   1.687   7.291
 2789SOL     OW25508   0.363   3.513   7.029
 2789SOL    HW125509   0.385   3.428   6.991
 2789SOL    HW225510   0.364   3.573   6.955
 2790SOL     OW25511   4.878   5.106   1.768
 2790SOL    HW125512   4.848   5.036   1.826
 2790SOL    HW225513   4.972   5.092   1.759
 2791SOL     OW25514   2.430   5.669   1.346
 2791SOL    HW125515   2.399   5.746   1.298
 2791SOL    HW225516   2.410   5.688   1.437
 2792SOL     OW25517   4.064   0.214   1.651
 2792SOL    HW125518   4.016   0.154   1.709
 2792SOL    HW225519   4.127   0.257   1.709
 2793SOL     OW25520   2.348   0.611   1.460
 2793SOL    HW125521   2.365   0.616   1.554
 2793SOL    HW225522   2.334   0.517   1.443
 2794SOL     OW25523   6.271   0.258   1.547
 2794SOL    HW125524   6.215   0.217   1.612
 2794SOL    HW225525   6.271   0.351   1.570
 2795SOL     OW25526   0.057   3.425   0.561
 2795SOL    HW125527   0.061   3.485   0.636
 2795SOL    HW225528   0.105   3.347   0.591
 2796SOL     OW25529   1.262   4.792   7.008
 2796SOL    HW125530   1.254   4.736   7.086
 2796SOL    HW225531   1.185   4.770   6.955
 2797SOL     OW25532   0.178   1.588   6.202
 2797SOL    HW125533   0.183   1.635   6.119
 2797SOL    HW225534   0.260   1.610   6.247
 2798SOL     OW25535   4.138   1.814   1.142
 2798SOL    HW125536   4.206   1.813   1.075
 2798SOL    HW225537   4.084   1.738   1.124
 2799SOL     OW25538   4.353   5.631   7.208
 2799SOL    HW125539   4.445   5.653   7.225
 2799SOL    HW225540   4.337   5.664   7.120
 2800SOL     OW25541   3.297   4.947   7.281
 2800SOL    HW125542   3.286   5.042   7.271
 2800SOL    HW225543   3.366   4.938   7.348
 2801SOL     OW25544   1.950   3.031   0.688
 2801SOL    HW125545   1.963   3.126   0.691
 2801SOL    HW225546   2.039   2.995   0.683
 2802SOL     OW25547   1.494   3.815   6.135
 2802SOL    HW125548   1.504   3.846   6.045
 2802SOL    HW225549   1.540   3.880   6.188
 2803SOL     OW25550   4.655   4.275   5.610
 2803SOL    HW125551   4.657   4.367   5.636
 2803SOL    HW225552   4.640   4.227   5.691
 2804SOL     OW25553   4.572   0.758   1.064
 2804SOL    HW125554   4.531   0.844   1.075
 2804SOL    HW225555   4.622   0.765   0.983
 2805SOL     OW25556   1.270   4.529   5.614
 2805SOL    HW125557   1.349   4.581   5.628
 2805SOL    HW225558   1.272   4.462   5.682
 2806SOL     OW25559   2.125   5.578   0.483
 2806SOL    HW125560   2.131   5.495   0.529
 2806SOL    HW225561   2.206   5.584   0.433
 2807SOL     OW25562   0.481   4.798   7.681
 2807SOL    HW125563   0.406   4.741   7.664
 2807SOL    HW225564   0.556   4.738   7.688
 2808SOL     OW25565   4.605   3.518   5.403
 2808SOL    HW125566   4.665   3.531   5.475
 2808SOL    HW225567   4.575   3.607   5.381
 2809SOL     OW25568   0.958   4.204   6.831
 2809SOL    HW125569   0.924   4.286   6.869
 2809SOL    HW225570   1.020   4.233   6.765
 2810SOL     OW25571   6.172   5.162   0.589
 2810SOL    HW125572   6.160   5.109   0.668
 2810SOL    HW225573   6.267   5.162   0.575
 2811SOL     OW25574   0.917   0.456   7.706
 2811SOL    HW125575   0.865   0.498   7.637
 2811SOL    HW225576   0.916   0.518   7.778
 2812SOL     OW25577   0.585   4.491   7.029
 2812SOL    HW125578   0.507   4.442   7.003
 2812SOL    HW225579   0.646   4.424   7.060
 2813SOL     OW25580   5.297   5.951   5.852
 2813SOL    HW125581   5.261   5.924   5.767
 2813SOL    HW225582   5.338   6.036   5.835
 2814SOL     OW25583   3.579   2.061   6.533
 2814SOL    HW125584   3.574   2.066   6.629
 2814SOL    HW225585   3.650   1.998   6.517
 2815SOL     OW25586   1.882   4.906   0.032
 2815SOL    HW125587   1.944   4.975   0.009
 2815SOL    HW225588   1.854   4.927   0.121
 2816SOL     OW25589   0.963   6.395   5.315
 2816SOL    HW125590   1.017   6.335   5.366
 2816SOL    HW225591   1.020   6.423   5.243
 2817SOL     OW25592   2.937   2.684   0.205
 2817SOL    HW125593   3.026   2.656   0.185
 2817SOL    HW225594   2.924   2.762   0.150
 2818SOL     OW25595   6.020   2.043   7.743
 2818SOL    HW125596   5.949   2.040   7.808
 2818SOL    HW225597   6.082   2.106   7.779
 2819SOL     OW25598   4.252   3.206   0.780
 2819SOL    HW125599   4.324   3.242   0.729
 2819SOL    HW225600   4.173   3.233   0.732
 2820SOL     OW25601   5.160   3.340   0.932
 2820SOL    HW125602   5.161   3.433   0.957
 2820SOL    HW225603   5.252   3.314   0.935
 2821SOL     OW25604   1.956   2.381   7.818
 2821SOL    HW125605   1.997   2.396   7.733
 2821SOL    HW225606   2.018   2.417   7.881
 2822SOL     OW25607   2.713   2.492   6.651
 2822SOL    HW125608   2.684   2.414   6.698
 2822SOL    HW225609   2.708   2.468   6.559
 2823SOL     OW25610   2.819   3.909   7.610
 2823SOL    HW125611   2.833   3.856   7.532
 2823SOL    HW225612   2.754   3.860   7.660
 2824SOL     OW25613   4.991   5.851   5.094
 2824SOL    HW125614   5.020   5.812   5.177
 2824SOL    HW225615   5.062   5.909   5.070
 2825SOL     OW25616   1.426   0.706   0.025
 2825SOL    HW125617   1.447   0.723  -0.067
 2825SOL    HW225618   1.386   0.787   0.056
 2826SOL     OW25619   1.680   0.992   1.669
 2826SOL    HW125620   1.741   1.054   1.710
 2826SOL    HW225621   1.631   0.955   1.741
 2827SOL     OW25622   6.308   1.298   1.837
 2827SOL    HW125623   6.264   1.327   1.917
 2827SOL    HW225624   6.239   1.261   1.782
 2828SOL     OW25625   5.497   4.596   5.213
 2828SOL    HW125626   5.506   4.664   5.279
 2828SOL    HW225627   5.405   4.570   5.217
 2829SOL     OW25628   2.175   4.581   6.558
 2829SOL    HW125629   2.259   4.590   6.604
 2829SOL    HW225630   2.120   4.650   6.596
 2830SOL     OW25631   1.081   1.965   1.327
 2830SOL    HW125632   1.085   2.023   1.402
 2830SOL    HW225633   1.008   1.905   1.346
 2831SOL     OW25634   3.560   3.625   5.556
 2831SOL    HW125635   3.563   3.721   5.556
 2831SOL    HW225636   3.622   3.600   5.488
 2832SOL     OW25637   1.106   3.391   6.759
 2832SOL    HW125638   1.132   3.300   6.740
 2832SOL    HW225639   1.032   3.382   6.818
 2833SOL     OW25640   6.307   2.625   1.684
 2833SOL    HW125641   6.360   2.546   1.669
 2833SOL    HW225642   6.228   2.610   1.632
 2834SOL     OW25643   5.754   0.876   0.022
 2834SOL    HW125644   5.793   0.909   0.103
 2834SOL    HW225645   5.794   0.791   0.008
 2835SOL     OW25646   0.157   1.397   1.774
 2835SOL    HW125647   0.206   1.418   1.694
 2835SOL    HW225648   0.066   1.417   1.752
 2836SOL     OW25649   3.459   2.416   5.333
 2836SOL    HW125650   3.460   2.467   5.413
 2836SOL    HW225651   3.427   2.330   5.359
 2837SOL     OW25652   1.689   4.077   1.030
 2837SOL    HW125653   1.651   4.157   1.066
 2837SOL    HW225654   1.699   4.019   1.106
 2838SOL     OW25655   5.970   0.677   6.306
 2838SOL    HW125656   5.880   0.659   6.334
 2838SOL    HW225657   5.974   0.772   6.299
 2839SOL     OW25658   5.632   5.630   7.093
 2839SOL    HW125659   5.607   5.543   7.062
 2839SOL    HW225660   5.718   5.646   7.056
 2840SOL     OW25661   0.886   0.210   1.875
 2840SOL    HW125662   0.874   0.236   1.966
 2840SOL    HW225663   0.815   0.148   1.858
 2841SOL     OW25664   5.562   5.127   0.601
 2841SOL    HW125665   5.590   5.219   0.598
 2841SOL    HW225666   5.478   5.126   0.555
 2842SOL     OW25667   2.657   5.441   0.698
 2842SOL    HW125668   2.679   5.467   0.608
 2842SOL    HW225669   2.562   5.430   0.697
 2843SOL     OW25670   2.424   5.140   7.558
 2843SOL    HW125671   2.384   5.058   7.528
 2843SOL    HW225672   2.405   5.143   7.651
 2844SOL     OW25673   2.192   5.110   0.604
 2844SOL    HW125674   2.182   5.016   0.614
 2844SOL    HW225675   2.286   5.124   0.602
 2845SOL     OW25676   2.233   5.258   0.163
 2845SOL    HW125677   2.310   5.214   0.200
 2845SOL    HW225678   2.162   5.239   0.224
 2846SOL     OW25679   2.586   5.504   7.476
 2846SOL    HW125680   2.497   5.474   7.493
 2846SOL    HW225681   2.594   5.585   7.526
 2847SOL     OW25682   4.378   5.386   7.655
 2847SOL    HW125683   4.472   5.395   7.671
 2847SOL    HW225684   4.365   5.292   7.645
 2848SOL     OW25685   2.933   5.475   5.579
 2848SOL    HW125686   2.845   5.468   5.617
 2848SOL    HW225687   2.928   5.420   5.500
 2849SOL     OW25688   5.732   3.746   0.789
 2849SOL    HW125689   5.649   3.772   0.749
 2849SOL    HW225690   5.762   3.824   0.836
 2850SOL     OW25691   5.959   4.208   7.216
 2850SOL    HW125692   5.937   4.127   7.169
 2850SOL    HW225693   5.877   4.256   7.221
 2851SOL     OW25694   4.431   1.823   7.828
 2851SOL    HW125695   4.462   1.758   7.890
 2851SOL    HW225696   4.502   1.834   7.765
 2852SOL     OW25697   5.272   5.120   0.918
 2852SOL    HW125698   5.202   5.069   0.877
 2852SOL    HW225699   5.262   5.104   1.012
 2853SOL     OW25700   2.307   5.842   6.240
 2853SOL    HW125701   2.265   5.843   6.154
 2853SOL    HW225702   2.257   5.905   6.292
 2854SOL     OW25703   4.607   5.665   7.258
 2854SOL    HW125704   4.588   5.756   7.278
 2854SOL    HW225705   4.699   5.665   7.232
 2855SOL     OW25706   2.515   5.894   7.132
 2855SOL    HW125707   2.573   5.924   7.062
 2855SOL    HW225708   2.438   5.950   7.125
 2856SOL     OW25709   5.050   5.512   6.969
 2856SOL    HW125710   5.073   5.582   6.907
 2856SOL    HW225711   5.119   5.446   6.957
 2857SOL     OW25712   5.406   5.933   7.547
 2857SOL    HW125713   5.390   5.901   7.458
 2857SOL    HW225714   5.470   6.003   7.536
 2858SOL     OW25715   1.064   5.754   5.109
 2858SOL    HW125716   1.136   5.700   5.140
 2858SOL    HW225717   0.995   5.691   5.086
 2859SOL     OW25718   3.850   3.502   1.571
 2859SOL    HW125719   3.856   3.522   1.478
 2859SOL    HW225720   3.773   3.551   1.601
 2860SOL     OW25721   5.491   0.478   1.225
 2860SOL    HW125722   5.456   0.437   1.146
 2860SOL    HW225723   5.461   0.422   1.297
 2861SOL     OW25724   3.579   2.180   7.043
 2861SOL    HW125725   3.527   2.142   6.972
 2861SOL    HW225726   3.643   2.113   7.064
 2862SOL     OW25727   6.363   0.700   6.177
 2862SOL    HW125728   6.277   0.658   6.172
 2862SOL    HW225729   6.413   0.660   6.106
 2863SOL     OW25730   4.575   1.289   1.557
 2863SOL    HW125731   4.537   1.205   1.532
 2863SOL    HW225732   4.581   1.285   1.652
 2864SOL     OW25733   2.127   5.184   6.417
 2864SOL    HW125734   2.079   5.132   6.481
 2864SOL    HW225735   2.175   5.120   6.364
 2865SOL     OW25736   0.586   0.455   5.130
 2865SOL    HW125737   0.667   0.494   5.163
 2865SOL    HW225738   0.583   0.479   5.038
 2866SOL     OW25739   1.907   6.408   7.644
 2866SOL    HW125740   1.945   6.369   7.723
 2866SOL    HW225741   1.826   6.358   7.629
 2867SOL     OW25742   5.365   5.724   1.609
 2867SOL    HW125743   5.329   5.797   1.660
 2867SOL    HW225744   5.454   5.712   1.643
 2868SOL     OW25745   1.341   2.421   6.609
 2868SOL    HW125746   1.292   2.403   6.529
 2868SOL    HW225747   1.386   2.339   6.629
 2869SOL     OW25748   1.068   1.770   7.587
 2869SOL    HW125749   1.144   1.737   7.634
 2869SOL    HW225750   0.998   1.708   7.607
 2870SOL     OW25751   5.792   2.592   0.814
 2870SOL    HW125752   5.781   2.604   0.719
 2870SOL    HW225753   5.763   2.674   0.852
 2871SOL     OW25754   4.894   3.286   5.887
 2871SOL    HW125755   4.903   3.231   5.809
 2871SOL    HW225756   4.829   3.241   5.940
 2872SOL     OW25757   4.534   0.608   7.122
 2872SOL    HW125758   4.610   0.653   7.159
 2872SOL    HW225759   4.563   0.517   7.112
 2873SOL     OW25760   4.059   5.635   1.001
 2873SOL    HW125761   3.984   5.653   1.059
 2873SOL    HW225762   4.021   5.589   0.926
 2874SOL     OW25763   3.751   1.692   0.832
 2874SOL    HW125764   3.682   1.626   0.822
 2874SOL    HW225765   3.760   1.731   0.745
 2875SOL     OW25766   2.564   0.279   6.779
 2875SOL    HW125767   2.562   0.375   6.777
 2875SOL    HW225768   2.474   0.254   6.797
 2876SOL     OW25769   3.245   2.898   0.258
 2876SOL    HW125770   3.200   2.930   0.180
 2876SOL    HW225771   3.298   2.972   0.287
 2877SOL     OW25772   0.102   4.387   0.380
 2877SOL    HW125773   0.028   4.349   0.332
 2877SOL    HW225774   0.086   4.362   0.471
 2878SOL     OW25775   5.570   4.464   1.332
 2878SOL    HW125776   5.497   4.408   1.358
 2878SOL    HW225777   5.533   4.552   1.328
 2879SOL     OW25778   1.123   1.817   6.263
 2879SOL    HW125779   1.204   1.767   6.271
 2879SOL    HW225780   1.079   1.803   6.347
 2880SOL     OW25781   2.202   5.284   5.735
 2880SOL    HW125782   2.120   5.235   5.730
 2880SOL    HW225783   2.266   5.220   5.767
 2881SOL     OW25784   1.559   4.513   7.690
 2881SOL    HW125785   1.507   4.502   7.769
 2881SOL    HW225786   1.646   4.538   7.722
 2882SOL     OW25787   6.358   4.287   7.373
 2882SOL    HW125788   6.313   4.363   7.336
 2882SOL    HW225789   6.439   4.280   7.322
 2883SOL     OW25790   4.746   0.777   7.210
 2883SOL    HW125791   4.703   0.820   7.135
 2883SOL    HW225792   4.685   0.790   7.283
 2884SOL     OW25793   4.482   4.079   6.995
 2884SOL    HW125794   4.508   3.995   7.032
 2884SOL    HW225795   4.546   4.141   7.030
 2885SOL     OW25796   5.095   1.055   0.743
 2885SOL    HW125797   5.004   1.056   0.771
 2885SOL    HW225798   5.142   1.101   0.813
 2886SOL     OW25799   2.448   3.482   1.410
 2886SOL    HW125800   2.437   3.447   1.498
 2886SOL    HW225801   2.532   3.527   1.412
 2887SOL     OW25802   4.055   3.394   0.498
 2887SOL    HW125803   4.078   3.485   0.513
 2887SOL    HW225804   4.069   3.380   0.404
 2888SOL     OW25805   5.958   1.209   6.272
 2888SOL    HW125806   6.034   1.261   6.299
 2888SOL    HW225807   5.883   1.261   6.299
 2889SOL     OW25808   0.726   1.115   6.377
 2889SOL    HW125809   0.691   1.109   6.466
 2889SOL    HW225810   0.814   1.078   6.383
 2890SOL     OW25811   2.041   5.436   6.889
 2890SOL    HW125812   1.994   5.483   6.820
 2890SOL    HW225813   2.118   5.490   6.907
 2891SOL     OW25814   1.121   0.065   1.163
 2891SOL    HW125815   1.067  -0.006   1.128
 2891SOL    HW225816   1.126   0.128   1.091
 2892SOL     OW25817   6.387   0.323   0.838
 2892SOL    HW125818   6.449   0.376   0.889
 2892SOL    HW225819   6.303   0.337   0.882
 2893SOL     OW25820   1.505   0.650   5.790
 2893SOL    HW125821   1.551   0.618   5.867
 2893SOL    HW225822   1.443   0.714   5.825
 2894SOL     OW25823   0.590   3.709   6.575
 2894SOL    HW125824   0.630   3.756   6.647
 2894SOL    HW225825   0.664   3.683   6.519
 2895SOL     OW25826   4.486   3.124   6.304
 2895SOL    HW125827   4.430   3.130   6.227
 2895SOL    HW225828   4.535   3.206   6.305
 2896SOL     OW25829   4.323   5.658   6.315
 2896SOL    HW125830   4.386   5.729   6.330
 2896SOL    HW225831   4.246   5.683   6.366
 2897SOL     OW25832   5.928   4.921   6.327
 2897SOL    HW125833   5.955   4.928   6.236
 2897SOL    HW225834   5.833   4.939   6.325
 2898SOL     OW25835   2.808   4.258   0.470
 2898SOL    HW125836   2.741   4.243   0.403
 2898SOL    HW225837   2.777   4.337   0.516
 2899SOL     OW25838   1.260   4.987   6.355
 2899SOL    HW125839   1.219   4.903   6.333
 2899SOL    HW225840   1.195   5.034   6.406
 2900SOL     OW25841   4.445   1.498   7.010
 2900SOL    HW125842   4.376   1.543   7.060
 2900SOL    HW225843   4.403   1.418   6.978
 2901SOL     OW25844   6.082   3.725   6.512
 2901SOL    HW125845   6.106   3.670   6.587
 2901SOL    HW225846   6.121   3.680   6.437
 2902SOL     OW25847   1.802   0.131   6.746
 2902SOL    HW125848   1.745   0.207   6.737
 2902SOL    HW225849   1.848   0.124   6.662
 2903SOL     OW25850   3.908   4.487   0.080
 2903SOL    HW125851   3.924   4.444   0.164
 2903SOL    HW225852   3.979   4.549   0.070
 2904SOL     OW25853   2.480   2.483   0.973
 2904SOL    HW125854   2.513   2.483   1.063
 2904SOL    HW225855   2.489   2.392   0.944
 2905SOL     OW25856   3.139   0.766   0.909
 2905SOL    HW125857   3.069   0.719   0.863
 2905SOL    HW225858   3.218   0.713   0.893
 2906SOL     OW25859   0.393   4.513   6.535
 2906SOL    HW125860   0.394   4.608   6.522
 2906SOL    HW225861   0.485   4.487   6.528
 2907SOL     OW25862   0.981   4.330   5.898
 2907SOL    HW125863   0.944   4.256   5.946
 2907SOL    HW225864   1.048   4.290   5.842
 2908SOL     OW25865   1.454   6.391   0.817
 2908SOL    HW125866   1.387   6.454   0.793
 2908SOL    HW225867   1.517   6.440   0.869
 2909SOL     OW25868   6.346   2.987   7.131
 2909SOL    HW125869   6.431   2.982   7.176
 2909SOL    HW225870   6.330   2.897   7.103
 2910SOL     OW25871   5.027   2.744   6.122
 2910SOL    HW125872   5.100   2.785   6.075
 2910SOL    HW225873   5.023   2.790   6.205
 2911SOL     OW25874   0.737   0.485   7.128
 2911SOL    HW125875   0.659   0.507   7.077
 2911SOL    HW225876   0.747   0.391   7.117
 2912SOL     OW25877   5.442   0.145   1.818
 2912SOL    HW125878   5.419   0.231   1.783
 2912SOL    HW225879   5.458   0.161   1.911
 2913SOL     OW25880   0.918   2.947   5.575
 2913SOL    HW125881   0.967   3.020   5.537
 2913SOL    HW225882   0.839   2.941   5.520
 2914SOL     OW25883   5.062   3.455   0.512
 2914SOL    HW125884   5.063   3.390   0.583
 2914SOL    HW225885   5.094   3.407   0.436
 2915SOL     OW25886   3.042   1.859   0.506
 2915SOL    HW125887   2.997   1.888   0.585
 2915SOL    HW225888   3.110   1.924   0.491
 2916SOL     OW25889   0.761   1.347   2.317
 2916SOL    HW125890   0.822   1.335   2.244
 2916SOL    HW225891   0.711   1.426   2.294
 2917SOL     OW25892   3.881   0.256   6.806
 2917SOL    HW125893   3.911   0.333   6.855
 2917SOL    HW225894   3.910   0.181   6.859
 2918SOL     OW25895   3.486   2.264   6.007
 2918SOL    HW125896   3.574   2.286   5.979
 2918SOL    HW225897   3.434   2.341   5.987
 2919SOL     OW25898   4.938   0.292   1.171
 2919SOL    HW125899   4.852   0.257   1.192
 2919SOL    HW225900   4.956   0.259   1.083
 2920SOL     OW25901   4.342   1.256   1.789
 2920SOL    HW125902   4.327   1.184   1.851
 2920SOL    HW225903   4.437   1.270   1.792
 2921SOL     OW25904   1.064   5.117   6.517
 2921SOL    HW125905   1.044   5.185   6.452
 2921SOL    HW225906   0.993   5.124   6.581
 2922SOL     OW25907   3.121   4.255   7.555
 2922SOL    HW125908   3.106   4.220   7.467
 2922SOL    HW225909   3.043   4.230   7.604
 2923SOL     OW25910   5.561   1.723   7.233
 2923SOL    HW125911   5.519   1.710   7.318
 2923SOL    HW225912   5.503   1.680   7.171
 2924SOL     OW25913   1.921   3.982   0.477
 2924SOL    HW125914   1.843   3.957   0.427
 2924SOL    HW225915   1.993   3.974   0.416
 2925SOL     OW25916   3.002   5.537   7.460
 2925SOL    HW125917   2.978   5.504   7.546
 2925SOL    HW225918   2.976   5.468   7.399
 2926SOL     OW25919   0.896   1.578   7.659
 2926SOL    HW125920   0.834   1.518   7.617
 2926SOL    HW225921   0.930   1.528   7.733
 2927SOL     OW25922   0.780   2.035   6.227
 2927SOL    HW125923   0.715   2.088   6.180
 2927SOL    HW225924   0.730   1.960   6.259
 2928SOL     OW25925   3.691   2.385   7.176
 2928SOL    HW125926   3.617   2.435   7.211
 2928SOL    HW225927   3.650   2.314   7.127
 2929SOL     OW25928   4.109   6.273   1.090
 2929SOL    HW125929   4.134   6.328   1.016
 2929SOL    HW225930   4.095   6.334   1.162
 2930SOL     OW25931   0.086   5.610   1.280
 2930SOL    HW125932   0.096   5.647   1.192
 2930SOL    HW225933   0.128   5.673   1.338
 2931SOL     OW25934   3.685   5.372   0.996
 2931SOL    HW125935   3.622   5.332   0.937
 2931SOL    HW225936   3.769   5.365   0.952
 2932SOL     OW25937   0.750   3.726   1.025
 2932SOL    HW125938   0.681   3.680   0.977
 2932SOL    HW225939   0.717   3.733   1.115
 2933SOL     OW25940   5.837   2.178   5.625
 2933SOL    HW125941   5.758   2.232   5.626
 2933SOL    HW225942   5.874   2.192   5.538
 2934SOL     OW25943   1.495   4.125   0.475
 2934SOL    HW125944   1.547   4.194   0.518
 2934SOL    HW225945   1.551   4.094   0.404
 2935SOL     OW25946   0.883   3.522   7.665
 2935SOL    HW125947   0.906   3.545   7.575
 2935SOL    HW225948   0.884   3.426   7.665
 2936SOL     OW25949   2.919   5.450   1.024
 2936SOL    HW125950   2.960   5.494   1.098
 2936SOL    HW225951   2.869   5.378   1.063
 2937SOL     OW25952   1.683   4.838   7.741
 2937SOL    HW125953   1.734   4.777   7.688
 2937SOL    HW225954   1.741   4.861   7.814
 2938SOL     OW25955   5.194   4.950   5.858
 2938SOL    HW125956   5.228   5.038   5.872
 2938SOL    HW225957   5.099   4.961   5.858
 2939SOL     OW25958   0.207   3.310   1.284
 2939SOL    HW125959   0.132   3.298   1.226
 2939SOL    HW225960   0.265   3.369   1.237
 2940SOL     OW25961   1.209   2.789   6.708
 2940SOL    HW125962   1.229   2.802   6.801
 2940SOL    HW225963   1.141   2.854   6.688
 2941SOL     OW25964   5.425   6.200   5.788
 2941SOL    HW125965   5.447   6.265   5.722
 2941SOL    HW225966   5.408   6.251   5.867
 2942SOL     OW25967   2.865   1.664   7.430
 2942SOL    HW125968   2.776   1.628   7.426
 2942SOL    HW225969   2.868   1.712   7.513
 2943SOL     OW25970   3.735   1.673   6.137
 2943SOL    HW125971   3.661   1.612   6.146
 2943SOL    HW225972   3.701   1.743   6.081
 2944SOL     OW25973   5.874   2.687   7.587
 2944SOL    HW125974   5.843   2.672   7.676
 2944SOL    HW225975   5.808   2.745   7.548
 2945SOL     OW25976   2.763   3.134   0.040
 2945SOL    HW125977   2.715   3.171   0.114
 2945SOL    HW225978   2.855   3.150   0.061
 2946SOL     OW25979   0.281   5.190   0.741
 2946SOL    HW125980   0.267   5.096   0.742
 2946SOL    HW225981   0.200   5.226   0.705
 2947SOL     OW25982   5.490   0.902   7.862
 2947SOL    HW125983   5.471   0.993   7.885
 2947SOL    HW225984   5.584   0.892   7.876
 2948SOL     OW25985   1.690   0.489   0.611
 2948SOL    HW125986   1.635   0.443   0.548
 2948SOL    HW225987   1.736   0.555   0.559
 2949SOL     OW25988   1.437   1.268   7.656
 2949SOL    HW125989   1.456   1.357   7.686
 2949SOL    HW225990   1.523   1.227   7.650
 2950SOL     OW25991   1.076   5.714   1.167
 2950SOL    HW125992   1.081   5.672   1.253
 2950SOL    HW225993   1.021   5.791   1.181
 2951SOL     OW25994   5.776   6.025   0.191
 2951SOL    HW125995   5.760   5.935   0.219
 2951SOL    HW225996   5.869   6.040   0.207
 2952SOL     OW25997   3.916   2.261   7.726
 2952SOL    HW125998   3.897   2.314   7.803
 2952SOL    HW225999   3.985   2.308   7.680
 2953SOL     OW26000   4.979   5.268   7.210
 2953SOL    HW126001   4.915   5.231   7.149
 2953SOL    HW226002   4.942   5.252   7.296
 2954SOL     OW26003   3.671   1.220   0.267
 2954SOL    HW126004   3.594   1.256   0.311
 2954SOL    HW226005   3.671   1.127   0.290
 2955SOL     OW26006   2.898   2.197   0.364
 2955SOL    HW126007   2.956   2.253   0.312
 2955SOL    HW226008   2.903   2.111   0.321
 2956SOL     OW26009   2.146   2.725   5.569
 2956SOL    HW126010   2.066   2.702   5.523
 2956SOL    HW226011   2.128   2.706   5.661
 2957SOL     OW26012   2.968   4.085   0.832
 2957SOL    HW126013   2.894   4.037   0.796
 2957SOL    HW226014   3.043   4.059   0.779
 2958SOL     OW26015   5.485   4.126   1.786
 2958SOL    HW126016   5.576   4.096   1.787
 2958SOL    HW226017   5.461   4.135   1.878
 2959SOL     OW26018   2.954   1.011   1.150
 2959SOL    HW126019   2.997   0.928   1.171
 2959SOL    HW226020   2.977   1.027   1.059
 2960SOL     OW26021   5.510   3.342   7.340
 2960SOL    HW126022   5.605   3.334   7.351
 2960SOL    HW226023   5.478   3.253   7.355
 2961SOL     OW26024   3.141   2.602   0.529
 2961SOL    HW126025   3.069   2.663   0.515
 2961SOL    HW226026   3.206   2.652   0.579
 2962SOL     OW26027   1.100   5.695   6.331
 2962SOL    HW126028   1.041   5.712   6.404
 2962SOL    HW226029   1.054   5.631   6.277
 2963SOL     OW26030   6.343   5.678   7.013
 2963SOL    HW126031   6.341   5.650   6.922
 2963SOL    HW226032   6.299   5.763   7.013
 2964SOL     OW26033   5.991   3.092   1.517
 2964SOL    HW126034   6.071   3.089   1.571
 2964SOL    HW226035   6.008   3.029   1.446
 2965SOL     OW26036   4.966   5.368   6.464
 2965SOL    HW126037   4.952   5.326   6.379
 2965SOL    HW226038   4.883   5.412   6.482
 2966SOL     OW26039   3.173   2.960   1.305
 2966SOL    HW126040   3.117   2.982   1.379
 2966SOL    HW226041   3.216   2.879   1.331
 2967SOL     OW26042   0.495   1.233   5.032
 2967SOL    HW126043   0.567   1.293   5.053
 2967SOL    HW226044   0.444   1.280   4.966
 2968SOL     OW26045   6.351   4.371   1.252
 2968SOL    HW126046   6.389   4.455   1.279
 2968SOL    HW226047   6.288   4.350   1.321
 2969SOL     OW26048   5.505   0.225   0.411
 2969SOL    HW126049   5.507   0.130   0.411
 2969SOL    HW226050   5.553   0.250   0.490
 2970SOL     OW26051   0.528   1.725   7.545
 2970SOL    HW126052   0.488   1.683   7.469
 2970SOL    HW226053   0.522   1.660   7.614
 2971SOL     OW26054   6.172   6.209   6.255
 2971SOL    HW126055   6.183   6.167   6.170
 2971SOL    HW226056   6.192   6.301   6.239
 2972SOL     OW26057   3.327   3.661   6.184
 2972SOL    HW126058   3.387   3.589   6.164
 2972SOL    HW226059   3.359   3.734   6.131
 2973SOL     OW26060   2.549   1.813   0.914
 2973SOL    HW126061   2.560   1.884   0.977
 2973SOL    HW226062   2.478   1.842   0.857
 2974SOL     OW26063   5.868   5.650   0.610
 2974SOL    HW126064   5.947   5.617   0.566
 2974SOL    HW226065   5.828   5.573   0.649
 2975SOL     OW26066   5.505   1.464   1.633
 2975SOL    HW126067   5.511   1.472   1.728
 2975SOL    HW226068   5.495   1.554   1.601
 2976SOL     OW26069   2.306   6.403   0.064
 2976SOL    HW126070   2.295   6.387  -0.030
 2976SOL    HW226071   2.355   6.486   0.068
 2977SOL     OW26072   3.831   3.710   0.046
 2977SOL    HW126073   3.783   3.783   0.085
 2977SOL    HW226074   3.829   3.728  -0.048
 2978SOL     OW26075   5.370   0.592   0.910
 2978SOL    HW126076   5.377   0.660   0.977
 2978SOL    HW226077   5.318   0.632   0.841
 2979SOL     OW26078   0.767   2.001   0.501
 2979SOL    HW126079   0.845   1.955   0.532
 2979SOL    HW226080   0.793   2.094   0.501
 2980SOL     OW26081   5.369   4.233   1.071
 2980SOL    HW126082   5.448   4.216   1.123
 2980SOL    HW226083   5.309   4.163   1.096
 2981SOL     OW26084   3.121   2.281   6.022
 2981SOL    HW126085   3.188   2.344   5.997
 2981SOL    HW226086   3.056   2.334   6.069
 2982SOL     OW26087   1.382   3.169   0.999
 2982SOL    HW126088   1.421   3.084   0.979
 2982SOL    HW226089   1.389   3.177   1.094
 2983SOL     OW26090   0.132   6.155   1.998
 2983SOL    HW126091   0.092   6.138   2.083
 2983SOL    HW226092   0.098   6.241   1.972
 2984SOL     OW26093   6.128   1.746   1.759
 2984SOL    HW126094   6.109   1.668   1.812
 2984SOL    HW226095   6.059   1.748   1.693
 2985SOL     OW26096   4.195   2.791   0.853
 2985SOL    HW126097   4.248   2.860   0.892
 2985SOL    HW226098   4.128   2.837   0.803
 2986SOL     OW26099   0.609   3.179   1.905
 2986SOL    HW126100   0.667   3.125   1.959
 2986SOL    HW226101   0.669   3.236   1.856
 2987SOL     OW26102   3.478   4.996   7.467
 2987SOL    HW126103   3.490   5.049   7.546
 2987SOL    HW226104   3.542   4.925   7.476
 2988SOL     OW26105   1.515   0.778   7.643
 2988SOL    HW126106   1.599   0.758   7.602
 2988SOL    HW226107   1.452   0.780   7.570
 2989SOL     OW26108   1.979   2.352   0.676
 2989SOL    HW126109   2.001   2.445   0.686
 2989SOL    HW226110   1.901   2.340   0.729
 2990SOL     OW26111   1.628   5.439   0.429
 2990SOL    HW126112   1.658   5.372   0.490
 2990SOL    HW226113   1.676   5.518   0.455
 2991SOL     OW26114   1.585   5.774   6.261
 2991SOL    HW126115   1.674   5.801   6.287
 2991SOL    HW226116   1.592   5.680   6.247
 2992SOL     OW26117   3.979   2.294   5.651
 2992SOL    HW126118   3.920   2.227   5.684
 2992SOL    HW226119   3.928   2.375   5.654
 2993SOL     OW26120   5.624   1.599   0.535
 2993SOL    HW126121   5.590   1.553   0.458
 2993SOL    HW226122   5.575   1.682   0.536
 2994SOL     OW26123   5.627   0.286   0.659
 2994SOL    HW126124   5.698   0.222   0.672
 2994SOL    HW226125   5.667   0.370   0.680
 2995SOL     OW26126   4.785   4.467   0.495
 2995SOL    HW126127   4.743   4.485   0.411
 2995SOL    HW226128   4.877   4.454   0.474
 2996SOL     OW26129   0.785   5.616   6.933
 2996SOL    HW126130   0.765   5.691   6.877
 2996SOL    HW226131   0.786   5.652   7.022
 2997SOL     OW26132   3.890   6.362   7.261
 2997SOL    HW126133   3.909   6.390   7.350
 2997SOL    HW226134   3.953   6.410   7.207
 2998SOL     OW26135   1.818   2.266   6.221
 2998SOL    HW126136   1.848   2.236   6.307
 2998SOL    HW226137   1.775   2.190   6.182
 2999SOL     OW26138   0.099   4.816   6.686
 2999SOL    HW126139   0.168   4.763   6.728
 2999SOL    HW226140   0.113   4.803   6.593
 3000SOL     OW26141   0.857   6.275   7.128
 3000SOL    HW126142   0.882   6.195   7.083
 3000SOL    HW226143   0.827   6.246   7.214
 3001SOL     OW26144   1.289   0.974   6.012
 3001SOL    HW126145   1.248   0.915   6.075
 3001SOL    HW226146   1.269   0.937   5.926
 3002SOL     OW26147   0.287   3.709   0.353
 3002SOL    HW126148   0.265   3.788   0.304
 3002SOL    HW226149   0.268   3.637   0.293
 3003SOL     OW26150   3.309   1.516   1.036
 3003SOL    HW126151   3.257   1.514   1.116
 3003SOL    HW226152   3.360   1.435   1.039
 3004SOL     OW26153   4.358   2.008   1.918
 3004SOL    HW126154   4.400   2.071   1.977
 3004SOL    HW226155   4.265   2.028   1.925
 3005SOL     OW26156   1.128   0.057   7.635
 3005SOL    HW126157   1.131   0.109   7.716
 3005SOL    HW226158   1.164   0.115   7.569
 3006SOL     OW26159   6.100   2.065   6.613
 3006SOL    HW126160   6.115   2.151   6.574
 3006SOL    HW226161   6.105   2.080   6.707
 3007SOL     OW26162   3.812   3.568   0.335
 3007SOL    HW126163   3.862   3.620   0.399
 3007SOL    HW226164   3.768   3.634   0.281
 3008SOL     OW26165   2.866   5.242   5.416
 3008SOL    HW126166   2.857   5.152   5.449
 3008SOL    HW226167   2.787   5.287   5.445
 3009SOL     OW26168   4.278   1.691   6.673
 3009SOL    HW126169   4.264   1.751   6.746
 3009SOL    HW226170   4.192   1.682   6.632
 3010SOL     OW26171   3.872   0.357   7.682
 3010SOL    HW126172   3.797   0.337   7.738
 3010SOL    HW226173   3.943   0.378   7.743
 3011SOL     OW26174   0.104   0.043   0.299
 3011SOL    HW126175   0.161   0.097   0.245
 3011SOL    HW226176   0.046  -0.001   0.236
 3012SOL     OW26177   4.931   2.524   6.988
 3012SOL    HW126178   5.024   2.548   6.991
 3012SOL    HW226179   4.897   2.551   7.073
 3013SOL     OW26180   6.042   1.600   0.885
 3013SOL    HW126181   6.136   1.595   0.867
 3013SOL    HW226182   6.004   1.631   0.803
 3014SOL     OW26183   2.628   2.127   6.576
 3014SOL    HW126184   2.682   2.193   6.532
 3014SOL    HW226185   2.564   2.100   6.510
 3015SOL     OW26186   4.467   3.735   7.750
 3015SOL    HW126187   4.459   3.830   7.741
 3015SOL    HW226188   4.514   3.723   7.833
 3016SOL     OW26189   5.288   5.048   0.009
 3016SOL    HW126190   5.311   4.977  -0.051
 3016SOL    HW226191   5.365   5.059   0.064
 3017SOL     OW26192   3.788   3.255   7.719
 3017SOL    HW126193   3.838   3.303   7.785
 3017SOL    HW226194   3.766   3.321   7.653
 3018SOL     OW26195   1.898   6.155   6.362
 3018SOL    HW126196   1.861   6.175   6.277
 3018SOL    HW226197   1.845   6.205   6.424
 3019SOL     OW26198   1.465   4.702   0.841
 3019SOL    HW126199   1.536   4.687   0.904
 3019SOL    HW226200   1.399   4.637   0.863
 3020SOL     OW26201   3.363   0.273   1.573
 3020SOL    HW126202   3.307   0.215   1.521
 3020SOL    HW226203   3.447   0.228   1.577
 3021SOL     OW26204   5.621   5.909   7.056
 3021SOL    HW126205   5.565   5.832   7.068
 3021SOL    HW226206   5.600   5.941   6.968
 3022SOL     OW26207   1.977   4.057   1.678
 3022SOL    HW126208   1.982   4.079   1.585
 3022SOL    HW226209   1.985   4.142   1.722
 3023SOL     OW26210   4.777   5.619   1.520
 3023SOL    HW126211   4.795   5.548   1.581
 3023SOL    HW226212   4.791   5.699   1.571
 3024SOL     OW26213   6.220   2.388   0.858
 3024SOL    HW126214   6.201   2.409   0.766
 3024SOL    HW226215   6.280   2.314   0.854
 3025SOL     OW26216   3.144   5.718   2.197
 3025SOL    HW126217   3.100   5.801   2.217
 3025SOL    HW226218   3.237   5.739   2.198
 3026SOL     OW26219   1.706   0.231   6.377
 3026SOL    HW126220   1.736   0.193   6.295
 3026SOL    HW226221   1.781   0.223   6.436
 3027SOL     OW26222   4.196   0.633   7.794
 3027SOL    HW126223   4.116   0.596   7.830
 3027SOL    HW226224   4.176   0.725   7.779
 3028SOL     OW26225   3.138   1.410   6.651
 3028SOL    HW126226   3.070   1.399   6.717
 3028SOL    HW226227   3.181   1.325   6.646
 3029SOL     OW26228   5.041   4.888   7.337
 3029SOL    HW126229   5.065   4.918   7.425
 3029SOL    HW226230   5.095   4.811   7.323
 3030SOL     OW26231   1.203   3.819   6.262
 3030SOL    HW126232   1.292   3.835   6.231
 3030SOL    HW226233   1.208   3.733   6.304
 3031SOL     OW26234   2.995   5.012   7.407
 3031SOL    HW126235   3.016   4.919   7.413
 3031SOL    HW226236   2.936   5.019   7.332
 3032SOL     OW26237   1.810   6.063   7.613
 3032SOL    HW126238   1.721   6.033   7.594
 3032SOL    HW226239   1.847   6.084   7.528
 3033SOL     OW26240   3.419   5.330   6.978
 3033SOL    HW126241   3.389   5.417   6.951
 3033SOL    HW226242   3.463   5.295   6.901
 3034SOL     OW26243   4.550   2.680   0.019
 3034SOL    HW126244   4.499   2.679  -0.062
 3034SOL    HW226245   4.564   2.773   0.037
 3035SOL     OW26246   2.848   3.171   6.650
 3035SOL    HW126247   2.781   3.166   6.718
 3035SOL    HW226248   2.882   3.082   6.644
 3036SOL     OW26249   0.814   2.677   5.339
 3036SOL    HW126250   0.843   2.687   5.249
 3036SOL    HW226251   0.773   2.761   5.361
 3037SOL     OW26252   3.641   2.641   6.934
 3037SOL    HW126253   3.675   2.717   6.887
 3037SOL    HW226254   3.632   2.670   7.025
 3038SOL     OW26255   4.535   4.349   7.145
 3038SOL    HW126256   4.536   4.418   7.211
 3038SOL    HW226257   4.513   4.270   7.194
 3039SOL     OW26258   1.857   0.230   0.302
 3039SOL    HW126259   1.827   0.286   0.231
 3039SOL    HW226260   1.932   0.277   0.339
 3040SOL     OW26261   3.070   5.244   6.736
 3040SOL    HW126262   3.162   5.254   6.712
 3040SOL    HW226263   3.072   5.196   6.819
 3041SOL     OW26264   4.964   0.358   0.826
 3041SOL    HW126265   4.933   0.267   0.822
 3041SOL    HW226266   5.039   0.355   0.885
 3042SOL     OW26267   4.522   1.852   7.373
 3042SOL    HW126268   4.549   1.762   7.388
 3042SOL    HW226269   4.427   1.848   7.361
 3043SOL     OW26270   0.405   5.314   4.716
 3043SOL    HW126271   0.380   5.403   4.743
 3043SOL    HW226272   0.437   5.325   4.626
 3044SOL     OW26273   3.829   2.389   6.526
 3044SOL    HW126274   3.795   2.477   6.541
 3044SOL    HW226275   3.851   2.356   6.614
 3045SOL     OW26276   2.090   3.329   5.446
 3045SOL    HW126277   2.160   3.322   5.381
 3045SOL    HW226278   2.136   3.333   5.530
 3046SOL     OW26279   4.464   4.041   6.708
 3046SOL    HW126280   4.497   4.052   6.797
 3046SOL    HW226281   4.395   4.107   6.700
 3047SOL     OW26282   6.332   3.893   0.291
 3047SOL    HW126283   6.283   3.975   0.294
 3047SOL    HW226284   6.380   3.897   0.208
 3048SOL     OW26285   4.159   5.497   7.325
 3048SOL    HW126286   4.082   5.553   7.313
 3048SOL    HW226287   4.226   5.537   7.269
 3049SOL     OW26288   0.720   4.415   6.158
 3049SOL    HW126289   0.648   4.353   6.162
 3049SOL    HW226290   0.774   4.395   6.235
 3050SOL     OW26291   4.086   5.439   6.354
 3050SOL    HW126292   4.078   5.491   6.434
 3050SOL    HW226293   4.044   5.493   6.287
 3051SOL     OW26294   2.643   5.418   7.220
 3051SOL    HW126295   2.636   5.423   7.315
 3051SOL    HW226296   2.579   5.481   7.187
 3052SOL     OW26297   5.331   3.640   0.528
 3052SOL    HW126298   5.404   3.585   0.501
 3052SOL    HW226299   5.253   3.587   0.508
 3053SOL     OW26300   1.756   5.933   5.724
 3053SOL    HW126301   1.689   6.001   5.732
 3053SOL    HW226302   1.726   5.878   5.652
 3054SOL     OW26303   2.251   4.292   1.777
 3054SOL    HW126304   2.300   4.275   1.697
 3054SOL    HW226305   2.280   4.378   1.806
 3055SOL     OW26306   3.372   0.262   1.208
 3055SOL    HW126307   3.458   0.286   1.174
 3055SOL    HW226308   3.379   0.170   1.230
 3056SOL     OW26309   2.125   3.692   5.431
 3056SOL    HW126310   2.080   3.696   5.347
 3056SOL    HW226311   2.205   3.743   5.418
 3057SOL     OW26312   3.928   3.104   0.296
 3057SOL    HW126313   3.872   3.181   0.308
 3057SOL    HW226314   4.016   3.141   0.287
 3058SOL     OW26315   2.781   3.806   0.526
 3058SOL    HW126316   2.749   3.723   0.561
 3058SOL    HW226317   2.775   3.797   0.431
 3059SOL     OW26318   3.577   0.438   6.421
 3059SOL    HW126319   3.616   0.364   6.374
 3059SOL    HW226320   3.593   0.513   6.363
 3060SOL     OW26321   3.181   1.421   0.631
 3060SOL    HW126322   3.155   1.485   0.564
 3060SOL    HW226323   3.184   1.337   0.585
 3061SOL     OW26324   0.988   5.347   5.893
 3061SOL    HW126325   0.922   5.415   5.904
 3061SOL    HW226326   0.971   5.285   5.963
 3062SOL     OW26327   4.256   4.786   7.066
 3062SOL    HW126328   4.334   4.733   7.053
 3062SOL    HW226329   4.264   4.820   7.155
 3063SOL     OW26330   6.308   3.564   6.477
 3063SOL    HW126331   6.372   3.568   6.406
 3063SOL    HW226332   6.336   3.490   6.531
 3064SOL     OW26333   0.774   4.114   0.942
 3064SOL    HW126334   0.749   4.132   1.032
 3064SOL    HW226335   0.696   4.134   0.890
 3065SOL     OW26336   0.219   0.627   1.958
 3065SOL    HW126337   0.275   0.671   1.894
 3065SOL    HW226338   0.269   0.631   2.040
 3066SOL     OW26339   0.147   4.265   7.211
 3066SOL    HW126340   0.200   4.344   7.225
 3066SOL    HW226341   0.128   4.266   7.117
 3067SOL     OW26342   2.976   0.668   0.364
 3067SOL    HW126343   3.040   0.715   0.311
 3067SOL    HW226344   2.930   0.611   0.302
 3068SOL     OW26345   2.105   2.211   6.246
 3068SOL    HW126346   2.185   2.165   6.221
 3068SOL    HW226347   2.034   2.155   6.213
 3069SOL     OW26348   1.241   1.615   1.047
 3069SOL    HW126349   1.263   1.534   1.094
 3069SOL    HW226350   1.326   1.649   1.017
 3070SOL     OW26351   1.315   1.563   5.348
 3070SOL    HW126352   1.368   1.598   5.420
 3070SOL    HW226353   1.281   1.641   5.304
 3071SOL     OW26354   1.497   1.439   6.002
 3071SOL    HW126355   1.536   1.526   5.994
 3071SOL    HW226356   1.403   1.456   6.014
 3072SOL     OW26357   2.913   1.046   0.050
 3072SOL    HW126358   2.877   0.960   0.025
 3072SOL    HW226359   2.869   1.067   0.132
 3073SOL     OW26360   3.042   6.108   6.714
 3073SOL    HW126361   3.062   6.028   6.665
 3073SOL    HW226362   3.110   6.170   6.688
 3074SOL     OW26363   4.884   1.060   1.035
 3074SOL    HW126364   4.867   1.154   1.023
 3074SOL    HW226365   4.907   1.052   1.127
 3075SOL     OW26366   0.326   4.514   7.228
 3075SOL    HW126367   0.310   4.599   7.268
 3075SOL    HW226368   0.362   4.534   7.142
 3076SOL     OW26369   2.815   0.553   7.839
 3076SOL    HW126370   2.773   0.469   7.822
 3076SOL    HW226371   2.865   0.539   7.920
 3077SOL     OW26372   2.913   0.414   7.244
 3077SOL    HW126373   2.955   0.484   7.193
 3077SOL    HW226374   2.832   0.396   7.197
 3078SOL     OW26375   5.435   5.756   6.731
 3078SOL    HW126376   5.422   5.797   6.646
 3078SOL    HW226377   5.444   5.829   6.792
 3079SOL     OW26378   3.004   4.266   1.309
 3079SOL    HW126379   2.990   4.295   1.218
 3079SOL    HW226380   2.938   4.198   1.323
 3080SOL     OW26381   0.389   6.060   6.187
 3080SOL    HW126382   0.321   6.026   6.128
 3080SOL    HW226383   0.390   6.154   6.170
 3081SOL     OW26384   6.269   0.527   6.847
 3081SOL    HW126385   6.210   0.593   6.882
 3081SOL    HW226386   6.281   0.552   6.755
 3082SOL     OW26387   6.303   4.654   0.165
 3082SOL    HW126388   6.211   4.679   0.154
 3082SOL    HW226389   6.305   4.561   0.143
 3083SOL     OW26390   4.470   4.530   5.892
 3083SOL    HW126391   4.397   4.492   5.942
 3083SOL    HW226392   4.514   4.454   5.853
 3084SOL     OW26393   1.665   5.523   1.708
 3084SOL    HW126394   1.705   5.559   1.787
 3084SOL    HW226395   1.651   5.430   1.728
 3085SOL     OW26396   2.505   4.604   2.258
 3085SOL    HW126397   2.550   4.670   2.205
 3085SOL    HW226398   2.528   4.520   2.217
 3086SOL     OW26399   2.334   5.951   1.257
 3086SOL    HW126400   2.327   5.975   1.350
 3086SOL    HW226401   2.254   5.903   1.239
 3087SOL     OW26402   1.145   5.560   5.918
 3087SOL    HW126403   1.103   5.474   5.917
 3087SOL    HW226404   1.184   5.566   6.006
 3088SOL     OW26405   3.936   2.634   6.165
 3088SOL    HW126406   3.866   2.632   6.100
 3088SOL    HW226407   3.898   2.683   6.239
 3089SOL     OW26408   4.191   0.877   1.195
 3089SOL    HW126409   4.100   0.878   1.225
 3089SOL    HW226410   4.186   0.898   1.101
 3090SOL     OW26411   5.876   4.673   5.732
 3090SOL    HW126412   5.932   4.617   5.787
 3090SOL    HW226413   5.884   4.760   5.770
 3091SOL     OW26414   6.027   3.284   6.641
 3091SOL    HW126415   6.057   3.194   6.638
 3091SOL    HW226416   5.941   3.282   6.598
 3092SOL     OW26417   2.236   2.832   6.310
 3092SOL    HW126418   2.154   2.811   6.266
 3092SOL    HW226419   2.283   2.749   6.314
 3093SOL     OW26420   6.179   5.723   4.881
 3093SOL    HW126421   6.177   5.800   4.824
 3093SOL    HW226422   6.234   5.750   4.955
 3094SOL     OW26423   4.901   1.567   6.825
 3094SOL    HW126424   4.921   1.637   6.764
 3094SOL    HW226425   4.825   1.598   6.873
 3095SOL     OW26426   3.377   3.384   2.332
 3095SOL    HW126427   3.454   3.431   2.300
 3095SOL    HW226428   3.303   3.435   2.299
 3096SOL     OW26429   3.525   5.238   6.037
 3096SOL    HW126430   3.545   5.323   5.997
 3096SOL    HW226431   3.498   5.259   6.126
 3097SOL     OW26432   2.357   4.156   5.791
 3097SOL    HW126433   2.368   4.070   5.749
 3097SOL    HW226434   2.434   4.206   5.762
 3098SOL     OW26435   2.587   0.696   2.044
 3098SOL    HW126436   2.587   0.772   1.985
 3098SOL    HW226437   2.636   0.629   1.996
 3099SOL     OW26438   5.976   3.612   5.395
 3099SOL    HW126439   6.065   3.578   5.390
 3099SOL    HW226440   5.925   3.540   5.432
 3100SOL     OW26441   5.609   0.543   0.743
 3100SOL    HW126442   5.545   0.536   0.814
 3100SOL    HW226443   5.665   0.617   0.767
 3101SOL     OW26444   6.399   5.039   6.579
 3101SOL    HW126445   6.453   4.974   6.623
 3101SOL    HW226446   6.381   5.105   6.646
 3102SOL     OW26447   5.596   2.635   5.547
 3102SOL    HW126448   5.525   2.585   5.506
 3102SOL    HW226449   5.585   2.724   5.512
 3103SOL     OW26450   3.531   0.555   0.211
 3103SOL    HW126451   3.505   0.478   0.261
 3103SOL    HW226452   3.580   0.608   0.274
 3104SOL     OW26453   3.857   6.228   0.965
 3104SOL    HW126454   3.936   6.235   1.020
 3104SOL    HW226455   3.830   6.136   0.973
 3105SOL     OW26456   0.972   1.892   6.056
 3105SOL    HW126457   1.044   1.891   6.119
 3105SOL    HW226458   0.911   1.957   6.090
 3106SOL     OW26459   4.370   4.112   1.804
 3106SOL    HW126460   4.317   4.085   1.879
 3106SOL    HW226461   4.312   4.099   1.728
 3107SOL     OW26462   2.609   4.471   6.643
 3107SOL    HW126463   2.537   4.534   6.644
 3107SOL    HW226464   2.658   4.489   6.724
 3108SOL     OW26465   2.755   1.761   6.982
 3108SOL    HW126466   2.779   1.854   6.985
 3108SOL    HW226467   2.788   1.730   6.898
 3109SOL     OW26468   0.410   3.899   0.586
 3109SOL    HW126469   0.502   3.875   0.596
 3109SOL    HW226470   0.402   3.926   0.494
 3110SOL     OW26471   0.548   0.068   0.142
 3110SOL    HW126472   0.643   0.071   0.130
 3110SOL    HW226473   0.529  -0.024   0.157
 3111SOL     OW26474   2.215   5.583   6.157
 3111SOL    HW126475   2.261   5.507   6.120
 3111SOL    HW226476   2.285   5.643   6.181
 3112SOL     OW26477   5.024   3.606   6.470
 3112SOL    HW126478   5.009   3.606   6.565
 3112SOL    HW226479   5.094   3.670   6.457
 3113SOL     OW26480   0.650   0.119   6.632
 3113SOL    HW126481   0.570   0.143   6.679
 3113SOL    HW226482   0.690   0.203   6.610
 3114SOL     OW26483   1.760   2.984   6.413
 3114SOL    HW126484   1.786   2.893   6.425
 3114SOL    HW226485   1.841   3.034   6.420
 3115SOL     OW26486   1.213   2.309   6.838
 3115SOL    HW126487   1.290   2.302   6.781
 3115SOL    HW226488   1.226   2.239   6.903
 3116SOL     OW26489   5.371   3.101   7.832
 3116SOL    HW126490   5.337   3.158   7.763
 3116SOL    HW226491   5.343   3.142   7.914
 3117SOL     OW26492   3.452   1.562   6.155
 3117SOL    HW126493   3.372   1.557   6.103
 3117SOL    HW226494   3.499   1.482   6.135
 3118SOL     OW26495   4.294   3.307   6.159
 3118SOL    HW126496   4.260   3.328   6.245
 3118SOL    HW226497   4.321   3.391   6.122
 3119SOL     OW26498   3.518   5.629   7.277
 3119SOL    HW126499   3.582   5.586   7.220
 3119SOL    HW226500   3.571   5.680   7.338
 3120SOL     OW26501   1.645   4.321   7.518
 3120SOL    HW126502   1.606   4.377   7.586
 3120SOL    HW226503   1.611   4.234   7.536
 3121SOL     OW26504   4.075   1.821   7.600
 3121SOL    HW126505   4.035   1.766   7.666
 3121SOL    HW226506   4.009   1.829   7.532
 3122SOL     OW26507   1.746   1.351   1.553
 3122SOL    HW126508   1.760   1.442   1.580
 3122SOL    HW226509   1.780   1.299   1.626
 3123SOL     OW26510   3.163   1.606   0.424
 3123SOL    HW126511   3.170   1.685   0.478
 3123SOL    HW226512   3.112   1.634   0.348
 3124SOL     OW26513   4.064   3.614   6.946
 3124SOL    HW126514   4.021   3.668   7.013
 3124SOL    HW226515   3.992   3.586   6.890
 3125SOL     OW26516   2.680   0.208   6.535
 3125SOL    HW126517   2.698   0.116   6.553
 3125SOL    HW226518   2.648   0.243   6.618
 3126SOL     OW26519   0.028   2.502   7.177
 3126SOL    HW126520  -0.017   2.430   7.132
 3126SOL    HW226521  -0.031   2.527   7.248
 3127SOL     OW26522   0.423   5.828   7.381
 3127SOL    HW126523   0.432   5.908   7.432
 3127SOL    HW226524   0.328   5.811   7.379
 3128SOL     OW26525   0.308   0.826   6.203
 3128SOL    HW126526   0.260   0.872   6.134
 3128SOL    HW226527   0.328   0.740   6.165
 3129SOL     OW26528   2.494   4.577   7.575
 3129SOL    HW126529   2.486   4.491   7.535
 3129SOL    HW226530   2.416   4.585   7.630
 3130SOL     OW26531   2.169   3.189   1.151
 3130SOL    HW126532   2.225   3.138   1.209
 3130SOL    HW226533   2.091   3.208   1.203
 3131SOL     OW26534   1.266   0.741   0.644
 3131SOL    HW126535   1.199   0.738   0.712
 3131SOL    HW226536   1.298   0.651   0.638
 3132SOL     OW26537   6.185   3.371   0.229
 3132SOL    HW126538   6.203   3.370   0.135
 3132SOL    HW226539   6.181   3.464   0.251
 3133SOL     OW26540   5.146   4.519   5.944
 3133SOL    HW126541   5.156   4.547   5.853
 3133SOL    HW226542   5.193   4.585   5.994
 3134SOL     OW26543   5.203   4.603   1.911
 3134SOL    HW126544   5.138   4.673   1.904
 3134SOL    HW226545   5.272   4.639   1.966
 3135SOL     OW26546   3.699   3.292   7.286
 3135SOL    HW126547   3.667   3.342   7.212
 3135SOL    HW226548   3.666   3.338   7.363
 3136SOL     OW26549   4.254   0.409   6.802
 3136SOL    HW126550   4.199   0.427   6.878
 3136SOL    HW226551   4.195   0.365   6.740
 3137SOL     OW26552   2.896   3.975   7.022
 3137SOL    HW126553   2.873   3.909   6.956
 3137SOL    HW226554   2.982   3.947   7.053
 3138SOL     OW26555   5.394   2.535   2.199
 3138SOL    HW126556   5.380   2.611   2.144
 3138SOL    HW226557   5.339   2.467   2.160
 3139SOL     OW26558   4.113   1.362   6.355
 3139SOL    HW126559   4.045   1.417   6.316
 3139SOL    HW226560   4.191   1.418   6.357
 3140SOL     OW26561   6.130   0.145   2.072
 3140SOL    HW126562   6.095   0.165   2.159
 3140SOL    HW226563   6.098   0.057   2.053
 3141SOL     OW26564   1.760   1.829   6.390
 3141SOL    HW126565   1.847   1.791   6.399
 3141SOL    HW226566   1.704   1.757   6.363
 3142SOL     OW26567   1.549   4.372   5.598
 3142SOL    HW126568   1.513   4.460   5.596
 3142SOL    HW226569   1.595   4.366   5.682
 3143SOL     OW26570   4.691   3.342   1.005
 3143SOL    HW126571   4.775   3.295   1.005
 3143SOL    HW226572   4.640   3.298   1.073
 3144SOL     OW26573   1.366   5.435   6.121
 3144SOL    HW126574   1.356   5.340   6.118
 3144SOL    HW226575   1.345   5.458   6.212
 3145SOL     OW26576   3.753   3.134   6.360
 3145SOL    HW126577   3.703   3.054   6.345
 3145SOL    HW226578   3.834   3.121   6.311
 3146SOL     OW26579   5.191   4.025   0.822
 3146SOL    HW126580   5.278   4.031   0.861
 3146SOL    HW226581   5.139   3.976   0.885
 3147SOL     OW26582   5.814   3.973   5.947
 3147SOL    HW126583   5.769   3.916   5.885
 3147SOL    HW226584   5.903   3.980   5.913
 3148SOL     OW26585   2.584   3.814   7.385
 3148SOL    HW126586   2.532   3.802   7.305
 3148SOL    HW226587   2.654   3.873   7.360
 3149SOL     OW26588   6.382   1.042   6.807
 3149SOL    HW126589   6.382   1.138   6.810
 3149SOL    HW226590   6.290   1.018   6.821
 3150SOL     OW26591   2.541   2.891   6.170
 3150SOL    HW126592   2.577   2.979   6.160
 3150SOL    HW226593   2.478   2.883   6.099
 3151SOL     OW26594   4.568   4.628   0.920
 3151SOL    HW126595   4.619   4.602   0.843
 3151SOL    HW226596   4.500   4.686   0.885
 3152SOL     OW26597   1.800   0.658   0.421
 3152SOL    HW126598   1.811   0.748   0.392
 3152SOL    HW226599   1.846   0.605   0.356
 3153SOL     OW26600   2.522   0.048   6.333
 3153SOL    HW126601   2.551   0.139   6.338
 3153SOL    HW226602   2.557   0.007   6.412
 3154SOL     OW26603   6.143   4.547   1.382
 3154SOL    HW126604   6.201   4.620   1.362
 3154SOL    HW226605   6.189   4.498   1.451
 3155SOL     OW26606   0.978   1.416   0.918
 3155SOL    HW126607   1.032   1.408   0.840
 3155SOL    HW226608   1.034   1.385   0.989
 3156SOL     OW26609   2.148   1.617   0.050
 3156SOL    HW126610   2.094   1.655  -0.020
 3156SOL    HW226611   2.151   1.523   0.030
 3157SOL     OW26612   3.402   5.737   5.405
 3157SOL    HW126613   3.331   5.779   5.455
 3157SOL    HW226614   3.366   5.653   5.379
 3158SOL     OW26615   2.933   0.337   6.969
 3158SOL    HW126616   2.959   0.428   6.985
 3158SOL    HW226617   2.843   0.332   7.001
 3159SOL     OW26618   5.457   2.786   7.572
 3159SOL    HW126619   5.480   2.824   7.656
 3159SOL    HW226620   5.530   2.808   7.514
 3160SOL     OW26621   3.603   0.510   0.587
 3160SOL    HW126622   3.596   0.425   0.543
 3160SOL    HW226623   3.674   0.499   0.650
 3161SOL     OW26624   6.148   4.853   7.107
 3161SOL    HW126625   6.179   4.765   7.085
 3161SOL    HW226626   6.078   4.838   7.171
 3162SOL     OW26627   1.972   4.287   1.833
 3162SOL    HW126628   1.958   4.298   1.927
 3162SOL    HW226629   2.063   4.312   1.820
 3163SOL     OW26630   2.567   0.385   1.742
 3163SOL    HW126631   2.560   0.291   1.757
 3163SOL    HW226632   2.477   0.416   1.741
 3164SOL     OW26633   2.239   1.106   6.023
 3164SOL    HW126634   2.240   1.026   5.971
 3164SOL    HW226635   2.330   1.119   6.049
 3165SOL     OW26636   1.942   1.283   1.330
 3165SOL    HW126637   1.973   1.248   1.414
 3165SOL    HW226638   1.865   1.336   1.353
 3166SOL     OW26639   1.552   1.556   5.502
 3166SOL    HW126640   1.623   1.615   5.474
 3166SOL    HW226641   1.595   1.472   5.518
 3167SOL     OW26642   0.166   2.553   7.487
 3167SOL    HW126643   0.154   2.618   7.557
 3167SOL    HW226644   0.088   2.561   7.433
 3168SOL     OW26645   4.696   0.521   0.913
 3168SOL    HW126646   4.756   0.455   0.878
 3168SOL    HW226647   4.747   0.601   0.917
 3169SOL     OW26648   1.266   0.923   7.331
 3169SOL    HW126649   1.320   0.983   7.382
 3169SOL    HW226650   1.287   0.836   7.364
 3170SOL     OW26651   4.199   4.948   6.233
 3170SOL    HW126652   4.191   4.871   6.177
 3170SOL    HW226653   4.288   4.945   6.266
 3171SOL     OW26654   5.319   6.194   6.252
 3171SOL    HW126655   5.377   6.266   6.274
 3171SOL    HW226656   5.312   6.144   6.334
 3172SOL     OW26657   0.197   1.594   1.244
 3172SOL    HW126658   0.122   1.648   1.218
 3172SOL    HW226659   0.267   1.658   1.258
 3173SOL     OW26660   1.793   3.712   6.701
 3173SOL    HW126661   1.836   3.793   6.670
 3173SOL    HW226662   1.708   3.712   6.657
 3174SOL     OW26663   4.443   1.315   6.500
 3174SOL    HW126664   4.524   1.297   6.547
 3174SOL    HW226665   4.402   1.386   6.550
 3175SOL     OW26666   3.265   2.683   0.758
 3175SOL    HW126667   3.216   2.630   0.822
 3175SOL    HW226668   3.234   2.772   0.771
 3176SOL     OW26669   1.746   4.250   7.250
 3176SOL    HW126670   1.835   4.282   7.264
 3176SOL    HW226671   1.717   4.219   7.335
 3177SOL     OW26672   0.290   3.280   6.500
 3177SOL    HW126673   0.311   3.248   6.413
 3177SOL    HW226674   0.352   3.352   6.516
 3178SOL     OW26675   4.241   2.024   0.060
 3178SOL    HW126676   4.304   2.082   0.017
 3178SOL    HW226677   4.275   1.936   0.045
 3179SOL     OW26678   4.326   0.033   7.497
 3179SOL    HW126679   4.243   0.066   7.462
 3179SOL    HW226680   4.310   0.021   7.591
 3180SOL     OW26681   4.569   2.002   1.612
 3180SOL    HW126682   4.534   2.005   1.701
 3180SOL    HW226683   4.581   2.094   1.588
 3181SOL     OW26684   5.637   5.454   7.342
 3181SOL    HW126685   5.633   5.411   7.256
 3181SOL    HW226686   5.547   5.479   7.360
 3182SOL     OW26687   6.322   2.713   0.833
 3182SOL    HW126688   6.310   2.625   0.870
 3182SOL    HW226689   6.413   2.714   0.804
 3183SOL     OW26690   3.896   5.442   7.788
 3183SOL    HW126691   3.838   5.517   7.790
 3183SOL    HW226692   3.966   5.467   7.728
 3184SOL     OW26693   2.343   1.387   5.283
 3184SOL    HW126694   2.310   1.324   5.219
 3184SOL    HW226695   2.270   1.401   5.342
 3185SOL     OW26696   0.680   0.646   6.670
 3185SOL    HW126697   0.735   0.591   6.614
 3185SOL    HW226698   0.592   0.610   6.661
 3186SOL     OW26699   2.773   3.525   0.501
 3186SOL    HW126700   2.749   3.538   0.592
 3186SOL    HW226701   2.736   3.440   0.478
 3187SOL     OW26702   0.463   0.215   6.784
 3187SOL    HW126703   0.388   0.156   6.781
 3187SOL    HW226704   0.432   0.290   6.836
 3188SOL     OW26705   0.937   3.098   1.607
 3188SOL    HW126706   0.881   3.053   1.671
 3188SOL    HW226707   1.026   3.073   1.632
 3189SOL     OW26708   3.569   3.290   1.629
 3189SOL    HW126709   3.624   3.259   1.701
 3189SOL    HW226710   3.524   3.211   1.598
 3190SOL     OW26711   3.785   1.092   7.478
 3190SOL    HW126712   3.693   1.097   7.502
 3190SOL    HW226713   3.814   1.007   7.512
 3191SOL     OW26714   2.896   6.365   0.766
 3191SOL    HW126715   2.938   6.394   0.847
 3191SOL    HW226716   2.879   6.272   0.779
 3192SOL     OW26717   0.097   2.044   0.937
 3192SOL    HW126718   0.098   2.070   0.845
 3192SOL    HW226719   0.019   1.990   0.946
 3193SOL     OW26720   2.816   1.130   7.159
 3193SOL    HW126721   2.834   1.100   7.070
 3193SOL    HW226722   2.724   1.155   7.158
 3194SOL     OW26723   3.660   5.216   1.673
 3194SOL    HW126724   3.683   5.239   1.763
 3194SOL    HW226725   3.570   5.245   1.663
 3195SOL     OW26726   5.533   3.913   1.543
 3195SOL    HW126727   5.520   3.851   1.615
 3195SOL    HW226728   5.626   3.934   1.547
 3196SOL     OW26729   3.062   4.239   5.599
 3196SOL    HW126730   3.141   4.285   5.627
 3196SOL    HW226731   3.094   4.170   5.540
 3197SOL     OW26732   0.880   3.077   6.481
 3197SOL    HW126733   0.827   3.156   6.473
 3197SOL    HW226734   0.929   3.073   6.398
 3198SOL     OW26735   3.072   5.816   7.834
 3198SOL    HW126736   3.133   5.889   7.851
 3198SOL    HW226737   2.994   5.859   7.798
 3199SOL     OW26738   4.508   4.273   5.841
 3199SOL    HW126739   4.582   4.268   5.901
 3199SOL    HW226740   4.493   4.182   5.814
 3200SOL     OW26741   4.696   1.342   6.920
 3200SOL    HW126742   4.703   1.368   7.012
 3200SOL    HW226743   4.647   1.260   6.922
 3201SOL     OW26744   5.861   1.946   7.031
 3201SOL    HW126745   5.892   1.876   6.973
 3201SOL    HW226746   5.771   1.962   7.003
 3202SOL     OW26747   4.547   1.631   6.653
 3202SOL    HW126748   4.457   1.665   6.657
 3202SOL    HW226749   4.589   1.668   6.731
 3203SOL     OW26750   1.416   0.790   6.779
 3203SOL    HW126751   1.400   0.876   6.740
 3203SOL    HW226752   1.412   0.804   6.873
 3204SOL     OW26753   3.398   0.307   2.043
 3204SOL    HW126754   3.447   0.269   2.116
 3204SOL    HW226755   3.369   0.232   1.992
 3205SOL     OW26756   3.239   5.637   7.734
 3205SOL    HW126757   3.195   5.713   7.774
 3205SOL    HW226758   3.167   5.584   7.699
 3206SOL     OW26759   0.508   0.501   7.520
 3206SOL    HW126760   0.492   0.579   7.467
 3206SOL    HW226761   0.601   0.482   7.508
 3207SOL     OW26762   3.380   2.497   6.928
 3207SOL    HW126763   3.459   2.551   6.931
 3207SOL    HW226764   3.320   2.544   6.870
 3208SOL     OW26765   5.031   4.964   0.178
 3208SOL    HW126766   4.959   5.016   0.141
 3208SOL    HW226767   5.110   5.001   0.139
 3209SOL     OW26768   1.569   2.123   0.010
 3209SOL    HW126769   1.513   2.113   0.087
 3209SOL    HW226770   1.645   2.173   0.041
 3210SOL     OW26771   2.055   2.765   5.845
 3210SOL    HW126772   1.997   2.697   5.879
 3210SOL    HW226773   2.043   2.839   5.904
 3211SOL     OW26774   1.862   3.470   7.087
 3211SOL    HW126775   1.928   3.436   7.027
 3211SOL    HW226776   1.809   3.530   7.034
 3212SOL     OW26777   5.219   2.917   1.189
 3212SOL    HW126778   5.194   2.836   1.235
 3212SOL    HW226779   5.220   2.984   1.257
 3213SOL     OW26780   6.290   5.186   5.772
 3213SOL    HW126781   6.372   5.204   5.727
 3213SOL    HW226782   6.311   5.193   5.865
 3214SOL     OW26783   5.463   6.300   6.609
 3214SOL    HW126784   5.448   6.206   6.607
 3214SOL    HW226785   5.555   6.310   6.582
 3215SOL     OW26786   3.150   4.728   7.239
 3215SOL    HW126787   3.142   4.821   7.260
 3215SOL    HW226788   3.234   4.721   7.194
 3216SOL     OW26789   5.016   5.896   1.240
 3216SOL    HW126790   5.084   5.898   1.307
 3216SOL    HW226791   4.934   5.912   1.287
 3217SOL     OW26792   1.809   6.394   7.252
 3217SOL    HW126793   1.755   6.455   7.302
 3217SOL    HW226794   1.897   6.434   7.254
 3218SOL     OW26795   1.361   0.312   1.495
 3218SOL    HW126796   1.436   0.273   1.541
 3218SOL    HW226797   1.396   0.334   1.409
 3219SOL     OW26798   0.825   1.978   6.882
 3219SOL    HW126799   0.896   2.004   6.823
 3219SOL    HW226800   0.818   2.050   6.945
 3220SOL     OW26801   1.771   3.944   5.677
 3220SOL    HW126802   1.686   3.902   5.677
 3220SOL    HW226803   1.780   3.982   5.764
 3221SOL     OW26804   5.687   1.998   1.265
 3221SOL    HW126805   5.775   2.017   1.296
 3221SOL    HW226806   5.650   1.942   1.334
 3222SOL     OW26807   4.137   5.278   0.910
 3222SOL    HW126808   4.214   5.245   0.864
 3222SOL    HW226809   4.171   5.342   0.972
 3223SOL     OW26810   1.690   4.532   0.721
 3223SOL    HW126811   1.619   4.586   0.757
 3223SOL    HW226812   1.645   4.455   0.685
 3224SOL     OW26813   2.784   1.269   6.732
 3224SOL    HW126814   2.765   1.344   6.675
 3224SOL    HW226815   2.810   1.307   6.815
 3225SOL     OW26816   2.754   5.846   5.618
 3225SOL    HW126817   2.807   5.773   5.650
 3225SOL    HW226818   2.676   5.805   5.580
 3226SOL     OW26819   5.230   2.639   1.941
 3226SOL    HW126820   5.180   2.645   1.860
 3226SOL    HW226821   5.262   2.727   1.956
 3227SOL     OW26822   4.326   5.447   0.091
 3227SOL    HW126823   4.325   5.511   0.020
 3227SOL    HW226824   4.417   5.442   0.119
 3228SOL     OW26825   0.849   6.112   1.117
 3228SOL    HW126826   0.916   6.044   1.109
 3228SOL    HW226827   0.775   6.068   1.160
 3229SOL     OW26828   2.311   1.974   5.500
 3229SOL    HW126829   2.381   2.040   5.504
 3229SOL    HW226830   2.249   2.010   5.437
 3230SOL     OW26831   1.033   4.232   5.554
 3230SOL    HW126832   1.013   4.266   5.467
 3230SOL    HW226833   1.119   4.269   5.574
 3231SOL     OW26834   2.559   2.810   0.550
 3231SOL    HW126835   2.518   2.771   0.628
 3231SOL    HW226836   2.589   2.896   0.580
 3232SOL     OW26837   1.697   4.931   1.019
 3232SOL    HW126838   1.704   4.909   0.926
 3232SOL    HW226839   1.607   4.911   1.042
 3233SOL     OW26840   5.030   4.253   6.392
 3233SOL    HW126841   5.013   4.273   6.484
 3233SOL    HW226842   5.014   4.335   6.346
 3234SOL     OW26843   0.194   4.223   1.262
 3234SOL    HW126844   0.105   4.202   1.289
 3234SOL    HW226845   0.242   4.236   1.345
 3235SOL     OW26846   2.515   4.056   7.547
 3235SOL    HW126847   2.466   3.988   7.593
 3235SOL    HW226848   2.573   4.008   7.488
 3236SOL     OW26849   3.114   2.582   0.976
 3236SOL    HW126850   3.075   2.669   0.966
 3236SOL    HW226851   3.063   2.526   0.918
 3237SOL     OW26852   5.906   0.649   7.442
 3237SOL    HW126853   5.874   0.723   7.390
 3237SOL    HW226854   5.911   0.576   7.379
 3238SOL     OW26855   1.249   0.503   6.919
 3238SOL    HW126856   1.163   0.509   6.878
 3238SOL    HW226857   1.248   0.569   6.988
 3239SOL     OW26858   3.349   2.683   0.383
 3239SOL    HW126859   3.273   2.637   0.420
 3239SOL    HW226860   3.311   2.756   0.334
 3240SOL     OW26861   5.014   5.039   5.097
 3240SOL    HW126862   5.029   5.079   5.011
 3240SOL    HW226863   5.094   5.058   5.146
 3241SOL     OW26864   4.215   1.803   0.624
 3241SOL    HW126865   4.258   1.752   0.555
 3241SOL    HW226866   4.138   1.751   0.649
 3242SOL     OW26867   4.620   3.575   0.623
 3242SOL    HW126868   4.699   3.564   0.676
 3242SOL    HW226869   4.645   3.547   0.535
 3243SOL     OW26870   5.377   0.468   7.441
 3243SOL    HW126871   5.393   0.486   7.533
 3243SOL    HW226872   5.429   0.389   7.422
 3244SOL     OW26873   1.176   5.142   7.510
 3244SOL    HW126874   1.206   5.063   7.463
 3244SOL    HW226875   1.243   5.156   7.578
 3245SOL     OW26876   5.522   0.051   1.597
 3245SOL    HW126877   5.492   0.057   1.688
 3245SOL    HW226878   5.611   0.084   1.599
 3246SOL     OW26879   2.387   3.835   7.186
 3246SOL    HW126880   2.306   3.784   7.194
 3246SOL    HW226881   2.381   3.876   7.100
 3247SOL     OW26882   6.247   0.033   6.163
 3247SOL    HW126883   6.271   0.020   6.072
 3247SOL    HW226884   6.288   0.117   6.187
 3248SOL     OW26885   0.042   6.080   0.274
 3248SOL    HW126886   0.027   6.106   0.183
 3248SOL    HW226887   0.062   5.987   0.269
 3249SOL     OW26888   0.844   0.565   5.224
 3249SOL    HW126889   0.929   0.522   5.217
 3249SOL    HW226890   0.862   0.648   5.266
 3250SOL     OW26891   3.919   0.646   0.029
 3250SOL    HW126892   3.903   0.739   0.040
 3250SOL    HW226893   3.836   0.610  -0.002
 3251SOL     OW26894   4.347   2.930   7.619
 3251SOL    HW126895   4.439   2.955   7.625
 3251SOL    HW226896   4.342   2.845   7.661
 3252SOL     OW26897   5.600   4.367   5.412
 3252SOL    HW126898   5.597   4.407   5.325
 3252SOL    HW226899   5.615   4.274   5.395
 3253SOL     OW26900   3.479   4.450   0.261
 3253SOL    HW126901   3.390   4.417   0.247
 3253SOL    HW226902   3.469   4.545   0.266
 3254SOL     OW26903   5.279   5.965   0.531
 3254SOL    HW126904   5.280   5.937   0.623
 3254SOL    HW226905   5.369   5.955   0.502
 3255SOL     OW26906   3.574   2.043   7.371
 3255SOL    HW126907   3.646   2.009   7.318
 3255SOL    HW226908   3.602   2.028   7.462
 3256SOL     OW26909   0.483   2.486   0.760
 3256SOL    HW126910   0.398   2.507   0.723
 3256SOL    HW226911   0.492   2.392   0.750
 3257SOL     OW26912   3.249   5.199   0.830
 3257SOL    HW126913   3.238   5.151   0.748
 3257SOL    HW226914   3.211   5.285   0.813
 3258SOL     OW26915   1.618   3.330   5.466
 3258SOL    HW126916   1.559   3.278   5.412
 3258SOL    HW226917   1.667   3.383   5.404
 3259SOL     OW26918   4.890   4.894   5.887
 3259SOL    HW126919   4.844   4.976   5.871
 3259SOL    HW226920   4.837   4.848   5.951
 3260SOL     OW26921   4.446   2.361   0.071
 3260SOL    HW126922   4.457   2.281   0.019
 3260SOL    HW226923   4.355   2.356   0.102
 3261SOL     OW26924   1.335   3.066   1.543
 3261SOL    HW126925   1.272   3.050   1.613
 3261SOL    HW226926   1.384   3.144   1.573
 3262SOL     OW26927   4.552   1.951   0.776
 3262SOL    HW126928   4.492   1.987   0.710
 3262SOL    HW226929   4.600   2.027   0.809
 3263SOL     OW26930   0.926   5.235   7.472
 3263SOL    HW126931   0.942   5.313   7.419
 3263SOL    HW226932   1.013   5.205   7.498
 3264SOL     OW26933   4.229   3.740   7.199
 3264SOL    HW126934   4.255   3.806   7.136
 3264SOL    HW226935   4.308   3.688   7.215
 3265SOL     OW26936   3.503   5.487   1.156
 3265SOL    HW126937   3.549   5.568   1.175
 3265SOL    HW226938   3.558   5.443   1.091
 3266SOL     OW26939   4.693   3.318   0.380
 3266SOL    HW126940   4.732   3.402   0.358
 3266SOL    HW226941   4.710   3.263   0.303
 3267SOL     OW26942   1.846   1.870   1.530
 3267SOL    HW126943   1.864   1.904   1.443
 3267SOL    HW226944   1.893   1.786   1.534
 3268SOL     OW26945   5.395   3.665   0.884
 3268SOL    HW126946   5.435   3.585   0.852
 3268SOL    HW226947   5.431   3.734   0.829
 3269SOL     OW26948   0.896   3.796   5.363
 3269SOL    HW126949   0.893   3.805   5.268
 3269SOL    HW226950   0.859   3.877   5.397
 3270SOL     OW26951   0.147   4.287   1.015
 3270SOL    HW126952   0.186   4.269   1.100
 3270SOL    HW226953   0.110   4.204   0.986
 3271SOL     OW26954   0.890   5.520   5.074
 3271SOL    HW126955   0.850   5.490   5.156
 3271SOL    HW226956   0.961   5.458   5.058
 3272SOL     OW26957   1.840   1.017   7.822
 3272SOL    HW126958   1.848   1.102   7.864
 3272SOL    HW226959   1.830   0.955   7.895
 3273SOL     OW26960   4.386   6.206   6.095
 3273SOL    HW126961   4.465   6.259   6.087
 3273SOL    HW226962   4.373   6.169   6.008
 3274SOL     OW26963   4.483   3.292   0.682
 3274SOL    HW126964   4.555   3.354   0.693
 3274SOL    HW226965   4.521   3.206   0.702
 3275SOL     OW26966   3.263   1.176   6.670
 3275SOL    HW126967   3.334   1.154   6.731
 3275SOL    HW226968   3.307   1.183   6.585
 3276SOL     OW26969   5.724   5.233   0.955
 3276SOL    HW126970   5.647   5.205   1.006
 3276SOL    HW226971   5.790   5.252   1.021
 3277SOL     OW26972   3.775   1.844   2.402
 3277SOL    HW126973   3.805   1.880   2.319
 3277SOL    HW226974   3.680   1.850   2.398
 3278SOL     OW26975   1.229   2.340   0.820
 3278SOL    HW126976   1.156   2.307   0.873
 3278SOL    HW226977   1.200   2.329   0.730
 3279SOL     OW26978   3.733   2.558   2.263
 3279SOL    HW126979   3.741   2.537   2.170
 3279SOL    HW226980   3.755   2.651   2.268
 3280SOL     OW26981   0.183   2.930   7.202
 3280SOL    HW126982   0.209   2.926   7.294
 3280SOL    HW226983   0.198   2.842   7.169
 3281SOL     OW26984   3.826   3.208   0.848
 3281SOL    HW126985   3.875   3.222   0.929
 3281SOL    HW226986   3.893   3.195   0.781
 3282SOL     OW26987   5.211   0.705   0.263
 3282SOL    HW126988   5.177   0.616   0.275
 3282SOL    HW226989   5.246   0.705   0.174
 3283SOL     OW26990   1.680   2.015   6.178
 3283SOL    HW126991   1.686   1.942   6.239
 3283SOL    HW226992   1.587   2.016   6.151
 3284SOL     OW26993   0.766   1.878   7.537
 3284SOL    HW126994   0.814   1.810   7.586
 3284SOL    HW226995   0.675   1.847   7.537
 3285SOL     OW26996   4.326   3.300   7.595
 3285SOL    HW126997   4.291   3.385   7.623
 3285SOL    HW226998   4.260   3.266   7.535
 3286SOL     OW26999   5.072   3.110   7.343
 3286SOL    HW127000   4.980   3.115   7.369
 3286SOL    HW227001   5.103   3.029   7.384
 3287SOL     OW27002   5.988   0.583   6.584
 3287SOL    HW127003   5.976   0.592   6.489
 3287SOL    HW227004   6.083   0.577   6.595
 3288SOL     OW27005   5.968   0.069   4.943
 3288SOL    HW127006   5.895   0.124   4.917
 3288SOL    HW227007   5.930  -0.018   4.955
 3289SOL     OW27008   3.802   1.157   5.493
 3289SOL    HW127009   3.848   1.240   5.508
 3289SOL    HW227010   3.717   1.184   5.458
 3290SOL     OW27011   3.095   1.322   0.875
 3290SOL    HW127012   3.181   1.309   0.915
 3290SOL    HW227013   3.114   1.354   0.787
 3291SOL     OW27014   1.331   4.596   5.896
 3291SOL    HW127015   1.324   4.505   5.925
 3291SOL    HW227016   1.424   4.616   5.905
 3292SOL     OW27017   4.210   4.266   0.790
 3292SOL    HW127018   4.295   4.280   0.832
 3292SOL    HW227019   4.164   4.349   0.802
 3293SOL     OW27020   1.594   2.665   7.668
 3293SOL    HW127021   1.590   2.647   7.574
 3293SOL    HW227022   1.570   2.581   7.708
 3294SOL     OW27023   4.316   4.246   1.507
 3294SOL    HW127024   4.299   4.160   1.545
 3294SOL    HW227025   4.324   4.229   1.413
 3295SOL     OW27026   3.639   0.748   0.462
 3295SOL    HW127027   3.726   0.777   0.488
 3295SOL    HW227028   3.626   0.665   0.507
 3296SOL     OW27029   1.234   1.625   7.735
 3296SOL    HW127030   1.306   1.610   7.798
 3296SOL    HW227031   1.229   1.543   7.686
 3297SOL     OW27032   3.916   5.448   0.165
 3297SOL    HW127033   3.906   5.421   0.074
 3297SOL    HW227034   3.987   5.513   0.163
 3298SOL     OW27035   1.520   6.294   5.536
 3298SOL    HW127036   1.537   6.245   5.617
 3298SOL    HW227037   1.601   6.343   5.521
 3299SOL     OW27038   2.033   6.152   0.279
 3299SOL    HW127039   2.064   6.099   0.205
 3299SOL    HW227040   2.096   6.223   0.285
 3300SOL     OW27041   3.463   6.240   1.204
 3300SOL    HW127042   3.469   6.165   1.264
 3300SOL    HW227043   3.506   6.312   1.251
 3301SOL     OW27044   1.053   0.617   6.094
 3301SOL    HW127045   1.115   0.676   6.138
 3301SOL    HW227046   1.109   0.552   6.052
 3302SOL     OW27047   3.382   1.796   7.585
 3302SOL    HW127048   3.321   1.741   7.634
 3302SOL    HW227049   3.334   1.820   7.506
 3303SOL     OW27050   5.588   5.104   1.455
 3303SOL    HW127051   5.499   5.097   1.488
 3303SOL    HW227052   5.643   5.099   1.533
 3304SOL     OW27053   1.289   1.992   7.270
 3304SOL    HW127054   1.383   1.979   7.284
 3304SOL    HW227055   1.248   1.940   7.339
 3305SOL     OW27056   5.261   5.582   6.414
 3305SOL    HW127057   5.218   5.538   6.341
 3305SOL    HW227058   5.232   5.534   6.492
 3306SOL     OW27059   5.543   4.604   0.867
 3306SOL    HW127060   5.623   4.560   0.896
 3306SOL    HW227061   5.472   4.557   0.910
 3307SOL     OW27062   0.279   0.263   7.375
 3307SOL    HW127063   0.347   0.323   7.409
 3307SOL    HW227064   0.326   0.182   7.358
 3308SOL     OW27065   2.153   2.717   1.554
 3308SOL    HW127066   2.126   2.807   1.538
 3308SOL    HW227067   2.131   2.670   1.474
 3309SOL     OW27068   2.545   2.242   0.840
 3309SOL    HW127069   2.523   2.231   0.748
 3309SOL    HW227070   2.632   2.203   0.849
 3310SOL     OW27071   5.847   0.153   0.664
 3310SOL    HW127072   5.914   0.146   0.595
 3310SOL    HW227073   5.823   0.063   0.684
 3311SOL     OW27074   3.841   4.149   0.498
 3311SOL    HW127075   3.925   4.104   0.495
 3311SOL    HW227076   3.778   4.084   0.467
 3312SOL     OW27077   0.720   1.492   0.829
 3312SOL    HW127078   0.720   1.426   0.759
 3312SOL    HW227079   0.786   1.462   0.891
 3313SOL     OW27080   1.920   2.935   7.406
 3313SOL    HW127081   1.864   2.858   7.412
 3313SOL    HW227082   1.859   3.009   7.401
 3314SOL     OW27083   6.293   6.406   7.437
 3314SOL    HW127084   6.384   6.415   7.467
 3314SOL    HW227085   6.273   6.490   7.396
 3315SOL     OW27086   2.703   3.253   0.441
 3315SOL    HW127087   2.772   3.233   0.377
 3315SOL    HW227088   2.622   3.256   0.389
 3316SOL     OW27089   3.127   5.949   1.079
 3316SOL    HW127090   3.082   5.882   1.028
 3316SOL    HW227091   3.095   5.937   1.168
 3317SOL     OW27092   2.319   0.234   6.905
 3317SOL    HW127093   2.244   0.293   6.912
 3317SOL    HW227094   2.286   0.158   6.857
 3318SOL     OW27095   3.222   3.337   7.634
 3318SOL    HW127096   3.304   3.326   7.682
 3318SOL    HW227097   3.238   3.296   7.550
 3319SOL     OW27098   3.588   1.531   0.560
 3319SOL    HW127099   3.536   1.579   0.495
 3319SOL    HW227100   3.530   1.524   0.636
 3320SOL     OW27101   4.178   1.270   2.085
 3320SOL    HW127102   4.199   1.262   2.177
 3320SOL    HW227103   4.162   1.364   2.071
 3321SOL     OW27104   3.999   0.696   7.523
 3321SOL    HW127105   4.009   0.723   7.614
 3321SOL    HW227106   4.031   0.771   7.473
 3322SOL     OW27107   4.331   2.469   7.566
 3322SOL    HW127108   4.246   2.477   7.521
 3322SOL    HW227109   4.347   2.375   7.570
 3323SOL     OW27110   2.877   3.994   7.869
 3323SOL    HW127111   2.860   4.040   7.788
 3323SOL    HW227112   2.849   3.904   7.853
 3324SOL     OW27113   0.334   2.949   1.138
 3324SOL    HW127114   0.311   2.883   1.073
 3324SOL    HW227115   0.394   2.904   1.197
 3325SOL     OW27116   4.299   3.143   1.807
 3325SOL    HW127117   4.266   3.229   1.832
 3325SOL    HW227118   4.326   3.103   1.890
 3326SOL     OW27119   4.039   2.405   6.770
 3326SOL    HW127120   3.997   2.376   6.851
 3326SOL    HW227121   4.094   2.330   6.745
 3327SOL     OW27122   6.106   0.881   5.228
 3327SOL    HW127123   6.024   0.837   5.252
 3327SOL    HW227124   6.165   0.810   5.203
 3328SOL     OW27125   3.654   4.776   7.631
 3328SOL    HW127126   3.695   4.812   7.710
 3328SOL    HW227127   3.724   4.725   7.590
 3329SOL     OW27128   4.896   0.274   6.028
 3329SOL    HW127129   4.837   0.315   5.966
 3329SOL    HW227130   4.873   0.181   6.026
 3330SOL     OW27131   1.913   4.723   0.265
 3330SOL    HW127132   1.901   4.818   0.266
 3330SOL    HW227133   2.007   4.710   0.268
 3331SOL     OW27134   3.634   5.578   0.639
 3331SOL    HW127135   3.559   5.520   0.638
 3331SOL    HW227136   3.682   5.557   0.559
 3332SOL     OW27137   3.175   1.176   0.534
 3332SOL    HW127138   3.124   1.140   0.461
 3332SOL    HW227139   3.217   1.100   0.573
 3333SOL     OW27140   0.661   5.841   7.829
 3333SOL    HW127141   0.752   5.863   7.814
 3333SOL    HW227142   0.663   5.749   7.857
 3334SOL     OW27143   0.660   2.496   0.472
 3334SOL    HW127144   0.675   2.576   0.423
 3334SOL    HW227145   0.651   2.525   0.563
 3335SOL     OW27146   3.180   1.507   1.639
 3335SOL    HW127147   3.139   1.427   1.607
 3335SOL    HW227148   3.274   1.488   1.639
 3336SOL     OW27149   1.348   1.200   1.285
 3336SOL    HW127150   1.380   1.137   1.221
 3336SOL    HW227151   1.386   1.172   1.368
 3337SOL     OW27152   2.554   6.082   1.266
 3337SOL    HW127153   2.605   6.067   1.186
 3337SOL    HW227154   2.474   6.030   1.253
 3338SOL     OW27155   4.186   4.091   6.711
 3338SOL    HW127156   4.105   4.051   6.745
 3338SOL    HW227157   4.159   4.179   6.685
 3339SOL     OW27158   2.080   3.340   6.987
 3339SOL    HW127159   2.091   3.263   6.930
 3339SOL    HW227160   2.150   3.333   7.051
 3340SOL     OW27161   0.432   3.669   6.825
 3340SOL    HW127162   0.374   3.743   6.841
 3340SOL    HW227163   0.507   3.707   6.780
 3341SOL     OW27164   0.036   4.962   6.974
 3341SOL    HW127165   0.088   4.991   7.049
 3341SOL    HW227166   0.048   4.867   6.971
 3342SOL     OW27167   0.845   3.821   5.100
 3342SOL    HW127168   0.867   3.796   5.011
 3342SOL    HW227169   0.751   3.841   5.097
 3343SOL     OW27170   5.649   2.163   6.741
 3343SOL    HW127171   5.721   2.104   6.762
 3343SOL    HW227172   5.596   2.116   6.677
 3344SOL     OW27173   1.228   3.856   0.644
 3344SOL    HW127174   1.156   3.813   0.598
 3344SOL    HW227175   1.253   3.794   0.712
 3345SOL     OW27176   1.007   4.133   6.188
 3345SOL    HW127177   0.995   4.066   6.255
 3345SOL    HW227178   0.945   4.108   6.119
 3346SOL     OW27179   5.704   1.733   6.597
 3346SOL    HW127180   5.703   1.719   6.692
 3346SOL    HW227181   5.709   1.645   6.560
 3347SOL     OW27182   2.029   3.078   5.291
 3347SOL    HW127183   1.981   3.100   5.211
 3347SOL    HW227184   2.062   3.162   5.323
 3348SOL     OW27185   6.390   2.244   5.509
 3348SOL    HW127186   6.475   2.224   5.549
 3348SOL    HW227187   6.372   2.334   5.535
 3349SOL     OW27188   1.544   6.140   5.782
 3349SOL    HW127189   1.514   6.225   5.813
 3349SOL    HW227190   1.497   6.077   5.836
 3350SOL     OW27191   5.387   2.104   0.843
 3350SOL    HW127192   5.422   2.147   0.921
 3350SOL    HW227193   5.322   2.043   0.876
 3351SOL     OW27194   3.313   5.211   7.277
 3351SOL    HW127195   3.255   5.229   7.350
 3351SOL    HW227196   3.310   5.289   7.222
 3352SOL     OW27197   1.309   4.118   7.536
 3352SOL    HW127198   1.364   4.042   7.520
 3352SOL    HW227199   1.322   4.139   7.628
 3353SOL     OW27200   2.387   2.853   5.936
 3353SOL    HW127201   2.445   2.903   5.879
 3353SOL    HW227202   2.305   2.847   5.887
 3354SOL     OW27203   2.657   5.586   1.209
 3354SOL    HW127204   2.580   5.621   1.254
 3354SOL    HW227205   2.621   5.520   1.148
 3355SOL     OW27206   2.224   2.949   6.607
 3355SOL    HW127207   2.318   2.938   6.624
 3355SOL    HW227208   2.212   2.921   6.517
 3356SOL     OW27209   1.945   4.504   0.571
 3356SOL    HW127210   1.916   4.434   0.513
 3356SOL    HW227211   1.872   4.566   0.572
 3357SOL     OW27212   1.267   3.775   6.561
 3357SOL    HW127213   1.240   3.858   6.601
 3357SOL    HW227214   1.251   3.710   6.629
 3358SOL     OW27215   1.897   3.985   6.699
 3358SOL    HW127216   1.864   3.983   6.788
 3358SOL    HW227217   1.830   4.032   6.650
 3359SOL     OW27218   0.349   5.337   1.318
 3359SOL    HW127219   0.295   5.385   1.256
 3359SOL    HW227220   0.320   5.366   1.404
 3360SOL     OW27221   3.338   1.954   1.705
 3360SOL    HW127222   3.347   1.859   1.718
 3360SOL    HW227223   3.399   1.992   1.768
 3361SOL     OW27224   0.310   1.923   1.062
 3361SOL    HW127225   0.221   1.953   1.043
 3361SOL    HW227226   0.367   1.994   1.032
 3362SOL     OW27227   3.177   2.298   7.593
 3362SOL    HW127228   3.261   2.280   7.550
 3362SOL    HW227229   3.159   2.219   7.643
 3363SOL     OW27230   2.347   6.225   1.011
 3363SOL    HW127231   2.314   6.199   1.097
 3363SOL    HW227232   2.272   6.264   0.966
 3364SOL     OW27233   5.408   4.639   7.505
 3364SOL    HW127234   5.385   4.547   7.488
 3364SOL    HW227235   5.422   4.644   7.599
 3365SOL     OW27236   5.172   1.156   5.439
 3365SOL    HW127237   5.177   1.061   5.433
 3365SOL    HW227238   5.079   1.174   5.458
 3366SOL     OW27239   4.079   1.171   0.183
 3366SOL    HW127240   4.110   1.261   0.192
 3366SOL    HW227241   4.158   1.118   0.189
 3367SOL     OW27242   1.807   0.431   0.857
 3367SOL    HW127243   1.765   0.479   0.929
 3367SOL    HW227244   1.797   0.488   0.781
 3368SOL     OW27245   6.370   2.697   6.607
 3368SOL    HW127246   6.322   2.654   6.677
 3368SOL    HW227247   6.351   2.790   6.618
 3369SOL     OW27248   4.205   2.626   7.081
 3369SOL    HW127249   4.263   2.698   7.107
 3369SOL    HW227250   4.125   2.669   7.052
 3370SOL     OW27251   6.172   0.818   0.527
 3370SOL    HW127252   6.104   0.879   0.556
 3370SOL    HW227253   6.148   0.796   0.438
 3371SOL     OW27254   1.428   4.162   4.927
 3371SOL    HW127255   1.374   4.241   4.919
 3371SOL    HW227256   1.516   4.195   4.946
 3372SOL     OW27257   4.762   4.574   6.099
 3372SOL    HW127258   4.763   4.548   6.007
 3372SOL    HW227259   4.696   4.517   6.139
 3373SOL     OW27260   0.090   5.906   7.294
 3373SOL    HW127261   0.036   5.925   7.217
 3373SOL    HW227262   0.161   5.970   7.290
 3374SOL     OW27263   4.250   1.901   7.361
 3374SOL    HW127264   4.226   1.991   7.339
 3374SOL    HW227265   4.247   1.899   7.457
 3375SOL     OW27266   5.168   5.431   5.471
 3375SOL    HW127267   5.221   5.411   5.394
 3375SOL    HW227268   5.080   5.448   5.436
 3376SOL     OW27269   2.392   2.557   6.483
 3376SOL    HW127270   2.311   2.570   6.533
 3376SOL    HW227271   2.396   2.463   6.469
 3377SOL     OW27272   3.922   4.215   7.824
 3377SOL    HW127273   4.001   4.162   7.827
 3377SOL    HW227274   3.947   4.298   7.865
 3378SOL     OW27275   3.182   1.006   7.654
 3378SOL    HW127276   3.259   0.949   7.652
 3378SOL    HW227277   3.108   0.948   7.639
 3379SOL     OW27278   2.162   2.611   6.626
 3379SOL    HW127279   2.201   2.622   6.713
 3379SOL    HW227280   2.081   2.663   6.629
 3380SOL     OW27281   3.356   1.338   5.956
 3380SOL    HW127282   3.426   1.351   5.892
 3380SOL    HW227283   3.282   1.385   5.919
 3381SOL     OW27284   5.752   2.322   7.455
 3381SOL    HW127285   5.767   2.379   7.532
 3381SOL    HW227286   5.815   2.251   7.467
 3382SOL     OW27287   2.143   1.240   6.208
 3382SOL    HW127288   2.216   1.217   6.265
 3382SOL    HW227289   2.164   1.200   6.123
 3383SOL     OW27290   4.357   3.037   1.221
 3383SOL    HW127291   4.304   3.105   1.261
 3383SOL    HW227292   4.347   2.962   1.280
 3384SOL     OW27293   3.892   1.349   0.978
 3384SOL    HW127294   3.832   1.362   0.904
 3384SOL    HW227295   3.971   1.312   0.939
 3385SOL     OW27296   1.277   4.270   7.079
 3385SOL    HW127297   1.283   4.185   7.123
 3385SOL    HW227298   1.310   4.254   6.991
 3386SOL     OW27299   6.238   4.314   0.090
 3386SOL    HW127300   6.190   4.395   0.078
 3386SOL    HW227301   6.213   4.283   0.177
 3387SOL     OW27302   1.876   2.620   7.452
 3387SOL    HW127303   1.911   2.572   7.527
 3387SOL    HW227304   1.933   2.595   7.379
 3388SOL     OW27305   5.196   1.045   1.945
 3388SOL    HW127306   5.112   1.044   1.992
 3388SOL    HW227307   5.210   0.954   1.920
 3389SOL     OW27308   5.383   3.527   7.803
 3389SOL    HW127309   5.322   3.460   7.833
 3389SOL    HW227310   5.340   3.567   7.727
 3390SOL     OW27311   0.566   5.097   0.626
 3390SOL    HW127312   0.584   5.046   0.547
 3390SOL    HW227313   0.491   5.053   0.667
 3391SOL     OW27314   5.248   1.946   6.363
 3391SOL    HW127315   5.248   2.040   6.376
 3391SOL    HW227316   5.234   1.909   6.450
 3392SOL     OW27317   6.311   0.371   5.276
 3392SOL    HW127318   6.389   0.316   5.280
 3392SOL    HW227319   6.249   0.328   5.336
 3393SOL     OW27320   3.650   2.564   0.444
 3393SOL    HW127321   3.647   2.609   0.528
 3393SOL    HW227322   3.560   2.566   0.412
 3394SOL     OW27323   5.149   1.494   6.953
 3394SOL    HW127324   5.123   1.426   7.015
 3394SOL    HW227325   5.071   1.509   6.899
 3395SOL     OW27326   2.748   3.947   0.793
 3395SOL    HW127327   2.711   3.912   0.712
 3395SOL    HW227328   2.798   3.875   0.830
 3396SOL     OW27329   5.617   1.444   7.878
 3396SOL    HW127330   5.700   1.410   7.842
 3396SOL    HW227331   5.587   1.375   7.937
 3397SOL     OW27332   4.069   5.113   5.565
 3397SOL    HW127333   4.068   5.207   5.577
 3397SOL    HW227334   4.156   5.094   5.530
 3398SOL     OW27335   5.820   1.351   7.497
 3398SOL    HW127336   5.866   1.426   7.458
 3398SOL    HW227337   5.838   1.359   7.591
 3399SOL     OW27338   5.098   3.462   5.980
 3399SOL    HW127339   5.037   3.398   5.945
 3399SOL    HW227340   5.077   3.468   6.073
 3400SOL     OW27341   2.236   1.108   0.130
 3400SOL    HW127342   2.329   1.106   0.106
 3400SOL    HW227343   2.210   1.016   0.132
 3401SOL     OW27344   0.915   2.678   7.055
 3401SOL    HW127345   1.006   2.704   7.039
 3401SOL    HW227346   0.897   2.612   6.988
 3402SOL     OW27347   1.043   0.092   6.783
 3402SOL    HW127348   1.074   0.101   6.874
 3402SOL    HW227349   0.949   0.076   6.791
 3403SOL     OW27350   6.302   0.236   1.870
 3403SOL    HW127351   6.260   0.204   1.950
 3403SOL    HW227352   6.290   0.330   1.872
 3404SOL     OW27353   2.301   2.863   0.808
 3404SOL    HW127354   2.258   2.808   0.873
 3404SOL    HW227355   2.394   2.846   0.820
 3405SOL     OW27356   4.242   3.841   0.088
 3405SOL    HW127357   4.203   3.859   0.002
 3405SOL    HW227358   4.284   3.755   0.078
 3406SOL     OW27359   5.171   2.684   1.332
 3406SOL    HW127360   5.190   2.612   1.271
 3406SOL    HW227361   5.165   2.642   1.418
 3407SOL     OW27362   6.303   3.816   7.258
 3407SOL    HW127363   6.295   3.911   7.266
 3407SOL    HW227364   6.224   3.789   7.212
 3408SOL     OW27365   6.267   6.269   7.208
 3408SOL    HW127366   6.178   6.253   7.177
 3408SOL    HW227367   6.257   6.295   7.299
 3409SOL     OW27368   3.804   5.730   7.830
 3409SOL    HW127369   3.726   5.765   7.872
 3409SOL    HW227370   3.872   5.796   7.848
 3410SOL     OW27371   0.124   3.934   6.464
 3410SOL    HW127372   0.071   3.921   6.543
 3410SOL    HW227373   0.187   4.002   6.488
 3411SOL     OW27374   2.149   1.900   1.457
 3411SOL    HW127375   2.118   1.857   1.536
 3411SOL    HW227376   2.241   1.918   1.475
 3412SOL     OW27377   2.311   4.630   1.309
 3412SOL    HW127378   2.246   4.587   1.365
 3412SOL    HW227379   2.274   4.623   1.220
 3413SOL     OW27380   3.463   2.545   0.150
 3413SOL    HW127381   3.477   2.463   0.196
 3413SOL    HW227382   3.411   2.598   0.211
 3414SOL     OW27383   5.373   2.559   6.549
 3414SOL    HW127384   5.455   2.600   6.576
 3414SOL    HW227385   5.346   2.610   6.472
 3415SOL     OW27386   6.294   4.955   1.704
 3415SOL    HW127387   6.241   4.876   1.691
 3415SOL    HW227388   6.378   4.923   1.735
 3416SOL     OW27389   3.973   4.440   6.790
 3416SOL    HW127390   3.979   4.356   6.743
 3416SOL    HW227391   3.888   4.476   6.762
 3417SOL     OW27392   5.386   4.896   7.684
 3417SOL    HW127393   5.377   4.918   7.592
 3417SOL    HW227394   5.478   4.913   7.704
 3418SOL     OW27395   0.569   3.483   5.350
 3418SOL    HW127396   0.623   3.433   5.411
 3418SOL    HW227397   0.603   3.461   5.263
 3419SOL     OW27398   1.624   5.209   7.375
 3419SOL    HW127399   1.668   5.176   7.453
 3419SOL    HW227400   1.630   5.137   7.312
 3420SOL     OW27401   0.033   4.978   0.774
 3420SOL    HW127402   0.070   4.890   0.767
 3420SOL    HW227403  -0.024   4.975   0.851
 3421SOL     OW27404   5.434   2.494   7.607
 3421SOL    HW127405   5.502   2.458   7.663
 3421SOL    HW227406   5.435   2.588   7.626
 3422SOL     OW27407   5.495   5.641   0.082
 3422SOL    HW127408   5.401   5.640   0.098
 3422SOL    HW227409   5.505   5.689   0.000
 3423SOL     OW27410   4.374   0.181   0.593
 3423SOL    HW127411   4.367   0.248   0.526
 3423SOL    HW227412   4.434   0.219   0.658
 3424SOL     OW27413   6.042   0.079   1.596
 3424SOL    HW127414   6.040   0.010   1.530
 3424SOL    HW227415   6.098   0.044   1.666
 3425SOL     OW27416   2.947   0.797   6.523
 3425SOL    HW127417   2.869   0.742   6.518
 3425SOL    HW227418   2.954   0.820   6.616
 3426SOL     OW27419   2.056   0.074   7.262
 3426SOL    HW127420   2.102   0.153   7.288
 3426SOL    HW227421   2.113   0.033   7.197
 3427SOL     OW27422   4.500   2.253   1.525
 3427SOL    HW127423   4.553   2.321   1.484
 3427SOL    HW227424   4.461   2.296   1.601
 3428SOL     OW27425   4.862   3.234   6.438
 3428SOL    HW127426   4.842   3.145   6.468
 3428SOL    HW227427   4.905   3.222   6.354
 3429SOL     OW27428   3.523   2.291   0.536
 3429SOL    HW127429   3.465   2.348   0.587
 3429SOL    HW227430   3.610   2.330   0.548
 3430SOL     OW27431   4.403   4.292   1.171
 3430SOL    HW127432   4.445   4.276   1.086
 3430SOL    HW227433   4.429   4.217   1.224
 3431SOL     OW27434   5.204   4.510   1.592
 3431SOL    HW127435   5.275   4.574   1.593
 3431SOL    HW227436   5.204   4.474   1.681
 3432SOL     OW27437   1.970   4.342   2.093
 3432SOL    HW127438   1.913   4.394   2.150
 3432SOL    HW227439   2.035   4.304   2.153
 3433SOL     OW27440   5.014   3.695   0.604
 3433SOL    HW127441   5.035   3.611   0.563
 3433SOL    HW227442   5.052   3.688   0.692
 3434SOL     OW27443   1.009   2.196   0.884
 3434SOL    HW127444   0.941   2.133   0.859
 3434SOL    HW227445   0.994   2.212   0.977
 3435SOL     OW27446   5.301   3.232   6.775
 3435SOL    HW127447   5.342   3.260   6.857
 3435SOL    HW227448   5.211   3.265   6.781
 3436SOL     OW27449   3.299   3.316   0.920
 3436SOL    HW127450   3.300   3.302   1.014
 3436SOL    HW227451   3.392   3.327   0.897
 3437SOL     OW27452   1.880   4.249   5.582
 3437SOL    HW127453   1.961   4.199   5.572
 3437SOL    HW227454   1.859   4.279   5.494
 3438SOL     OW27455   4.414   4.320   6.789
 3438SOL    HW127456   4.369   4.299   6.871
 3438SOL    HW227457   4.506   4.329   6.813
 3439SOL     OW27458   1.313   1.951   7.836
 3439SOL    HW127459   1.364   2.008   7.894
 3439SOL    HW227460   1.250   1.907   7.895
 3440SOL     OW27461   0.692   3.226   7.305
 3440SOL    HW127462   0.701   3.209   7.399
 3440SOL    HW227463   0.758   3.169   7.264
 3441SOL     OW27464   2.947   3.332   6.829
 3441SOL    HW127465   3.038   3.341   6.800
 3441SOL    HW227466   2.909   3.267   6.770
 3442SOL     OW27467   0.247   1.824   0.196
 3442SOL    HW127468   0.320   1.790   0.248
 3442SOL    HW227469   0.169   1.783   0.235
 3443SOL     OW27470   0.874   1.435   6.222
 3443SOL    HW127471   0.800   1.420   6.282
 3443SOL    HW227472   0.942   1.473   6.277
 3444SOL     OW27473   5.189   4.544   0.294
 3444SOL    HW127474   5.218   4.553   0.203
 3444SOL    HW227475   5.270   4.538   0.345
 3445SOL     OW27476   5.889   2.537   1.237
 3445SOL    HW127477   5.947   2.568   1.168
 3445SOL    HW227478   5.878   2.613   1.295
 3446SOL     OW27479   1.309   3.416   0.579
 3446SOL    HW127480   1.332   3.505   0.553
 3446SOL    HW227481   1.216   3.407   0.557
 3447SOL     OW27482   1.573   3.069   6.637
 3447SOL    HW127483   1.639   3.067   6.568
 3447SOL    HW227484   1.596   2.997   6.695
 3448SOL     OW27485   2.257   3.985   6.965
 3448SOL    HW127486   2.263   4.079   6.948
 3448SOL    HW227487   2.163   3.967   6.970
 3449SOL     OW27488   2.316   5.334   6.523
 3449SOL    HW127489   2.319   5.264   6.588
 3449SOL    HW227490   2.243   5.310   6.466
 3450SOL     OW27491   0.816   1.475   5.968
 3450SOL    HW127492   0.834   1.458   6.061
 3450SOL    HW227493   0.896   1.517   5.935
 3451SOL     OW27494   2.899   3.756   0.892
 3451SOL    HW127495   2.958   3.825   0.922
 3451SOL    HW227496   2.918   3.682   0.950
 3452SOL     OW27497   1.831   0.279   7.602
 3452SOL    HW127498   1.802   0.193   7.632
 3452SOL    HW227499   1.907   0.300   7.656
 3453SOL     OW27500   3.458   4.641   0.887
 3453SOL    HW127501   3.386   4.582   0.863
 3453SOL    HW227502   3.537   4.594   0.859
 3454SOL     OW27503   0.672   4.032   0.371
 3454SOL    HW127504   0.702   3.963   0.431
 3454SOL    HW227505   0.578   4.016   0.363
 3455SOL     OW27506   2.423   3.335   1.637
 3455SOL    HW127507   2.436   3.241   1.620
 3455SOL    HW227508   2.429   3.343   1.732
 3456SOL     OW27509   5.478   4.316   6.807
 3456SOL    HW127510   5.473   4.403   6.846
 3456SOL    HW227511   5.422   4.262   6.861
 3457SOL     OW27512   1.819   1.988   1.267
 3457SOL    HW127513   1.779   2.072   1.292
 3457SOL    HW227514   1.786   1.971   1.179
 3458SOL     OW27515   0.338   1.401   7.137
 3458SOL    HW127516   0.266   1.368   7.084
 3458SOL    HW227517   0.343   1.494   7.117
 3459SOL     OW27518   4.151   4.624   0.080
 3459SOL    HW127519   4.214   4.691   0.106
 3459SOL    HW227520   4.145   4.567   0.157
 3460SOL     OW27521   4.047   3.140   6.263
 3460SOL    HW127522   4.112   3.122   6.196
 3460SOL    HW227523   4.066   3.076   6.332
 3461SOL     OW27524   1.657   0.399   6.660
 3461SOL    HW127525   1.588   0.418   6.723
 3461SOL    HW227526   1.695   0.484   6.638
 3462SOL     OW27527   5.524   0.385   0.134
 3462SOL    HW127528   5.431   0.403   0.124
 3462SOL    HW227529   5.531   0.340   0.218
 3463SOL     OW27530   0.300   6.002   0.057
 3463SOL    HW127531   0.354   5.923   0.066
 3463SOL    HW227532   0.230   5.977  -0.004
 3464SOL     OW27533   5.452   4.674   0.158
 3464SOL    HW127534   5.498   4.615   0.218
 3464SOL    HW227535   5.452   4.759   0.204
 3465SOL     OW27536   3.779   5.348   7.482
 3465SOL    HW127537   3.713   5.380   7.543
 3465SOL    HW227538   3.817   5.427   7.443
 3466SOL     OW27539   2.558   2.805   7.773
 3466SOL    HW127540   2.631   2.743   7.772
 3466SOL    HW227541   2.519   2.794   7.860
 3467SOL     OW27542   4.886   3.650   7.469
 3467SOL    HW127543   4.795   3.621   7.474
 3467SOL    HW227544   4.908   3.677   7.558
 3468SOL     OW27545   5.110   1.450   7.752
 3468SOL    HW127546   5.130   1.539   7.781
 3468SOL    HW227547   5.038   1.461   7.689
 3469SOL     OW27548   0.689   4.487   1.586
 3469SOL    HW127549   0.693   4.451   1.497
 3469SOL    HW227550   0.597   4.478   1.611
 3470SOL     OW27551   2.715   2.206   5.845
 3470SOL    HW127552   2.706   2.226   5.938
 3470SOL    HW227553   2.659   2.130   5.831
 3471SOL     OW27554   5.011   1.594   1.045
 3471SOL    HW127555   5.081   1.584   0.981
 3471SOL    HW227556   4.938   1.630   0.994
 3472SOL     OW27557   5.108   4.555   6.640
 3472SOL    HW127558   5.195   4.578   6.607
 3472SOL    HW227559   5.053   4.630   6.617
 3473SOL     OW27560   3.728   4.321   7.675
 3473SOL    HW127561   3.672   4.351   7.747
 3473SOL    HW227562   3.787   4.257   7.716
 3474SOL     OW27563   4.227   0.541   6.048
 3474SOL    HW127564   4.255   0.606   6.112
 3474SOL    HW227565   4.303   0.529   5.991
 3475SOL     OW27566   5.599   4.078   0.616
 3475SOL    HW127567   5.685   4.047   0.587
 3475SOL    HW227568   5.609   4.173   0.624
 3476SOL     OW27569   3.036   1.908   7.181
 3476SOL    HW127570   3.029   1.818   7.147
 3476SOL    HW227571   3.054   1.896   7.275
 3477SOL     OW27572   3.704   6.080   0.691
 3477SOL    HW127573   3.748   6.041   0.767
 3477SOL    HW227574   3.613   6.053   0.700
 3478SOL     OW27575   5.143   1.624   6.341
 3478SOL    HW127576   5.200   1.621   6.418
 3478SOL    HW227577   5.098   1.540   6.340
 3479SOL     OW27578   1.201   0.648   5.496
 3479SOL    HW127579   1.233   0.565   5.461
 3479SOL    HW227580   1.191   0.704   5.419
 3480SOL     OW27581   0.578   2.108   1.213
 3480SOL    HW127582   0.521   2.087   1.287
 3480SOL    HW227583   0.519   2.152   1.151
 3481SOL     OW27584   0.082   5.808   0.221
 3481SOL    HW127585   0.142   5.789   0.149
 3481SOL    HW227586   0.046   5.723   0.246
 3482SOL     OW27587   6.243   1.123   5.773
 3482SOL    HW127588   6.282   1.206   5.800
 3482SOL    HW227589   6.154   1.146   5.747
 3483SOL     OW27590   6.387   4.085   0.062
 3483SOL    HW127591   6.326   4.158   0.048
 3483SOL    HW227592   6.399   4.047  -0.026
 3484SOL     OW27593   0.789   4.221   0.028
 3484SOL    HW127594   0.818   4.148   0.083
 3484SOL    HW227595   0.696   4.230   0.046
 3485SOL     OW27596   0.130   4.445   6.924
 3485SOL    HW127597   0.073   4.392   6.869
 3485SOL    HW227598   0.189   4.489   6.862
 3486SOL     OW27599   1.505   5.428   0.203
 3486SOL    HW127600   1.557   5.391   0.132
 3486SOL    HW227601   1.566   5.433   0.277
 3487SOL     OW27602   2.500   3.497   0.245
 3487SOL    HW127603   2.459   3.451   0.318
 3487SOL    HW227604   2.462   3.585   0.248
 3488SOL     OW27605   0.161   0.960   6.054
 3488SOL    HW127606   0.227   1.001   5.997
 3488SOL    HW227607   0.101   0.916   5.994
 3489SOL     OW27608   1.764   6.235   0.214
 3489SOL    HW127609   1.830   6.222   0.283
 3489SOL    HW227610   1.756   6.149   0.173
 3490SOL     OW27611   1.258   1.029   6.387
 3490SOL    HW127612   1.244   0.957   6.325
 3490SOL    HW227613   1.182   1.086   6.375
 3491SOL     OW27614   0.986   2.017   0.259
 3491SOL    HW127615   0.977   2.112   0.247
 3491SOL    HW227616   0.905   1.981   0.224
 3492SOL     OW27617   1.221   5.896   1.013
 3492SOL    HW127618   1.240   5.947   1.092
 3492SOL    HW227619   1.194   5.811   1.045
 3493SOL     OW27620   4.136   2.162   7.352
 3493SOL    HW127621   4.045   2.132   7.345
 3493SOL    HW227622   4.131   2.257   7.341
 3494SOL     OW27623   5.090   0.175   7.023
 3494SOL    HW127624   5.116   0.229   6.948
 3494SOL    HW227625   5.173   0.148   7.062
 3495SOL     OW27626   3.316   1.730   7.228
 3495SOL    HW127627   3.401   1.687   7.236
 3495SOL    HW227628   3.337   1.823   7.216
 3496SOL     OW27629   5.934   5.958   6.779
 3496SOL    HW127630   5.963   5.879   6.825
 3496SOL    HW227631   6.005   6.021   6.793
 3497SOL     OW27632  -0.001   0.738   1.684
 3497SOL    HW127633   0.073   0.796   1.706
 3497SOL    HW227634  -0.059   0.744   1.760
 3498SOL     OW27635   1.209   0.523   7.627
 3498SOL    HW127636   1.117   0.505   7.643
 3498SOL    HW227637   1.251   0.511   7.713
 3499SOL     OW27638   4.277   0.399   0.405
 3499SOL    HW127639   4.350   0.459   0.387
 3499SOL    HW227640   4.234   0.437   0.482
 3500SOL     OW27641   6.209   1.955   7.268
 3500SOL    HW127642   6.122   1.927   7.239
 3500SOL    HW227643   6.210   1.935   7.362
 3501SOL     OW27644   2.556   0.306   6.262
 3501SOL    HW127645   2.541   0.363   6.338
 3501SOL    HW227646   2.646   0.325   6.235
 3502SOL     OW27647   0.527   5.285   5.373
 3502SOL    HW127648   0.597   5.338   5.334
 3502SOL    HW227649   0.573   5.218   5.423
 3503SOL     OW27650   1.791   4.905   2.240
 3503SOL    HW127651   1.738   4.834   2.277
 3503SOL    HW227652   1.830   4.868   2.161
 3504SOL     OW27653   4.881   2.937   6.859
 3504SOL    HW127654   4.833   2.927   6.777
 3504SOL    HW227655   4.818   2.912   6.927
 3505SOL     OW27656   3.934   0.475   1.624
 3505SOL    HW127657   4.004   0.524   1.667
 3505SOL    HW227658   3.959   0.383   1.636
 3506SOL     OW27659   3.669   4.818   6.188
 3506SOL    HW127660   3.745   4.761   6.176
 3506SOL    HW227661   3.603   4.762   6.228
 3507SOL     OW27662   2.248   1.684   0.563
 3507SOL    HW127663   2.197   1.646   0.491
 3507SOL    HW227664   2.326   1.719   0.519
 3508SOL     OW27665   3.816   1.417   0.443
 3508SOL    HW127666   3.734   1.454   0.475
 3508SOL    HW227667   3.790   1.338   0.395
 3509SOL     OW27668   3.408   1.094   0.168
 3509SOL    HW127669   3.417   1.170   0.226
 3509SOL    HW227670   3.445   1.021   0.218
 3510SOL     OW27671   6.393   3.815   7.635
 3510SOL    HW127672   6.298   3.822   7.641
 3510SOL    HW227673   6.425   3.904   7.655
 3511SOL     OW27674   1.044   5.344   0.201
 3511SOL    HW127675   1.043   5.309   0.112
 3511SOL    HW227676   1.111   5.412   0.199
 3512SOL     OW27677   2.884   4.911   1.759
 3512SOL    HW127678   2.850   4.889   1.846
 3512SOL    HW227679   2.894   4.826   1.716
 3513SOL     OW27680   1.011   0.782   1.544
 3513SOL    HW127681   0.930   0.734   1.526
 3513SOL    HW227682   1.041   0.748   1.628
 3514SOL     OW27683   0.093   0.051   0.574
 3514SOL    HW127684   0.081   0.052   0.479
 3514SOL    HW227685   0.176   0.095   0.589
 3515SOL     OW27686   4.277   5.862   7.561
 3515SOL    HW127687   4.282   5.956   7.577
 3515SOL    HW227688   4.244   5.854   7.472
 3516SOL     OW27689   5.508   4.304   0.861
 3516SOL    HW127690   5.470   4.304   0.949
 3516SOL    HW227691   5.594   4.342   0.872
 3517SOL     OW27692   0.073   4.597   5.089
 3517SOL    HW127693   0.122   4.639   5.018
 3517SOL    HW227694  -0.019   4.612   5.067
 3518SOL     OW27695   1.351   5.603   6.886
 3518SOL    HW127696   1.268   5.573   6.848
 3518SOL    HW227697   1.327   5.631   6.974
 3519SOL     OW27698   4.780   6.424   0.839
 3519SOL    HW127699   4.872   6.399   0.843
 3519SOL    HW227700   4.738   6.352   0.790
 3520SOL     OW27701   3.301   1.689   0.018
 3520SOL    HW127702   3.271   1.607   0.055
 3520SOL    HW227703   3.396   1.688   0.028
 3521SOL     OW27704   2.817   4.387   5.699
 3521SOL    HW127705   2.829   4.473   5.659
 3521SOL    HW227706   2.905   4.363   5.728
 3522SOL     OW27707   3.588   3.993   0.580
 3522SOL    HW127708   3.608   4.030   0.666
 3522SOL    HW227709   3.530   3.918   0.598
 3523SOL     OW27710   4.947   2.207   0.690
 3523SOL    HW127711   5.024   2.152   0.675
 3523SOL    HW227712   4.982   2.291   0.718
 3524SOL     OW27713   4.584   5.590   6.836
 3524SOL    HW127714   4.577   5.502   6.873
 3524SOL    HW227715   4.670   5.592   6.794
 3525SOL     OW27716   6.284   1.174   7.518
 3525SOL    HW127717   6.208   1.210   7.564
 3525SOL    HW227718   6.359   1.215   7.559
 3526SOL     OW27719   5.745   2.980   6.417
 3526SOL    HW127720   5.799   2.901   6.416
 3526SOL    HW227721   5.681   2.967   6.347
 3527SOL     OW27722   6.046   2.116   6.907
 3527SOL    HW127723   6.020   2.206   6.929
 3527SOL    HW227724   5.990   2.062   6.963
 3528SOL     OW27725   3.196   0.792   6.941
 3528SOL    HW127726   3.199   0.887   6.957
 3528SOL    HW227727   3.287   0.767   6.928
 3529SOL     OW27728   1.126   6.240   5.473
 3529SOL    HW127729   1.173   6.316   5.507
 3529SOL    HW227730   1.093   6.195   5.551
 3530SOL     OW27731   3.412   6.351   7.395
 3530SOL    HW127732   3.410   6.373   7.488
 3530SOL    HW227733   3.502   6.320   7.380
 3531SOL     OW27734   6.068   1.345   0.608
 3531SOL    HW127735   6.024   1.261   0.612
 3531SOL    HW227736   6.160   1.324   0.592
 3532SOL     OW27737   6.278   5.930   6.467
 3532SOL    HW127738   6.288   5.981   6.548
 3532SOL    HW227739   6.212   5.864   6.488
 3533SOL     OW27740   6.196   0.990   6.432
 3533SOL    HW127741   6.207   0.907   6.478
 3533SOL    HW227742   6.248   0.981   6.352
 3534SOL     OW27743   0.437   1.759   0.402
 3534SOL    HW127744   0.449   1.842   0.448
 3534SOL    HW227745   0.442   1.692   0.470
 3535SOL     OW27746   0.185   3.899   0.174
 3535SOL    HW127747   0.127   3.962   0.131
 3535SOL    HW227748   0.179   3.820   0.120
 3536SOL     OW27749   1.983   2.678   6.221
 3536SOL    HW127750   1.914   2.697   6.158
 3536SOL    HW227751   2.020   2.595   6.192
 3537SOL     OW27752   4.999   4.688   0.079
 3537SOL    HW127753   5.039   4.772   0.098
 3537SOL    HW227754   5.072   4.625   0.083
 3538SOL     OW27755   4.138   3.654   7.478
 3538SOL    HW127756   4.104   3.571   7.444
 3538SOL    HW227757   4.151   3.708   7.401
 3539SOL     OW27758   5.398   1.292   5.495
 3539SOL    HW127759   5.448   1.270   5.416
 3539SOL    HW227760   5.308   1.266   5.474
 3540SOL     OW27761   2.633   5.627   5.959
 3540SOL    HW127762   2.564   5.684   5.926
 3540SOL    HW227763   2.626   5.632   6.054
 3541SOL     OW27764   4.651   0.935   6.285
 3541SOL    HW127765   4.600   0.923   6.206
 3541SOL    HW227766   4.667   1.030   6.290
 3542SOL     OW27767   0.156   3.297   6.087
 3542SOL    HW127768   0.191   3.243   6.157
 3542SOL    HW227769   0.229   3.309   6.027
 3543SOL     OW27770   1.337   2.784   6.464
 3543SOL    HW127771   1.305   2.806   6.551
 3543SOL    HW227772   1.264   2.740   6.422
 3544SOL     OW27773   0.255   5.041   7.345
 3544SOL    HW127774   0.238   4.992   7.426
 3544SOL    HW227775   0.308   5.115   7.373
 3545SOL     OW27776   1.292   0.944   0.113
 3545SOL    HW127777   1.212   0.891   0.116
 3545SOL    HW227778   1.267   1.021   0.062
 3546SOL     OW27779   1.649   2.277   7.381
 3546SOL    HW127780   1.601   2.200   7.412
 3546SOL    HW227781   1.706   2.300   7.455
 3547SOL     OW27782   3.455   5.303   0.551
 3547SOL    HW127783   3.394   5.239   0.514
 3547SOL    HW227784   3.459   5.373   0.485
 3548SOL     OW27785   5.215   2.157   6.505
 3548SOL    HW127786   5.260   2.224   6.555
 3548SOL    HW227787   5.150   2.121   6.565
 3549SOL     OW27788   4.474   6.043   0.128
 3549SOL    HW127789   4.459   5.949   0.117
 3549SOL    HW227790   4.387   6.079   0.146
 3550SOL     OW27791   6.099   5.389   0.454
 3550SOL    HW127792   6.099   5.340   0.371
 3550SOL    HW227793   6.100   5.322   0.522
 3551SOL     OW27794   1.892   1.174   1.698
 3551SOL    HW127795   1.981   1.159   1.667
 3551SOL    HW227796   1.901   1.239   1.768
 3552SOL     OW27797   2.765   5.011   1.545
 3552SOL    HW127798   2.732   5.090   1.588
 3552SOL    HW227799   2.818   4.968   1.612
 3553SOL     OW27800   4.805   1.036   0.707
 3553SOL    HW127801   4.750   1.025   0.629
 3553SOL    HW227802   4.747   1.073   0.772
 3554SOL     OW27803   4.830   1.609   5.680
 3554SOL    HW127804   4.840   1.570   5.767
 3554SOL    HW227805   4.884   1.555   5.623
 3555SOL     OW27806   4.466   6.174   7.426
 3555SOL    HW127807   4.501   6.243   7.370
 3555SOL    HW227808   4.534   6.161   7.493
 3556SOL     OW27809   5.681   2.844   0.898
 3556SOL    HW127810   5.592   2.815   0.915
 3556SOL    HW227811   5.709   2.887   0.979
 3557SOL     OW27812   3.509   1.492   7.245
 3557SOL    HW127813   3.498   1.454   7.158
 3557SOL    HW227814   3.545   1.421   7.298
 3558SOL     OW27815   0.104   3.480   7.747
 3558SOL    HW127816   0.183   3.519   7.710
 3558SOL    HW227817   0.135   3.399   7.788
 3559SOL     OW27818   0.029   4.695   0.393
 3559SOL    HW127819   0.059   4.607   0.414
 3559SOL    HW227820  -0.021   4.685   0.312
 3560SOL     OW27821   1.804   1.488   5.724
 3560SOL    HW127822   1.842   1.497   5.636
 3560SOL    HW227823   1.733   1.424   5.713
 3561SOL     OW27824   0.865   3.303   6.936
 3561SOL    HW127825   0.818   3.353   7.003
 3561SOL    HW227826   0.858   3.212   6.965
 3562SOL     OW27827   2.582   2.980   5.802
 3562SOL    HW127828   2.657   2.971   5.862
 3562SOL    HW227829   2.613   3.042   5.736
 3563SOL     OW27830   1.953   3.208   6.065
 3563SOL    HW127831   1.867   3.247   6.073
 3563SOL    HW227832   2.009   3.280   6.035
 3564SOL     OW27833   3.526   1.993   0.518
 3564SOL    HW127834   3.432   1.983   0.503
 3564SOL    HW227835   3.541   2.087   0.513
 3565SOL     OW27836   2.495   1.786   0.452
 3565SOL    HW127837   2.452   1.771   0.368
 3565SOL    HW227838   2.585   1.755   0.440
 3566SOL     OW27839   5.867   4.953   5.937
 3566SOL    HW127840   5.819   5.006   6.001
 3566SOL    HW227841   5.939   4.914   5.987
 3567SOL     OW27842   1.510   0.352   0.443
 3567SOL    HW127843   1.523   0.338   0.349
 3567SOL    HW227844   1.518   0.265   0.482
 3568SOL     OW27845   5.378   4.524   0.499
 3568SOL    HW127846   5.468   4.553   0.507
 3568SOL    HW227847   5.330   4.577   0.563
 3569SOL     OW27848   0.715   5.806   6.741
 3569SOL    HW127849   0.679   5.790   6.654
 3569SOL    HW227850   0.777   5.878   6.728
 3570SOL     OW27851   3.894   1.780   0.437
 3570SOL    HW127852   3.945   1.743   0.508
 3570SOL    HW227853   3.828   1.834   0.480
 3571SOL     OW27854   0.295   5.622   0.636
 3571SOL    HW127855   0.301   5.673   0.556
 3571SOL    HW227856   0.276   5.533   0.607
 3572SOL     OW27857   2.199   4.690   0.063
 3572SOL    HW127858   2.235   4.616   0.113
 3572SOL    HW227859   2.155   4.649  -0.012
 3573SOL     OW27860   6.011   4.479   0.049
 3573SOL    HW127861   5.986   4.532   0.124
 3573SOL    HW227862   6.010   4.539  -0.026
 3574SOL     OW27863   0.217   5.567   6.650
 3574SOL    HW127864   0.198   5.553   6.742
 3574SOL    HW227865   0.311   5.550   6.641
 3575SOL     OW27866   4.464   2.260   2.028
 3575SOL    HW127867   4.437   2.262   2.120
 3575SOL    HW227868   4.513   2.341   2.016
 3576SOL     OW27869   0.228   1.717   1.992
 3576SOL    HW127870   0.290   1.645   1.979
 3576SOL    HW227871   0.143   1.681   1.968
 3577SOL     OW27872   0.694   6.417   1.817
 3577SOL    HW127873   0.601   6.404   1.835
 3577SOL    HW227874   0.698   6.432   1.722
 3578SOL     OW27875   6.153   1.596   0.501
 3578SOL    HW127876   6.125   1.530   0.565
 3578SOL    HW227877   6.248   1.601   0.511
 3579SOL     OW27878   2.594   5.170   6.477
 3579SOL    HW127879   2.669   5.210   6.520
 3579SOL    HW227880   2.543   5.244   6.443
 3580SOL     OW27881   4.618   0.771   7.707
 3580SOL    HW127882   4.643   0.837   7.771
 3580SOL    HW227883   4.561   0.711   7.754
 3581SOL     OW27884   4.615   4.494   7.574
 3581SOL    HW127885   4.536   4.547   7.569
 3581SOL    HW227886   4.659   4.522   7.654
 3582SOL     OW27887   2.265   1.952   7.252
 3582SOL    HW127888   2.173   1.974   7.267
 3582SOL    HW227889   2.265   1.905   7.169
 3583SOL     OW27890   0.059   3.826   0.517
 3583SOL    HW127891   0.146   3.822   0.478
 3583SOL    HW227892  -0.001   3.821   0.442
 3584SOL     OW27893   4.474   1.219   0.140
 3584SOL    HW127894   4.424   1.145   0.105
 3584SOL    HW227895   4.431   1.239   0.223
 3585SOL     OW27896   1.976   1.435   6.283
 3585SOL    HW127897   1.886   1.410   6.259
 3585SOL    HW227898   2.029   1.359   6.259
 3586SOL     OW27899   5.944   3.257   0.332
 3586SOL    HW127900   5.909   3.286   0.248
 3586SOL    HW227901   6.037   3.281   0.329
 3587SOL     OW27902   5.919   4.650   7.005
 3587SOL    HW127903   5.997   4.599   7.024
 3587SOL    HW227904   5.889   4.618   6.920
 3588SOL     OW27905   0.200   3.083   1.849
 3588SOL    HW127906   0.110   3.115   1.844
 3588SOL    HW227907   0.219   3.082   1.943
 3589SOL     OW27908   1.878   1.585   1.544
 3589SOL    HW127909   1.867   1.595   1.638
 3589SOL    HW227910   1.956   1.530   1.534
 3590SOL     OW27911   4.906   2.916   0.068
 3590SOL    HW127912   4.908   2.981   0.137
 3590SOL    HW227913   4.883   2.965  -0.011
 3591SOL     OW27914   4.577   0.282   0.153
 3591SOL    HW127915   4.632   0.261   0.078
 3591SOL    HW227916   4.611   0.365   0.186
 3592SOL     OW27917   5.045   4.539   6.984
 3592SOL    HW127918   4.962   4.583   6.967
 3592SOL    HW227919   5.048   4.529   7.080
 3593SOL     OW27920   0.524   4.260   0.084
 3593SOL    HW127921   0.433   4.233   0.075
 3593SOL    HW227922   0.539   4.263   0.179
 3594SOL     OW27923   4.277   2.784   1.347
 3594SOL    HW127924   4.300   2.696   1.377
 3594SOL    HW227925   4.217   2.769   1.273
 3595SOL     OW27926   6.195   4.121   0.345
 3595SOL    HW127927   6.243   4.129   0.427
 3595SOL    HW227928   6.111   4.162   0.362
 3596SOL     OW27929   2.414   3.762   0.384
 3596SOL    HW127930   2.369   3.844   0.405
 3596SOL    HW227931   2.426   3.719   0.469
 3597SOL     OW27932   0.670   0.755   1.036
 3597SOL    HW127933   0.630   0.784   0.954
 3597SOL    HW227934   0.757   0.796   1.036
 3598SOL     OW27935   1.330   1.465   1.289
 3598SOL    HW127936   1.338   1.369   1.291
 3598SOL    HW227937   1.239   1.482   1.313
 3599SOL     OW27938   4.638   4.630   5.239
 3599SOL    HW127939   4.685   4.554   5.273
 3599SOL    HW227940   4.546   4.612   5.258
 3600SOL     OW27941   6.285   3.422   0.925
 3600SOL    HW127942   6.289   3.361   0.999
 3600SOL    HW227943   6.377   3.442   0.906
 3601SOL     OW27944   3.066   2.456   7.810
 3601SOL    HW127945   3.159   2.444   7.788
 3601SOL    HW227946   3.019   2.400   7.748
 3602SOL     OW27947   3.550   3.512   1.083
 3602SOL    HW127948   3.492   3.470   1.146
 3602SOL    HW227949   3.620   3.550   1.136
 3603SOL     OW27950   2.002   5.078   1.411
 3603SOL    HW127951   1.978   5.056   1.501
 3603SOL    HW227952   1.937   5.032   1.357
 3604SOL     OW27953   5.615   2.749   6.617
 3604SOL    HW127954   5.535   2.794   6.589
 3604SOL    HW227955   5.670   2.746   6.539
 3605SOL     OW27956   4.090   0.734   5.910
 3605SOL    HW127957   4.068   0.699   5.824
 3605SOL    HW227958   4.132   0.661   5.955
 3606SOL     OW27959   6.259   2.526   6.818
 3606SOL    HW127960   6.172   2.490   6.830
 3606SOL    HW227961   6.318   2.460   6.855
 3607SOL     OW27962   0.483   2.817   5.855
 3607SOL    HW127963   0.573   2.802   5.885
 3607SOL    HW227964   0.458   2.900   5.895
 3608SOL     OW27965   6.042   5.673   5.436
 3608SOL    HW127966   6.035   5.767   5.451
 3608SOL    HW227967   6.136   5.658   5.422
 3609SOL     OW27968   3.728   1.681   1.590
 3609SOL    HW127969   3.693   1.676   1.679
 3609SOL    HW227970   3.730   1.590   1.560
 3610SOL     OW27971   4.860   1.091   6.448
 3610SOL    HW127972   4.911   1.047   6.516
 3610SOL    HW227973   4.786   1.031   6.432
 3611SOL     OW27974   1.747   2.845   7.150
 3611SOL    HW127975   1.824   2.792   7.129
 3611SOL    HW227976   1.689   2.785   7.196
 3612SOL     OW27977   5.047   1.045   0.467
 3612SOL    HW127978   5.105   1.121   0.466
 3612SOL    HW227979   5.036   1.024   0.559
 3613SOL     OW27980   1.167   2.606   5.754
 3613SOL    HW127981   1.248   2.601   5.805
 3613SOL    HW227982   1.133   2.517   5.754
 3614SOL     OW27983   1.187   0.196   7.414
 3614SOL    HW127984   1.246   0.136   7.368
 3614SOL    HW227985   1.157   0.256   7.346
 3615SOL     OW27986   2.819   5.769   6.887
 3615SOL    HW127987   2.794   5.683   6.921
 3615SOL    HW227988   2.895   5.795   6.939
 3616SOL     OW27989   0.088   4.968   0.351
 3616SOL    HW127990   0.053   4.879   0.350
 3616SOL    HW227991   0.162   4.965   0.290
 3617SOL     OW27992   2.813   5.137   1.977
 3617SOL    HW127993   2.844   5.169   2.061
 3617SOL    HW227994   2.842   5.046   1.974
 3618SOL     OW27995   1.276   1.573   6.061
 3618SOL    HW127996   1.291   1.593   6.154
 3618SOL    HW227997   1.205   1.632   6.036
 3619SOL     OW27998   2.476   3.515   5.447
 3619SOL    HW127999   2.414   3.554   5.384
 3619SOL    HW228000   2.506   3.589   5.500
 3620SOL     OW28001   4.524   0.119   2.311
 3620SOL    HW128002   4.432   0.129   2.338
 3620SOL    HW228003   4.546   0.202   2.269
 3621SOL     OW28004   4.960   6.355   6.969
 3621SOL    HW128005   4.889   6.388   6.915
 3621SOL    HW228006   5.010   6.433   6.995
 3622SOL     OW28007   0.379   1.659   7.134
 3622SOL    HW128008   0.353   1.727   7.196
 3622SOL    HW228009   0.464   1.688   7.100
 3623SOL     OW28010   1.603   4.561   6.363
 3623SOL    HW128011   1.548   4.483   6.358
 3623SOL    HW228012   1.551   4.630   6.323
 3624SOL     OW28013   4.236   2.974   6.119
 3624SOL    HW128014   4.289   3.004   6.045
 3624SOL    HW228015   4.220   2.882   6.101
 3625SOL     OW28016   0.800   2.078   1.080
 3625SOL    HW128017   0.714   2.078   1.121
 3625SOL    HW228018   0.844   2.155   1.117
 3626SOL     OW28019   1.853   3.107   0.424
 3626SOL    HW128020   1.923   3.131   0.484
 3626SOL    HW228021   1.783   3.170   0.441
 3627SOL     OW28022   1.054   4.699   1.119
 3627SOL    HW128023   1.141   4.688   1.158
 3627SOL    HW228024   1.048   4.793   1.102
 3628SOL     OW28025   5.085   0.559   6.714
 3628SOL    HW128026   5.014   0.557   6.650
 3628SOL    HW228027   5.047   0.519   6.793
 3629SOL     OW28028   2.082   1.424   1.596
 3629SOL    HW128029   2.170   1.407   1.561
 3629SOL    HW228030   2.089   1.402   1.689
 3630SOL     OW28031   4.990   6.404   1.121
 3630SOL    HW128032   4.917   6.343   1.129
 3630SOL    HW228033   5.040   6.370   1.047
 3631SOL     OW28034   2.372   3.392   0.449
 3631SOL    HW128035   2.405   3.390   0.539
 3631SOL    HW228036   2.306   3.323   0.447
 3632SOL     OW28037   2.330   3.207   7.651
 3632SOL    HW128038   2.384   3.135   7.682
 3632SOL    HW228039   2.240   3.177   7.663
 3633SOL     OW28040   4.822   4.878   0.804
 3633SOL    HW128041   4.738   4.892   0.847
 3633SOL    HW228042   4.833   4.783   0.803
 3634SOL     OW28043   5.448   3.442   1.560
 3634SOL    HW128044   5.432   3.388   1.483
 3634SOL    HW228045   5.364   3.444   1.606
 3635SOL     OW28046   1.916   1.415   7.610
 3635SOL    HW128047   1.857   1.365   7.553
 3635SOL    HW228048   1.874   1.414   7.695
 3636SOL     OW28049   1.245   2.287   0.369
 3636SOL    HW128050   1.157   2.264   0.399
 3636SOL    HW228051   1.287   2.326   0.445
 3637SOL     OW28052   0.139   5.996   1.047
 3637SOL    HW128053   0.116   5.905   1.064
 3637SOL    HW228054   0.055   6.041   1.036
 3638SOL     OW28055   5.118   4.367   1.130
 3638SOL    HW128056   5.171   4.303   1.177
 3638SOL    HW228057   5.180   4.435   1.105
 3639SOL     OW28058   4.977   4.125   7.503
 3639SOL    HW128059   4.998   4.108   7.411
 3639SOL    HW228060   4.882   4.135   7.505
 3640SOL     OW28061   5.717   4.874   7.433
 3640SOL    HW128062   5.626   4.862   7.458
 3640SOL    HW228063   5.731   4.808   7.364
 3641SOL     OW28064   4.287   1.269   7.018
 3641SOL    HW128065   4.273   1.206   7.088
 3641SOL    HW228066   4.212   1.329   7.024
 3642SOL     OW28067   4.845   4.693   6.897
 3642SOL    HW128068   4.888   4.765   6.942
 3642SOL    HW228069   4.771   4.733   6.852
 3643SOL     OW28070   3.150   5.569   1.492
 3643SOL    HW128071   3.128   5.626   1.565
 3643SOL    HW228072   3.180   5.488   1.533
 3644SOL     OW28073   0.368   2.524   0.136
 3644SOL    HW128074   0.425   2.534   0.060
 3644SOL    HW228075   0.369   2.430   0.155
 3645SOL     OW28076   5.625   5.355   6.040
 3645SOL    HW128077   5.573   5.377   5.963
 3645SOL    HW228078   5.690   5.425   6.045
 3646SOL     OW28079   3.948   0.290   1.043
 3646SOL    HW128080   4.044   0.296   1.044
 3646SOL    HW228081   3.929   0.232   0.970
 3647SOL     OW28082   0.934   5.116   7.761
 3647SOL    HW128083   0.972   5.115   7.673
 3647SOL    HW228084   0.858   5.174   7.753
 3648SOL     OW28085   0.135   1.823   7.472
 3648SOL    HW128086   0.151   1.915   7.491
 3648SOL    HW228087   0.086   1.791   7.548
 3649SOL     OW28088   1.193   1.250   7.254
 3649SOL    HW128089   1.117   1.193   7.264
 3649SOL    HW228090   1.263   1.204   7.300
 3650SOL     OW28091   3.894   6.013   7.442
 3650SOL    HW128092   3.877   5.933   7.393
 3650SOL    HW228093   3.986   6.033   7.425
 3651SOL     OW28094   4.226   4.317   7.638
 3651SOL    HW128095   4.208   4.407   7.611
 3651SOL    HW228096   4.181   4.263   7.573
 3652SOL     OW28097   0.541   5.227   6.503
 3652SOL    HW128098   0.599   5.246   6.429
 3652SOL    HW228099   0.575   5.279   6.575
 3653SOL     OW28100   6.282   6.381   1.164
 3653SOL    HW128101   6.298   6.469   1.197
 3653SOL    HW228102   6.367   6.337   1.167
 3654SOL     OW28103   1.169   5.672   7.396
 3654SOL    HW128104   1.255   5.649   7.430
 3654SOL    HW228105   1.173   5.651   7.303
 3655SOL     OW28106   0.517   3.526   0.458
 3655SOL    HW128107   0.429   3.565   0.460
 3655SOL    HW228108   0.550   3.546   0.371
 3656SOL     OW28109   3.871   3.871   7.061
 3656SOL    HW128110   3.878   3.953   7.110
 3656SOL    HW228111   3.777   3.858   7.050
 3657SOL     OW28112   5.360   2.541   5.471
 3657SOL    HW128113   5.300   2.502   5.535
 3657SOL    HW228114   5.303   2.587   5.410
 3658SOL     OW28115   2.374   6.303   1.903
 3658SOL    HW128116   2.355   6.273   1.992
 3658SOL    HW228117   2.333   6.237   1.847
 3659SOL     OW28118   2.399   6.097   7.752
 3659SOL    HW128119   2.391   6.063   7.663
 3659SOL    HW228120   2.335   6.168   7.757
 3660SOL     OW28121   3.573   4.393   0.533
 3660SOL    HW128122   3.595   4.384   0.440
 3660SOL    HW228123   3.477   4.401   0.534
 3661SOL     OW28124   6.319   0.248   6.830
 3661SOL    HW128125   6.370   0.209   6.759
 3661SOL    HW228126   6.321   0.342   6.811
 3662SOL     OW28127   1.307   0.395   6.538
 3662SOL    HW128128   1.367   0.321   6.535
 3662SOL    HW228129   1.297   0.414   6.631
 3663SOL     OW28130   1.303   5.794   7.731
 3663SOL    HW128131   1.247   5.731   7.778
 3663SOL    HW228132   1.293   5.876   7.780
 3664SOL     OW28133   1.319   3.250   0.242
 3664SOL    HW128134   1.350   3.333   0.278
 3664SOL    HW228135   1.398   3.198   0.231
 3665SOL     OW28136   0.980   6.005   0.409
 3665SOL    HW128137   0.909   6.012   0.344
 3665SOL    HW228138   0.941   5.957   0.482
 3666SOL     OW28139   3.636   1.068   0.561
 3666SOL    HW128140   3.598   0.984   0.534
 3666SOL    HW228141   3.576   1.101   0.628
 3667SOL     OW28142   1.906   6.010   0.465
 3667SOL    HW128143   1.927   5.919   0.443
 3667SOL    HW228144   1.955   6.062   0.402
 3668SOL     OW28145   6.193   3.082   1.684
 3668SOL    HW128146   6.200   3.007   1.743
 3668SOL    HW228147   6.268   3.137   1.707
 3669SOL     OW28148   0.416   4.600   1.225
 3669SOL    HW128149   0.410   4.580   1.318
 3669SOL    HW228150   0.428   4.514   1.183
 3670SOL     OW28151   3.304   0.103   6.750
 3670SOL    HW128152   3.303   0.071   6.841
 3670SOL    HW228153   3.393   0.134   6.736
 3671SOL     OW28154   4.382   4.886   6.721
 3671SOL    HW128155   4.331   4.966   6.713
 3671SOL    HW228156   4.318   4.815   6.712
 3672SOL     OW28157   0.783   1.004   1.422
 3672SOL    HW128158   0.801   0.969   1.510
 3672SOL    HW228159   0.727   0.938   1.381
 3673SOL     OW28160   2.725   6.408   7.372
 3673SOL    HW128161   2.770   6.442   7.295
 3673SOL    HW228162   2.720   6.482   7.432
 3674SOL     OW28163   2.445   5.611   7.161
 3674SOL    HW128164   2.492   5.691   7.186
 3674SOL    HW228165   2.386   5.640   7.091
 3675SOL     OW28166   5.548   2.273   5.893
 3675SOL    HW128167   5.487   2.309   5.829
 3675SOL    HW228168   5.537   2.178   5.886
 3676SOL     OW28169   0.008   3.530   0.292
 3676SOL    HW128170   0.036   3.498   0.378
 3676SOL    HW228171   0.089   3.549   0.245
 3677SOL     OW28172   3.007   1.140   6.330
 3677SOL    HW128173   2.978   1.126   6.420
 3677SOL    HW228174   3.069   1.069   6.313
 3678SOL     OW28175   4.283   4.519   1.145
 3678SOL    HW128176   4.287   4.546   1.237
 3678SOL    HW228177   4.334   4.439   1.141
 3679SOL     OW28178   5.373   4.236   6.561
 3679SOL    HW128179   5.411   4.149   6.544
 3679SOL    HW228180   5.407   4.261   6.647
 3680SOL     OW28181   0.041   0.712   1.377
 3680SOL    HW128182   0.055   0.733   1.470
 3680SOL    HW228183   0.102   0.641   1.359
 3681SOL     OW28184   4.322   3.615   0.284
 3681SOL    HW128185   4.331   3.520   0.296
 3681SOL    HW228186   4.327   3.651   0.373
 3682SOL     OW28187   3.053   3.012   0.482
 3682SOL    HW128188   3.142   2.984   0.457
 3682SOL    HW228189   3.004   2.930   0.490
 3683SOL     OW28190   4.162   4.574   7.488
 3683SOL    HW128191   4.078   4.558   7.531
 3683SOL    HW228192   4.159   4.667   7.462
 3684SOL     OW28193   0.054   0.590   5.978
 3684SOL    HW128194   0.113   0.518   6.002
 3684SOL    HW228195   0.106   0.643   5.916
 3685SOL     OW28196   3.693   2.642   6.045
 3685SOL    HW128197   3.648   2.623   5.963
 3685SOL    HW228198   3.623   2.652   6.110
 3686SOL     OW28199   1.247   5.521   0.209
 3686SOL    HW128200   1.251   5.533   0.304
 3686SOL    HW228201   1.330   5.480   0.186
 3687SOL     OW28202   5.265   1.780   0.696
 3687SOL    HW128203   5.247   1.872   0.676
 3687SOL    HW228204   5.350   1.763   0.656
 3688SOL     OW28205   0.586   4.817   5.299
 3688SOL    HW128206   0.496   4.807   5.269
 3688SOL    HW228207   0.636   4.753   5.248
 3689SOL     OW28208   5.046   5.021   0.568
 3689SOL    HW128209   5.022   5.005   0.659
 3689SOL    HW228210   5.067   4.935   0.533
 3690SOL     OW28211   2.668   1.519   7.086
 3690SOL    HW128212   2.589   1.568   7.108
 3690SOL    HW228213   2.717   1.578   7.028
 3691SOL     OW28214   3.691   4.165   1.265
 3691SOL    HW128215   3.728   4.205   1.186
 3691SOL    HW228216   3.682   4.238   1.326
 3692SOL     OW28217   3.357   0.389   6.924
 3692SOL    HW128218   3.412   0.348   6.857
 3692SOL    HW228219   3.307   0.455   6.876
 3693SOL     OW28220   5.159   2.462   7.631
 3693SOL    HW128221   5.115   2.469   7.548
 3693SOL    HW228222   5.252   2.467   7.610
 3694SOL     OW28223   6.181   3.424   7.408
 3694SOL    HW128224   6.218   3.433   7.495
 3694SOL    HW228225   6.221   3.495   7.357
 3695SOL     OW28226   2.005   2.044   7.821
 3695SOL    HW128227   2.012   2.136   7.847
 3695SOL    HW228228   1.992   1.997   7.904
 3696SOL     OW28229   2.827   1.573   7.857
 3696SOL    HW128230   2.744   1.551   7.898
 3696SOL    HW228231   2.845   1.500   7.797
 3697SOL     OW28232   5.517   6.122   0.631
 3697SOL    HW128233   5.570   6.116   0.711
 3697SOL    HW228234   5.541   6.044   0.581
 3698SOL     OW28235   4.329   4.882   0.895
 3698SOL    HW128236   4.337   4.924   0.809
 3698SOL    HW228237   4.280   4.802   0.878
 3699SOL     OW28238   1.949   0.715   6.198
 3699SOL    HW128239   1.968   0.738   6.107
 3699SOL    HW228240   1.899   0.789   6.232
 3700SOL     OW28241   1.706   0.117   7.870
 3700SOL    HW128242   1.798   0.088   7.871
 3700SOL    HW228243   1.675   0.097   7.958
 3701SOL     OW28244   2.381   1.420   6.957
 3701SOL    HW128245   2.384   1.325   6.962
 3701SOL    HW228246   2.297   1.439   6.915
 3702SOL     OW28247   4.460   0.454   5.933
 3702SOL    HW128248   4.456   0.532   5.878
 3702SOL    HW228249   4.553   0.444   5.954
 3703SOL     OW28250   0.241   4.641   7.603
 3703SOL    HW128251   0.223   4.672   7.691
 3703SOL    HW228252   0.194   4.702   7.546
 3704SOL     OW28253   1.481   4.768   7.569
 3704SOL    HW128254   1.502   4.677   7.592
 3704SOL    HW228255   1.534   4.821   7.629
 3705SOL     OW28256   1.473   2.423   7.742
 3705SOL    HW128257   1.425   2.380   7.672
 3705SOL    HW228258   1.491   2.353   7.806
 3706SOL     OW28259   4.873   1.993   6.287
 3706SOL    HW128260   4.916   1.940   6.354
 3706SOL    HW228261   4.837   2.067   6.336
 3707SOL     OW28262   4.580   3.851   7.329
 3707SOL    HW128263   4.626   3.933   7.314
 3707SOL    HW228264   4.591   3.802   7.247
 3708SOL     OW28265   2.160   1.102   6.746
 3708SOL    HW128266   2.160   1.185   6.698
 3708SOL    HW228267   2.232   1.111   6.809
 3709SOL     OW28268   6.362   0.670   7.442
 3709SOL    HW128269   6.381   0.761   7.466
 3709SOL    HW228270   6.278   0.651   7.484
 3710SOL     OW28271   1.345   3.710   0.326
 3710SOL    HW128272   1.388   3.791   0.354
 3710SOL    HW228273   1.416   3.647   0.315
 3711SOL     OW28274   1.054   1.719   6.497
 3711SOL    HW128275   1.052   1.631   6.460
 3711SOL    HW228276   1.101   1.709   6.580
 3712SOL     OW28277   4.040   0.092   6.926
 3712SOL    HW128278   4.065   0.099   7.018
 3712SOL    HW228279   4.116   0.054   6.883
 3713SOL     OW28280   4.626   2.913   6.400
 3713SOL    HW128281   4.558   2.966   6.360
 3713SOL    HW228282   4.688   2.896   6.328
 3714SOL     OW28283   5.673   3.684   7.832
 3714SOL    HW128284   5.606   3.641   7.779
 3714SOL    HW228285   5.702   3.758   7.779
 3715SOL     OW28286   4.342   0.863   2.110
 3715SOL    HW128287   4.420   0.892   2.062
 3715SOL    HW228288   4.292   0.812   2.047
 3716SOL     OW28289   2.748   1.478   6.558
 3716SOL    HW128290   2.687   1.414   6.522
 3716SOL    HW228291   2.815   1.488   6.491
 3717SOL     OW28292   2.509   0.346   5.259
 3717SOL    HW128293   2.486   0.263   5.217
 3717SOL    HW228294   2.591   0.327   5.305
 3718SOL     OW28295   3.853   2.040   1.544
 3718SOL    HW128296   3.876   1.988   1.467
 3718SOL    HW228297   3.911   2.116   1.538
 3719SOL     OW28298   3.225   6.268   6.551
 3719SOL    HW128299   3.303   6.322   6.561
 3719SOL    HW228300   3.246   6.209   6.479
 3720SOL     OW28301   4.439   4.171   7.304
 3720SOL    HW128302   4.402   4.089   7.336
 3720SOL    HW228303   4.365   4.232   7.304
 3721SOL     OW28304   5.466   0.211   7.359
 3721SOL    HW128305   5.500   0.136   7.311
 3721SOL    HW228306   5.530   0.227   7.428
 3722SOL     OW28307   1.259   2.887   7.203
 3722SOL    HW128308   1.210   2.856   7.279
 3722SOL    HW228309   1.237   2.980   7.196
 3723SOL     OW28310   3.074   4.855   6.767
 3723SOL    HW128311   3.169   4.844   6.774
 3723SOL    HW228312   3.038   4.784   6.820
 3724SOL     OW28313   2.686   2.419   7.686
 3724SOL    HW128314   2.748   2.489   7.706
 3724SOL    HW228315   2.639   2.404   7.768
 3725SOL     OW28316   1.015   3.133   1.063
 3725SOL    HW128317   1.003   3.140   1.158
 3725SOL    HW228318   0.989   3.219   1.029
 3726SOL     OW28319   2.770   1.667   1.073
 3726SOL    HW128320   2.799   1.583   1.037
 3726SOL    HW228321   2.720   1.707   1.002
 3727SOL     OW28322   5.673   5.359   7.050
 3727SOL    HW128323   5.712   5.345   6.964
 3727SOL    HW228324   5.673   5.272   7.091
 3728SOL     OW28325   5.516   1.711   6.054
 3728SOL    HW128326   5.554   1.774   5.993
 3728SOL    HW228327   5.505   1.759   6.136
 3729SOL     OW28328   1.224   3.678   0.979
 3729SOL    HW128329   1.159   3.686   0.910
 3729SOL    HW228330   1.241   3.583   0.985
 3730SOL     OW28331   4.985   6.014   2.187
 3730SOL    HW128332   4.992   5.949   2.118
 3730SOL    HW228333   5.071   6.016   2.228
 3731SOL     OW28334   5.529   0.143   2.072
 3731SOL    HW128335   5.539   0.232   2.105
 3731SOL    HW228336   5.568   0.088   2.139
 3732SOL     OW28337   3.568   1.632   6.552
 3732SOL    HW128338   3.537   1.678   6.630
 3732SOL    HW228339   3.513   1.666   6.481
 3733SOL     OW28340   0.587   2.869   7.665
 3733SOL    HW128341   0.677   2.869   7.634
 3733SOL    HW228342   0.536   2.906   7.593
 3734SOL     OW28343   6.028   3.393   0.713
 3734SOL    HW128344   6.075   3.457   0.766
 3734SOL    HW228345   6.074   3.392   0.629
 3735SOL     OW28346   4.465   2.175   6.355
 3735SOL    HW128347   4.511   2.235   6.297
 3735SOL    HW228348   4.435   2.230   6.428
 3736SOL     OW28349   6.368   0.180   1.300
 3736SOL    HW128350   6.337   0.204   1.387
 3736SOL    HW228351   6.363   0.261   1.249
 3737SOL     OW28352   1.197   2.613   0.945
 3737SOL    HW128353   1.195   2.519   0.924
 3737SOL    HW228354   1.106   2.635   0.963
 3738SOL     OW28355   0.739   5.575   5.629
 3738SOL    HW128356   0.685   5.597   5.553
 3738SOL    HW228357   0.808   5.519   5.594
 3739SOL     OW28358   3.749   2.077   1.781
 3739SOL    HW128359   3.772   2.054   1.691
 3739SOL    HW228360   3.806   2.023   1.835
 3740SOL     OW28361   6.204   6.409   1.794
 3740SOL    HW128362   6.225   6.500   1.817
 3740SOL    HW228363   6.175   6.369   1.875
 3741SOL     OW28364   0.101   5.400   0.462
 3741SOL    HW128365   0.174   5.382   0.403
 3741SOL    HW228366   0.064   5.314   0.480
 3742SOL     OW28367   0.391   2.403   5.979
 3742SOL    HW128368   0.412   2.313   6.005
 3742SOL    HW228369   0.476   2.448   5.977
 3743SOL     OW28370   2.238   1.281   5.046
 3743SOL    HW128371   2.143   1.281   5.047
 3743SOL    HW228372   2.261   1.339   4.973
 3744SOL     OW28373   1.226   3.960   5.832
 3744SOL    HW128374   1.176   3.887   5.795
 3744SOL    HW228375   1.242   4.018   5.758
 3745SOL     OW28376   0.307   2.239   0.228
 3745SOL    HW128377   0.399   2.236   0.204
 3745SOL    HW228378   0.269   2.160   0.188
 3746SOL     OW28379   0.392   5.713   5.599
 3746SOL    HW128380   0.344   5.780   5.550
 3746SOL    HW228381   0.465   5.690   5.541
 3747SOL     OW28382   4.529   0.940   0.726
 3747SOL    HW128383   4.465   1.011   0.721
 3747SOL    HW228384   4.576   0.944   0.642
 3748SOL     OW28385   3.487   4.285   6.344
 3748SOL    HW128386   3.513   4.217   6.282
 3748SOL    HW228387   3.414   4.247   6.392
 3749SOL     OW28388   2.285   5.383   4.978
 3749SOL    HW128389   2.282   5.478   4.976
 3749SOL    HW228390   2.379   5.362   4.986
 3750SOL     OW28391   3.193   1.458   0.160
 3750SOL    HW128392   3.184   1.394   0.089
 3750SOL    HW228393   3.246   1.412   0.226
 3751SOL     OW28394   3.923   4.137   0.950
 3751SOL    HW128395   3.987   4.089   0.897
 3751SOL    HW228396   3.973   4.210   0.986
 3752SOL     OW28397   6.379   5.145   6.031
 3752SOL    HW128398   6.306   5.163   6.090
 3752SOL    HW228399   6.373   5.050   6.014
 3753SOL     OW28400   0.500   2.095   7.281
 3753SOL    HW128401   0.447   2.175   7.285
 3753SOL    HW228402   0.582   2.122   7.241
 3754SOL     OW28403   3.389   1.711   6.376
 3754SOL    HW128404   3.339   1.769   6.318
 3754SOL    HW228405   3.419   1.641   6.319
 3755SOL     OW28406   5.828   5.115   5.707
 3755SOL    HW128407   5.844   5.073   5.792
 3755SOL    HW228408   5.915   5.136   5.674
 3756SOL     OW28409   1.922   6.395   0.075
 3756SOL    HW128410   1.850   6.344   0.113
 3756SOL    HW228411   1.991   6.392   0.140
 3757SOL     OW28412   5.920   5.390   1.476
 3757SOL    HW128413   5.832   5.392   1.440
 3757SOL    HW228414   5.909   5.361   1.566
 3758SOL     OW28415   3.239   0.820   0.464
 3758SOL    HW128416   3.154   0.848   0.500
 3758SOL    HW228417   3.238   0.725   0.471
 3759SOL     OW28418   3.335   0.844   2.091
 3759SOL    HW128419   3.284   0.885   2.161
 3759SOL    HW228420   3.297   0.756   2.082
 3760SOL     OW28421   1.509   4.511   1.261
 3760SOL    HW128422   1.518   4.598   1.223
 3760SOL    HW228423   1.444   4.522   1.331
 3761SOL     OW28424   0.079   4.823   1.552
 3761SOL    HW128425   0.174   4.838   1.547
 3761SOL    HW228426   0.066   4.788   1.640
 3762SOL     OW28427   2.299   0.618   7.143
 3762SOL    HW128428   2.272   0.654   7.227
 3762SOL    HW228429   2.231   0.554   7.121
 3763SOL     OW28430   2.672   0.830   5.977
 3763SOL    HW128431   2.760   0.855   6.007
 3763SOL    HW228432   2.687   0.754   5.920
 3764SOL     OW28433   2.647   5.150   5.733
 3764SOL    HW128434   2.649   5.233   5.686
 3764SOL    HW228435   2.719   5.099   5.695
 3765SOL     OW28436   3.218   4.243   7.826
 3765SOL    HW128437   3.196   4.220   7.735
 3765SOL    HW228438   3.280   4.315   7.818
 3766SOL     OW28439   0.086   2.262   5.195
 3766SOL    HW128440   0.089   2.255   5.290
 3766SOL    HW228441   0.107   2.175   5.163
 3767SOL     OW28442   6.360   3.980   1.178
 3767SOL    HW128443   6.309   4.060   1.177
 3767SOL    HW228444   6.413   3.984   1.098
 3768SOL     OW28445   2.832   1.665   6.730
 3768SOL    HW128446   2.805   1.594   6.672
 3768SOL    HW228447   2.770   1.736   6.712
 3769SOL     OW28448   6.089   0.278   5.811
 3769SOL    HW128449   6.072   0.187   5.837
 3769SOL    HW228450   6.035   0.291   5.733
 3770SOL     OW28451   3.167   0.247   7.110
 3770SOL    HW128452   3.092   0.297   7.079
 3770SOL    HW228453   3.243   0.293   7.075
 3771SOL     OW28454   0.687   2.367   7.849
 3771SOL    HW128455   0.596   2.345   7.868
 3771SOL    HW228456   0.715   2.303   7.784
 3772SOL     OW28457   2.696   4.098   6.362
 3772SOL    HW128458   2.766   4.040   6.332
 3772SOL    HW228459   2.615   4.050   6.342
 3773SOL     OW28460   4.092   1.423   0.683
 3773SOL    HW128461   4.184   1.398   0.688
 3773SOL    HW228462   4.054   1.362   0.620
 3774SOL     OW28463   0.528   0.520   1.052
 3774SOL    HW128464   0.553   0.462   0.980
 3774SOL    HW228465   0.581   0.599   1.038
 3775SOL     OW28466   2.439   5.274   1.511
 3775SOL    HW128467   2.529   5.305   1.499
 3775SOL    HW228468   2.400   5.335   1.574
 3776SOL     OW28469   4.790   5.934   7.084
 3776SOL    HW128470   4.866   5.977   7.121
 3776SOL    HW228471   4.804   5.841   7.100
 3777SOL     OW28472   5.808   2.866   6.127
 3777SOL    HW128473   5.826   2.937   6.065
 3777SOL    HW228474   5.894   2.841   6.160
 3778SOL     OW28475   4.007   1.055   6.632
 3778SOL    HW128476   4.094   1.066   6.594
 3778SOL    HW228477   4.023   1.051   6.726
 3779SOL     OW28478   1.689   1.009   2.280
 3779SOL    HW128479   1.621   0.954   2.320
 3779SOL    HW228480   1.641   1.061   2.215
 3780SOL     OW28481   0.994   1.860   0.837
 3780SOL    HW128482   1.058   1.931   0.842
 3780SOL    HW228483   1.026   1.805   0.766
 3781SOL     OW28484   0.745   4.644   6.811
 3781SOL    HW128485   0.737   4.604   6.724
 3781SOL    HW228486   0.681   4.597   6.865
 3782SOL     OW28487   1.690   3.105   0.737
 3782SOL    HW128488   1.776   3.092   0.696
 3782SOL    HW228489   1.694   3.054   0.817
 3783SOL     OW28490   1.607   1.525   7.688
 3783SOL    HW128491   1.560   1.599   7.724
 3783SOL    HW228492   1.651   1.485   7.764
 3784SOL     OW28493   2.252   3.130   0.774
 3784SOL    HW128494   2.267   3.039   0.799
 3784SOL    HW228495   2.333   3.175   0.796
 3785SOL     OW28496   0.423   2.975   0.832
 3785SOL    HW128497   0.390   2.892   0.866
 3785SOL    HW228498   0.378   3.042   0.883
 3786SOL     OW28499   1.631   5.719   5.568
 3786SOL    HW128500   1.677   5.636   5.550
 3786SOL    HW228501   1.540   5.702   5.544
 3787SOL     OW28502   5.070   5.526   7.247
 3787SOL    HW128503   5.116   5.514   7.164
 3787SOL    HW228504   5.029   5.441   7.264
 3788SOL     OW28505   3.020   5.686   6.675
 3788SOL    HW128506   2.929   5.707   6.696
 3788SOL    HW228507   3.045   5.621   6.741
 3789SOL     OW28508   3.871   2.364   0.136
 3789SOL    HW128509   3.889   2.405   0.221
 3789SOL    HW228510   3.796   2.413   0.102
 3790SOL     OW28511   6.385   1.307   5.489
 3790SOL    HW128512   6.415   1.218   5.510
 3790SOL    HW228513   6.298   1.294   5.450
 3791SOL     OW28514   1.659   1.258   5.902
 3791SOL    HW128515   1.607   1.179   5.890
 3791SOL    HW228516   1.598   1.321   5.941
 3792SOL     OW28517   0.038   3.270   4.897
 3792SOL    HW128518  -0.055   3.292   4.910
 3792SOL    HW228519   0.083   3.318   4.966
 3793SOL     OW28520   4.524   1.625   0.076
 3793SOL    HW128521   4.574   1.548   0.049
 3793SOL    HW228522   4.439   1.590   0.105
 3794SOL     OW28523   0.851   2.358   1.599
 3794SOL    HW128524   0.901   2.287   1.638
 3794SOL    HW228525   0.804   2.398   1.671
 3795SOL     OW28526   3.549   6.318   1.825
 3795SOL    HW128527   3.490   6.307   1.900
 3795SOL    HW228528   3.518   6.255   1.760
 3796SOL     OW28529   2.737   5.020   6.168
 3796SOL    HW128530   2.766   4.948   6.112
 3796SOL    HW228531   2.722   4.980   6.253
 3797SOL     OW28532   4.934   3.253   0.165
 3797SOL    HW128533   5.021   3.214   0.153
 3797SOL    HW228534   4.949   3.329   0.221
 3798SOL     OW28535   0.361   2.093   5.207
 3798SOL    HW128536   0.352   2.185   5.230
 3798SOL    HW228537   0.276   2.069   5.171
 3799SOL     OW28538   5.675   5.445   0.733
 3799SOL    HW128539   5.594   5.422   0.779
 3799SOL    HW228540   5.736   5.375   0.758
 3800SOL     OW28541   2.695   3.125   5.600
 3800SOL    HW128542   2.759   3.091   5.537
 3800SOL    HW228543   2.690   3.218   5.580
 3801SOL     OW28544   0.618   4.089   5.555
 3801SOL    HW128545   0.586   4.053   5.472
 3801SOL    HW228546   0.707   4.055   5.564
 3802SOL     OW28547   1.140   5.456   5.290
 3802SOL    HW128548   1.122   5.405   5.212
 3802SOL    HW228549   1.197   5.527   5.260
 3803SOL     OW28550   3.990   3.161   0.657
 3803SOL    HW128551   4.015   3.218   0.586
 3803SOL    HW228552   4.037   3.079   0.640
 3804SOL     OW28553   5.803   5.586   6.370
 3804SOL    HW128554   5.772   5.639   6.296
 3804SOL    HW228555   5.854   5.646   6.423
 3805SOL     OW28556   6.401   6.245   5.735
 3805SOL    HW128557   6.430   6.335   5.751
 3805SOL    HW228558   6.350   6.250   5.654
 3806SOL     OW28559   5.206   3.632   7.608
 3806SOL    HW128560   5.164   3.580   7.539
 3806SOL    HW228561   5.174   3.721   7.594
 3807SOL     OW28562   0.688   3.958   7.222
 3807SOL    HW128563   0.734   3.963   7.138
 3807SOL    HW228564   0.616   4.021   7.214
 3808SOL     OW28565   0.608   5.076   4.551
 3808SOL    HW128566   0.526   5.030   4.533
 3808SOL    HW228567   0.638   5.041   4.635
 3809SOL     OW28568   0.582   2.978   6.448
 3809SOL    HW128569   0.637   2.917   6.498
 3809SOL    HW228570   0.587   3.061   6.495
 3810SOL     OW28571   3.055   5.305   6.348
 3810SOL    HW128572   3.056   5.384   6.401
 3810SOL    HW228573   2.964   5.294   6.322
 3811SOL     OW28574   1.513   2.761   6.047
 3811SOL    HW128575   1.484   2.851   6.055
 3811SOL    HW228576   1.541   2.737   6.135
 3812SOL     OW28577   2.825   0.482   1.250
 3812SOL    HW128578   2.750   0.533   1.282
 3812SOL    HW228579   2.874   0.460   1.329
 3813SOL     OW28580   6.249   1.355   5.935
 3813SOL    HW128581   6.329   1.314   5.966
 3813SOL    HW228582   6.180   1.313   5.987
 3814SOL     OW28583   0.930   0.065   6.516
 3814SOL    HW128584   0.871   0.091   6.588
 3814SOL    HW228585   0.982   0.144   6.498
 3815SOL     OW28586   5.225   3.430   1.693
 3815SOL    HW128587   5.145   3.449   1.742
 3815SOL    HW228588   5.221   3.336   1.677
 3816SOL     OW28589   1.407   2.875   7.731
 3816SOL    HW128590   1.473   2.852   7.666
 3816SOL    HW228591   1.395   2.795   7.783
 3817SOL     OW28592   4.140   5.897   6.039
 3817SOL    HW128593   4.227   5.930   6.016
 3817SOL    HW228594   4.112   5.848   5.962
 3818SOL     OW28595   2.804   1.717   1.372
 3818SOL    HW128596   2.875   1.656   1.396
 3818SOL    HW228597   2.785   1.696   1.281
 3819SOL     OW28598   6.169   4.228   6.617
 3819SOL    HW128599   6.161   4.143   6.574
 3819SOL    HW228600   6.082   4.267   6.610
 3820SOL     OW28601   4.441   0.967   1.889
 3820SOL    HW128602   4.508   1.031   1.864
 3820SOL    HW228603   4.463   0.889   1.837
 3821SOL     OW28604   3.597   2.873   6.276
 3821SOL    HW128605   3.507   2.842   6.266
 3821SOL    HW228606   3.649   2.794   6.293
 3822SOL     OW28607   4.210   0.176   0.255
 3822SOL    HW128608   4.247   0.238   0.317
 3822SOL    HW228609   4.151   0.228   0.201
 3823SOL     OW28610   3.510   1.767   1.428
 3823SOL    HW128611   3.529   1.700   1.362
 3823SOL    HW228612   3.565   1.744   1.502
 3824SOL     OW28613   0.554   6.354   7.619
 3824SOL    HW128614   0.620   6.423   7.621
 3824SOL    HW228615   0.603   6.273   7.637
 3825SOL     OW28616   1.417   2.100   5.860
 3825SOL    HW128617   1.396   2.034   5.925
 3825SOL    HW228618   1.488   2.151   5.899
 3826SOL     OW28619   5.193   5.128   6.286
 3826SOL    HW128620   5.139   5.052   6.261
 3826SOL    HW228621   5.188   5.187   6.210
 3827SOL     OW28622   3.886   2.641   6.706
 3827SOL    HW128623   3.873   2.592   6.787
 3827SOL    HW228624   3.969   2.610   6.671
 3828SOL     OW28625   1.271   4.722   1.407
 3828SOL    HW128626   1.284   4.632   1.439
 3828SOL    HW228627   1.358   4.751   1.381
 3829SOL     OW28628   4.493   2.107   0.545
 3829SOL    HW128629   4.567   2.168   0.553
 3829SOL    HW228630   4.430   2.137   0.609
 3830SOL     OW28631   0.867   2.522   6.210
 3830SOL    HW128632   0.821   2.460   6.267
 3830SOL    HW228633   0.886   2.597   6.267
 3831SOL     OW28634   5.605   2.231   6.292
 3831SOL    HW128635   5.597   2.294   6.221
 3831SOL    HW228636   5.583   2.147   6.252
 3832SOL     OW28637   1.307   3.243   6.054
 3832SOL    HW128638   1.327   3.296   6.131
 3832SOL    HW228639   1.388   3.194   6.037
 3833SOL     OW28640   6.205   5.008   6.893
 3833SOL    HW128641   6.297   5.012   6.919
 3833SOL    HW228642   6.164   4.949   6.957
 3834SOL     OW28643   0.207   1.399   2.064
 3834SOL    HW128644   0.118   1.418   2.094
 3834SOL    HW228645   0.196   1.374   1.972
 3835SOL     OW28646   2.704   1.274   6.056
 3835SOL    HW128647   2.788   1.320   6.058
 3835SOL    HW228648   2.641   1.341   6.029
 3836SOL     OW28649   1.728   4.325   5.825
 3836SOL    HW128650   1.688   4.256   5.878
 3836SOL    HW228651   1.780   4.278   5.760
 3837SOL     OW28652   3.880   0.336   6.525
 3837SOL    HW128653   3.890   0.343   6.430
 3837SOL    HW228654   3.812   0.270   6.537
 3838SOL     OW28655   1.097   0.403   1.477
 3838SOL    HW128656   1.085   0.455   1.556
 3838SOL    HW228657   1.186   0.370   1.483
 3839SOL     OW28658   4.998   5.295   2.596
 3839SOL    HW128659   4.990   5.259   2.508
 3839SOL    HW228660   5.059   5.236   2.641
 3840SOL     OW28661   4.762   5.388   1.692
 3840SOL    HW128662   4.679   5.412   1.732
 3840SOL    HW228663   4.787   5.307   1.736
 3841SOL     OW28664   3.795   0.506   1.074
 3841SOL    HW128665   3.852   0.435   1.043
 3841SOL    HW228666   3.831   0.529   1.159
 3842SOL     OW28667   4.512   5.523   6.171
 3842SOL    HW128668   4.438   5.537   6.231
 3842SOL    HW228669   4.471   5.500   6.087
 3843SOL     OW28670   1.249   3.094   0.737
 3843SOL    HW128671   1.258   3.108   0.831
 3843SOL    HW228672   1.168   3.139   0.714
 3844SOL     OW28673   3.877   3.389   0.059
 3844SOL    HW128674   3.820   3.334   0.112
 3844SOL    HW228675   3.930   3.437   0.123
 3845SOL     OW28676   6.418   0.871   7.703
 3845SOL    HW128677   6.417   0.951   7.755
 3845SOL    HW228678   6.327   0.843   7.699
 3846SOL     OW28679   4.561   1.682   0.665
 3846SOL    HW128680   4.565   1.728   0.581
 3846SOL    HW228681   4.517   1.744   0.723
 3847SOL     OW28682   3.299   3.622   1.035
 3847SOL    HW128683   3.308   3.694   1.097
 3847SOL    HW228684   3.375   3.566   1.052
 3848SOL     OW28685   0.790   5.432   0.218
 3848SOL    HW128686   0.775   5.340   0.199
 3848SOL    HW228687   0.879   5.436   0.252
 3849SOL     OW28688   4.633   4.932   1.007
 3849SOL    HW128689   4.566   5.000   1.011
 3849SOL    HW228690   4.592   4.855   1.045
 3850SOL     OW28691   4.004   1.636   0.058
 3850SOL    HW128692   3.985   1.556   0.108
 3850SOL    HW228693   4.039   1.697   0.124
 3851SOL     OW28694   0.735   4.079   6.927
 3851SOL    HW128695   0.817   4.091   6.878
 3851SOL    HW228696   0.722   4.162   6.973
 3852SOL     OW28697   0.068   1.365   7.458
 3852SOL    HW128698   0.056   1.460   7.466
 3852SOL    HW228699   0.059   1.348   7.365
 3853SOL     OW28700   5.095   4.815   0.399
 3853SOL    HW128701   5.087   4.866   0.319
 3853SOL    HW228702   5.069   4.726   0.374
 3854SOL     OW28703   4.101   5.931   6.829
 3854SOL    HW128704   4.069   5.857   6.880
 3854SOL    HW228705   4.178   5.962   6.878
 3855SOL     OW28706   5.403   0.010   5.984
 3855SOL    HW128707   5.394   0.084   6.043
 3855SOL    HW228708   5.496  -0.012   5.989
 3856SOL     OW28709   0.652   5.217   7.425
 3856SOL    HW128710   0.739   5.240   7.458
 3856SOL    HW228711   0.623   5.146   7.482
 3857SOL     OW28712   3.321   0.308   0.827
 3857SOL    HW128713   3.297   0.267   0.744
 3857SOL    HW228714   3.385   0.247   0.866
 3858SOL     OW28715   1.640   5.096   0.089
 3858SOL    HW128716   1.664   5.185   0.061
 3858SOL    HW228717   1.573   5.069   0.026
 3859SOL     OW28718   4.244   0.281   5.864
 3859SOL    HW128719   4.315   0.329   5.906
 3859SOL    HW228720   4.241   0.317   5.775
 3860SOL     OW28721   2.117   4.896   7.347
 3860SOL    HW128722   2.203   4.863   7.373
 3860SOL    HW228723   2.133   4.986   7.318
 3861SOL     OW28724   0.406   1.044   5.960
 3861SOL    HW128725   0.448   0.997   6.032
 3861SOL    HW228726   0.456   1.021   5.882
 3862SOL     OW28727   6.110   1.442   7.026
 3862SOL    HW128728   6.020   1.465   7.002
 3862SOL    HW228729   6.128   1.363   6.975
 3863SOL     OW28730   3.782   6.166   1.337
 3863SOL    HW128731   3.746   6.254   1.325
 3863SOL    HW228732   3.868   6.180   1.376
 3864SOL     OW28733   1.989   1.301   7.241
 3864SOL    HW128734   1.970   1.237   7.310
 3864SOL    HW228735   2.075   1.336   7.264
 3865SOL     OW28736   0.899   2.495   6.838
 3865SOL    HW128737   0.964   2.512   6.770
 3865SOL    HW228738   0.943   2.437   6.899
 3866SOL     OW28739   1.309   1.887   6.038
 3866SOL    HW128740   1.395   1.847   6.020
 3866SOL    HW228741   1.259   1.871   5.958
 3867SOL     OW28742   3.476   5.725   0.847
 3867SOL    HW128743   3.517   5.681   0.773
 3867SOL    HW228744   3.443   5.654   0.902
 3868SOL     OW28745   3.120   0.543   6.049
 3868SOL    HW128746   3.081   0.502   5.971
 3868SOL    HW228747   3.045   0.572   6.101
 3869SOL     OW28748   2.009   0.999   6.524
 3869SOL    HW128749   2.039   1.018   6.613
 3869SOL    HW228750   2.084   0.956   6.483
 3870SOL     OW28751   0.853   0.161   7.230
 3870SOL    HW128752   0.935   0.150   7.181
 3870SOL    HW228753   0.868   0.114   7.311
 3871SOL     OW28754   6.196   2.318   6.588
 3871SOL    HW128755   6.131   2.385   6.607
 3871SOL    HW228756   6.252   2.357   6.521
 3872SOL     OW28757   2.947   6.311   0.208
 3872SOL    HW128758   2.871   6.318   0.265
 3872SOL    HW228759   2.914   6.267   0.129
 3873SOL     OW28760   1.827   4.032   5.924
 3873SOL    HW128761   1.766   4.059   5.992
 3873SOL    HW228762   1.911   4.070   5.950
 3874SOL     OW28763   1.744   1.230   0.985
 3874SOL    HW128764   1.695   1.310   0.967
 3874SOL    HW228765   1.752   1.187   0.900
 3875SOL     OW28766   4.812   2.565   6.105
 3875SOL    HW128767   4.892   2.582   6.057
 3875SOL    HW228768   4.749   2.537   6.038
 3876SOL     OW28769   1.592   5.213   5.592
 3876SOL    HW128770   1.519   5.238   5.534
 3876SOL    HW228771   1.668   5.257   5.553
 3877SOL     OW28772   3.783   3.825   1.454
 3877SOL    HW128773   3.803   3.909   1.496
 3877SOL    HW228774   3.756   3.768   1.526
 3878SOL     OW28775   1.639   5.571   0.981
 3878SOL    HW128776   1.550   5.604   0.967
 3878SOL    HW228777   1.676   5.631   1.046
 3879SOL     OW28778   1.667   1.048   1.196
 3879SOL    HW128779   1.683   1.113   1.128
 3879SOL    HW228780   1.633   1.098   1.270
 3880SOL     OW28781   5.548   5.498   6.477
 3880SOL    HW128782   5.478   5.517   6.415
 3880SOL    HW228783   5.622   5.551   6.448
 3881SOL     OW28784   2.164   4.318   1.096
 3881SOL    HW128785   2.085   4.285   1.054
 3881SOL    HW228786   2.177   4.404   1.057
 3882SOL     OW28787   2.878   5.716   0.267
 3882SOL    HW128788   2.933   5.741   0.342
 3882SOL    HW228789   2.941   5.686   0.201
 3883SOL     OW28790   5.446   4.581   7.776
 3883SOL    HW128791   5.481   4.626   7.853
 3883SOL    HW228792   5.479   4.492   7.784
 3884SOL     OW28793   6.090   3.984   6.571
 3884SOL    HW128794   6.053   3.972   6.658
 3884SOL    HW228795   6.117   3.896   6.544
 3885SOL     OW28796   5.518   4.973   0.954
 3885SOL    HW128797   5.437   5.013   0.924
 3885SOL    HW228798   5.494   4.929   1.036
 3886SOL     OW28799   5.430   3.291   0.929
 3886SOL    HW128800   5.481   3.336   0.862
 3886SOL    HW228801   5.496   3.253   0.987
 3887SOL     OW28802   1.119   0.147   7.064
 3887SOL    HW128803   1.116   0.232   7.107
 3887SOL    HW228804   1.212   0.132   7.046
 3888SOL     OW28805   5.837   3.863   5.320
 3888SOL    HW128806   5.878   3.783   5.354
 3888SOL    HW228807   5.904   3.904   5.267
 3889SOL     OW28808   4.485   4.075   1.342
 3889SOL    HW128809   4.561   4.029   1.305
 3889SOL    HW228810   4.452   4.015   1.410
 3890SOL     OW28811   2.317   5.947   1.541
 3890SOL    HW128812   2.334   5.864   1.587
 3890SOL    HW228813   2.222   5.950   1.532
 3891SOL     OW28814   4.002   3.098   6.668
 3891SOL    HW128815   3.924   3.149   6.644
 3891SOL    HW228816   4.050   3.156   6.728
 3892SOL     OW28817   4.375   1.612   1.105
 3892SOL    HW128818   4.377   1.688   1.047
 3892SOL    HW228819   4.466   1.599   1.130
 3893SOL     OW28820   4.582   6.110   6.974
 3893SOL    HW128821   4.590   6.070   6.888
 3893SOL    HW228822   4.613   6.043   7.035
 3894SOL     OW28823   1.257   0.387   1.136
 3894SOL    HW128824   1.307   0.447   1.192
 3894SOL    HW228825   1.166   0.414   1.148
 3895SOL     OW28826   0.198   6.238   0.965
 3895SOL    HW128827   0.155   6.242   0.879
 3895SOL    HW228828   0.200   6.145   0.987
 3896SOL     OW28829   6.234   4.835   6.563
 3896SOL    HW128830   6.260   4.831   6.471
 3896SOL    HW228831   6.272   4.917   6.595
 3897SOL     OW28832   5.801   6.304   0.685
 3897SOL    HW128833   5.815   6.287   0.592
 3897SOL    HW228834   5.783   6.217   0.723
 3898SOL     OW28835   0.962   3.788   4.865
 3898SOL    HW128836   1.001   3.870   4.835
 3898SOL    HW228837   0.978   3.726   4.793
 3899SOL     OW28838   4.201   3.223   0.292
 3899SOL    HW128839   4.267   3.266   0.347
 3899SOL    HW228840   4.252   3.177   0.225
 3900SOL     OW28841   4.965   3.792   6.128
 3900SOL    HW128842   4.987   3.844   6.206
 3900SOL    HW228843   5.049   3.757   6.099
 3901SOL     OW28844   3.969   5.412   6.703
 3901SOL    HW128845   3.903   5.481   6.691
 3901SOL    HW228846   3.920   5.340   6.743
 3902SOL     OW28847   2.765   1.650   5.144
 3902SOL    HW128848   2.745   1.719   5.080
 3902SOL    HW228849   2.684   1.598   5.148
 3903SOL     OW28850   2.286   2.314   5.586
 3903SOL    HW128851   2.362   2.261   5.565
 3903SOL    HW228852   2.240   2.325   5.503
 3904SOL     OW28853   4.792   0.551   6.821
 3904SOL    HW128854   4.789   0.458   6.841
 3904SOL    HW228855   4.718   0.566   6.763
 3905SOL     OW28856   0.449   0.398   1.288
 3905SOL    HW128857   0.452   0.432   1.199
 3905SOL    HW228858   0.530   0.348   1.297
 3906SOL     OW28859   3.745   5.334   1.914
 3906SOL    HW128860   3.719   5.426   1.915
 3906SOL    HW228861   3.781   5.318   2.002
 3907SOL     OW28862   0.224   3.570   6.678
 3907SOL    HW128863   0.291   3.624   6.720
 3907SOL    HW228864   0.268   3.533   6.601
 3908SOL     OW28865   0.758   4.508   0.506
 3908SOL    HW128866   0.845   4.517   0.545
 3908SOL    HW228867   0.732   4.418   0.526
 3909SOL     OW28868   2.449   1.868   6.902
 3909SOL    HW128869   2.527   1.873   6.846
 3909SOL    HW228870   2.448   1.952   6.949
 3910SOL     OW28871   1.674   4.108   7.009
 3910SOL    HW128872   1.671   4.167   6.934
 3910SOL    HW228873   1.684   4.165   7.085
 3911SOL     OW28874   3.500   2.294   7.519
 3911SOL    HW128875   3.518   2.230   7.450
 3911SOL    HW228876   3.518   2.247   7.601
 3912SOL     OW28877   1.749   2.289   0.865
 3912SOL    HW128878   1.740   2.267   0.958
 3912SOL    HW228879   1.664   2.325   0.840
 3913SOL     OW28880   6.083   5.849   7.183
 3913SOL    HW128881   6.011   5.912   7.195
 3913SOL    HW228882   6.160   5.904   7.170
 3914SOL     OW28883   1.961   0.995   1.152
 3914SOL    HW128884   2.049   1.030   1.166
 3914SOL    HW228885   1.907   1.040   1.218
 3915SOL     OW28886   4.519   1.806   2.021
 3915SOL    HW128887   4.465   1.864   1.968
 3915SOL    HW228888   4.571   1.865   2.076
 3916SOL     OW28889   2.200   3.185   0.509
 3916SOL    HW128890   2.223   3.198   0.601
 3916SOL    HW228891   2.254   3.111   0.481
 3917SOL     OW28892   3.882   4.062   0.172
 3917SOL    HW128893   3.817   4.121   0.133
 3917SOL    HW228894   3.940   4.120   0.221
 3918SOL     OW28895   6.134   0.950   6.833
 3918SOL    HW128896   6.101   0.920   6.748
 3918SOL    HW228897   6.125   0.874   6.891
 3919SOL     OW28898   1.733   3.177   7.442
 3919SOL    HW128899   1.727   3.207   7.352
 3919SOL    HW228900   1.800   3.232   7.482
 3920SOL     OW28901   2.830   0.871   7.686
 3920SOL    HW128902   2.925   0.863   7.685
 3920SOL    HW228903   2.810   0.924   7.609
 3921SOL     OW28904   0.673   1.797   6.738
 3921SOL    HW128905   0.752   1.811   6.687
 3921SOL    HW228906   0.688   1.844   6.820
 3922SOL     OW28907   3.479   1.908   2.265
 3922SOL    HW128908   3.424   1.881   2.191
 3922SOL    HW228909   3.557   1.946   2.225
 3923SOL     OW28910   5.942   5.713   1.537
 3923SOL    HW128911   5.903   5.657   1.605
 3923SOL    HW228912   5.999   5.773   1.586
 3924SOL     OW28913   0.859   3.028   7.206
 3924SOL    HW128914   0.918   2.958   7.235
 3924SOL    HW228915   0.778   2.983   7.183
 3925SOL     OW28916   5.245   1.818   0.366
 3925SOL    HW128917   5.293   1.797   0.285
 3925SOL    HW228918   5.153   1.806   0.343
 3926SOL     OW28919   5.273   4.021   0.309
 3926SOL    HW128920   5.296   4.068   0.389
 3926SOL    HW228921   5.203   3.962   0.336
 3927SOL     OW28922   4.776   3.508   5.617
 3927SOL    HW128923   4.712   3.529   5.685
 3927SOL    HW228924   4.859   3.538   5.653
 3928SOL     OW28925   1.859   5.780   7.647
 3928SOL    HW128926   1.877   5.814   7.560
 3928SOL    HW228927   1.783   5.830   7.676
 3929SOL     OW28928   4.097   5.931   0.317
 3929SOL    HW128929   4.011   5.953   0.355
 3929SOL    HW228930   4.141   6.015   0.306
 3930SOL     OW28931   6.169   5.248   0.919
 3930SOL    HW128932   6.179   5.154   0.901
 3930SOL    HW228933   6.253   5.275   0.954
 3931SOL     OW28934   2.191   4.986   6.039
 3931SOL    HW128935   2.106   4.944   6.051
 3931SOL    HW228936   2.249   4.917   6.006
 3932SOL     OW28937   3.740   0.830   7.640
 3932SOL    HW128938   3.760   0.737   7.648
 3932SOL    HW228939   3.744   0.863   7.730
 3933SOL     OW28940   0.772   3.208   7.566
 3933SOL    HW128941   0.783   3.186   7.658
 3933SOL    HW228942   0.851   3.175   7.524
 3934SOL     OW28943   5.420   5.144   5.916
 3934SOL    HW128944   5.481   5.095   5.971
 3934SOL    HW228945   5.442   5.118   5.827
 3935SOL     OW28946   1.830   4.457   1.150
 3935SOL    HW128947   1.876   4.420   1.074
 3935SOL    HW228948   1.818   4.383   1.209
 3936SOL     OW28949   5.166   1.279   1.207
 3936SOL    HW128950   5.250   1.232   1.214
 3936SOL    HW228951   5.173   1.349   1.271
 3937SOL     OW28952   5.247   1.162   0.966
 3937SOL    HW128953   5.199   1.228   1.015
 3937SOL    HW228954   5.309   1.126   1.029
 3938SOL     OW28955   2.708   6.348   6.502
 3938SOL    HW128956   2.657   6.273   6.535
 3938SOL    HW228957   2.799   6.320   6.509
 3939SOL     OW28958   3.612   1.981   6.247
 3939SOL    HW128959   3.592   1.954   6.157
 3939SOL    HW228960   3.555   1.927   6.302
 3940SOL     OW28961   3.794   1.486   6.625
 3940SOL    HW128962   3.723   1.548   6.607
 3940SOL    HW228963   3.766   1.405   6.583
 3941SOL     OW28964   4.695   1.252   6.220
 3941SOL    HW128965   4.767   1.279   6.163
 3941SOL    HW228966   4.735   1.246   6.307
 3942SOL     OW28967   0.044   0.777   6.655
 3942SOL    HW128968   0.074   0.815   6.738
 3942SOL    HW228969   0.095   0.823   6.588
 3943SOL     OW28970   3.647   0.277   1.095
 3943SOL    HW128971   3.713   0.346   1.104
 3943SOL    HW228972   3.645   0.259   1.001
 3944SOL     OW28973   2.275   6.362   7.644
 3944SOL    HW128974   2.208   6.426   7.621
 3944SOL    HW228975   2.357   6.401   7.616
 3945SOL     OW28976   0.096   2.754   0.085
 3945SOL    HW128977   0.174   2.700   0.074
 3945SOL    HW228978   0.024   2.692   0.096
 3946SOL     OW28979   1.475   0.257   1.224
 3946SOL    HW128980   1.505   0.170   1.198
 3946SOL    HW228981   1.391   0.268   1.179
 3947SOL     OW28982   4.797   3.140   7.268
 3947SOL    HW128983   4.831   3.224   7.238
 3947SOL    HW228984   4.702   3.148   7.261
 3948SOL     OW28985   6.269   3.710   6.049
 3948SOL    HW128986   6.282   3.735   6.140
 3948SOL    HW228987   6.228   3.623   6.054
 3949SOL     OW28988   2.984   1.061   7.344
 3949SOL    HW128989   2.921   1.085   7.276
 3949SOL    HW228990   3.064   1.108   7.320
 3950SOL     OW28991   4.166   5.230   0.546
 3950SOL    HW128992   4.216   5.301   0.505
 3950SOL    HW228993   4.079   5.267   0.561
 3951SOL     OW28994   2.108   1.753   1.660
 3951SOL    HW128995   2.195   1.716   1.670
 3951SOL    HW228996   2.061   1.726   1.739
 3952SOL     OW28997   1.111   3.131   7.195
 3952SOL    HW128998   1.028   3.104   7.157
 3952SOL    HW228999   1.088   3.197   7.260
 3953SOL     OW29000   0.141   5.101   1.355
 3953SOL    HW129001   0.183   5.053   1.427
 3953SOL    HW229002   0.201   5.172   1.335
 3954SOL     OW29003   4.591   4.746   5.770
 3954SOL    HW129004   4.538   4.672   5.801
 3954SOL    HW229005   4.527   4.814   5.750
 3955SOL     OW29006   4.358   0.609   7.495
 3955SOL    HW129007   4.426   0.543   7.480
 3955SOL    HW229008   4.333   0.596   7.587
 3956SOL     OW29009   0.899   4.514   0.039
 3956SOL    HW129010   0.842   4.452  -0.005
 3956SOL    HW229011   0.842   4.588   0.059
 3957SOL     OW29012   5.067   2.088   7.602
 3957SOL    HW129013   5.049   2.048   7.517
 3957SOL    HW229014   5.163   2.087   7.609
 3958SOL     OW29015   1.737   0.871   0.163
 3958SOL    HW129016   1.654   0.897   0.203
 3958SOL    HW229017   1.804   0.902   0.225
 3959SOL     OW29018   4.730   3.656   6.629
 3959SOL    HW129019   4.765   3.743   6.649
 3959SOL    HW229020   4.742   3.647   6.534
 3960SOL     OW29021   4.179   2.389   0.166
 3960SOL    HW129022   4.097   2.371   0.119
 3960SOL    HW229023   4.169   2.344   0.250
 3961SOL     OW29024   5.020   0.897   7.834
 3961SOL    HW129025   5.039   0.926   7.745
 3961SOL    HW229026   5.033   0.802   7.832
 3962SOL     OW29027   5.705   6.082   6.698
 3962SOL    HW129028   5.736   6.162   6.657
 3962SOL    HW229029   5.780   6.021   6.691
 3963SOL     OW29030   4.445   5.038   6.391
 3963SOL    HW129031   4.512   5.101   6.364
 3963SOL    HW229032   4.392   5.086   6.456
 3964SOL     OW29033   3.686   6.238   7.420
 3964SOL    HW129034   3.701   6.146   7.441
 3964SOL    HW229035   3.736   6.254   7.340
 3965SOL     OW29036   3.370   6.174   5.979
 3965SOL    HW129037   3.356   6.110   6.049
 3965SOL    HW229038   3.285   6.180   5.935
 3966SOL     OW29039   2.624   1.605   0.187
 3966SOL    HW129040   2.658   1.612   0.276
 3966SOL    HW229041   2.628   1.694   0.153
 3967SOL     OW29042   5.036   1.796   6.738
 3967SOL    HW129043   5.051   1.878   6.692
 3967SOL    HW229044   5.112   1.742   6.718
 3968SOL     OW29045   2.136   5.133   7.214
 3968SOL    HW129046   2.130   5.086   7.131
 3968SOL    HW229047   2.213   5.189   7.204
 3969SOL     OW29048   4.781   2.342   1.898
 3969SOL    HW129049   4.862   2.378   1.936
 3969SOL    HW229050   4.722   2.417   1.892
 3970SOL     OW29051   3.905   2.312   7.003
 3970SOL    HW129052   3.848   2.359   7.063
 3970SOL    HW229053   3.905   2.222   7.034
 3971SOL     OW29054   3.104   5.944   7.213
 3971SOL    HW129055   3.057   5.969   7.133
 3971SOL    HW229056   3.165   6.017   7.228
 3972SOL     OW29057   1.550   6.281   5.099
 3972SOL    HW129058   1.502   6.316   5.174
 3972SOL    HW229059   1.542   6.348   5.032
 3973SOL     OW29060   4.566   2.506   1.955
 3973SOL    HW129061   4.525   2.558   1.886
 3973SOL    HW229062   4.601   2.570   2.017
 3974SOL     OW29063   6.416   1.070   1.302
 3974SOL    HW129064   6.503   1.109   1.307
 3974SOL    HW229065   6.394   1.049   1.393
 3975SOL     OW29066   6.208   3.130   6.825
 3975SOL    HW129067   6.257   3.162   6.901
 3975SOL    HW229068   6.118   3.157   6.842
 3976SOL     OW29069   2.541   0.302   7.329
 3976SOL    HW129070   2.610   0.267   7.387
 3976SOL    HW229071   2.485   0.352   7.388
 3977SOL     OW29072   5.262   5.315   0.281
 3977SOL    HW129073   5.292   5.398   0.317
 3977SOL    HW229074   5.255   5.331   0.186
 3978SOL     OW29075   0.667   1.480   6.599
 3978SOL    HW129076   0.750   1.432   6.595
 3978SOL    HW229077   0.673   1.531   6.680
 3979SOL     OW29078   1.265   1.997   7.571
 3979SOL    HW129079   1.188   1.940   7.565
 3979SOL    HW229080   1.302   1.978   7.657
 3980SOL     OW29081   5.267   4.249   0.169
 3980SOL    HW129082   5.193   4.242   0.108
 3980SOL    HW229083   5.279   4.160   0.202
 3981SOL     OW29084   5.278   0.457   0.049
 3981SOL    HW129085   5.202   0.427  -0.001
 3981SOL    HW229086   5.287   0.550   0.026
 3982SOL     OW29087   1.922   0.907   5.928
 3982SOL    HW129088   1.996   0.872   5.879
 3982SOL    HW229089   1.862   0.939   5.862
 3983SOL     OW29090   5.717   3.530   7.569
 3983SOL    HW129091   5.807   3.554   7.593
 3983SOL    HW229092   5.710   3.438   7.591
 3984SOL     OW29093   3.893   2.512   1.342
 3984SOL    HW129094   3.847   2.575   1.287
 3984SOL    HW229095   3.963   2.477   1.286
 3985SOL     OW29096   6.077   0.876   1.861
 3985SOL    HW129097   6.017   0.865   1.935
 3985SOL    HW229098   6.142   0.807   1.873
 3986SOL     OW29099   1.746   5.762   1.158
 3986SOL    HW129100   1.674   5.796   1.212
 3986SOL    HW229101   1.764   5.831   1.095
 3987SOL     OW29102   5.227   3.802   6.461
 3987SOL    HW129103   5.308   3.803   6.511
 3987SOL    HW229104   5.251   3.834   6.374
 3988SOL     OW29105   3.648   0.240   1.574
 3988SOL    HW129106   3.670   0.150   1.551
 3988SOL    HW229107   3.671   0.247   1.667
 3989SOL     OW29108   4.351   2.388   6.866
 3989SOL    HW129109   4.299   2.354   6.939
 3989SOL    HW229110   4.293   2.452   6.824
 3990SOL     OW29111   2.031   0.855   6.914
 3990SOL    HW129112   2.118   0.832   6.879
 3990SOL    HW229113   2.046   0.937   6.962
 3991SOL     OW29114   4.307   6.111   6.952
 3991SOL    HW129115   4.315   6.135   6.860
 3991SOL    HW229116   4.397   6.100   6.982
 3992SOL     OW29117   1.453   3.898   7.411
 3992SOL    HW129118   1.524   3.853   7.366
 3992SOL    HW229119   1.394   3.828   7.438
 3993SOL     OW29120   3.484   0.752   0.756
 3993SOL    HW129121   3.540   0.694   0.704
 3993SOL    HW229122   3.428   0.692   0.805
 3994SOL     OW29123   0.893   5.108   5.404
 3994SOL    HW129124   0.925   5.115   5.314
 3994SOL    HW229125   0.900   5.197   5.438
 3995SOL     OW29126   0.411   3.246   7.811
 3995SOL    HW129127   0.381   3.265   7.900
 3995SOL    HW229128   0.442   3.330   7.778
 3996SOL     OW29129   4.175   0.244   6.296
 3996SOL    HW129130   4.205   0.181   6.230
 3996SOL    HW229131   4.083   0.257   6.276
 3997SOL     OW29132   4.803   2.396   7.477
 3997SOL    HW129133   4.782   2.343   7.400
 3997SOL    HW229134   4.816   2.332   7.547
 3998SOL     OW29135   2.357   2.039   6.720
 3998SOL    HW129136   2.410   1.981   6.666
 3998SOL    HW229137   2.329   1.984   6.793
 3999SOL     OW29138   0.477   5.556   6.631
 3999SOL    HW129139   0.516   5.504   6.560
 3999SOL    HW229140   0.458   5.641   6.591
 4000SOL     OW29141   5.981   1.576   7.402
 4000SOL    HW129142   6.073   1.592   7.422
 4000SOL    HW229143   5.965   1.627   7.322
 4001SOL     OW29144   4.277   5.174   6.586
 4001SOL    HW129145   4.317   5.259   6.565
 4001SOL    HW229146   4.193   5.176   6.541
 4002SOL     OW29147   2.999   1.313   1.267
 4002SOL    HW129148   3.044   1.235   1.235
 4002SOL    HW229149   3.007   1.309   1.362
 4003SOL     OW29150   0.122   0.831   5.811
 4003SOL    HW129151   0.031   0.829   5.783
 4003SOL    HW229152   0.171   0.854   5.732
 4004SOL     OW29153   2.134   1.078   1.573
 4004SOL    HW129154   2.160   1.117   1.489
 4004SOL    HW229155   2.199   1.111   1.635
 4005SOL     OW29156   0.918   0.641   5.555
 4005SOL    HW129157   0.902   0.686   5.472
 4005SOL    HW229158   1.013   0.625   5.556
 4006SOL     OW29159   5.124   0.584   7.365
 4006SOL    HW129160   5.078   0.510   7.327
 4006SOL    HW229161   5.210   0.550   7.389
 4007SOL     OW29162   3.077   1.076   5.714
 4007SOL    HW129163   3.132   1.033   5.780
 4007SOL    HW229164   3.004   1.112   5.765
 4008SOL     OW29165   6.331   3.293   1.217
 4008SOL    HW129166   6.304   3.364   1.274
 4008SOL    HW229167   6.256   3.232   1.218
 4009SOL     OW29168   4.495   4.769   6.340
 4009SOL    HW129169   4.487   4.849   6.392
 4009SOL    HW229170   4.533   4.798   6.257
 4010SOL     OW29171   4.993   5.046   1.466
 4010SOL    HW129172   4.924   4.990   1.501
 4010SOL    HW229173   5.063   5.041   1.530
 4011SOL     OW29174   3.721   1.574   7.444
 4011SOL    HW129175   3.656   1.504   7.434
 4011SOL    HW229176   3.766   1.552   7.526
 4012SOL     OW29177   3.391   1.257   1.068
 4012SOL    HW129178   3.478   1.237   1.101
 4012SOL    HW229179   3.332   1.225   1.136
 4013SOL     OW29180   5.886   1.379   7.811
 4013SOL    HW129181   5.855   1.293   7.838
 4013SOL    HW229182   5.976   1.383   7.842
 4014SOL     OW29183   2.867   2.435   0.774
 4014SOL    HW129184   2.816   2.516   0.782
 4014SOL    HW229185   2.870   2.417   0.680
 4015SOL     OW29186   2.615   4.220   7.762
 4015SOL    HW129187   2.677   4.284   7.728
 4015SOL    HW229188   2.603   4.158   7.690
 4016SOL     OW29189   4.838   2.427   5.418
 4016SOL    HW129190   4.844   2.480   5.497
 4016SOL    HW229191   4.766   2.466   5.368
 4017SOL     OW29192   3.961   5.713   7.579
 4017SOL    HW129193   4.048   5.714   7.620
 4017SOL    HW229194   3.900   5.716   7.651
 4018SOL     OW29195   0.405   6.329   6.163
 4018SOL    HW129196   0.329   6.373   6.201
 4018SOL    HW229197   0.477   6.347   6.223
 4019SOL     OW29198   2.221   5.621   6.932
 4019SOL    HW129199   2.203   5.712   6.907
 4019SOL    HW229200   2.279   5.589   6.863
 4020SOL     OW29201   3.620   5.189   7.284
 4020SOL    HW129202   3.545   5.150   7.329
 4020SOL    HW229203   3.678   5.218   7.354
 4021SOL     OW29204   5.981   2.667   7.026
 4021SOL    HW129205   5.950   2.580   7.049
 4021SOL    HW229206   5.975   2.717   7.107
 4022SOL     OW29207   4.374   2.364   1.727
 4022SOL    HW129208   4.362   2.306   1.802
 4022SOL    HW229209   4.315   2.438   1.744
 4023SOL     OW29210   1.011   0.437   0.145
 4023SOL    HW129211   0.915   0.444   0.142
 4023SOL    HW229212   1.033   0.459   0.235
 4024SOL     OW29213   5.683   1.705   0.022
 4024SOL    HW129214   5.713   1.747  -0.058
 4024SOL    HW229215   5.649   1.620  -0.007
 4025SOL     OW29216   3.397   5.873   1.078
 4025SOL    HW129217   3.418   5.852   0.987
 4025SOL    HW229218   3.311   5.914   1.075
 4026SOL     OW29219   0.639   0.856   0.518
 4026SOL    HW129220   0.623   0.787   0.582
 4026SOL    HW229221   0.551   0.883   0.490
 4027SOL     OW29222   0.377   2.383   7.536
 4027SOL    HW129223   0.336   2.455   7.584
 4027SOL    HW229224   0.339   2.387   7.448
 4028SOL     OW29225   5.631   2.902   5.809
 4028SOL    HW129226   5.582   2.900   5.726
 4028SOL    HW229227   5.564   2.912   5.876
 4029SOL     OW29228   3.112   0.194   1.194
 4029SOL    HW129229   3.085   0.179   1.285
 4029SOL    HW229230   3.203   0.223   1.201
 4030SOL     OW29231   1.661   3.410   6.825
 4030SOL    HW129232   1.687   3.322   6.852
 4030SOL    HW229233   1.743   3.457   6.813
 4031SOL     OW29234   6.298   5.903   5.223
 4031SOL    HW129235   6.240   5.936   5.292
 4031SOL    HW229236   6.378   5.954   5.233
 4032SOL     OW29237   4.567   5.275   6.998
 4032SOL    HW129238   4.648   5.230   7.022
 4032SOL    HW229239   4.527   5.300   7.081
 4033SOL     OW29240   5.755   5.579   7.749
 4033SOL    HW129241   5.661   5.558   7.743
 4033SOL    HW229242   5.794   5.533   7.675
 4034SOL     OW29243   5.881   4.740   4.684
 4034SOL    HW129244   5.818   4.668   4.679
 4034SOL    HW229245   5.828   4.818   4.700
 4035SOL     OW29246   1.480   4.770   0.391
 4035SOL    HW129247   1.491   4.849   0.443
 4035SOL    HW229248   1.421   4.714   0.443
 4036SOL     OW29249   1.620   5.401   6.459
 4036SOL    HW129250   1.644   5.312   6.485
 4036SOL    HW229251   1.613   5.449   6.542
 4037SOL     OW29252   4.618   1.042   5.919
 4037SOL    HW129253   4.527   1.067   5.939
 4037SOL    HW229254   4.625   0.952   5.949
 4038SOL     OW29255   5.274   3.112   6.506
 4038SOL    HW129256   5.182   3.093   6.524
 4038SOL    HW229257   5.303   3.163   6.582
 4039SOL     OW29258   4.463   6.218   0.428
 4039SOL    HW129259   4.442   6.261   0.511
 4039SOL    HW229260   4.526   6.276   0.385
 4040SOL     OW29261   2.794   0.748   0.824
 4040SOL    HW129262   2.706   0.709   0.822
 4040SOL    HW229263   2.852   0.675   0.846
 4041SOL     OW29264   0.855   2.255   0.469
 4041SOL    HW129265   0.791   2.316   0.504
 4041SOL    HW229266   0.905   2.306   0.405
 4042SOL     OW29267   0.071   5.334   7.008
 4042SOL    HW129268   0.118   5.415   6.996
 4042SOL    HW229269   0.099   5.303   7.095
 4043SOL     OW29270   6.207   2.612   7.770
 4043SOL    HW129271   6.196   2.705   7.788
 4043SOL    HW229272   6.263   2.580   7.840
 4044SOL     OW29273   5.125   6.168   6.084
 4044SOL    HW129274   5.194   6.174   6.150
 4044SOL    HW229275   5.125   6.076   6.057
 4045SOL     OW29276   5.206   3.224   7.624
 4045SOL    HW129277   5.126   3.174   7.615
 4045SOL    HW229278   5.209   3.280   7.547
 4046SOL     OW29279   4.582   0.966   7.067
 4046SOL    HW129280   4.565   0.998   7.155
 4046SOL    HW229281   4.498   0.970   7.022
 4047SOL     OW29282   5.543   2.163   1.108
 4047SOL    HW129283   5.612   2.209   1.060
 4047SOL    HW229284   5.589   2.095   1.157
 4048SOL     OW29285   5.156   1.493   0.641
 4048SOL    HW129286   5.239   1.458   0.608
 4048SOL    HW229287   5.177   1.584   0.664
 4049SOL     OW29288   0.988   3.453   6.526
 4049SOL    HW129289   0.902   3.413   6.541
 4049SOL    HW229290   1.032   3.449   6.611
 4050SOL     OW29291   4.850   0.806   0.915
 4050SOL    HW129292   4.876   0.896   0.931
 4050SOL    HW229293   4.819   0.806   0.824
 4051SOL     OW29294   6.360   1.560   5.660
 4051SOL    HW129295   6.285   1.508   5.629
 4051SOL    HW229296   6.372   1.627   5.594
 4052SOL     OW29297   0.085   0.668   6.922
 4052SOL    HW129298   0.080   0.731   6.994
 4052SOL    HW229299   0.014   0.606   6.939
 4053SOL     OW29300   0.620   4.967   6.223
 4053SOL    HW129301   0.604   4.935   6.311
 4053SOL    HW229302   0.557   4.920   6.168
 4054SOL     OW29303   5.941   1.477   0.371
 4054SOL    HW129304   6.007   1.510   0.432
 4054SOL    HW229305   5.928   1.549   0.309
 4055SOL     OW29306   3.217   5.883   6.630
 4055SOL    HW129307   3.147   5.819   6.619
 4055SOL    HW229308   3.247   5.871   6.721
 4056SOL     OW29309   5.017   3.482   6.240
 4056SOL    HW129310   5.003   3.392   6.270
 4056SOL    HW229311   4.998   3.536   6.317
 4057SOL     OW29312   1.023   6.047   6.359
 4057SOL    HW129313   1.095   6.035   6.297
 4057SOL    HW229314   1.058   6.016   6.442
 4058SOL     OW29315   1.958   2.674   7.031
 4058SOL    HW129316   1.910   2.594   7.010
 4058SOL    HW229317   2.043   2.644   7.061
 4059SOL     OW29318   0.565   3.586   0.875
 4059SOL    HW129319   0.482   3.623   0.905
 4059SOL    HW229320   0.548   3.492   0.866
 4060SOL     OW29321   3.174   6.291   1.805
 4060SOL    HW129322   3.114   6.251   1.868
 4060SOL    HW229323   3.182   6.227   1.734
 4061SOL     OW29324   1.121   4.810   0.069
 4061SOL    HW129325   1.194   4.842   0.122
 4061SOL    HW229326   1.158   4.737   0.020
 4062SOL     OW29327   4.790   6.183   1.856
 4062SOL    HW129328   4.814   6.200   1.947
 4062SOL    HW229329   4.741   6.101   1.859
 4063SOL     OW29330   4.726   2.048   0.041
 4063SOL    HW129331   4.778   1.969   0.027
 4063SOL    HW229332   4.750   2.077   0.129
 4064SOL     OW29333   1.029   2.189   7.206
 4064SOL    HW129334   1.012   2.118   7.268
 4064SOL    HW229335   1.038   2.144   7.122
 4065SOL     OW29336   4.398   4.411   0.257
 4065SOL    HW129337   4.417   4.345   0.324
 4065SOL    HW229338   4.316   4.451   0.286
 4066SOL     OW29339   0.986   0.165   0.599
 4066SOL    HW129340   1.024   0.186   0.684
 4066SOL    HW229341   0.975   0.070   0.601
 4067SOL     OW29342   0.915   4.621   5.296
 4067SOL    HW129343   0.937   4.528   5.296
 4067SOL    HW229344   0.947   4.653   5.380
 4068SOL     OW29345   4.594   4.012   1.670
 4068SOL    HW129346   4.526   3.973   1.616
 4068SOL    HW229347   4.547   4.052   1.743
 4069SOL     OW29348   2.092   2.466   7.575
 4069SOL    HW129349   2.108   2.391   7.518
 4069SOL    HW229350   2.174   2.514   7.576
 4070SOL     OW29351   1.445   2.231   6.194
 4070SOL    HW129352   1.379   2.170   6.229
 4070SOL    HW229353   1.490   2.264   6.272
 4071SOL     OW29354   1.924   3.420   6.746
 4071SOL    HW129355   1.937   3.454   6.658
 4071SOL    HW229356   1.993   3.356   6.759
 4072SOL     OW29357   6.404   2.384   6.444
 4072SOL    HW129358   6.484   2.387   6.495
 4072SOL    HW229359   6.420   2.316   6.378
 4073SOL     OW29360   2.954   3.686   7.148
 4073SOL    HW129361   2.892   3.639   7.092
 4073SOL    HW229362   3.036   3.638   7.137
 4074SOL     OW29363   1.041   0.908   5.624
 4074SOL    HW129364   1.023   0.814   5.616
 4074SOL    HW229365   0.973   0.950   5.571
 4075SOL     OW29366   5.672   2.001   0.490
 4075SOL    HW129367   5.708   1.945   0.422
 4075SOL    HW229368   5.739   2.067   0.506
 4076SOL     OW29369   4.821   5.315   0.026
 4076SOL    HW129370   4.916   5.308   0.027
 4076SOL    HW229371   4.801   5.365  -0.053
 4077SOL     OW29372   0.574   1.045   7.713
 4077SOL    HW129373   0.563   1.009   7.801
 4077SOL    HW229374   0.540   0.977   7.654
 4078SOL     OW29375   0.714   3.343   5.510
 4078SOL    HW129376   0.661   3.294   5.573
 4078SOL    HW229377   0.759   3.275   5.460
 4079SOL     OW29378   4.798   5.673   0.022
 4079SOL    HW129379   4.820   5.735   0.091
 4079SOL    HW229380   4.881   5.634  -0.002
 4080SOL     OW29381   4.076   5.690   0.556
 4080SOL    HW129382   4.080   5.755   0.627
 4080SOL    HW229383   4.049   5.609   0.600
 4081SOL     OW29384   4.330   1.820   0.935
 4081SOL    HW129385   4.284   1.821   0.851
 4081SOL    HW229386   4.414   1.861   0.917
 4082SOL     OW29387   4.944   3.818   1.175
 4082SOL    HW129388   4.963   3.842   1.266
 4082SOL    HW229389   5.030   3.816   1.133
 4083SOL     OW29390   1.920   5.999   0.729
 4083SOL    HW129391   1.997   5.951   0.760
 4083SOL    HW229392   1.928   5.998   0.634
 4084SOL     OW29393   1.954   1.769   5.980
 4084SOL    HW129394   2.033   1.727   6.013
 4084SOL    HW229395   1.957   1.857   6.017
 4085SOL     OW29396   4.107   6.165   7.315
 4085SOL    HW129397   4.035   6.203   7.265
 4085SOL    HW229398   4.110   6.216   7.396
 4086SOL     OW29399   2.844   5.289   0.829
 4086SOL    HW129400   2.896   5.357   0.872
 4086SOL    HW229401   2.776   5.337   0.781
 4087SOL     OW29402   5.035   2.688   0.904
 4087SOL    HW129403   5.088   2.653   0.975
 4087SOL    HW229404   5.096   2.703   0.832
 4088SOL     OW29405   1.181   3.564   7.264
 4088SOL    HW129406   1.242   3.494   7.243
 4088SOL    HW229407   1.227   3.618   7.328
 4089SOL     OW29408   3.122   0.803   0.198
 4089SOL    HW129409   3.150   0.888   0.232
 4089SOL    HW229410   3.141   0.807   0.104
 4090SOL     OW29411   5.681   1.132   1.466
 4090SOL    HW129412   5.676   1.210   1.410
 4090SOL    HW229413   5.711   1.166   1.550
 4091SOL     OW29414   0.492   4.653   6.283
 4091SOL    HW129415   0.551   4.595   6.332
 4091SOL    HW229416   0.551   4.703   6.226
 4092SOL     OW29417   5.015   6.412   6.131
 4092SOL    HW129418   5.056   6.337   6.086
 4092SOL    HW229419   4.939   6.433   6.077
 4093SOL     OW29420   2.246   2.923   7.002
 4093SOL    HW129421   2.337   2.920   7.033
 4093SOL    HW229422   2.196   2.950   7.079
 4094SOL     OW29423   1.322   6.261   1.166
 4094SOL    HW129424   1.275   6.344   1.159
 4094SOL    HW229425   1.254   6.195   1.179
 4095SOL     OW29426   4.152   2.944   0.595
 4095SOL    HW129427   4.227   2.894   0.628
 4095SOL    HW229428   4.175   2.966   0.505
 4096SOL     OW29429   3.804   4.119   1.578
 4096SOL    HW129430   3.883   4.167   1.602
 4096SOL    HW229431   3.761   4.174   1.512
 4097SOL     OW29432   6.076   2.288   1.253
 4097SOL    HW129433   6.048   2.379   1.263
 4097SOL    HW229434   6.098   2.260   1.342
 4098SOL     OW29435   2.931   3.928   6.312
 4098SOL    HW129436   2.963   3.857   6.256
 4098SOL    HW229437   2.948   3.897   6.401
 4099SOL     OW29438   0.636   2.276   1.901
 4099SOL    HW129439   0.633   2.198   1.845
 4099SOL    HW229440   0.711   2.261   1.959
 4100SOL     OW29441   0.129   4.118   0.643
 4100SOL    HW129442   0.147   4.028   0.615
 4100SOL    HW229443   0.039   4.134   0.612
 4101SOL     OW29444   6.160   4.340   7.103
 4101SOL    HW129445   6.192   4.406   7.164
 4101SOL    HW229446   6.098   4.288   7.154
 4102SOL     OW29447   2.637   4.539   7.267
 4102SOL    HW129448   2.727   4.527   7.237
 4102SOL    HW229449   2.622   4.633   7.262
 4103SOL     OW29450   6.423   4.383   6.066
 4103SOL    HW129451   6.441   4.316   6.000
 4103SOL    HW229452   6.333   4.366   6.093
 4104SOL     OW29453   3.516   0.818   6.287
 4104SOL    HW129454   3.440   0.760   6.288
 4104SOL    HW229455   3.525   0.848   6.377
 4105SOL     OW29456   3.262   0.041   7.785
 4105SOL    HW129457   3.238   0.132   7.768
 4105SOL    HW229458   3.187  -0.010   7.753
 4106SOL     OW29459   5.010   5.708   0.585
 4106SOL    HW129460   5.034   5.752   0.667
 4106SOL    HW229461   4.914   5.716   0.581
 4107SOL     OW29462   4.417   4.434   7.873
 4107SOL    HW129463   4.349   4.383   7.829
 4107SOL    HW229464   4.394   4.431   7.966
 4108SOL     OW29465   5.368   5.356   0.807
 4108SOL    HW129466   5.348   5.284   0.866
 4108SOL    HW229467   5.337   5.326   0.721
 4109SOL     OW29468   1.554   3.352   0.612
 4109SOL    HW129469   1.461   3.341   0.633
 4109SOL    HW229470   1.597   3.274   0.649
 4110SOL     OW29471   5.156   2.624   6.726
 4110SOL    HW129472   5.221   2.577   6.674
 4110SOL    HW229473   5.091   2.654   6.663
 4111SOL     OW29474   2.911   3.168   1.952
 4111SOL    HW129475   2.817   3.168   1.937
 4111SOL    HW229476   2.941   3.084   1.916
 4112SOL     OW29477   1.717   3.623   5.733
 4112SOL    HW129478   1.787   3.610   5.668
 4112SOL    HW229479   1.641   3.647   5.680
 4113SOL     OW29480   5.718   3.259   1.025
 4113SOL    HW129481   5.688   3.308   1.102
 4113SOL    HW229482   5.801   3.300   1.001
 4114SOL     OW29483   1.259   4.508   7.218
 4114SOL    HW129484   1.244   4.419   7.188
 4114SOL    HW229485   1.341   4.503   7.268
 4115SOL     OW29486   3.658   4.319   0.096
 4115SOL    HW129487   3.611   4.348   0.174
 4115SOL    HW229488   3.743   4.363   0.102
 4116SOL     OW29489   4.237   2.523   0.826
 4116SOL    HW129490   4.154   2.486   0.796
 4116SOL    HW229491   4.216   2.613   0.850
 4117SOL     OW29492   5.702   1.736   1.674
 4117SOL    HW129493   5.682   1.684   1.751
 4117SOL    HW229494   5.617   1.771   1.646
 4118SOL     OW29495   2.563   1.974   5.727
 4118SOL    HW129496   2.517   2.058   5.732
 4118SOL    HW229497   2.605   1.974   5.641
 4119SOL     OW29498   0.021   0.892   0.545
 4119SOL    HW129499  -0.071   0.874   0.529
 4119SOL    HW229500   0.064   0.876   0.460
 4120SOL     OW29501   5.358   4.296   7.486
 4120SOL    HW129502   5.434   4.300   7.544
 4120SOL    HW229503   5.392   4.257   7.405
 4121SOL     OW29504   3.311   2.470   5.966
 4121SOL    HW129505   3.291   2.482   5.873
 4121SOL    HW229506   3.348   2.554   5.995
 4122SOL     OW29507   3.091   6.168   0.551
 4122SOL    HW129508   3.024   6.103   0.529
 4122SOL    HW229509   3.108   6.154   0.644
 4123SOL     OW29510   0.909   3.877   0.871
 4123SOL    HW129511   0.854   3.829   0.933
 4123SOL    HW229512   0.877   3.967   0.875
 4124SOL     OW29513   1.757   6.181   6.144
 4124SOL    HW129514   1.741   6.275   6.132
 4124SOL    HW229515   1.677   6.148   6.185
 4125SOL     OW29516   6.227   0.482   6.522
 4125SOL    HW129517   6.302   0.466   6.465
 4125SOL    HW229518   6.158   0.425   6.487
 4126SOL     OW29519   0.378   3.062   5.940
 4126SOL    HW129520   0.390   3.157   5.949
 4126SOL    HW229521   0.283   3.050   5.948
 4127SOL     OW29522   6.271   4.809   1.361
 4127SOL    HW129523   6.337   4.843   1.422
 4127SOL    HW229524   6.231   4.887   1.323
 4128SOL     OW29525   3.674   1.259   1.808
 4128SOL    HW129526   3.713   1.326   1.864
 4128SOL    HW229527   3.706   1.176   1.844
 4129SOL     OW29528   1.215   0.811   1.098
 4129SOL    HW129529   1.256   0.894   1.075
 4129SOL    HW229530   1.221   0.807   1.194
 4130SOL     OW29531   4.306   1.428   6.719
 4130SOL    HW129532   4.218   1.393   6.708
 4130SOL    HW229533   4.293   1.521   6.734
 4131SOL     OW29534   5.316   1.909   7.310
 4131SOL    HW129535   5.307   1.992   7.262
 4131SOL    HW229536   5.286   1.842   7.248
 4132SOL     OW29537   3.566   3.391   5.738
 4132SOL    HW129538   3.611   3.333   5.677
 4132SOL    HW229539   3.559   3.474   5.692
 4133SOL     OW29540   5.753   2.970   1.137
 4133SOL    HW129541   5.824   3.031   1.116
 4133SOL    HW229542   5.678   3.026   1.156
 4134SOL     OW29543   1.094   4.503   7.555
 4134SOL    HW129544   1.100   4.511   7.649
 4134SOL    HW229545   1.161   4.562   7.521
 4135SOL     OW29546   0.945   6.213   5.702
 4135SOL    HW129547   0.870   6.263   5.671
 4135SOL    HW229548   0.908   6.130   5.732
 4136SOL     OW29549   5.451   3.585   7.198
 4136SOL    HW129550   5.447   3.666   7.248
 4136SOL    HW229551   5.483   3.520   7.261
 4137SOL     OW29552   1.683   1.756   6.944
 4137SOL    HW129553   1.619   1.695   6.979
 4137SOL    HW229554   1.644   1.788   6.863
 4138SOL     OW29555   5.142   0.709   7.614
 4138SOL    HW129556   5.076   0.640   7.617
 4138SOL    HW229557   5.147   0.733   7.522
 4139SOL     OW29558   1.981   3.033   7.136
 4139SOL    HW129559   1.909   2.984   7.096
 4139SOL    HW229560   1.973   3.016   7.230
 4140SOL     OW29561   0.734   3.454   7.146
 4140SOL    HW129562   0.709   3.374   7.191
 4140SOL    HW229563   0.744   3.519   7.215
 4141SOL     OW29564   6.069   0.020   5.886
 4141SOL    HW129565   6.067  -0.059   5.833
 4141SOL    HW229566   6.035  -0.008   5.971
 4142SOL     OW29567   6.313   3.102   7.394
 4142SOL    HW129568   6.296   3.196   7.385
 4142SOL    HW229569   6.292   3.065   7.308
 4143SOL     OW29570   4.661   5.537   0.545
 4143SOL    HW129571   4.705   5.620   0.530
 4143SOL    HW229572   4.594   5.557   0.611
 4144SOL     OW29573   1.402   0.388   6.271
 4144SOL    HW129574   1.355   0.420   6.348
 4144SOL    HW229575   1.340   0.398   6.199
 4145SOL     OW29576   5.459   0.953   1.463
 4145SOL    HW129577   5.494   0.864   1.467
 4145SOL    HW229578   5.535   1.009   1.481
 4146SOL     OW29579   5.877   0.152   2.212
 4146SOL    HW129580   5.863   0.075   2.157
 4146SOL    HW229581   5.852   0.123   2.300
 4147SOL     OW29582   5.351   6.110   5.453
 4147SOL    HW129583   5.421   6.175   5.454
 4147SOL    HW229584   5.388   6.035   5.406
 4148SOL     OW29585   0.807   6.042   0.783
 4148SOL    HW129586   0.750   6.100   0.733
 4148SOL    HW229587   0.747   5.989   0.836
 4149SOL     OW29588   3.829   0.978   0.371
 4149SOL    HW129589   3.888   0.905   0.391
 4149SOL    HW229590   3.833   1.034   0.449
 4150SOL     OW29591   0.330   4.410   7.734
 4150SOL    HW129592   0.345   4.480   7.797
 4150SOL    HW229593   0.270   4.448   7.670
 4151SOL     OW29594   5.413   5.255   7.719
 4151SOL    HW129595   5.494   5.221   7.682
 4151SOL    HW229596   5.364   5.178   7.747
 4152SOL     OW29597   1.021   0.531   1.242
 4152SOL    HW129598   1.066   0.507   1.323
 4152SOL    HW229599   0.951   0.591   1.270
 4153SOL     OW29600   2.069   3.085   7.760
 4153SOL    HW129601   2.097   3.159   7.812
 4153SOL    HW229602   1.973   3.093   7.757
 4154SOL     OW29603   3.608   0.892   0.989
 4154SOL    HW129604   3.525   0.900   0.942
 4154SOL    HW229605   3.602   0.807   1.033
 4155SOL     OW29606   0.140   6.019   6.062
 4155SOL    HW129607   0.084   6.032   6.137
 4155SOL    HW229608   0.081   5.991   5.992
 4156SOL     OW29609   3.510   5.269   0.797
 4156SOL    HW129610   3.490   5.290   0.706
 4156SOL    HW229611   3.426   5.241   0.834
 4157SOL     OW29612   2.988   4.275   1.737
 4157SOL    HW129613   2.910   4.224   1.758
 4157SOL    HW229614   3.059   4.232   1.785
 4158SOL     OW29615   4.168   4.504   0.340
 4158SOL    HW129616   4.119   4.425   0.363
 4158SOL    HW229617   4.128   4.573   0.393
 4159SOL     OW29618   4.159   0.439   7.046
 4159SOL    HW129619   4.069   0.412   7.065
 4159SOL    HW229620   4.209   0.412   7.123
 4160SOL     OW29621   5.423   0.853   1.056
 4160SOL    HW129622   5.508   0.889   1.031
 4160SOL    HW229623   5.391   0.911   1.126
 4161SOL     OW29624   1.950   1.587   0.489
 4161SOL    HW129625   1.911   1.670   0.515
 4161SOL    HW229626   1.947   1.533   0.568
 4162SOL     OW29627   4.822   0.833   6.820
 4162SOL    HW129628   4.767   0.869   6.750
 4162SOL    HW229629   4.799   0.740   6.823
 4163SOL     OW29630   1.805   2.475   6.580
 4163SOL    HW129631   1.881   2.423   6.553
 4163SOL    HW229632   1.808   2.553   6.525
 4164SOL     OW29633   0.768   2.896   6.244
 4164SOL    HW129634   0.857   2.863   6.233
 4164SOL    HW229635   0.767   2.931   6.333
 4165SOL     OW29636   4.417   0.001   1.552
 4165SOL    HW129637   4.419   0.089   1.590
 4165SOL    HW229638   4.402   0.014   1.459
 4166SOL     OW29639   1.111   0.585   5.762
 4166SOL    HW129640   1.156   0.590   5.678
 4166SOL    HW229641   1.118   0.493   5.788
 4167SOL     OW29642   2.720   1.002   6.921
 4167SOL    HW129643   2.705   1.056   6.844
 4167SOL    HW229644   2.649   0.937   6.918
 4168SOL     OW29645   2.301   1.208   1.752
 4168SOL    HW129646   2.326   1.284   1.700
 4168SOL    HW229647   2.241   1.242   1.819
 4169SOL     OW29648   2.899   0.129   7.208
 4169SOL    HW129649   2.989   0.098   7.208
 4169SOL    HW229650   2.906   0.224   7.218
 4170SOL     OW29651   4.537   3.708   6.812
 4170SOL    HW129652   4.473   3.751   6.755
 4170SOL    HW229653   4.603   3.674   6.752
 4171SOL     OW29654   5.367   4.711   0.690
 4171SOL    HW129655   5.437   4.689   0.751
 4171SOL    HW229656   5.296   4.743   0.745
 4172SOL     OW29657   1.562   2.360   6.421
 4172SOL    HW129658   1.591   2.450   6.437
 4172SOL    HW229659   1.559   2.320   6.508
 4173SOL     OW29660   3.860   3.818   5.553
 4173SOL    HW129661   3.769   3.848   5.545
 4173SOL    HW229662   3.901   3.879   5.614
 4174SOL     OW29663   1.532   2.970   6.267
 4174SOL    HW129664   1.596   3.001   6.330
 4174SOL    HW229665   1.471   2.918   6.320
 4175SOL     OW29666   1.331   0.045   0.163
 4175SOL    HW129667   1.330   0.095   0.082
 4175SOL    HW229668   1.423   0.048   0.191
 4176SOL     OW29669   3.462   1.784   6.759
 4176SOL    HW129670   3.369   1.765   6.769
 4176SOL    HW229671   3.471   1.876   6.783
 4177SOL     OW29672   5.694   3.245   7.670
 4177SOL    HW129673   5.600   3.228   7.669
 4177SOL    HW229674   5.731   3.179   7.613
 4178SOL     OW29675   4.530   0.353   2.154
 4178SOL    HW129676   4.579   0.329   2.075
 4178SOL    HW229677   4.474   0.426   2.127
 4179SOL     OW29678   2.196   3.847   1.065
 4179SOL    HW129679   2.163   3.937   1.075
 4179SOL    HW229680   2.129   3.792   1.107
 4180SOL     OW29681   0.027   1.119   7.814
 4180SOL    HW129682   0.015   1.115   7.909
 4180SOL    HW229683   0.079   1.197   7.799
 4181SOL     OW29684   4.625   2.901   6.923
 4181SOL    HW129685   4.601   2.811   6.901
 4181SOL    HW229686   4.561   2.955   6.876
 4182SOL     OW29687   6.130   1.675   1.395
 4182SOL    HW129688   6.055   1.710   1.443
 4182SOL    HW229689   6.091   1.628   1.321
 4183SOL     OW29690   6.417   4.450   0.642
 4183SOL    HW129691   6.473   4.517   0.603
 4183SOL    HW229692   6.405   4.478   0.733
 4184SOL     OW29693   5.319   2.224   0.012
 4184SOL    HW129694   5.231   2.263   0.017
 4184SOL    HW229695   5.375   2.295  -0.018
 4185SOL     OW29696   1.120   6.279   7.211
 4185SOL    HW129697   1.025   6.277   7.194
 4185SOL    HW229698   1.153   6.344   7.149
 4186SOL     OW29699   2.469   5.050   7.100
 4186SOL    HW129700   2.460   5.142   7.123
 4186SOL    HW229701   2.445   5.045   7.008
 4187SOL     OW29702   0.619   5.019   7.598
 4187SOL    HW129703   0.665   4.975   7.527
 4187SOL    HW229704   0.559   4.952   7.632
 4188SOL     OW29705   6.193   5.040   4.730
 4188SOL    HW129706   6.289   5.038   4.730
 4188SOL    HW229707   6.172   5.123   4.772
 4189SOL     OW29708   0.860   4.949   0.767
 4189SOL    HW129709   0.785   4.957   0.709
 4189SOL    HW229710   0.910   5.030   0.752
 4190SOL     OW29711   5.361   2.544   0.069
 4190SOL    HW129712   5.397   2.632   0.078
 4190SOL    HW229713   5.275   2.556   0.029
 4191SOL     OW29714   6.363   1.782   5.519
 4191SOL    HW129715   6.331   1.847   5.582
 4191SOL    HW229716   6.408   1.834   5.452
 4192SOL     OW29717   4.918   0.527   6.489
 4192SOL    HW129718   4.859   0.595   6.457
 4192SOL    HW229719   4.974   0.506   6.414
 4193SOL     OW29720   4.000   3.665   0.538
 4193SOL    HW129721   4.016   3.757   0.516
 4193SOL    HW229722   4.025   3.658   0.630
 4194SOL     OW29723   0.181   1.965   5.421
 4194SOL    HW129724   0.184   1.929   5.333
 4194SOL    HW229725   0.201   2.058   5.410
 4195SOL     OW29726   0.290   4.108   5.011
 4195SOL    HW129727   0.330   4.194   5.023
 4195SOL    HW229728   0.272   4.077   5.100
 4196SOL     OW29729   6.398   0.133   5.586
 4196SOL    HW129730   6.305   0.154   5.581
 4196SOL    HW229731   6.438   0.181   5.513
 4197SOL     OW29732   0.264   2.324   1.249
 4197SOL    HW129733   0.209   2.305   1.325
 4197SOL    HW229734   0.337   2.374   1.284
 4198SOL     OW29735   2.614   4.808   5.729
 4198SOL    HW129736   2.687   4.867   5.747
 4198SOL    HW229737   2.577   4.840   5.646
 4199SOL     OW29738   0.028   5.753   6.276
 4199SOL    HW129739  -0.065   5.774   6.283
 4199SOL    HW229740   0.044   5.743   6.182
 4200SOL     OW29741   0.422   2.961   6.981
 4200SOL    HW129742   0.362   3.034   6.994
 4200SOL    HW229743   0.395   2.922   6.898
 4201SOL     OW29744   4.842   5.873   5.501
 4201SOL    HW129745   4.767   5.816   5.483
 4201SOL    HW229746   4.862   5.914   5.417
 4202SOL     OW29747   1.130   1.447   0.207
 4202SOL    HW129748   1.044   1.427   0.242
 4202SOL    HW229749   1.186   1.376   0.238
 4203SOL     OW29750   2.552   0.115   7.048
 4203SOL    HW129751   2.508   0.049   7.101
 4203SOL    HW229752   2.481   0.162   7.004
 4204SOL     OW29753   0.109   3.992   5.812
 4204SOL    HW129754   0.195   3.965   5.779
 4204SOL    HW229755   0.061   3.909   5.823
 4205SOL     OW29756   5.152   4.819   6.838
 4205SOL    HW129757   5.130   4.794   6.749
 4205SOL    HW229758   5.130   4.742   6.891
 4206SOL     OW29759   4.436   0.474   1.019
 4206SOL    HW129760   4.419   0.522   1.100
 4206SOL    HW229761   4.516   0.512   0.984
 4207SOL     OW29762   4.713   0.016   1.749
 4207SOL    HW129763   4.738  -0.072   1.778
 4207SOL    HW229764   4.708   0.009   1.654
 4208SOL     OW29765   4.868   2.825   5.892
 4208SOL    HW129766   4.951   2.780   5.887
 4208SOL    HW229767   4.849   2.830   5.986
 4209SOL     OW29768   2.855   3.221   7.063
 4209SOL    HW129769   2.894   3.277   6.996
 4209SOL    HW229770   2.880   3.132   7.038
 4210SOL     OW29771   2.704   3.764   7.842
 4210SOL    HW129772   2.760   3.690   7.867
 4210SOL    HW229773   2.643   3.727   7.778
 4211SOL     OW29774   2.467   4.326   7.390
 4211SOL    HW129775   2.473   4.266   7.316
 4211SOL    HW229776   2.558   4.345   7.413
 4212SOL     OW29777   3.781   6.395   0.755
 4212SOL    HW129778   3.786   6.315   0.806
 4212SOL    HW229779   3.871   6.428   0.752
 4213SOL     OW29780   2.591   3.718   5.863
 4213SOL    HW129781   2.608   3.624   5.851
 4213SOL    HW229782   2.562   3.748   5.776
 4214SOL     OW29783   1.658   6.400   1.530
 4214SOL    HW129784   1.625   6.479   1.573
 4214SOL    HW229785   1.630   6.408   1.439
 4215SOL     OW29786   1.944   3.366   0.223
 4215SOL    HW129787   1.972   3.282   0.259
 4215SOL    HW229788   1.862   3.385   0.268
 4216SOL     OW29789   1.460   5.689   7.281
 4216SOL    HW129790   1.427   5.731   7.361
 4216SOL    HW229791   1.496   5.606   7.311
 4217SOL     OW29792   3.871   3.474   6.811
 4217SOL    HW129793   3.908   3.457   6.724
 4217SOL    HW229794   3.824   3.556   6.800
 4218SOL     OW29795   1.146   5.640   7.094
 4218SOL    HW129796   1.132   5.731   7.120
 4218SOL    HW229797   1.108   5.633   7.007
 4219SOL     OW29798   3.841   1.807   1.366
 4219SOL    HW129799   3.910   1.743   1.349
 4219SOL    HW229800   3.798   1.777   1.446
 4220SOL     OW29801   3.980   2.200   1.264
 4220SOL    HW129802   4.000   2.234   1.351
 4220SOL    HW229803   4.003   2.271   1.204
 4221SOL     OW29804   0.320   5.326   0.289
 4221SOL    HW129805   0.265   5.251   0.264
 4221SOL    HW229806   0.352   5.361   0.206
 4222SOL     OW29807   2.116   5.817   0.735
 4222SOL    HW129808   2.089   5.783   0.650
 4222SOL    HW229809   2.123   5.740   0.792
 4223SOL     OW29810   3.726   2.365   5.882
 4223SOL    HW129811   3.707   2.287   5.829
 4223SOL    HW229812   3.722   2.438   5.820
 4224SOL     OW29813   0.509   0.340   5.786
 4224SOL    HW129814   0.569   0.395   5.736
 4224SOL    HW229815   0.471   0.280   5.722
 4225SOL     OW29816   1.177   5.192   1.730
 4225SOL    HW129817   1.154   5.121   1.789
 4225SOL    HW229818   1.223   5.255   1.785
 4226SOL     OW29819   0.157   0.341   6.280
 4226SOL    HW129820   0.217   0.342   6.206
 4226SOL    HW229821   0.193   0.407   6.340
 4227SOL     OW29822   4.412   2.171   7.553
 4227SOL    HW129823   4.466   2.146   7.627
 4227SOL    HW229824   4.322   2.159   7.584
 4228SOL     OW29825   0.266   2.657   6.777
 4228SOL    HW129826   0.228   2.724   6.834
 4228SOL    HW229827   0.217   2.663   6.696
 4229SOL     OW29828   5.741   3.902   6.611
 4229SOL    HW129829   5.787   3.950   6.680
 4229SOL    HW229830   5.725   3.816   6.649
 4230SOL     OW29831   6.323   2.211   6.017
 4230SOL    HW129832   6.235   2.173   6.005
 4230SOL    HW229833   6.324   2.286   5.958
 4231SOL     OW29834   1.389   5.019   7.105
 4231SOL    HW129835   1.342   4.944   7.067
 4231SOL    HW229836   1.354   5.027   7.193
 4232SOL     OW29837   2.676   5.910   1.791
 4232SOL    HW129838   2.661   5.979   1.856
 4232SOL    HW229839   2.769   5.888   1.801
 4233SOL     OW29840   3.287   0.546   0.487
 4233SOL    HW129841   3.370   0.506   0.514
 4233SOL    HW229842   3.223   0.510   0.548
 4234SOL     OW29843   0.243   0.648   5.614
 4234SOL    HW129844   0.230   0.738   5.585
 4234SOL    HW229845   0.308   0.654   5.685
 4235SOL     OW29846   1.420   5.007   7.823
 4235SOL    HW129847   1.384   4.970   7.903
 4235SOL    HW229848   1.412   4.937   7.758
 4236SOL     OW29849   4.196   5.907   1.367
 4236SOL    HW129850   4.291   5.913   1.371
 4236SOL    HW229851   4.169   5.983   1.314
 4237SOL     OW29852   0.119   5.340   0.064
 4237SOL    HW129853   0.090   5.249   0.055
 4237SOL    HW229854   0.197   5.346   0.008
 4238SOL     OW29855   1.904   0.138   6.159
 4238SOL    HW129856   1.930   0.127   6.068
 4238SOL    HW229857   1.834   0.074   6.172
 4239SOL     OW29858   4.298   3.815   6.713
 4239SOL    HW129859   4.213   3.849   6.740
 4239SOL    HW229860   4.345   3.892   6.681
 4240SOL     OW29861   2.452   1.745   5.208
 4240SOL    HW129862   2.410   1.822   5.170
 4240SOL    HW229863   2.403   1.729   5.289
 4241SOL     OW29864   4.533   3.015   0.568
 4241SOL    HW129865   4.479   3.036   0.492
 4241SOL    HW229866   4.486   2.943   0.610
 4242SOL     OW29867   2.036   5.219   6.742
 4242SOL    HW129868   2.018   5.284   6.810
 4242SOL    HW229869   2.041   5.136   6.790
 4243SOL     OW29870   5.371   1.156   5.989
 4243SOL    HW129871   5.386   1.091   5.921
 4243SOL    HW229872   5.458   1.178   6.022
 4244SOL     OW29873   2.673   1.859   5.950
 4244SOL    HW129874   2.619   1.858   5.871
 4244SOL    HW229875   2.746   1.800   5.930
 4245SOL     OW29876   1.501   2.794   0.218
 4245SOL    HW129877   1.454   2.758   0.293
 4245SOL    HW229878   1.519   2.718   0.162
 4246SOL     OW29879   5.767   6.010   1.153
 4246SOL    HW129880   5.854   5.995   1.192
 4246SOL    HW229881   5.743   5.926   1.115
 4247SOL     OW29882   5.702   2.814   0.407
 4247SOL    HW129883   5.684   2.759   0.483
 4247SOL    HW229884   5.635   2.882   0.410
 4248SOL     OW29885   0.140   5.667   5.488
 4248SOL    HW129886   0.188   5.743   5.455
 4248SOL    HW229887   0.140   5.679   5.583
 4249SOL     OW29888   2.687   5.177   0.221
 4249SOL    HW129889   2.697   5.127   0.140
 4249SOL    HW229890   2.660   5.265   0.192
 4250SOL     OW29891   1.616   3.477   5.923
 4250SOL    HW129892   1.533   3.525   5.913
 4250SOL    HW229893   1.673   3.513   5.856
 4251SOL     OW29894   2.558   2.888   6.668
 4251SOL    HW129895   2.550   2.982   6.653
 4251SOL    HW229896   2.594   2.854   6.586
 4252SOL     OW29897   2.825   3.374   1.035
 4252SOL    HW129898   2.915   3.384   1.004
 4252SOL    HW229899   2.793   3.463   1.043
 4253SOL     OW29900   4.457   4.627   6.969
 4253SOL    HW129901   4.452   4.573   7.048
 4253SOL    HW229902   4.519   4.581   6.913
 4254SOL     OW29903   5.586   1.108   6.169
 4254SOL    HW129904   5.644   1.070   6.236
 4254SOL    HW229905   5.633   1.097   6.087
 4255SOL     OW29906   4.856   5.251   7.489
 4255SOL    HW129907   4.779   5.250   7.432
 4255SOL    HW229908   4.844   5.176   7.547
 4256SOL     OW29909   5.511   4.489   7.198
 4256SOL    HW129910   5.439   4.426   7.206
 4256SOL    HW229911   5.476   4.559   7.144
 4257SOL     OW29912   6.108   4.970   0.784
 4257SOL    HW129913   6.034   4.945   0.839
 4257SOL    HW229914   6.163   4.892   0.781
 4258SOL     OW29915   3.808   5.900   0.882
 4258SOL    HW129916   3.731   5.855   0.845
 4258SOL    HW229917   3.805   5.879   0.975
 4259SOL     OW29918   1.634   5.875   7.731
 4259SOL    HW129919   1.639   5.821   7.810
 4259SOL    HW229920   1.542   5.898   7.723
 4260SOL     OW29921   4.726   0.715   6.400
 4260SOL    HW129922   4.713   0.678   6.313
 4260SOL    HW229923   4.719   0.810   6.388
 4261SOL     OW29924   5.709   3.790   7.261
 4261SOL    HW129925   5.733   3.706   7.220
 4261SOL    HW229926   5.777   3.804   7.327
 4262SOL     OW29927   1.329   3.427   0.916
 4262SOL    HW129928   1.302   3.433   0.825
 4262SOL    HW229929   1.323   3.334   0.937
 4263SOL     OW29930   1.118   5.919   7.144
 4263SOL    HW129931   1.213   5.920   7.131
 4263SOL    HW229932   1.087   5.996   7.096
 4264SOL     OW29933   0.994   0.428   1.800
 4264SOL    HW129934   0.958   0.340   1.815
 4264SOL    HW229935   1.065   0.413   1.737
 4265SOL     OW29936   4.434   1.269   7.448
 4265SOL    HW129937   4.377   1.316   7.509
 4265SOL    HW229938   4.508   1.328   7.433
 4266SOL     OW29939   2.529   0.558   0.287
 4266SOL    HW129940   2.589   0.548   0.360
 4266SOL    HW229941   2.460   0.615   0.321
 4267SOL     OW29942   4.055   4.293   6.566
 4267SOL    HW129943   4.083   4.371   6.518
 4267SOL    HW229944   4.027   4.231   6.499
 4268SOL     OW29945   4.977   5.057   6.535
 4268SOL    HW129946   5.002   5.148   6.517
 4268SOL    HW229947   4.933   5.028   6.456
 4269SOL     OW29948   4.132   5.013   6.959
 4269SOL    HW129949   4.167   4.925   6.977
 4269SOL    HW229950   4.071   5.029   7.031
 4270SOL     OW29951   3.476   1.582   0.825
 4270SOL    HW129952   3.474   1.676   0.808
 4270SOL    HW229953   3.413   1.569   0.896
 4271SOL     OW29954   5.167   6.146   5.212
 4271SOL    HW129955   5.203   6.110   5.131
 4271SOL    HW229956   5.232   6.123   5.279
 4272SOL     OW29957   4.354   2.265   0.698
 4272SOL    HW129958   4.422   2.276   0.764
 4272SOL    HW229959   4.274   2.249   0.748
 4273SOL     OW29960   5.173   5.862   6.113
 4273SOL    HW129961   5.246   5.851   6.052
 4273SOL    HW229962   5.107   5.799   6.084
 4274SOL     OW29963   0.731   0.096   0.901
 4274SOL    HW129964   0.708   0.004   0.917
 4274SOL    HW229965   0.688   0.117   0.818
 4275SOL     OW29966   5.633   4.635   0.536
 4275SOL    HW129967   5.583   4.705   0.579
 4275SOL    HW229968   5.723   4.647   0.568
 4276SOL     OW29969   5.610   1.173   0.207
 4276SOL    HW129970   5.546   1.170   0.136
 4276SOL    HW229971   5.598   1.091   0.255
 4277SOL     OW29972   4.312   0.972   0.137
 4277SOL    HW129973   4.358   0.945   0.217
 4277SOL    HW229974   4.282   0.891   0.097
 4278SOL     OW29975   2.681   5.388   1.481
 4278SOL    HW129976   2.704   5.467   1.433
 4278SOL    HW229977   2.765   5.345   1.498
 4279SOL     OW29978   3.380   6.179   0.205
 4279SOL    HW129979   3.312   6.246   0.202
 4279SOL    HW229980   3.372   6.140   0.292
 4280SOL     OW29981   4.087   3.708   6.053
 4280SOL    HW129982   4.028   3.633   6.063
 4280SOL    HW229983   4.029   3.784   6.055
 4281SOL     OW29984   1.492   0.075   0.498
 4281SOL    HW129985   1.508   0.013   0.569
 4281SOL    HW229986   1.404   0.053   0.468
 4282SOL     OW29987   3.954   0.934   5.995
 4282SOL    HW129988   4.011   1.011   5.987
 4282SOL    HW229989   4.003   0.864   5.952
 4283SOL     OW29990   4.656   5.451   1.298
 4283SOL    HW129991   4.590   5.491   1.241
 4283SOL    HW229992   4.653   5.502   1.378
 4284SOL     OW29993   3.908   3.564   0.826
 4284SOL    HW129994   3.844   3.494   0.815
 4284SOL    HW229995   3.860   3.644   0.804
 4285SOL     OW29996   5.651   2.366   0.906
 4285SOL    HW129997   5.693   2.439   0.860
 4285SOL    HW229998   5.723   2.324   0.954
 4286SOL     OW29999   4.170   4.965   7.545
 4286SOL    HW130000   4.118   4.890   7.573
 4286SOL    HW230001   4.106   5.034   7.528
 4287SOL     OW30002   6.017   5.849   6.175
 4287SOL    HW130003   5.964   5.868   6.253
 4287SOL    HW230004   6.091   5.798   6.208
 4288SOL     OW30005   4.042   1.465   0.297
 4288SOL    HW130006   3.973   1.460   0.364
 4288SOL    HW230007   4.123   1.479   0.346
 4289SOL     OW30008   3.657   2.536   7.858
 4289SOL    HW130009   3.576   2.556   7.903
 4289SOL    HW230010   3.720   2.599   7.892
 4290SOL     OW30011   5.015   3.574   5.723
 4290SOL    HW130012   5.034   3.545   5.812
 4290SOL    HW230013   5.099   3.607   5.691
 4291SOL     OW30014   5.564   5.022   5.711
 4291SOL    HW130015   5.643   5.063   5.747
 4291SOL    HW230016   5.585   5.007   5.619
 4292SOL     OW30017   4.601   1.846   5.722
 4292SOL    HW130018   4.667   1.784   5.693
 4292SOL    HW230019   4.650   1.914   5.769
 4293SOL     OW30020   5.817   5.672   1.294
 4293SOL    HW130021   5.788   5.581   1.302
 4293SOL    HW230022   5.860   5.692   1.377
 4294SOL     OW30023   5.713   5.613   6.743
 4294SOL    HW130024   5.767   5.683   6.707
 4294SOL    HW230025   5.624   5.648   6.742
 4295SOL     OW30026   3.852   5.826   6.327
 4295SOL    HW130027   3.832   5.918   6.344
 4295SOL    HW230028   3.861   5.787   6.414
 4296SOL     OW30029   2.195   3.469   7.294
 4296SOL    HW130030   2.261   3.433   7.353
 4296SOL    HW230031   2.121   3.408   7.301
 4297SOL     OW30032   5.322   3.867   7.286
 4297SOL    HW130033   5.376   3.875   7.365
 4297SOL    HW230034   5.233   3.885   7.316
 4298SOL     OW30035   1.814   1.445   6.708
 4298SOL    HW130036   1.821   1.372   6.646
 4298SOL    HW230037   1.797   1.405   6.792
 4299SOL     OW30038   3.333   0.850   1.561
 4299SOL    HW130039   3.293   0.937   1.551
 4299SOL    HW230040   3.309   0.824   1.650
 4300SOL     OW30041   4.445   4.567   1.718
 4300SOL    HW130042   4.420   4.528   1.634
 4300SOL    HW230043   4.435   4.496   1.782
 4301SOL     OW30044   2.339   0.721   1.871
 4301SOL    HW130045   2.366   0.778   1.799
 4301SOL    HW230046   2.344   0.632   1.834
 4302SOL     OW30047   3.938   2.761   6.966
 4302SOL    HW130048   3.974   2.808   7.040
 4302SOL    HW230049   3.881   2.824   6.922
 4303SOL     OW30050   5.452   4.540   1.796
 4303SOL    HW130051   5.364   4.528   1.832
 4303SOL    HW230052   5.474   4.631   1.816
 4304SOL     OW30053   0.428   4.338   7.385
 4304SOL    HW130054   0.385   4.404   7.332
 4304SOL    HW230055   0.469   4.387   7.456
 4305SOL     OW30056   5.746   4.198   7.793
 4305SOL    HW130057   5.835   4.220   7.766
 4305SOL    HW230058   5.757   4.154   7.877
 4306SOL     OW30059   3.077   3.933   6.760
 4306SOL    HW130060   3.012   3.875   6.798
 4306SOL    HW230061   3.112   3.885   6.686
 4307SOL     OW30062   5.665   1.859   0.256
 4307SOL    HW130063   5.629   1.947   0.240
 4307SOL    HW230064   5.629   1.805   0.185
 4308SOL     OW30065   3.738   3.031   1.064
 4308SOL    HW130066   3.666   3.037   1.127
 4308SOL    HW230067   3.696   3.035   0.979
 4309SOL     OW30068   0.656   4.290   0.638
 4309SOL    HW130069   0.658   4.195   0.628
 4309SOL    HW230070   0.597   4.305   0.712
 4310SOL     OW30071   5.812   3.997   0.498
 4310SOL    HW130072   5.805   3.947   0.416
 4310SOL    HW230073   5.874   3.947   0.551
 4311SOL     OW30074   3.896   2.830   1.118
 4311SOL    HW130075   3.821   2.782   1.153
 4311SOL    HW230076   3.864   2.921   1.110
 4312SOL     OW30077   5.063   4.937   0.898
 4312SOL    HW130078   4.972   4.933   0.870
 4312SOL    HW230079   5.088   4.845   0.910
 4313SOL     OW30080   5.913   0.357   7.545
 4313SOL    HW130081   5.888   0.378   7.456
 4313SOL    HW230082   5.831   0.333   7.589
 4314SOL     OW30083   4.128   6.291   5.880
 4314SOL    HW130084   4.126   6.331   5.793
 4314SOL    HW230085   4.212   6.244   5.883
 4315SOL     OW30086   5.320   5.140   0.453
 4315SOL    HW130087   5.302   5.201   0.381
 4315SOL    HW230088   5.245   5.081   0.453
 4316SOL     OW30089   2.224   3.008   5.479
 4316SOL    HW130090   2.173   3.008   5.397
 4316SOL    HW230091   2.211   2.920   5.515
 4317SOL     OW30092   3.715   1.650   6.846
 4317SOL    HW130093   3.653   1.706   6.799
 4317SOL    HW230094   3.773   1.616   6.777
 4318SOL     OW30095   5.589   5.623   0.539
 4318SOL    HW130096   5.600   5.616   0.634
 4318SOL    HW230097   5.677   5.643   0.506
 4319SOL     OW30098   5.500   4.318   7.746
 4319SOL    HW130099   5.588   4.290   7.772
 4319SOL    HW230100   5.441   4.257   7.789
 4320SOL     OW30101   3.785   3.706   6.682
 4320SOL    HW130102   3.874   3.715   6.647
 4320SOL    HW230103   3.731   3.760   6.623
 4321SOL     OW30104   0.842   3.162   7.867
 4321SOL    HW130105   0.819   3.088   7.923
 4321SOL    HW230106   0.938   3.163   7.866
 4322SOL     OW30107   4.123   0.951   7.413
 4322SOL    HW130108   4.101   1.043   7.426
 4322SOL    HW230109   4.180   0.950   7.335
 4323SOL     OW30110   3.938   0.067   0.442
 4323SOL    HW130111   4.012   0.090   0.386
 4323SOL    HW230112   3.971  -0.002   0.500
 4324SOL     OW30113   3.991   1.685   0.673
 4324SOL    HW130114   3.995   1.589   0.669
 4324SOL    HW230115   3.965   1.704   0.763
 4325SOL     OW30116   1.865   6.234   7.015
 4325SOL    HW130117   1.829   6.291   7.083
 4325SOL    HW230118   1.960   6.246   7.021
 4326SOL     OW30119   5.399   5.809   6.321
 4326SOL    HW130120   5.358   5.746   6.380
 4326SOL    HW230121   5.453   5.756   6.263
 4327SOL     OW30122   3.451   0.683   6.912
 4327SOL    HW130123   3.468   0.675   7.006
 4327SOL    HW230124   3.526   0.640   6.871
 4328SOL     OW30125   4.711   6.175   0.678
 4328SOL    HW130126   4.788   6.118   0.691
 4328SOL    HW230127   4.640   6.114   0.656
 4329SOL     OW30128   5.513   1.550   6.760
 4329SOL    HW130129   5.474   1.618   6.815
 4329SOL    HW230130   5.584   1.514   6.813
 4330SOL     OW30131   6.223   2.280   7.209
 4330SOL    HW130132   6.306   2.276   7.160
 4330SOL    HW230133   6.198   2.188   7.221
 4331SOL     OW30134   3.089   5.140   1.060
 4331SOL    HW130135   3.042   5.059   1.040
 4331SOL    HW230136   3.099   5.184   0.975
 4332SOL     OW30137   6.300   5.420   6.426
 4332SOL    HW130138   6.364   5.352   6.443
 4332SOL    HW230139   6.231   5.405   6.491
 4333SOL     OW30140   0.293   1.708   7.847
 4333SOL    HW130141   0.379   1.678   7.817
 4333SOL    HW230142   0.311   1.754   7.929
 4334SOL     OW30143   4.040   6.037   6.258
 4334SOL    HW130144   4.108   6.028   6.325
 4334SOL    HW230145   4.053   5.961   6.201
 4335SOL     OW30146   6.145   1.266   5.006
 4335SOL    HW130147   6.162   1.211   4.929
 4335SOL    HW230148   6.184   1.218   5.079
 4336SOL     OW30149   2.236   6.159   7.459
 4336SOL    HW130150   2.269   6.229   7.516
 4336SOL    HW230151   2.295   6.160   7.384
 4337SOL     OW30152   2.021   5.678   7.821
 4337SOL    HW130153   1.972   5.718   7.749
 4337SOL    HW230154   2.100   5.731   7.830
 4338SOL     OW30155   1.946   1.636   6.508
 4338SOL    HW130156   1.959   1.557   6.455
 4338SOL    HW230157   1.905   1.605   6.588
 4339SOL     OW30158   4.509   1.050   7.305
 4339SOL    HW130159   4.471   1.129   7.345
 4339SOL    HW230160   4.508   0.985   7.375
 4340SOL     OW30161   2.253   1.329   7.878
 4340SOL    HW130162   2.338   1.346   7.919
 4340SOL    HW230163   2.218   1.254   7.926
 4341SOL     OW30164   3.049   3.395   5.901
 4341SOL    HW130165   3.139   3.399   5.868
 4341SOL    HW230166   3.029   3.301   5.904
 4342SOL     OW30167   1.086   3.646   0.405
 4342SOL    HW130168   1.033   3.660   0.326
 4342SOL    HW230169   1.176   3.659   0.374
 4343SOL     OW30170   6.330   0.552   5.743
 4343SOL    HW130171   6.366   0.580   5.827
 4343SOL    HW230172   6.385   0.478   5.717
 4344SOL     OW30173   1.787   3.638   0.211
 4344SOL    HW130174   1.776   3.733   0.206
 4344SOL    HW230175   1.873   3.625   0.249
 4345SOL     OW30176   0.662   2.579   5.747
 4345SOL    HW130177   0.615   2.573   5.831
 4345SOL    HW230178   0.641   2.667   5.715
 4346SOL     OW30179   4.559   1.821   0.420
 4346SOL    HW130180   4.548   1.916   0.429
 4346SOL    HW230181   4.473   1.790   0.393
 4347SOL     OW30182   5.568   1.231   6.614
 4347SOL    HW130183   5.575   1.213   6.708
 4347SOL    HW230184   5.576   1.145   6.573
 4348SOL     OW30185   5.624   0.604   7.095
 4348SOL    HW130186   5.602   0.679   7.149
 4348SOL    HW230187   5.548   0.546   7.102
 4349SOL     OW30188   4.347   4.810   1.767
 4349SOL    HW130189   4.273   4.833   1.711
 4349SOL    HW230190   4.372   4.722   1.739
 4350SOL     OW30191   0.842   3.969   0.164
 4350SOL    HW130192   0.902   3.905   0.203
 4350SOL    HW230193   0.778   3.987   0.234
 4351SOL     OW30194   0.882   1.348   0.217
 4351SOL    HW130195   0.947   1.279   0.203
 4351SOL    HW230196   0.848   1.368   0.130
 4352SOL     OW30197   2.194   0.422   0.099
 4352SOL    HW130198   2.232   0.360   0.161
 4352SOL    HW230199   2.267   0.478   0.072
 4353SOL     OW30200   2.569   6.101   1.524
 4353SOL    HW130201   2.570   6.119   1.431
 4353SOL    HW230202   2.497   6.038   1.535
 4354SOL     OW30203   1.758   3.729   6.964
 4354SOL    HW130204   1.840   3.773   6.986
 4354SOL    HW230205   1.767   3.705   6.872
 4355SOL     OW30206   6.089   1.514   1.898
 4355SOL    HW130207   5.996   1.496   1.889
 4355SOL    HW230208   6.118   1.458   1.970
 4356SOL     OW30209   3.303   2.755   1.097
 4356SOL    HW130210   3.236   2.691   1.074
 4356SOL    HW230211   3.300   2.760   1.193
 4357SOL     OW30212   0.213   6.280   7.859
 4357SOL    HW130213   0.132   6.304   7.903
 4357SOL    HW230214   0.229   6.190   7.885
 4358SOL     OW30215   5.280   0.705   7.852
 4358SOL    HW130216   5.359   0.759   7.851
 4358SOL    HW230217   5.244   0.714   7.764
 4359SOL     OW30218   6.100   0.277   6.402
 4359SOL    HW130219   6.153   0.276   6.322
 4359SOL    HW230220   6.125   0.197   6.449
 4360SOL     OW30221   4.209   0.318   1.846
 4360SOL    HW130222   4.200   0.413   1.849
 4360SOL    HW230223   4.143   0.286   1.908
 4361SOL     OW30224   0.116   5.973   0.627
 4361SOL    HW130225   0.023   5.957   0.607
 4361SOL    HW230226   0.118   6.064   0.657
 4362SOL     OW30227   3.690   0.048   0.295
 4362SOL    HW130228   3.638  -0.021   0.338
 4362SOL    HW230229   3.771   0.051   0.345
 4363SOL     OW30230   2.277   1.118   7.615
 4363SOL    HW130231   2.238   1.202   7.591
 4363SOL    HW230232   2.336   1.138   7.688
 4364SOL     OW30233   2.888   6.175   5.292
 4364SOL    HW130234   2.942   6.125   5.352
 4364SOL    HW230235   2.878   6.260   5.334
 4365SOL     OW30236   0.010   4.261   5.816
 4365SOL    HW130237   0.078   4.196   5.802
 4365SOL    HW230238   0.032   4.332   5.755
 4366SOL     OW30239   4.553   0.249   0.801
 4366SOL    HW130240   4.561   0.337   0.838
 4366SOL    HW230241   4.595   0.192   0.865
 4367SOL     OW30242   1.192   2.102   7.022
 4367SOL    HW130243   1.221   2.100   7.113
 4367SOL    HW230244   1.222   2.019   6.985
 4368SOL     OW30245   1.578   4.068   5.443
 4368SOL    HW130246   1.632   4.048   5.521
 4368SOL    HW230247   1.632   4.038   5.370
 4369SOL     OW30248   3.684   2.863   0.557
 4369SOL    HW130249   3.609   2.844   0.501
 4369SOL    HW230250   3.727   2.938   0.515
 4370SOL     OW30251   1.459   2.205   1.784
 4370SOL    HW130252   1.418   2.187   1.868
 4370SOL    HW230253   1.553   2.193   1.800
 4371SOL     OW30254   3.056   4.934   2.062
 4371SOL    HW130255   3.043   5.003   2.127
 4371SOL    HW230256   2.968   4.906   2.038
 4372SOL     OW30257   4.355   5.110   7.679
 4372SOL    HW130258   4.290   5.058   7.631
 4372SOL    HW230259   4.439   5.071   7.655
 4373SOL     OW30260   0.542   3.618   0.181
 4373SOL    HW130261   0.599   3.636   0.107
 4373SOL    HW230262   0.478   3.689   0.181
 4374SOL     OW30263   3.600   4.928   6.650
 4374SOL    HW130264   3.677   4.938   6.706
 4374SOL    HW230265   3.630   4.873   6.578
 4375SOL     OW30266   5.750   2.943   0.103
 4375SOL    HW130267   5.765   3.036   0.085
 4375SOL    HW230268   5.766   2.934   0.197
 4376SOL     OW30269   5.306   4.527   6.864
 4376SOL    HW130270   5.220   4.497   6.893
 4376SOL    HW230271   5.304   4.518   6.768
 4377SOL     OW30272   6.193   3.656   0.253
 4377SOL    HW130273   6.276   3.610   0.258
 4377SOL    HW230274   6.215   3.747   0.272
 4378SOL     OW30275   6.300   3.898   6.307
 4378SOL    HW130276   6.283   3.974   6.363
 4378SOL    HW230277   6.369   3.850   6.353
 4379SOL     OW30278   4.144   0.655   5.639
 4379SOL    HW130279   4.185   0.672   5.554
 4379SOL    HW230280   4.174   0.567   5.663
 4380SOL     OW30281   3.224   5.653   6.349
 4380SOL    HW130282   3.181   5.712   6.286
 4380SOL    HW230283   3.152   5.604   6.388
 4381SOL     OW30284   5.912   6.324   1.219
 4381SOL    HW130285   5.989   6.330   1.161
 4381SOL    HW230286   5.849   6.385   1.180
 4382SOL     OW30287   2.158   6.393   0.280
 4382SOL    HW130288   2.225   6.400   0.212
 4382SOL    HW230289   2.182   6.461   0.343
 4383SOL     OW30290   2.668   5.133   4.986
 4383SOL    HW130291   2.680   5.056   4.931
 4383SOL    HW230292   2.741   5.131   5.047
 4384SOL     OW30293   5.174   0.515   1.747
 4384SOL    HW130294   5.113   0.447   1.774
 4384SOL    HW230295   5.249   0.469   1.712
 4385SOL     OW30296   5.824   0.653   7.727
 4385SOL    HW130297   5.850   0.613   7.644
 4385SOL    HW230298   5.829   0.582   7.790
 4386SOL     OW30299   5.297   4.094   0.586
 4386SOL    HW130300   5.273   4.054   0.670
 4386SOL    HW230301   5.389   4.119   0.597
 4387SOL     OW30302   4.816   2.656   0.177
 4387SOL    HW130303   4.854   2.725   0.123
 4387SOL    HW230304   4.740   2.625   0.127
 4388SOL     OW30305   3.758   5.485   0.389
 4388SOL    HW130306   3.811   5.559   0.359
 4388SOL    HW230307   3.739   5.435   0.309
 4389SOL     OW30308   0.701   0.515   5.633
 4389SOL    HW130309   0.675   0.453   5.565
 4389SOL    HW230310   0.767   0.571   5.592
 4390SOL     OW30311   5.179   2.606   6.982
 4390SOL    HW130312   5.171   2.613   6.887
 4390SOL    HW230313   5.261   2.558   6.995
 4391SOL     OW30314   3.755   6.247   6.647
 4391SOL    HW130315   3.828   6.224   6.705
 4391SOL    HW230316   3.766   6.190   6.571
 4392SOL     OW30317   0.959   2.118   1.800
 4392SOL    HW130318   0.931   2.032   1.768
 4392SOL    HW230319   0.940   2.117   1.894
 4393SOL     OW30320   1.993   1.035   7.431
 4393SOL    HW130321   2.086   1.056   7.428
 4393SOL    HW230322   1.981   0.968   7.364
 4394SOL     OW30323   5.045   1.042   6.641
 4394SOL    HW130324   5.102   0.965   6.647
 4394SOL    HW230325   5.091   1.101   6.582
 4395SOL     OW30326   2.817   4.352   0.081
 4395SOL    HW130327   2.756   4.278   0.070
 4395SOL    HW230328   2.904   4.311   0.083
 4396SOL     OW30329   2.224   2.277   6.653
 4396SOL    HW130330   2.277   2.214   6.702
 4396SOL    HW230331   2.184   2.332   6.719
 4397SOL     OW30332   4.029   1.639   6.537
 4397SOL    HW130333   4.007   1.679   6.453
 4397SOL    HW230334   3.971   1.563   6.544
 4398SOL     OW30335   1.535   4.485   0.065
 4398SOL    HW130336   1.608   4.527   0.109
 4398SOL    HW230337   1.481   4.449   0.136
 4399SOL     OW30338   4.729   0.988   1.616
 4399SOL    HW130339   4.820   0.961   1.631
 4399SOL    HW230340   4.703   1.031   1.697
 4400SOL     OW30341   1.414   3.348   7.314
 4400SOL    HW130342   1.454   3.416   7.260
 4400SOL    HW230343   1.489   3.303   7.355
 4401SOL     OW30344   5.123   2.231   0.928
 4401SOL    HW130345   5.202   2.257   0.880
 4401SOL    HW230346   5.137   2.139   0.948
 4402SOL     OW30347   2.361   2.980   0.406
 4402SOL    HW130348   2.387   3.023   0.325
 4402SOL    HW230349   2.438   2.929   0.432
 4403SOL     OW30350   2.392   2.508   7.594
 4403SOL    HW130351   2.400   2.498   7.688
 4403SOL    HW230352   2.434   2.592   7.575
 4404SOL     OW30353   4.595   5.391   0.143
 4404SOL    HW130354   4.686   5.372   0.120
 4404SOL    HW230355   4.592   5.378   0.238
 4405SOL     OW30356   4.878   2.364   1.065
 4405SOL    HW130357   4.950   2.369   1.002
 4405SOL    HW230358   4.921   2.370   1.151
 4406SOL     OW30359   5.275   3.897   6.198
 4406SOL    HW130360   5.370   3.891   6.194
 4406SOL    HW230361   5.245   3.853   6.119
 4407SOL     OW30362   6.401   0.944   7.400
 4407SOL    HW130363   6.335   1.010   7.425
 4407SOL    HW230364   6.461   0.942   7.475
 4408SOL     OW30365   3.372   2.985   0.934
 4408SOL    HW130366   3.450   2.961   0.885
 4408SOL    HW230367   3.356   2.911   0.992
 4409SOL     OW30368   1.822   5.218   6.304
 4409SOL    HW130369   1.863   5.282   6.362
 4409SOL    HW230370   1.821   5.259   6.218
 4410SOL     OW30371   3.171   3.495   2.217
 4410SOL    HW130372   3.145   3.572   2.167
 4410SOL    HW230373   3.091   3.466   2.260
 4411SOL     OW30374   2.117   2.813   1.214
 4411SOL    HW130375   2.112   2.733   1.266
 4411SOL    HW230376   2.209   2.837   1.216
 4412SOL     OW30377   4.246   6.163   0.255
 4412SOL    HW130378   4.239   6.248   0.211
 4412SOL    HW230379   4.312   6.177   0.323
 4413SOL     OW30380   4.174   3.070   7.452
 4413SOL    HW130381   4.096   3.048   7.503
 4413SOL    HW230382   4.246   3.033   7.503
 4414SOL     OW30383   1.912   3.081   5.046
 4414SOL    HW130384   1.925   2.989   5.023
 4414SOL    HW230385   1.989   3.125   5.010
 4415SOL     OW30386   1.953   3.304   0.943
 4415SOL    HW130387   1.933   3.279   1.034
 4415SOL    HW230388   1.938   3.224   0.893
 4416SOL     OW30389   4.787   2.773   0.657
 4416SOL    HW130390   4.764   2.805   0.570
 4416SOL    HW230391   4.768   2.679   0.654
 4417SOL     OW30392   4.390   4.988   7.272
 4417SOL    HW130393   4.334   4.998   7.349
 4417SOL    HW230394   4.411   5.077   7.246
 4418SOL     OW30395   2.032   0.859   7.231
 4418SOL    HW130396   2.083   0.927   7.186
 4418SOL    HW230397   2.098   0.798   7.264
 4419SOL     OW30398   2.060   5.005   6.931
 4419SOL    HW130399   2.033   4.913   6.935
 4419SOL    HW230400   2.147   5.002   6.892
 4420SOL     OW30401   3.946   6.237   6.100
 4420SOL    HW130402   4.009   6.275   6.038
 4420SOL    HW230403   3.986   6.155   6.127
 4421SOL     OW30404   3.296   3.241   5.066
 4421SOL    HW130405   3.214   3.242   5.115
 4421SOL    HW230406   3.308   3.331   5.038
 4422SOL     OW30407   6.261   4.254   1.033
 4422SOL    HW130408   6.296   4.298   0.956
 4422SOL    HW230409   6.304   4.297   1.107
 4423SOL     OW30410   3.542   2.922   0.213
 4423SOL    HW130411   3.493   2.998   0.244
 4423SOL    HW230412   3.514   2.911   0.122
 4424SOL     OW30413   4.872   5.811   1.015
 4424SOL    HW130414   4.911   5.737   0.969
 4424SOL    HW230415   4.899   5.800   1.106
 4425SOL     OW30416   0.229   0.064   6.292
 4425SOL    HW130417   0.214   0.158   6.291
 4425SOL    HW230418   0.236   0.041   6.385
 4426SOL     OW30419   0.863   0.216   5.407
 4426SOL    HW130420   0.879   0.127   5.375
 4426SOL    HW230421   0.942   0.239   5.455
 4427SOL     OW30422   5.420   5.463   6.806
 4427SOL    HW130423   5.506   5.498   6.782
 4427SOL    HW230424   5.372   5.458   6.724
 4428SOL     OW30425   3.172   2.274   0.294
 4428SOL    HW130426   3.168   2.357   0.248
 4428SOL    HW230427   3.263   2.247   0.289
 4429SOL     OW30428   6.020   1.733   6.909
 4429SOL    HW130429   5.956   1.706   6.975
 4429SOL    HW230430   6.105   1.714   6.949
 4430SOL     OW30431   0.447   3.685   1.233
 4430SOL    HW130432   0.482   3.689   1.322
 4430SOL    HW230433   0.437   3.591   1.216
 4431SOL     OW30434   0.676   5.567   7.864
 4431SOL    HW130435   0.690   5.496   7.926
 4431SOL    HW230436   0.749   5.559   7.802
 4432SOL     OW30437   5.565   5.095   0.123
 4432SOL    HW130438   5.589   5.054   0.206
 4432SOL    HW230439   5.560   5.188   0.142
 4433SOL     OW30440   0.361   2.425   7.041
 4433SOL    HW130441   0.448   2.459   7.064
 4433SOL    HW230442   0.377   2.366   6.967
 4434SOL     OW30443   3.418   4.187   7.207
 4434SOL    HW130444   3.427   4.092   7.215
 4434SOL    HW230445   3.382   4.215   7.291
 4435SOL     OW30446   4.582   6.245   7.835
 4435SOL    HW130447   4.646   6.277   7.898
 4435SOL    HW230448   4.504   6.224   7.888
 4436SOL     OW30449   5.088   6.222   1.332
 4436SOL    HW130450   5.132   6.307   1.324
 4436SOL    HW230451   5.011   6.229   1.275
 4437SOL     OW30452   1.818   1.514   4.966
 4437SOL    HW130453   1.747   1.542   5.023
 4437SOL    HW230454   1.788   1.536   4.878
 4438SOL     OW30455   5.958   2.901   1.332
 4438SOL    HW130456   5.937   2.815   1.369
 4438SOL    HW230457   5.876   2.929   1.291
 4439SOL     OW30458   0.911   1.364   7.157
 4439SOL    HW130459   1.001   1.330   7.156
 4439SOL    HW230460   0.865   1.308   7.219
 4440SOL     OW30461   6.330   0.897   5.639
 4440SOL    HW130462   6.285   0.964   5.691
 4440SOL    HW230463   6.397   0.945   5.591
 4441SOL     OW30464   4.089   0.281   7.883
 4441SOL    HW130465   4.160   0.330   7.842
 4441SOL    HW230466   4.116   0.189   7.877
 4442SOL     OW30467   2.585   4.481   1.190
 4442SOL    HW130468   2.654   4.468   1.255
 4442SOL    HW230469   2.582   4.576   1.177
 4443SOL     OW30470   3.469   1.231   0.720
 4443SOL    HW130471   3.436   1.259   0.806
 4443SOL    HW230472   3.415   1.156   0.696
 4444SOL     OW30473   1.483   0.198   6.534
 4444SOL    HW130474   1.476   0.175   6.441
 4444SOL    HW230475   1.574   0.223   6.546
 4445SOL     OW30476   2.152   2.594   0.699
 4445SOL    HW130477   2.143   2.682   0.662
 4445SOL    HW230478   2.153   2.608   0.794
 4446SOL     OW30479   1.006   1.109   0.145
 4446SOL    HW130480   1.033   1.115   0.053
 4446SOL    HW230481   1.004   1.015   0.163
 4447SOL     OW30482   0.412   1.933   6.911
 4447SOL    HW130483   0.339   1.958   6.968
 4447SOL    HW230484   0.394   1.975   6.828
 4448SOL     OW30485   4.326   1.375   0.814
 4448SOL    HW130486   4.357   1.408   0.898
 4448SOL    HW230487   4.259   1.310   0.838
 4449SOL     OW30488   5.752   3.110   6.725
 4449SOL    HW130489   5.798   3.059   6.658
 4449SOL    HW230490   5.668   3.067   6.735
 4450SOL     OW30491   3.316   3.117   1.155
 4450SOL    HW130492   3.345   3.081   1.071
 4450SOL    HW230493   3.264   3.046   1.194
 4451SOL     OW30494   0.871   0.206   4.998
 4451SOL    HW130495   0.933   0.161   5.055
 4451SOL    HW230496   0.910   0.292   4.984
 4452SOL     OW30497   5.971   6.379   6.142
 4452SOL    HW130498   5.965   6.286   6.163
 4452SOL    HW230499   6.057   6.406   6.175
 4453SOL     OW30500   1.702   5.095   7.616
 4453SOL    HW130501   1.721   5.004   7.640
 4453SOL    HW230502   1.769   5.146   7.661
 4454SOL     OW30503   4.864   2.105   2.357
 4454SOL    HW130504   4.883   2.097   2.263
 4454SOL    HW230505   4.788   2.048   2.370
 4455SOL     OW30506   3.634   5.847   0.358
 4455SOL    HW130507   3.688   5.925   0.364
 4455SOL    HW230508   3.694   5.774   0.376
 4456SOL     OW30509   3.739   1.105   5.881
 4456SOL    HW130510   3.792   1.183   5.864
 4456SOL    HW230511   3.791   1.053   5.942
 4457SOL     OW30512   0.108   3.047   5.874
 4457SOL    HW130513   0.049   3.120   5.856
 4457SOL    HW230514   0.066   2.972   5.831
 4458SOL     OW30515   2.367   3.565   7.824
 4458SOL    HW130516   2.456   3.532   7.834
 4458SOL    HW230517   2.378   3.654   7.791
 4459SOL     OW30518   1.852   2.429   0.328
 4459SOL    HW130519   1.797   2.505   0.350
 4459SOL    HW230520   1.940   2.454   0.356
 4460SOL     OW30521   2.224   5.963   6.003
 4460SOL    HW130522   2.129   5.972   6.012
 4460SOL    HW230523   2.236   5.901   5.932
 4461SOL     OW30524   0.376   1.682   5.069
 4461SOL    HW130525   0.467   1.699   5.093
 4461SOL    HW230526   0.326   1.750   5.114
 4462SOL     OW30527   4.940   2.348   1.320
 4462SOL    HW130528   4.878   2.372   1.389
 4462SOL    HW230529   4.977   2.264   1.348
 4463SOL     OW30530   0.351   0.985   1.442
 4463SOL    HW130531   0.445   0.983   1.459
 4463SOL    HW230532   0.312   0.949   1.522
 4464SOL     OW30533   2.353   5.521   5.711
 4464SOL    HW130534   2.309   5.439   5.733
 4464SOL    HW230535   2.384   5.508   5.621
 4465SOL     OW30536   4.858   1.347   0.959
 4465SOL    HW130537   4.824   1.425   0.915
 4465SOL    HW230538   4.935   1.378   1.007
 4466SOL     OW30539   5.817   2.249   0.675
 4466SOL    HW130540   5.758   2.296   0.734
 4466SOL    HW230541   5.853   2.179   0.728
 4467SOL     OW30542   1.435   2.566   5.863
 4467SOL    HW130543   1.437   2.627   5.938
 4467SOL    HW230544   1.523   2.530   5.860
 4468SOL     OW30545   1.651   2.206   1.110
 4468SOL    HW130546   1.561   2.173   1.114
 4468SOL    HW230547   1.663   2.255   1.191
 4469SOL     OW30548   0.422   6.122   6.669
 4469SOL    HW130549   0.432   6.074   6.750
 4469SOL    HW230550   0.399   6.055   6.604
 4470SOL     OW30551   1.100   6.062   0.830
 4470SOL    HW130552   1.140   6.013   0.900
 4470SOL    HW230553   1.009   6.032   0.828
 4471SOL     OW30554   0.223   3.797   6.211
 4471SOL    HW130555   0.198   3.863   6.146
 4471SOL    HW230556   0.203   3.837   6.295
 4472SOL     OW30557   4.413   0.812   6.462
 4472SOL    HW130558   4.420   0.840   6.553
 4472SOL    HW230559   4.503   0.814   6.429
 4473SOL     OW30560   0.661   2.052   7.773
 4473SOL    HW130561   0.698   1.993   7.839
 4473SOL    HW230562   0.704   2.027   7.691
 4474SOL     OW30563   3.555   5.763   0.087
 4474SOL    HW130564   3.536   5.670   0.079
 4474SOL    HW230565   3.564   5.778   0.181
 4475SOL     OW30566   1.918   4.395   6.854
 4475SOL    HW130567   1.955   4.341   6.785
 4475SOL    HW230568   1.824   4.375   6.852
 4476SOL     OW30569   2.229   1.314   6.573
 4476SOL    HW130570   2.271   1.383   6.523
 4476SOL    HW230571   2.204   1.355   6.656
 4477SOL     OW30572   0.577   0.322   7.762
 4477SOL    HW130573   0.498   0.292   7.807
 4477SOL    HW230574   0.547   0.392   7.704
 4478SOL     OW30575   2.981   0.780   0.621
 4478SOL    HW130576   2.961   0.735   0.539
 4478SOL    HW230577   2.904   0.764   0.676
 4479SOL     OW30578   3.404   5.755   0.452
 4479SOL    HW130579   3.488   5.790   0.422
 4479SOL    HW230580   3.404   5.665   0.421
 4480SOL     OW30581   0.218   0.203   1.073
 4480SOL    HW130582   0.288   0.169   1.017
 4480SOL    HW230583   0.146   0.141   1.061
 4481SOL     OW30584   6.000   6.292   5.655
 4481SOL    HW130585   5.925   6.264   5.708
 4481SOL    HW230586   5.985   6.251   5.570
 4482SOL     OW30587   1.773   4.797   6.784
 4482SOL    HW130588   1.705   4.762   6.842
 4482SOL    HW230589   1.770   4.892   6.798
 4483SOL     OW30590   3.775   6.123   0.215
 4483SOL    HW130591   3.811   6.207   0.188
 4483SOL    HW230592   3.705   6.105   0.152
 4484SOL     OW30593   2.190   1.933   7.640
 4484SOL    HW130594   2.156   1.859   7.591
 4484SOL    HW230595   2.121   1.954   7.703
 4485SOL     OW30596   0.646   5.916   0.985
 4485SOL    HW130597   0.565   5.961   0.962
 4485SOL    HW230598   0.657   5.933   1.079
 4486SOL     OW30599   4.110   2.622   6.391
 4486SOL    HW130600   4.075   2.711   6.396
 4486SOL    HW230601   4.082   2.589   6.306
 4487SOL     OW30602   0.990   4.034   7.383
 4487SOL    HW130603   1.016   4.125   7.401
 4487SOL    HW230604   0.909   4.042   7.333
 4488SOL     OW30605   3.144   4.476   7.291
 4488SOL    HW130606   3.052   4.456   7.271
 4488SOL    HW230607   3.149   4.571   7.283
 4489SOL     OW30608   0.203   2.869   6.265
 4489SOL    HW130609   0.254   2.791   6.241
 4489SOL    HW230610   0.168   2.849   6.351
 4490SOL     OW30611   3.346   2.469   7.791
 4490SOL    HW130612   3.405   2.446   7.719
 4490SOL    HW230613   3.403   2.484   7.866
 4491SOL     OW30614   1.180   3.948   6.728
 4491SOL    HW130615   1.086   3.963   6.717
 4491SOL    HW230616   1.188   3.920   6.820
 4492SOL     OW30617   4.303   5.441   0.395
 4492SOL    HW130618   4.394   5.414   0.404
 4492SOL    HW230619   4.284   5.430   0.301
 4493SOL     OW30620   2.562   4.738   0.001
 4493SOL    HW130621   2.526   4.709   0.085
 4493SOL    HW230622   2.627   4.671  -0.021
 4494SOL     OW30623   4.492   2.865   1.473
 4494SOL    HW130624   4.532   2.781   1.494
 4494SOL    HW230625   4.422   2.843   1.411
 4495SOL     OW30626   3.365   3.906   6.537
 4495SOL    HW130627   3.353   3.999   6.560
 4495SOL    HW230628   3.458   3.889   6.554
 4496SOL     OW30629   1.156   2.330   6.431
 4496SOL    HW130630   1.076   2.295   6.470
 4496SOL    HW230631   1.181   2.266   6.365
 4497SOL     OW30632   2.490   5.768   5.553
 4497SOL    HW130633   2.402   5.805   5.558
 4497SOL    HW230634   2.477   5.679   5.521
 4498SOL     OW30635   2.019   5.407   6.293
 4498SOL    HW130636   2.071   5.466   6.238
 4498SOL    HW230637   2.073   5.329   6.301
 4499SOL     OW30638   4.014   3.396   6.316
 4499SOL    HW130639   3.966   3.416   6.236
 4499SOL    HW230640   4.026   3.301   6.314
 4500SOL     OW30641   0.496   5.257   5.765
 4500SOL    HW130642   0.494   5.168   5.730
 4500SOL    HW230643   0.460   5.311   5.695
 4501SOL     OW30644   6.234   2.864   1.116
 4501SOL    HW130645   6.204   2.795   1.176
 4501SOL    HW230646   6.256   2.818   1.035
 4502SOL     OW30647   6.167   5.027   7.748
 4502SOL    HW130648   6.192   5.008   7.658
 4502SOL    HW230649   6.072   5.018   7.750
 4503SOL     OW30650   3.528   0.595   1.142
 4503SOL    HW130651   3.494   0.630   1.224
 4503SOL    HW230652   3.618   0.569   1.161
 4504SOL     OW30653   5.873   5.220   7.626
 4504SOL    HW130654   5.876   5.311   7.597
 4504SOL    HW230655   5.842   5.225   7.717
 4505SOL     OW30656   5.691   4.332   5.128
 4505SOL    HW130657   5.630   4.399   5.096
 4505SOL    HW230658   5.670   4.254   5.078
 4506SOL     OW30659   4.019   5.182   7.537
 4506SOL    HW130660   3.936   5.217   7.504
 4506SOL    HW230661   4.027   5.219   7.625
 4507SOL     OW30662   1.721   6.078   7.224
 4507SOL    HW130663   1.766   6.158   7.253
 4507SOL    HW230664   1.643   6.073   7.278
 4508SOL     OW30665   1.497   0.973   0.281
 4508SOL    HW130666   1.479   0.893   0.331
 4508SOL    HW230667   1.440   0.966   0.204
 4509SOL     OW30668   3.336   5.572   6.879
 4509SOL    HW130669   3.299   5.660   6.871
 4509SOL    HW230670   3.426   5.581   6.848
 4510SOL     OW30671   4.839   6.256   0.446
 4510SOL    HW130672   4.785   6.240   0.524
 4510SOL    HW230673   4.929   6.263   0.481
 4511SOL     OW30674   2.818   4.817   6.023
 4511SOL    HW130675   2.824   4.834   5.929
 4511SOL    HW230676   2.784   4.728   6.029
 4512SOL     OW30677   5.067   5.868   1.971
 4512SOL    HW130678   5.003   5.800   1.991
 4512SOL    HW230679   5.072   5.870   1.876
 4513SOL     OW30680   3.250   6.076   6.369
 4513SOL    HW130681   3.297   5.998   6.396
 4513SOL    HW230682   3.226   6.060   6.278
 4514SOL     OW30683   2.150   5.584   0.885
 4514SOL    HW130684   2.141   5.556   0.976
 4514SOL    HW230685   2.238   5.556   0.860
 4515SOL     OW30686   4.537   3.723   0.144
 4515SOL    HW130687   4.515   3.816   0.146
 4515SOL    HW230688   4.475   3.683   0.206
 4516SOL     OW30689   0.760   4.697   0.873
 4516SOL    HW130690   0.806   4.780   0.862
 4516SOL    HW230691   0.818   4.645   0.929
 4517SOL     OW30692   3.506   0.519   6.677
 4517SOL    HW130693   3.515   0.469   6.596
 4517SOL    HW230694   3.412   0.519   6.696
 4518SOL     OW30695   0.711   0.055   1.517
 4518SOL    HW130696   0.780  -0.010   1.508
 4518SOL    HW230697   0.755   0.139   1.507
 4519SOL     OW30698   0.590   1.083   6.863
 4519SOL    HW130699   0.593   1.002   6.813
 4519SOL    HW230700   0.542   1.144   6.807
 4520SOL     OW30701   4.653   1.265   6.633
 4520SOL    HW130702   4.636   1.327   6.704
 4520SOL    HW230703   4.748   1.268   6.622
 4521SOL     OW30704   0.064   1.250   0.237
 4521SOL    HW130705   0.150   1.211   0.256
 4521SOL    HW230706   0.072   1.340   0.267
 4522SOL     OW30707   5.379   1.679   1.911
 4522SOL    HW130708   5.380   1.772   1.891
 4522SOL    HW230709   5.468   1.650   1.890
 4523SOL     OW30710   3.162   6.162   0.824
 4523SOL    HW130711   3.119   6.098   0.881
 4523SOL    HW230712   3.166   6.242   0.876
 4524SOL     OW30713   6.226   2.469   0.590
 4524SOL    HW130714   6.144   2.447   0.547
 4524SOL    HW230715   6.227   2.565   0.593
 4525SOL     OW30716   0.830   0.996   7.598
 4525SOL    HW130717   0.872   0.934   7.656
 4525SOL    HW230718   0.749   1.021   7.642
 4526SOL     OW30719   3.508   2.067   1.909
 4526SOL    HW130720   3.533   2.114   1.988
 4526SOL    HW230721   3.588   2.066   1.855
 4527SOL     OW30722   0.476   3.871   1.704
 4527SOL    HW130723   0.518   3.799   1.658
 4527SOL    HW230724   0.462   3.837   1.793
 4528SOL     OW30725   2.930   0.831   6.818
 4528SOL    HW130726   2.869   0.901   6.841
 4528SOL    HW230727   3.010   0.851   6.867
 4529SOL     OW30728   6.171   1.802   0.050
 4529SOL    HW130729   6.134   1.787  -0.037
 4529SOL    HW230730   6.240   1.866   0.036
 4530SOL     OW30731   4.831   4.294   7.215
 4530SOL    HW130732   4.903   4.356   7.227
 4530SOL    HW230733   4.752   4.344   7.235
 4531SOL     OW30734   4.841   4.453   7.782
 4531SOL    HW130735   4.830   4.359   7.791
 4531SOL    HW230736   4.907   4.476   7.848
 4532SOL     OW30737   4.081   4.206   0.279
 4532SOL    HW130738   4.120   4.222   0.365
 4532SOL    HW230739   4.154   4.180   0.224
 4533SOL     OW30740   0.339   0.349   6.996
 4533SOL    HW130741   0.276   0.280   7.019
 4533SOL    HW230742   0.402   0.349   7.068
 4534SOL     OW30743   4.222   4.178   7.856
 4534SOL    HW130744   4.218   4.247   7.790
 4534SOL    HW230745   4.276   4.110   7.816
 4535SOL     OW30746   5.872   5.406   6.657
 4535SOL    HW130747   5.810   5.475   6.681
 4535SOL    HW230748   5.821   5.325   6.663
 4536SOL     OW30749   5.959   1.664   7.693
 4536SOL    HW130750   5.902   1.737   7.714
 4536SOL    HW230751   5.924   1.628   7.611
 4537SOL     OW30752   2.928   4.655   6.621
 4537SOL    HW130753   3.021   4.678   6.625
 4537SOL    HW230754   2.887   4.729   6.576
 4538SOL     OW30755   1.797   1.794   0.556
 4538SOL    HW130756   1.824   1.836   0.474
 4538SOL    HW230757   1.814   1.860   0.623
 4539SOL     OW30758   4.737   2.162   0.880
 4539SOL    HW130759   4.768   2.198   0.797
 4539SOL    HW230760   4.785   2.211   0.947
 4540SOL     OW30761   4.821   2.137   0.318
 4540SOL    HW130762   4.774   2.190   0.382
 4540SOL    HW230763   4.867   2.201   0.263
 4541SOL     OW30764   2.545   1.495   5.149
 4541SOL    HW130765   2.504   1.581   5.141
 4541SOL    HW230766   2.473   1.437   5.174
 4542SOL     OW30767   1.113   2.344   1.900
 4542SOL    HW130768   1.040   2.297   1.860
 4542SOL    HW230769   1.074   2.420   1.942
 4543SOL     OW30770   4.808   1.225   7.449
 4543SOL    HW130771   4.771   1.210   7.536
 4543SOL    HW230772   4.896   1.185   7.454
 4544SOL     OW30773   1.309   2.383   1.145
 4544SOL    HW130774   1.349   2.387   1.058
 4544SOL    HW230775   1.381   2.395   1.206
 4545SOL     OW30776   1.140   4.277   0.576
 4545SOL    HW130777   1.160   4.196   0.529
 4545SOL    HW230778   1.155   4.255   0.668
 4546SOL     OW30779   4.757   3.568   0.084
 4546SOL    HW130780   4.736   3.475   0.094
 4546SOL    HW230781   4.677   3.613   0.111
 4547SOL     OW30782   1.370   5.971   7.157
 4547SOL    HW130783   1.439   5.912   7.125
 4547SOL    HW230784   1.409   6.014   7.233
 4548SOL     OW30785   4.731   3.028   1.358
 4548SOL    HW130786   4.819   2.993   1.367
 4548SOL    HW230787   4.681   2.987   1.429
 4549SOL     OW30788   1.251   0.775   6.239
 4549SOL    HW130789   1.285   0.742   6.322
 4549SOL    HW230790   1.317   0.749   6.174
 4550SOL     OW30791   2.123   4.527   7.630
 4550SOL    HW130792   2.112   4.621   7.639
 4550SOL    HW230793   2.062   4.502   7.561
 4551SOL     OW30794   5.180   1.874   6.104
 4551SOL    HW130795   5.257   1.918   6.067
 4551SOL    HW230796   5.192   1.881   6.199
 4552SOL     OW30797   1.387   1.379   6.962
 4552SOL    HW130798   1.350   1.340   6.882
 4552SOL    HW230799   1.426   1.461   6.932
 4553SOL     OW30800   5.625   5.219   6.530
 4553SOL    HW130801   5.691   5.202   6.598
 4553SOL    HW230802   5.612   5.314   6.533
 4554SOL     OW30803   5.609   0.179   5.423
 4554SOL    HW130804   5.589   0.273   5.430
 4554SOL    HW230805   5.697   0.171   5.461
 4555SOL     OW30806   1.541   3.770   6.547
 4555SOL    HW130807   1.446   3.767   6.550
 4555SOL    HW230808   1.565   3.717   6.471
 4556SOL     OW30809   2.759   0.819   0.053
 4556SOL    HW130810   2.769   0.834  -0.041
 4556SOL    HW230811   2.746   0.724   0.060
 4557SOL     OW30812   5.692   2.862   6.906
 4557SOL    HW130813   5.612   2.847   6.855
 4557SOL    HW230814   5.763   2.842   6.845
 4558SOL     OW30815   5.794   0.217   0.235
 4558SOL    HW130816   5.828   0.145   0.288
 4558SOL    HW230817   5.715   0.182   0.194
 4559SOL     OW30818   4.900   5.708   6.613
 4559SOL    HW130819   4.881   5.625   6.569
 4559SOL    HW230820   4.990   5.699   6.644
 4560SOL     OW30821   1.785   1.171   7.518
 4560SOL    HW130822   1.724   1.106   7.552
 4560SOL    HW230823   1.870   1.127   7.519
 4561SOL     OW30824   6.395   5.053   7.308
 4561SOL    HW130825   6.489   5.066   7.321
 4561SOL    HW230826   6.363   5.136   7.273
 4562SOL     OW30827   6.143   1.255   1.628
 4562SOL    HW130828   6.087   1.177   1.636
 4562SOL    HW230829   6.082   1.328   1.618
 4563SOL     OW30830   0.364   0.766   6.951
 4563SOL    HW130831   0.300   0.695   6.958
 4563SOL    HW230832   0.315   0.840   6.915
 4564SOL     OW30833   0.613   2.108   1.678
 4564SOL    HW130834   0.552   2.038   1.704
 4564SOL    HW230835   0.558   2.170   1.629
 4565SOL     OW30836   1.824   4.953   1.268
 4565SOL    HW130837   1.781   4.962   1.183
 4565SOL    HW230838   1.755   4.972   1.331
 4566SOL     OW30839   0.212   2.208   6.489
 4566SOL    HW130840   0.230   2.124   6.532
 4566SOL    HW230841   0.206   2.185   6.396
 4567SOL     OW30842   6.186   0.230   7.391
 4567SOL    HW130843   6.269   0.276   7.382
 4567SOL    HW230844   6.121   0.300   7.398
 4568SOL     OW30845   1.731   4.976   6.248
 4568SOL    HW130846   1.772   5.060   6.271
 4568SOL    HW230847   1.657   4.968   6.308
 4569SOL     OW30848   1.080   5.684   0.028
 4569SOL    HW130849   1.171   5.668   0.052
 4569SOL    HW230850   1.040   5.720   0.108
 4570SOL     OW30851   5.912   4.995   0.009
 4570SOL    HW130852   5.908   5.083   0.046
 4570SOL    HW230853   5.847   4.995  -0.061
 4571SOL     OW30854   5.943   4.237   5.229
 4571SOL    HW130855   5.874   4.271   5.174
 4571SOL    HW230856   5.939   4.142   5.218
 4572SOL     OW30857   2.665   3.199   6.003
 4572SOL    HW130858   2.657   3.221   6.096
 4572SOL    HW230859   2.576   3.201   5.970
 4573SOL     OW30860   3.354   5.871   6.090
 4573SOL    HW130861   3.358   5.777   6.070
 4573SOL    HW230862   3.322   5.912   6.010
 4574SOL     OW30863   4.478   3.765   6.140
 4574SOL    HW130864   4.422   3.690   6.121
 4574SOL    HW230865   4.500   3.800   6.053
 4575SOL     OW30866   0.626   0.681   6.371
 4575SOL    HW130867   0.543   0.715   6.405
 4575SOL    HW230868   0.611   0.671   6.277
 4576SOL     OW30869   1.189   0.669   0.292
 4576SOL    HW130870   1.176   0.588   0.342
 4576SOL    HW230871   1.272   0.704   0.325
 4577SOL     OW30872   5.211   6.393   7.415
 4577SOL    HW130873   5.195   6.487   7.416
 4577SOL    HW230874   5.252   6.377   7.329
 4578SOL     OW30875   2.151   6.324   7.028
 4578SOL    HW130876   2.148   6.371   6.944
 4578SOL    HW230877   2.244   6.303   7.040
 4579SOL     OW30878   4.750   2.528   0.441
 4579SOL    HW130879   4.818   2.571   0.389
 4579SOL    HW230880   4.675   2.519   0.382
 4580SOL     OW30881   3.537   1.303   6.172
 4580SOL    HW130882   3.510   1.223   6.217
 4580SOL    HW230883   3.474   1.315   6.102
 4581SOL     OW30884   5.670   1.961   7.368
 4581SOL    HW130885   5.608   2.023   7.330
 4581SOL    HW230886   5.661   1.883   7.314
 4582SOL     OW30887   2.274   3.061   6.180
 4582SOL    HW130888   2.261   3.129   6.246
 4582SOL    HW230889   2.273   2.979   6.229
 4583SOL     OW30890   6.393   0.038   7.080
 4583SOL    HW130891   6.375  -0.045   7.125
 4583SOL    HW230892   6.317   0.093   7.100
 4584SOL     OW30893   1.827   2.876   0.093
 4584SOL    HW130894   1.822   2.894  -0.001
 4584SOL    HW230895   1.806   2.783   0.101
 4585SOL     OW30896   4.901   1.776   2.330
 4585SOL    HW130897   4.970   1.792   2.395
 4585SOL    HW230898   4.927   1.695   2.286
 4586SOL     OW30899   4.818   6.379   6.574
 4586SOL    HW130900   4.747   6.338   6.525
 4586SOL    HW230901   4.892   6.380   6.514
 4587SOL     OW30902   2.246   2.644   5.340
 4587SOL    HW130903   2.238   2.661   5.434
 4587SOL    HW230904   2.327   2.689   5.315
 4588SOL     OW30905   5.729   1.833   7.644
 4588SOL    HW130906   5.698   1.801   7.560
 4588SOL    HW230907   5.683   1.916   7.657
 4589SOL     OW30908   5.688   6.351   7.543
 4589SOL    HW130909   5.598   6.321   7.555
 4589SOL    HW230910   5.701   6.415   7.612
 4590SOL     OW30911   5.902   2.412   6.419
 4590SOL    HW130912   5.904   2.444   6.329
 4590SOL    HW230913   5.958   2.334   6.417
 4591SOL     OW30914   5.113   1.095   7.426
 4591SOL    HW130915   5.114   1.022   7.363
 4591SOL    HW230916   5.188   1.078   7.483
 4592SOL     OW30917   4.619   1.100   5.663
 4592SOL    HW130918   4.623   1.086   5.758
 4592SOL    HW230919   4.535   1.143   5.648
 4593SOL     OW30920   3.189   5.948   1.401
 4593SOL    HW130921   3.137   5.879   1.442
 4593SOL    HW230922   3.146   6.029   1.428
 4594SOL     OW30923   3.762   3.232   6.607
 4594SOL    HW130924   3.758   3.209   6.514
 4594SOL    HW230925   3.692   3.296   6.619
 4595SOL     OW30926   2.110   3.699   7.169
 4595SOL    HW130927   2.114   3.685   7.074
 4595SOL    HW230928   2.150   3.621   7.207
 4596SOL     OW30929   6.132   6.024   1.424
 4596SOL    HW130930   6.125   5.982   1.510
 4596SOL    HW230931   6.200   5.975   1.379
 4597SOL     OW30932   2.049   3.690   0.401
 4597SOL    HW130933   2.092   3.626   0.457
 4597SOL    HW230934   2.082   3.672   0.313
 4598SOL     OW30935   2.794   4.978   7.218
 4598SOL    HW130936   2.708   4.964   7.177
 4598SOL    HW230937   2.852   4.998   7.144
 4599SOL     OW30938   5.670   5.023   6.357
 4599SOL    HW130939   5.646   5.093   6.418
 4599SOL    HW230940   5.677   5.066   6.272
 4600SOL     OW30941   1.622   5.125   0.386
 4600SOL    HW130942   1.680   5.201   0.376
 4600SOL    HW230943   1.571   5.124   0.305
 4601SOL     OW30944   5.938   4.567   6.334
 4601SOL    HW130945   5.989   4.579   6.414
 4601SOL    HW230946   5.917   4.656   6.305
 4602SOL     OW30947   2.362   2.197   5.933
 4602SOL    HW130948   2.311   2.275   5.910
 4602SOL    HW230949   2.326   2.128   5.878
 4603SOL     OW30950   0.695   2.366   6.357
 4603SOL    HW130951   0.729   2.329   6.438
 4603SOL    HW230952   0.672   2.456   6.380
 4604SOL     OW30953   1.479   2.731   2.009
 4604SOL    HW130954   1.426   2.761   1.935
 4604SOL    HW230955   1.563   2.775   1.998
 4605SOL     OW30956   0.787   3.613   0.700
 4605SOL    HW130957   0.719   3.622   0.768
 4605SOL    HW230958   0.774   3.525   0.665
 4606SOL     OW30959   5.364   2.313   1.232
 4606SOL    HW130960   5.397   2.238   1.183
 4606SOL    HW230961   5.432   2.379   1.224
 4607SOL     OW30962   5.486   0.343   5.665
 4607SOL    HW130963   5.578   0.369   5.667
 4607SOL    HW230964   5.444   0.397   5.731
 4608SOL     OW30965   2.907   4.620   5.178
 4608SOL    HW130966   2.931   4.574   5.258
 4608SOL    HW230967   2.990   4.650   5.142
 4609SOL     OW30968   2.959   5.250   1.784
 4609SOL    HW130969   2.975   5.194   1.709
 4609SOL    HW230970   2.895   5.203   1.837
 4610SOL     OW30971   0.152   1.493   0.295
 4610SOL    HW130972   0.203   1.574   0.303
 4610SOL    HW230973   0.073   1.519   0.249
 4611SOL     OW30974   3.783   1.466   1.948
 4611SOL    HW130975   3.796   1.435   2.037
 4611SOL    HW230976   3.814   1.557   1.949
 4612SOL     OW30977   0.426   0.034   1.549
 4612SOL    HW130978   0.521   0.038   1.541
 4612SOL    HW230979   0.393   0.065   1.464
 4613SOL     OW30980   1.131   0.380   7.201
 4613SOL    HW130981   1.044   0.419   7.213
 4613SOL    HW230982   1.191   0.455   7.200
 4614SOL     OW30983   6.226   4.688   0.775
 4614SOL    HW130984   6.308   4.735   0.786
 4614SOL    HW230985   6.220   4.632   0.853
 4615SOL     OW30986   1.445   1.880   6.573
 4615SOL    HW130987   1.456   1.920   6.486
 4615SOL    HW230988   1.535   1.862   6.602
 4616SOL     OW30989   6.062   3.331   7.855
 4616SOL    HW130990   5.987   3.380   7.889
 4616SOL    HW230991   6.025   3.250   7.820
 4617SOL     OW30992   4.186   2.371   5.995
 4617SOL    HW130993   4.124   2.420   5.941
 4617SOL    HW230994   4.269   2.418   5.985
 4618SOL     OW30995   0.872   5.789   6.497
 4618SOL    HW130996   0.937   5.850   6.530
 4618SOL    HW230997   0.827   5.837   6.427
 4619SOL     OW30998   0.430   6.373   1.936
 4619SOL    HW130999   0.346   6.330   1.923
 4619SOL    HW231000   0.408   6.456   1.979
 4620SOL     OW31001   3.303   2.252   6.680
 4620SOL    HW131002   3.339   2.338   6.658
 4620SOL    HW231003   3.216   2.271   6.717
 4621SOL     OW31004   6.021   6.273   1.470
 4621SOL    HW131005   6.059   6.187   1.453
 4621SOL    HW231006   5.954   6.284   1.403
 4622SOL     OW31007   0.237   1.873   5.671
 4622SOL    HW131008   0.221   1.941   5.736
 4622SOL    HW231009   0.218   1.915   5.587
 4623SOL     OW31010   3.850   3.266   1.182
 4623SOL    HW131011   3.920   3.241   1.121
 4623SOL    HW231012   3.779   3.206   1.163
 4624SOL     OW31013   5.134   2.672   0.274
 4624SOL    HW131014   5.151   2.685   0.181
 4624SOL    HW231015   5.040   2.689   0.283
 4625SOL     OW31016   2.581   6.190   0.895
 4625SOL    HW131017   2.574   6.231   0.808
 4625SOL    HW231018   2.491   6.187   0.928
 4626SOL     OW31019   2.396   1.859   0.707
 4626SOL    HW131020   2.327   1.809   0.663
 4626SOL    HW231021   2.463   1.872   0.641
 4627SOL     OW31022   5.293   0.179   7.721
 4627SOL    HW131023   5.212   0.131   7.735
 4627SOL    HW231024   5.330   0.191   7.809
 4628SOL     OW31025   6.402   1.795   1.237
 4628SOL    HW131026   6.456   1.873   1.250
 4628SOL    HW231027   6.330   1.825   1.181
 4629SOL     OW31028   0.898   2.171   6.459
 4629SOL    HW131029   0.877   2.107   6.527
 4629SOL    HW231030   0.868   2.131   6.377
 4630SOL     OW31031   4.711   5.395   5.676
 4630SOL    HW131032   4.726   5.443   5.594
 4630SOL    HW231033   4.762   5.444   5.741
 4631SOL     OW31034   3.151   3.376   5.292
 4631SOL    HW131035   3.202   3.410   5.366
 4631SOL    HW231036   3.121   3.290   5.321
 4632SOL     OW31037   2.514   3.060   7.043
 4632SOL    HW131038   2.478   3.142   7.011
 4632SOL    HW231039   2.495   3.060   7.137
 4633SOL     OW31040   4.921   0.165   0.382
 4633SOL    HW131041   4.898   0.192   0.293
 4633SOL    HW231042   5.009   0.201   0.396
 4634SOL     OW31043   4.407   0.740   1.723
 4634SOL    HW131044   4.436   0.650   1.712
 4634SOL    HW231045   4.344   0.737   1.795
 4635SOL     OW31046   4.828   6.194   1.221
 4635SOL    HW131047   4.787   6.123   1.172
 4635SOL    HW231048   4.756   6.235   1.269
 4636SOL     OW31049   5.249   6.316   7.876
 4636SOL    HW131050   5.210   6.292   7.792
 4636SOL    HW231051   5.327   6.261   7.883
 4637SOL     OW31052   2.314   2.630   6.129
 4637SOL    HW131053   2.233   2.583   6.111
 4637SOL    HW231054   2.323   2.691   6.056
 4638SOL     OW31055   1.030   2.540   5.436
 4638SOL    HW131056   0.946   2.585   5.440
 4638SOL    HW231057   1.040   2.501   5.522
 4639SOL     OW31058   1.126   4.713   7.347
 4639SOL    HW131059   1.056   4.751   7.293
 4639SOL    HW231060   1.164   4.645   7.292
 4640SOL     OW31061   2.992   0.150   7.837
 4640SOL    HW131062   3.025   0.162   7.747
 4640SOL    HW231063   3.055   0.197   7.891
 4641SOL     OW31064   4.021   5.384   5.562
 4641SOL    HW131065   4.054   5.447   5.626
 4641SOL    HW231066   4.034   5.427   5.477
 4642SOL     OW31067   3.076   3.600   0.410
 4642SOL    HW131068   2.984   3.573   0.418
 4642SOL    HW231069   3.108   3.602   0.500
 4643SOL     OW31070   0.472   2.725   7.263
 4643SOL    HW131071   0.438   2.805   7.305
 4643SOL    HW231072   0.394   2.674   7.242
 4644SOL     OW31073   3.564   6.026   0.060
 4644SOL    HW131074   3.563   5.930   0.055
 4644SOL    HW231075   3.492   6.047   0.119
 4645SOL     OW31076   4.417   3.303   1.576
 4645SOL    HW131077   4.510   3.325   1.562
 4645SOL    HW231078   4.415   3.264   1.663
 4646SOL     OW31079   3.865   1.113   2.279
 4646SOL    HW131080   3.886   1.207   2.279
 4646SOL    HW231081   3.940   1.071   2.238
 4647SOL     OW31082   0.284   2.268   5.762
 4647SOL    HW131083   0.324   2.322   5.830
 4647SOL    HW231084   0.257   2.331   5.695
 4648SOL     OW31085   1.324   5.706   5.396
 4648SOL    HW131086   1.322   5.802   5.394
 4648SOL    HW231087   1.319   5.680   5.304
 4649SOL     OW31088   1.757   2.284   7.629
 4649SOL    HW131089   1.794   2.336   7.700
 4649SOL    HW231090   1.820   2.214   7.615
 4650SOL     OW31091   0.493   1.521   0.951
 4650SOL    HW131092   0.579   1.517   0.911
 4650SOL    HW231093   0.453   1.600   0.914
 4651SOL     OW31094   1.234   0.062   0.421
 4651SOL    HW131095   1.158   0.008   0.440
 4651SOL    HW231096   1.247   0.052   0.326
 4652SOL     OW31097   1.427   0.368   7.555
 4652SOL    HW131098   1.449   0.394   7.466
 4652SOL    HW231099   1.334   0.390   7.564
 4653SOL     OW31100   1.151   5.355   7.283
 4653SOL    HW131101   1.126   5.408   7.207
 4653SOL    HW231102   1.247   5.348   7.276
 4654SOL     OW31103   6.378   6.350   0.071
 4654SOL    HW131104   6.344   6.262   0.056
 4654SOL    HW231105   6.361   6.396  -0.011
 4655SOL     OW31106   1.303   2.275   7.544
 4655SOL    HW131107   1.287   2.310   7.456
 4655SOL    HW231108   1.303   2.180   7.532
 4656SOL     OW31109   1.750   2.191   6.739
 4656SOL    HW131110   1.793   2.241   6.670
 4656SOL    HW231111   1.792   2.223   6.820
 4657SOL     OW31112   2.043   4.173   5.989
 4657SOL    HW131113   2.127   4.154   6.030
 4657SOL    HW231114   2.036   4.269   5.991
 4658SOL     OW31115   3.732   0.898   5.449
 4658SOL    HW131116   3.752   0.990   5.461
 4658SOL    HW231117   3.794   0.852   5.505
 4659SOL     OW31118   4.604   4.626   1.225
 4659SOL    HW131119   4.557   4.636   1.142
 4659SOL    HW231120   4.685   4.676   1.213
 4660SOL     OW31121   3.093   3.776   6.496
 4660SOL    HW131122   3.068   3.686   6.472
 4660SOL    HW231123   3.165   3.797   6.436
 4661SOL     OW31124   0.995   3.152   5.425
 4661SOL    HW131125   1.032   3.225   5.375
 4661SOL    HW231126   0.908   3.138   5.388
 4662SOL     OW31127   5.370   5.601   0.336
 4662SOL    HW131128   5.314   5.669   0.374
 4662SOL    HW231129   5.448   5.600   0.392
 4663SOL     OW31130   0.341   5.538   7.258
 4663SOL    HW131131   0.394   5.605   7.216
 4663SOL    HW231132   0.283   5.586   7.317
 4664SOL     OW31133   3.362   1.117   6.272
 4664SOL    HW131134   3.342   1.028   6.303
 4664SOL    HW231135   3.284   1.144   6.224
 4665SOL     OW31136   3.699   6.386   7.651
 4665SOL    HW131137   3.654   6.354   7.729
 4665SOL    HW231138   3.691   6.315   7.588
 4666SOL     OW31139   4.413   0.695   0.773
 4666SOL    HW131140   4.417   0.667   0.681
 4666SOL    HW231141   4.451   0.783   0.771
 4667SOL     OW31142   3.604   0.808   7.147
 4667SOL    HW131143   3.700   0.800   7.143
 4667SOL    HW231144   3.582   0.869   7.077
 4668SOL     OW31145   5.537   1.953   6.572
 4668SOL    HW131146   5.458   1.928   6.523
 4668SOL    HW231147   5.593   1.875   6.568
 4669SOL     OW31148   4.393   4.774   7.648
 4669SOL    HW131149   4.314   4.827   7.660
 4669SOL    HW231150   4.454   4.832   7.603
 4670SOL     OW31151   0.239   5.562   6.350
 4670SOL    HW131152   0.188   5.481   6.359
 4670SOL    HW231153   0.173   5.632   6.353
 4671SOL     OW31154   5.377   1.054   7.526
 4671SOL    HW131155   5.400   1.101   7.606
 4671SOL    HW231156   5.419   1.105   7.456
 4672SOL     OW31157   3.134   3.634   0.677
 4672SOL    HW131158   3.131   3.726   0.703
 4672SOL    HW231159   3.094   3.587   0.751
 4673SOL     OW31160   0.781   3.161   0.363
 4673SOL    HW131161   0.706   3.116   0.324
 4673SOL    HW231162   0.857   3.114   0.330
 4674SOL     OW31163   3.995   5.707   5.520
 4674SOL    HW131164   3.955   5.744   5.441
 4674SOL    HW231165   4.054   5.639   5.487
 4675SOL     OW31166   4.694   4.763   6.548
 4675SOL    HW131167   4.627   4.746   6.482
 4675SOL    HW231168   4.646   4.800   6.623
 4676SOL     OW31169   5.465   3.824   0.354
 4676SOL    HW131170   5.400   3.775   0.406
 4676SOL    HW231171   5.419   3.903   0.327
 4677SOL     OW31172   4.341   3.658   0.567
 4677SOL    HW131173   4.430   3.633   0.590
 4677SOL    HW231174   4.288   3.634   0.643
 4678SOL     OW31175   4.931   1.711   0.379
 4678SOL    HW131176   4.872   1.686   0.307
 4678SOL    HW231177   4.940   1.632   0.432
 4679SOL     OW31178   4.250   6.126   7.610
 4679SOL    HW131179   4.169   6.177   7.601
 4679SOL    HW231180   4.310   6.165   7.548
 4680SOL     OW31181   5.734   4.112   5.397
 4680SOL    HW131182   5.811   4.162   5.372
 4680SOL    HW231183   5.747   4.026   5.358
 4681SOL     OW31184   6.210   0.573   0.611
 4681SOL    HW131185   6.184   0.665   0.598
 4681SOL    HW231186   6.286   0.578   0.669
 4682SOL     OW31187   4.220   4.370   7.310
 4682SOL    HW131188   4.216   4.451   7.362
 4682SOL    HW231189   4.151   4.315   7.346
 4683SOL     OW31190   0.982   3.670   1.233
 4683SOL    HW131191   0.982   3.633   1.144
 4683SOL    HW231192   0.892   3.697   1.248
 4684SOL     OW31193   4.953   1.250   6.010
 4684SOL    HW131194   5.023   1.251   6.074
 4684SOL    HW231195   4.964   1.166   5.964
 4685SOL     OW31196   1.385   2.102   0.218
 4685SOL    HW131197   1.441   2.038   0.263
 4685SOL    HW231198   1.345   2.152   0.289
 4686SOL     OW31199   1.884   1.091   6.143
 4686SOL    HW131200   1.871   1.050   6.058
 4686SOL    HW231201   1.977   1.116   6.144
 4687SOL     OW31202   5.197   6.131   7.677
 4687SOL    HW131203   5.253   6.055   7.670
 4687SOL    HW231204   5.191   6.165   7.588
 4688SOL     OW31205   4.753   5.071   0.145
 4688SOL    HW131206   4.763   5.165   0.130
 4688SOL    HW231207   4.660   5.053   0.131
 4689SOL     OW31208   2.022   5.224   0.325
 4689SOL    HW131209   1.995   5.134   0.340
 4689SOL    HW231210   2.080   5.244   0.399
 4690SOL     OW31211   5.590   3.637   5.816
 4690SOL    HW131212   5.546   3.722   5.817
 4690SOL    HW231213   5.664   3.648   5.756
 4691SOL     OW31214   3.886   4.397   7.278
 4691SOL    HW131215   3.915   4.318   7.231
 4691SOL    HW231216   3.804   4.370   7.321
 4692SOL     OW31217   6.061   0.302   6.938
 4692SOL    HW131218   6.134   0.344   6.893
 4692SOL    HW231219   5.985   0.356   6.917
 4693SOL     OW31220   3.990   5.430   7.025
 4693SOL    HW131221   4.024   5.441   7.114
 4693SOL    HW231222   4.067   5.410   6.972
 4694SOL     OW31223   2.207   3.852   5.856
 4694SOL    HW131224   2.115   3.871   5.870
 4694SOL    HW231225   2.228   3.894   5.773
 4695SOL     OW31226   2.350   4.160   0.732
 4695SOL    HW131227   2.331   4.143   0.640
 4695SOL    HW231228   2.442   4.139   0.742
 4696SOL     OW31229   0.303   6.179   0.379
 4696SOL    HW131230   0.214   6.176   0.343
 4696SOL    HW231231   0.357   6.137   0.312
 4697SOL     OW31232   3.645   0.198   0.814
 4697SOL    HW131233   3.699   0.120   0.829
 4697SOL    HW231234   3.653   0.216   0.721
 4698SOL     OW31235   1.403   0.365   0.890
 4698SOL    HW131236   1.365   0.367   0.978
 4698SOL    HW231237   1.378   0.279   0.855
 4699SOL     OW31238   5.335   4.371   1.387
 4699SOL    HW131239   5.278   4.415   1.451
 4699SOL    HW231240   5.334   4.279   1.414
 4700SOL     OW31241   0.385   3.064   1.664
 4700SOL    HW131242   0.327   3.087   1.736
 4700SOL    HW231243   0.390   2.969   1.665
 4701SOL     OW31244   2.655   3.984   0.165
 4701SOL    HW131245   2.723   3.977   0.099
 4701SOL    HW231246   2.679   3.921   0.232
 4702SOL     OW31247   2.943   3.133   5.948
 4702SOL    HW131248   2.944   3.080   5.869
 4702SOL    HW231249   2.851   3.149   5.965
 4703SOL     OW31250   0.758   5.394   6.725
 4703SOL    HW131251   0.737   5.459   6.792
 4703SOL    HW231252   0.746   5.440   6.642
 4704SOL     OW31253   5.009   1.384   7.157
 4704SOL    HW131254   4.953   1.307   7.148
 4704SOL    HW231255   5.043   1.379   7.246
 4705SOL     OW31256   1.526   3.534   0.223
 4705SOL    HW131257   1.614   3.566   0.202
 4705SOL    HW231258   1.499   3.487   0.144
 4706SOL     OW31259   4.956   0.270   1.610
 4706SOL    HW131260   5.004   0.253   1.692
 4706SOL    HW231261   4.876   0.314   1.637
 4707SOL     OW31262   0.606   6.421   7.192
 4707SOL    HW131263   0.693   6.458   7.201
 4707SOL    HW231264   0.616   6.347   7.133
 4708SOL     OW31265   3.177   1.513   7.338
 4708SOL    HW131266   3.142   1.566   7.410
 4708SOL    HW231267   3.229   1.575   7.286
 4709SOL     OW31268   3.228   3.666   5.270
 4709SOL    HW131269   3.174   3.589   5.252
 4709SOL    HW231270   3.289   3.638   5.338
 4710SOL     OW31271   5.782   3.474   0.633
 4710SOL    HW131272   5.861   3.422   0.645
 4710SOL    HW231273   5.802   3.559   0.671
 4711SOL     OW31274   6.022   4.282   7.748
 4711SOL    HW131275   6.018   4.362   7.802
 4711SOL    HW231276   6.113   4.280   7.718
 4712SOL     OW31277   0.842   5.180   1.029
 4712SOL    HW131278   0.858   5.180   1.124
 4712SOL    HW231279   0.842   5.273   1.006
 4713SOL     OW31280   0.389   4.780   5.749
 4713SOL    HW131281   0.450   4.851   5.732
 4713SOL    HW231282   0.351   4.759   5.664
 4714SOL     OW31283   3.154   3.492   7.067
 4714SOL    HW131284   3.148   3.402   7.036
 4714SOL    HW231285   3.222   3.490   7.135
 4715SOL     OW31286   2.399   1.152   6.891
 4715SOL    HW131287   2.450   1.150   6.971
 4715SOL    HW231288   2.462   1.137   6.821
 4716SOL     OW31289   5.837   2.247   1.048
 4716SOL    HW131290   5.891   2.168   1.041
 4716SOL    HW231291   5.877   2.297   1.119
 4717SOL     OW31292   3.290   3.838   6.921
 4717SOL    HW131293   3.231   3.768   6.893
 4717SOL    HW231294   3.258   3.917   6.877
 4718SOL     OW31295   3.187   4.852   6.398
 4718SOL    HW131296   3.216   4.933   6.356
 4718SOL    HW231297   3.101   4.834   6.359
 4719SOL     OW31298   3.972   5.526   1.648
 4719SOL    HW131299   3.940   5.449   1.601
 4719SOL    HW231300   4.060   5.500   1.677
 4720SOL     OW31301   0.753   3.640   6.148
 4720SOL    HW131302   0.738   3.711   6.085
 4720SOL    HW231303   0.781   3.566   6.093
 4721SOL     OW31304   6.346   1.662   5.923
 4721SOL    HW131305   6.358   1.602   5.996
 4721SOL    HW231306   6.338   1.605   5.846
 4722SOL     OW31307   4.260   5.282   6.954
 4722SOL    HW131308   4.248   5.210   6.892
 4722SOL    HW231309   4.343   5.262   6.998
 4723SOL     OW31310   4.913   1.945   0.511
 4723SOL    HW131311   4.923   1.858   0.472
 4723SOL    HW231312   4.897   2.003   0.437
 4724SOL     OW31313   2.929   4.295   6.639
 4724SOL    HW131314   2.941   4.286   6.545
 4724SOL    HW231315   2.941   4.388   6.656
 4725SOL     OW31316   0.431   2.771   1.324
 4725SOL    HW131317   0.427   2.678   1.301
 4725SOL    HW231318   0.494   2.775   1.397
 4726SOL     OW31319   4.980   4.218   5.392
 4726SOL    HW131320   5.074   4.229   5.405
 4726SOL    HW231321   4.969   4.125   5.373
 4727SOL     OW31322   2.388   3.348   1.922
 4727SOL    HW131323   2.420   3.397   1.997
 4727SOL    HW231324   2.302   3.387   1.903
 4728SOL     OW31325   1.294   5.982   5.428
 4728SOL    HW131326   1.318   6.003   5.518
 4728SOL    HW231327   1.257   6.063   5.393
 4729SOL     OW31328   0.718   2.980   1.717
 4729SOL    HW131329   0.629   3.011   1.730
 4729SOL    HW231330   0.746   2.952   1.804
 4730SOL     OW31331   0.343   4.733   5.199
 4730SOL    HW131332   0.274   4.749   5.135
 4730SOL    HW231333   0.402   4.671   5.155
 4731SOL     OW31334   2.640   2.021   7.291
 4731SOL    HW131335   2.725   2.020   7.335
 4731SOL    HW231336   2.586   1.959   7.339
 4732SOL     OW31337   3.542   3.506   6.863
 4732SOL    HW131338   3.547   3.425   6.812
 4732SOL    HW231339   3.456   3.542   6.843
 4733SOL     OW31340   4.484   2.088   7.800
 4733SOL    HW131341   4.438   2.004   7.797
 4733SOL    HW231342   4.569   2.068   7.840
 4734SOL     OW31343   4.797   3.579   0.390
 4734SOL    HW131344   4.888   3.586   0.422
 4734SOL    HW231345   4.790   3.645   0.322
 4735SOL     OW31346   5.130   1.743   7.730
 4735SOL    HW131347   5.138   1.836   7.749
 4735SOL    HW231348   5.054   1.736   7.673
 4736SOL     OW31349   0.984   4.701   6.964
 4736SOL    HW131350   0.942   4.696   7.050
 4736SOL    HW231351   0.913   4.684   6.902
 4737SOL     OW31352   2.412   3.156   1.386
 4737SOL    HW131353   2.373   3.110   1.460
 4737SOL    HW231354   2.455   3.232   1.425
 4738SOL     OW31355   0.678   0.521   0.358
 4738SOL    HW131356   0.736   0.489   0.428
 4738SOL    HW231357   0.590   0.496   0.387
 4739SOL     OW31358   4.089   2.453   1.174
 4739SOL    HW131359   4.087   2.540   1.134
 4739SOL    HW231360   4.182   2.429   1.172
 4740SOL     OW31361   5.107   6.098   6.449
 4740SOL    HW131362   5.068   6.101   6.536
 4740SOL    HW231363   5.102   6.005   6.424
 4741SOL     OW31364   5.501   5.683   1.962
 4741SOL    HW131365   5.415   5.683   2.003
 4741SOL    HW231366   5.539   5.768   1.986
 4742SOL     OW31367   5.534   0.784   7.625
 4742SOL    HW131368   5.511   0.817   7.712
 4742SOL    HW231369   5.630   0.775   7.628
 4743SOL     OW31370   0.520   3.409   5.034
 4743SOL    HW131371   0.604   3.399   5.079
 4743SOL    HW231372   0.532   3.363   4.950
 4744SOL     OW31373   4.451   2.713   6.082
 4744SOL    HW131374   4.370   2.726   6.132
 4744SOL    HW231375   4.435   2.636   6.028
 4745SOL     OW31376   2.301   0.827   0.112
 4745SOL    HW131377   2.385   0.869   0.134
 4745SOL    HW231378   2.326   0.744   0.072
 4746SOL     OW31379   3.254   2.017   0.452
 4746SOL    HW131380   3.249   2.102   0.495
 4746SOL    HW231381   3.246   2.037   0.358
 4747SOL     OW31382   1.429   4.072   6.459
 4747SOL    HW131383   1.373   3.995   6.469
 4747SOL    HW231384   1.497   4.062   6.526
 4748SOL     OW31385   6.087   5.220   5.574
 4748SOL    HW131386   6.151   5.207   5.644
 4748SOL    HW231387   6.137   5.264   5.505
 4749SOL     OW31388   1.739   0.135   5.586
 4749SOL    HW131389   1.813   0.077   5.567
 4749SOL    HW231390   1.778   0.222   5.597
 4750SOL     OW31391   5.192   5.085   5.319
 4750SOL    HW131392   5.262   5.149   5.311
 4750SOL    HW231393   5.198   5.052   5.409
 4751SOL     OW31394   4.679   4.780   1.748
 4751SOL    HW131395   4.730   4.802   1.826
 4751SOL    HW231396   4.603   4.732   1.782
 4752SOL     OW31397   1.478   0.359   6.992
 4752SOL    HW131398   1.550   0.420   6.981
 4752SOL    HW231399   1.403   0.402   6.950
 4753SOL     OW31400   1.560   6.183   0.997
 4753SOL    HW131401   1.557   6.228   1.082
 4753SOL    HW231402   1.517   6.243   0.936
 4754SOL     OW31403   0.163   4.716   6.163
 4754SOL    HW131404   0.250   4.740   6.131
 4754SOL    HW231405   0.134   4.648   6.102
 4755SOL     OW31406   1.703   2.656   0.361
 4755SOL    HW131407   1.674   2.700   0.281
 4755SOL    HW231408   1.717   2.727   0.424
 4756SOL     OW31409   4.648   2.969   5.822
 4756SOL    HW131410   4.721   2.908   5.829
 4756SOL    HW231411   4.678   3.037   5.761
 4757SOL     OW31412   4.282   0.934   5.738
 4757SOL    HW131413   4.322   1.009   5.693
 4757SOL    HW231414   4.189   0.957   5.744
 4758SOL     OW31415   0.194   0.980   6.919
 4758SOL    HW131416   0.225   1.070   6.929
 4758SOL    HW231417   0.114   0.987   6.868
 4759SOL     OW31418   0.745   0.802   0.272
 4759SOL    HW131419   0.728   0.811   0.366
 4759SOL    HW231420   0.749   0.708   0.257
 4760SOL     OW31421   0.883   4.272   7.651
 4760SOL    HW131422   0.845   4.248   7.736
 4760SOL    HW231423   0.978   4.268   7.666
 4761SOL     OW31424   0.950   2.393   0.230
 4761SOL    HW131425   1.007   2.335   0.180
 4761SOL    HW231426   0.899   2.439   0.164
 4762SOL     OW31427   5.156   3.933   7.637
 4762SOL    HW131428   5.242   3.967   7.611
 4762SOL    HW231429   5.093   3.990   7.592
 4763SOL     OW31430   1.076   3.135   5.991
 4763SOL    HW131431   1.167   3.158   6.012
 4763SOL    HW231432   1.038   3.216   5.957
 4764SOL     OW31433   0.928   2.678   6.473
 4764SOL    HW131434   0.981   2.610   6.515
 4764SOL    HW231435   0.985   2.715   6.405
 4765SOL     OW31436   4.840   5.709   2.041
 4765SOL    HW131437   4.814   5.619   2.060
 4765SOL    HW231438   4.761   5.750   2.006
 4766SOL     OW31439   6.282   6.183   6.006
 4766SOL    HW131440   6.367   6.207   6.044
 4766SOL    HW231441   6.299   6.178   5.912
 4767SOL     OW31442   5.398   2.444   0.909
 4767SOL    HW131443   5.372   2.421   0.820
 4767SOL    HW231444   5.490   2.417   0.915
 4768SOL     OW31445   0.738   6.312   0.361
 4768SOL    HW131446   0.717   6.381   0.298
 4768SOL    HW231447   0.722   6.230   0.313
 4769SOL     OW31448   2.270   0.852   6.686
 4769SOL    HW131449   2.279   0.947   6.696
 4769SOL    HW231450   2.249   0.839   6.594
 4770SOL     OW31451   0.365   4.039   6.936
 4770SOL    HW131452   0.389   4.006   6.850
 4770SOL    HW231453   0.386   3.968   6.996
 4771SOL     OW31454   3.542   0.198   7.284
 4771SOL    HW131455   3.450   0.183   7.305
 4771SOL    HW231456   3.588   0.182   7.366
 4772SOL     OW31457   0.243   5.994   6.417
 4772SOL    HW131458   0.158   6.001   6.373
 4772SOL    HW231459   0.301   6.052   6.368
 4773SOL     OW31460   1.793   5.986   0.074
 4773SOL    HW131461   1.813   5.896   0.099
 4773SOL    HW231462   1.775   5.983  -0.020
 4774SOL     OW31463   5.035   3.051   0.475
 4774SOL    HW131464   4.947   3.060   0.510
 4774SOL    HW231465   5.091   3.092   0.541
 4775SOL     OW31466   5.652   2.363   6.518
 4775SOL    HW131467   5.737   2.398   6.489
 4775SOL    HW231468   5.624   2.305   6.447
 4776SOL     OW31469   5.056   6.316   0.867
 4776SOL    HW131470   5.031   6.225   0.881
 4776SOL    HW231471   5.068   6.324   0.773
 4777SOL     OW31472   2.686   4.006   1.365
 4777SOL    HW131473   2.720   3.923   1.399
 4777SOL    HW231474   2.595   3.988   1.344
 4778SOL     OW31475   1.055   1.106   6.829
 4778SOL    HW131476   1.048   1.049   6.906
 4778SOL    HW231477   0.974   1.157   6.831
 4779SOL     OW31478   2.517   2.394   6.234
 4779SOL    HW131479   2.443   2.451   6.213
 4779SOL    HW231480   2.487   2.343   6.310
 4780SOL     OW31481   0.454   5.825   6.524
 4780SOL    HW131482   0.530   5.846   6.471
 4780SOL    HW231483   0.381   5.869   6.480
 4781SOL     OW31484   5.665   4.129   7.542
 4781SOL    HW131485   5.697   4.200   7.598
 4781SOL    HW231486   5.686   4.156   7.453
 4782SOL     OW31487   6.017   5.696   6.502
 4782SOL    HW131488   6.045   5.647   6.579
 4782SOL    HW231489   6.082   5.673   6.435
 4783SOL     OW31490   2.267   2.365   5.285
 4783SOL    HW131491   2.214   2.436   5.323
 4783SOL    HW231492   2.326   2.409   5.224
 4784SOL     OW31493   1.335   1.870   5.456
 4784SOL    HW131494   1.250   1.909   5.477
 4784SOL    HW231495   1.327   1.844   5.364
 4785SOL     OW31496   1.671   1.470   0.832
 4785SOL    HW131497   1.641   1.551   0.873
 4785SOL    HW231498   1.677   1.490   0.739
 4786SOL     OW31499   0.140   0.087   7.534
 4786SOL    HW131500   0.202   0.132   7.476
 4786SOL    HW231501   0.189   0.013   7.569
 4787SOL     OW31502   1.659   1.159   0.429
 4787SOL    HW131503   1.619   1.100   0.366
 4787SOL    HW231504   1.727   1.205   0.380
 4788SOL     OW31505   1.593   1.151   1.463
 4788SOL    HW131506   1.651   1.227   1.456
 4788SOL    HW231507   1.647   1.083   1.502
 4789SOL     OW31508   5.145   4.759   5.467
 4789SOL    HW131509   5.136   4.781   5.374
 4789SOL    HW231510   5.238   4.773   5.486
 4790SOL     OW31511   5.859   0.404   6.766
 4790SOL    HW131512   5.788   0.374   6.709
 4790SOL    HW231513   5.908   0.466   6.712
 4791SOL     OW31514   2.218   2.745   0.205
 4791SOL    HW131515   2.128   2.777   0.197
 4791SOL    HW231516   2.262   2.809   0.261
 4792SOL     OW31517   5.955   5.138   6.949
 4792SOL    HW131518   5.920   5.056   6.983
 4792SOL    HW231519   6.034   5.113   6.901
 4793SOL     OW31520   2.708   3.442   7.552
 4793SOL    HW131521   2.735   3.350   7.553
 4793SOL    HW231522   2.789   3.491   7.539
 4794SOL     OW31523   0.841   2.288   7.625
 4794SOL    HW131524   0.877   2.373   7.650
 4794SOL    HW231525   0.760   2.309   7.579
 4795SOL     OW31526   2.341   4.834   7.442
 4795SOL    HW131527   2.346   4.856   7.535
 4795SOL    HW231528   2.393   4.755   7.432
 4796SOL     OW31529   2.980   0.376   6.556
 4796SOL    HW131530   2.893   0.355   6.524
 4796SOL    HW231531   2.994   0.317   6.630
 4797SOL     OW31532   2.184   3.625   0.639
 4797SOL    HW131533   2.184   3.555   0.703
 4797SOL    HW231534   2.276   3.650   0.630
 4798SOL     OW31535   0.631   5.951   6.092
 4798SOL    HW131536   0.586   5.869   6.071
 4798SOL    HW231537   0.561   6.012   6.113
 4799SOL     OW31538   2.580   3.046   7.662
 4799SOL    HW131539   2.567   2.986   7.736
 4799SOL    HW231540   2.644   3.109   7.694
 4800SOL     OW31541   5.479   1.336   7.102
 4800SOL    HW131542   5.559   1.284   7.113
 4800SOL    HW231543   5.408   1.274   7.117
 4801SOL     OW31544   0.844   0.391   0.529
 4801SOL    HW131545   0.900   0.314   0.531
 4801SOL    HW231546   0.891   0.456   0.580
 4802SOL     OW31547   6.189   5.837   5.910
 4802SOL    HW131548   6.120   5.889   5.949
 4802SOL    HW231549   6.259   5.900   5.891
 4803SOL     OW31550   0.639   1.633   0.205
 4803SOL    HW131551   0.680   1.596   0.284
 4803SOL    HW231552   0.566   1.573   0.186
 4804SOL     OW31553   0.998   4.497   0.641
 4804SOL    HW131554   1.038   4.418   0.605
 4804SOL    HW231555   0.985   4.477   0.734
 4805SOL     OW31556   4.278   4.521   1.514
 4805SOL    HW131557   4.184   4.538   1.501
 4805SOL    HW231558   4.283   4.427   1.530
 4806SOL     OW31559   4.136   1.535   2.053
 4806SOL    HW131560   4.133   1.624   2.088
 4806SOL    HW231561   4.214   1.533   1.998
 4807SOL     OW31562   6.263   3.610   5.359
 4807SOL    HW131563   6.335   3.590   5.299
 4807SOL    HW231564   6.272   3.545   5.429
 4808SOL     OW31565   0.798   1.217   0.587
 4808SOL    HW131566   0.792   1.172   0.502
 4808SOL    HW231567   0.892   1.220   0.605
 4809SOL     OW31568   0.223   0.120   7.068
 4809SOL    HW131569   0.138   0.076   7.067
 4809SOL    HW231570   0.273   0.077   6.998
 4810SOL     OW31571   5.753   0.169   1.486
 4810SOL    HW131572   5.727   0.257   1.458
 4810SOL    HW231573   5.847   0.165   1.470
 4811SOL     OW31574   4.434   2.662   1.762
 4811SOL    HW131575   4.341   2.653   1.741
 4811SOL    HW231576   4.479   2.637   1.681
 4812SOL     OW31577   5.767   0.065   6.268
 4812SOL    HW131578   5.839   0.044   6.209
 4812SOL    HW231579   5.805   0.122   6.334
 4813SOL     OW31580   5.379   4.562   6.599
 4813SOL    HW131581   5.359   4.509   6.521
 4813SOL    HW231582   5.464   4.602   6.579
 4814SOL     OW31583   0.961   0.942   1.908
 4814SOL    HW131584   1.001   0.865   1.868
 4814SOL    HW231585   0.978   0.932   2.001
 4815SOL     OW31586   2.344   1.486   0.749
 4815SOL    HW131587   2.296   1.566   0.727
 4815SOL    HW231588   2.283   1.415   0.727
 4816SOL     OW31589   1.705   0.352   7.368
 4816SOL    HW131590   1.778   0.402   7.331
 4816SOL    HW231591   1.727   0.344   7.461
 4817SOL     OW31592   3.662   4.788   1.634
 4817SOL    HW131593   3.709   4.707   1.614
 4817SOL    HW231594   3.572   4.759   1.650
 4818SOL     OW31595   4.369   2.444   0.465
 4818SOL    HW131596   4.336   2.387   0.535
 4818SOL    HW231597   4.320   2.418   0.387
 4819SOL     OW31598   3.904   5.575   0.759
 4819SOL    HW131599   3.903   5.483   0.735
 4819SOL    HW231600   3.826   5.612   0.717
 4820SOL     OW31601   2.896   1.153   5.886
 4820SOL    HW131602   2.829   1.159   5.818
 4820SOL    HW231603   2.888   1.235   5.934
 4821SOL     OW31604   1.087   5.912   6.608
 4821SOL    HW131605   1.113   5.829   6.646
 4821SOL    HW231606   1.166   5.966   6.611
 4822SOL     OW31607   2.137   5.984   0.087
 4822SOL    HW131608   2.203   5.927   0.047
 4822SOL    HW231609   2.099   6.032   0.013
 4823SOL     OW31610   4.922   6.025   5.309
 4823SOL    HW131611   4.998   6.083   5.315
 4823SOL    HW231612   4.928   5.985   5.222
 4824SOL     OW31613   1.069   3.401   6.285
 4824SOL    HW131614   1.034   3.420   6.372
 4824SOL    HW231615   1.064   3.306   6.276
 4825SOL     OW31616   3.775   5.227   6.968
 4825SOL    HW131617   3.805   5.278   7.044
 4825SOL    HW231618   3.856   5.191   6.931
 4826SOL     OW31619   5.685   4.108   4.974
 4826SOL    HW131620   5.634   4.030   4.953
 4826SOL    HW231621   5.776   4.079   4.971
 4827SOL     OW31622   1.755   2.659   5.936
 4827SOL    HW131623   1.724   2.589   5.995
 4827SOL    HW231624   1.687   2.726   5.941
 4828SOL     OW31625   6.193   3.430   0.514
 4828SOL    HW131626   6.198   3.417   0.419
 4828SOL    HW231627   6.284   3.441   0.541
 4829SOL     OW31628   4.774   2.498   6.372
 4829SOL    HW131629   4.766   2.516   6.278
 4829SOL    HW231630   4.700   2.543   6.412
 4830SOL     OW31631   5.977   5.788   0.821
 4830SOL    HW131632   5.936   5.736   0.752
 4830SOL    HW231633   6.059   5.743   0.840
 4831SOL     OW31634   4.592   4.387   0.694
 4831SOL    HW131635   4.546   4.470   0.679
 4831SOL    HW231636   4.672   4.394   0.643
 4832SOL     OW31637   5.964   2.010   1.314
 4832SOL    HW131638   5.985   2.069   1.387
 4832SOL    HW231639   6.013   2.045   1.240
 4833SOL     OW31640   3.260   0.286   7.368
 4833SOL    HW131641   3.222   0.279   7.281
 4833SOL    HW231642   3.244   0.376   7.395
 4834SOL     OW31643   6.349   1.308   6.558
 4834SOL    HW131644   6.405   1.301   6.635
 4834SOL    HW231645   6.386   1.380   6.507
 4835SOL     OW31646   5.972   4.697   0.211
 4835SOL    HW131647   6.031   4.769   0.230
 4835SOL    HW231648   5.896   4.712   0.267
 4836SOL     OW31649   1.575   0.956   6.197
 4836SOL    HW131650   1.623   0.906   6.263
 4836SOL    HW231651   1.530   1.024   6.247
 4837SOL     OW31652   2.507   1.479   5.999
 4837SOL    HW131653   2.438   1.420   5.968
 4837SOL    HW231654   2.465   1.564   6.006
 4838SOL     OW31655   1.550   1.907   7.308
 4838SOL    HW131656   1.551   1.811   7.313
 4838SOL    HW231657   1.559   1.935   7.399
 4839SOL     OW31658   5.302   1.589   1.182
 4839SOL    HW131659   5.215   1.562   1.210
 4839SOL    HW231660   5.298   1.589   1.086
 4840SOL     OW31661   5.540   3.366   1.232
 4840SOL    HW131662   5.491   3.308   1.290
 4840SOL    HW231663   5.473   3.412   1.182
 4841SOL     OW31664   4.025   1.292   1.851
 4841SOL    HW131665   3.941   1.322   1.887
 4841SOL    HW231666   4.074   1.262   1.927
 4842SOL     OW31667   5.411   2.560   5.791
 4842SOL    HW131668   5.398   2.477   5.746
 4842SOL    HW231669   5.468   2.611   5.732
 4843SOL     OW31670   5.741   5.170   6.773
 4843SOL    HW131671   5.817   5.143   6.826
 4843SOL    HW231672   5.665   5.139   6.823
 4844SOL     OW31673   0.356   5.683   1.105
 4844SOL    HW131674   0.363   5.734   1.024
 4844SOL    HW231675   0.363   5.748   1.175
 4845SOL     OW31676   4.948   1.450   0.467
 4845SOL    HW131677   4.927   1.366   0.508
 4845SOL    HW231678   5.036   1.472   0.498
 4846SOL     OW31679   4.078   0.964   0.926
 4846SOL    HW131680   3.985   0.957   0.902
 4846SOL    HW231681   4.111   0.874   0.919
 4847SOL     OW31682   4.353   0.092   1.281
 4847SOL    HW131683   4.382   0.118   1.194
 4847SOL    HW231684   4.284   0.155   1.303
 4848SOL     OW31685   0.518   2.564   6.787
 4848SOL    HW131686   0.550   2.588   6.874
 4848SOL    HW231687   0.430   2.600   6.783
 4849SOL     OW31688   3.537   1.902   6.005
 4849SOL    HW131689   3.490   1.828   5.966
 4849SOL    HW231690   3.597   1.930   5.935
 4850SOL     OW31691   2.119   4.910   0.247
 4850SOL    HW131692   2.160   4.847   0.188
 4850SOL    HW231693   2.084   4.978   0.189
 4851SOL     OW31694   5.878   6.106   6.190
 4851SOL    HW131695   5.842   6.070   6.271
 4851SOL    HW231696   5.921   6.032   6.148
 4852SOL     OW31697   0.880   4.712   7.221
 4852SOL    HW131698   0.864   4.638   7.279
 4852SOL    HW231699   0.855   4.789   7.272
 4853SOL     OW31700   1.907   0.914   0.377
 4853SOL    HW131701   1.988   0.874   0.346
 4853SOL    HW231702   1.935   0.994   0.421
 4854SOL     OW31703   3.215   4.332   0.214
 4854SOL    HW131704   3.162   4.254   0.232
 4854SOL    HW231705   3.207   4.345   0.120
 4855SOL     OW31706   3.384   6.056   6.840
 4855SOL    HW131707   3.404   6.093   6.925
 4855SOL    HW231708   3.455   6.086   6.783
 4856SOL     OW31709   5.059   4.656   1.433
 4856SOL    HW131710   5.022   4.697   1.510
 4856SOL    HW231711   5.113   4.584   1.468
 4857SOL     OW31712   0.634   2.911   7.133
 4857SOL    HW131713   0.573   2.958   7.077
 4857SOL    HW231714   0.583   2.839   7.170
 4858SOL     OW31715   1.079   0.300   5.546
 4858SOL    HW131716   1.154   0.345   5.506
 4858SOL    HW231717   1.112   0.212   5.564
 4859SOL     OW31718   0.733   2.800   6.578
 4859SOL    HW131719   0.812   2.765   6.537
 4859SOL    HW231720   0.754   2.803   6.672
 4860SOL     OW31721   2.416   2.349   7.072
 4860SOL    HW131722   2.436   2.435   7.109
 4860SOL    HW231723   2.322   2.339   7.085
 4861SOL     OW31724   1.304   1.053   1.034
 4861SOL    HW131725   1.222   1.078   0.993
 4861SOL    HW231726   1.360   1.026   0.960
 4862SOL     OW31727   5.595   3.941   1.106
 4862SOL    HW131728   5.587   3.994   1.185
 4862SOL    HW231729   5.535   3.983   1.043
 4863SOL     OW31730   0.447   2.491   1.388
 4863SOL    HW131731   0.522   2.434   1.405
 4863SOL    HW231732   0.416   2.515   1.476
 4864SOL     OW31733   5.274   5.490   7.632
 4864SOL    HW131734   5.213   5.522   7.698
 4864SOL    HW231735   5.300   5.403   7.664
 4865SOL     OW31736   0.020   3.068   1.068
 4865SOL    HW131737  -0.049   3.004   1.090
 4865SOL    HW231738  -0.006   3.148   1.113
 4866SOL     OW31739   4.084   1.426   7.033
 4866SOL    HW131740   4.050   1.463   6.952
 4866SOL    HW231741   4.101   1.501   7.089
 4867SOL     OW31742   4.157   2.728   6.044
 4867SOL    HW131743   4.086   2.683   6.089
 4867SOL    HW231744   4.175   2.674   5.967
 4868SOL     OW31745   5.792   1.168   0.762
 4868SOL    HW131746   5.709   1.119   0.761
 4868SOL    HW231747   5.782   1.233   0.693
 4869SOL     OW31748   4.217   5.892   7.297
 4869SOL    HW131749   4.191   5.869   7.208
 4869SOL    HW231750   4.211   5.988   7.299
 4870SOL     OW31751   2.703   4.953   0.928
 4870SOL    HW131752   2.791   4.967   0.893
 4870SOL    HW231753   2.708   4.867   0.969
 4871SOL     OW31754   2.658   3.189   1.900
 4871SOL    HW131755   2.601   3.153   1.969
 4871SOL    HW231756   2.603   3.191   1.822
 4872SOL     OW31757   1.941   2.550   5.736
 4872SOL    HW131758   1.905   2.583   5.653
 4872SOL    HW231759   1.874   2.572   5.801
 4873SOL     OW31760   5.563   2.937   6.230
 4873SOL    HW131761   5.648   2.924   6.188
 4873SOL    HW231762   5.502   2.889   6.174
 4874SOL     OW31763   2.726   6.028   1.060
 4874SOL    HW131764   2.676   6.083   1.000
 4874SOL    HW231765   2.799   5.996   1.009
 4875SOL     OW31766   5.390   0.855   7.184
 4875SOL    HW131767   5.303   0.847   7.223
 4875SOL    HW231768   5.450   0.825   7.252
 4876SOL     OW31769   4.413   3.041   5.927
 4876SOL    HW131770   4.406   3.124   5.881
 4876SOL    HW231771   4.482   2.993   5.881
 4877SOL     OW31772   0.285   3.504   0.177
 4877SOL    HW131773   0.375   3.504   0.145
 4877SOL    HW231774   0.270   3.415   0.206
 4878SOL     OW31775   5.762   4.651   7.265
 4878SOL    HW131776   5.676   4.614   7.247
 4878SOL    HW231777   5.805   4.654   7.179
 4879SOL     OW31778   1.099   4.295   6.545
 4879SOL    HW131779   1.096   4.346   6.463
 4879SOL    HW231780   1.109   4.204   6.516
 4880SOL     OW31781   0.238   1.322   5.992
 4880SOL    HW131782   0.192   1.281   5.919
 4880SOL    HW231783   0.304   1.257   6.019
 4881SOL     OW31784   1.960   0.182   6.523
 4881SOL    HW131785   2.038   0.127   6.514
 4881SOL    HW231786   1.974   0.254   6.462
 4882SOL     OW31787   1.423   0.114   7.085
 4882SOL    HW131788   1.472   0.102   7.166
 4882SOL    HW231789   1.469   0.184   7.039
 4883SOL     OW31790   1.561   1.547   1.149
 4883SOL    HW131791   1.642   1.551   1.200
 4883SOL    HW231792   1.498   1.504   1.207
 4884SOL     OW31793   0.715   1.079   2.021
 4884SOL    HW131794   0.786   1.018   1.998
 4884SOL    HW231795   0.735   1.158   1.971
 4885SOL     OW31796   0.274   2.601   6.175
 4885SOL    HW131797   0.356   2.570   6.136
 4885SOL    HW231798   0.270   2.556   6.260
 4886SOL     OW31799   3.314   3.121   0.673
 4886SOL    HW131800   3.347   3.032   0.684
 4886SOL    HW231801   3.323   3.161   0.759
 4887SOL     OW31802   3.986   6.177   6.791
 4887SOL    HW131803   4.041   6.205   6.718
 4887SOL    HW231804   4.017   6.089   6.812
 4888SOL     OW31805   2.580   0.369   1.487
 4888SOL    HW131806   2.559   0.394   1.577
 4888SOL    HW231807   2.659   0.316   1.495
 4889SOL     OW31808   3.779   4.595   5.953
 4889SOL    HW131809   3.753   4.653   5.881
 4889SOL    HW231810   3.871   4.615   5.968
 4890SOL     OW31811   1.209   5.890   0.358
 4890SOL    HW131812   1.116   5.911   0.361
 4890SOL    HW231813   1.235   5.884   0.450
 4891SOL     OW31814   5.483   6.040   6.452
 4891SOL    HW131815   5.455   5.956   6.416
 4891SOL    HW231816   5.576   6.028   6.471
 4892SOL     OW31817   0.369   0.082   0.833
 4892SOL    HW131818   0.381  -0.011   0.814
 4892SOL    HW231819   0.431   0.126   0.776
 4893SOL     OW31820   4.117   5.448   7.594
 4893SOL    HW131821   4.153   5.499   7.521
 4893SOL    HW231822   4.192   5.426   7.647
 4894SOL     OW31823   2.227   2.891   5.177
 4894SOL    HW131824   2.164   2.846   5.121
 4894SOL    HW231825   2.182   2.970   5.205
 4895SOL     OW31826   5.700   5.126   7.150
 4895SOL    HW131827   5.776   5.070   7.134
 4895SOL    HW231828   5.626   5.066   7.154
 4896SOL     OW31829   4.711   4.398   1.086
 4896SOL    HW131830   4.643   4.423   1.148
 4896SOL    HW231831   4.741   4.482   1.049
 4897SOL     OW31832   3.886   5.248   0.824
 4897SOL    HW131833   3.971   5.262   0.866
 4897SOL    HW231834   3.906   5.238   0.731
 4898SOL     OW31835   2.130   3.303   1.617
 4898SOL    HW131836   2.208   3.248   1.612
 4898SOL    HW231837   2.085   3.290   1.534
 4899SOL     OW31838   4.157   1.407   1.638
 4899SOL    HW131839   4.234   1.352   1.653
 4899SOL    HW231840   4.102   1.392   1.715
 4900SOL     OW31841   5.730   1.300   0.542
 4900SOL    HW131842   5.742   1.393   0.527
 4900SOL    HW231843   5.685   1.268   0.464
 4901SOL     OW31844   0.317   3.522   7.312
 4901SOL    HW131845   0.326   3.535   7.218
 4901SOL    HW231846   0.346   3.431   7.326
 4902SOL     OW31847   0.334   1.729   5.419
 4902SOL    HW131848   0.274   1.735   5.345
 4902SOL    HW231849   0.287   1.768   5.492
 4903SOL     OW31850   5.006   3.767   7.265
 4903SOL    HW131851   4.960   3.738   7.344
 4903SOL    HW231852   4.967   3.852   7.245
 4904SOL     OW31853   0.855   4.977   7.366
 4904SOL    HW131854   0.797   5.004   7.294
 4904SOL    HW231855   0.888   5.059   7.402
 4905SOL     OW31856   6.188   5.854   0.045
 4905SOL    HW131857   6.109   5.868  -0.007
 4905SOL    HW231858   6.175   5.767   0.084
 4906SOL     OW31859   3.586   4.910   0.503
 4906SOL    HW131860   3.508   4.876   0.546
 4906SOL    HW231861   3.633   4.833   0.473
 4907SOL     OW31862   2.388   2.039   1.349
 4907SOL    HW131863   2.446   2.109   1.379
 4907SOL    HW231864   2.417   1.961   1.396
 4908SOL     OW31865   3.367   0.210   0.566
 4908SOL    HW131866   3.311   0.151   0.516
 4908SOL    HW231867   3.437   0.154   0.600
 4909SOL     OW31868   2.592   2.770   6.433
 4909SOL    HW131869   2.523   2.707   6.451
 4909SOL    HW231870   2.554   2.828   6.366
 4910SOL     OW31871   3.735   2.236   6.766
 4910SOL    HW131872   3.694   2.308   6.718
 4910SOL    HW231873   3.704   2.246   6.856
 4911SOL     OW31874   1.432   1.669   6.914
 4911SOL    HW131875   1.380   1.727   6.969
 4911SOL    HW231876   1.384   1.665   6.831
 4912SOL     OW31877   0.045   4.511   5.674
 4912SOL    HW131878  -0.007   4.482   5.600
 4912SOL    HW231879  -0.013   4.569   5.724
 4913SOL     OW31880   3.696   3.826   5.821
 4913SOL    HW131881   3.791   3.819   5.812
 4913SOL    HW231882   3.668   3.870   5.740
 4914SOL     OW31883   3.242   5.117   6.275
 4914SOL    HW131884   3.324   5.166   6.276
 4914SOL    HW231885   3.179   5.175   6.317
 4915SOL     OW31886   0.550   2.603   6.428
 4915SOL    HW131887   0.593   2.654   6.497
 4915SOL    HW231888   0.519   2.668   6.365
 4916SOL     OW31889   5.738   1.416   6.868
 4916SOL    HW131890   5.811   1.405   6.806
 4916SOL    HW231891   5.724   1.329   6.904
 4917SOL     OW31892   2.040   0.700   5.022
 4917SOL    HW131893   2.078   0.650   4.950
 4917SOL    HW231894   1.958   0.654   5.042
 4918SOL     OW31895   1.014   5.595   0.908
 4918SOL    HW131896   1.009   5.635   0.995
 4918SOL    HW231897   1.006   5.669   0.847
 4919SOL     OW31898   1.145   3.145   6.713
 4919SOL    HW131899   1.064   3.099   6.734
 4919SOL    HW231900   1.195   3.144   6.794
 4920SOL     OW31901   6.021   5.600   7.282
 4920SOL    HW131902   6.040   5.684   7.239
 4920SOL    HW231903   6.021   5.536   7.211
 4921SOL     OW31904   0.389   1.973   1.988
 4921SOL    HW131905   0.472   1.932   1.963
 4921SOL    HW231906   0.325   1.902   1.982
 4922SOL     OW31907   0.118   2.082   5.849
 4922SOL    HW131908   0.174   2.153   5.819
 4922SOL    HW231909   0.059   2.124   5.913
 4923SOL     OW31910   6.262   2.762   5.997
 4923SOL    HW131911   6.330   2.756   6.064
 4923SOL    HW231912   6.310   2.777   5.915
 4924SOL     OW31913   4.649   1.045   0.234
 4924SOL    HW131914   4.688   0.987   0.170
 4924SOL    HW231915   4.593   1.104   0.183
 4925SOL     OW31916   2.136   2.441   0.142
 4925SOL    HW131917   2.152   2.379   0.213
 4925SOL    HW231918   2.140   2.527   0.184
 4926SOL     OW31919   3.111   5.748   0.439
 4926SOL    HW131920   3.104   5.674   0.498
 4926SOL    HW231921   3.205   5.757   0.422
 4927SOL     OW31922   0.075   3.535   6.228
 4927SOL    HW131923   0.138   3.606   6.216
 4927SOL    HW231924   0.106   3.466   6.169
 4928SOL     OW31925   5.637   1.123   6.894
 4928SOL    HW131926   5.573   1.052   6.889
 4928SOL    HW231927   5.666   1.123   6.985
 4929SOL     OW31928   4.994   0.255   5.313
 4929SOL    HW131929   5.068   0.314   5.300
 4929SOL    HW231930   5.027   0.168   5.289
 4930SOL     OW31931   0.738   5.560   6.489
 4930SOL    HW131932   0.779   5.647   6.487
 4930SOL    HW231933   0.725   5.539   6.396
 4931SOL     OW31934   6.109   1.188   6.580
 4931SOL    HW131935   6.099   1.117   6.517
 4931SOL    HW231936   6.193   1.229   6.558
 4932SOL     OW31937   0.018   5.553   0.233
 4932SOL    HW131938   0.021   5.519   0.323
 4932SOL    HW231939   0.064   5.487   0.181
 4933SOL     OW31940   4.766   3.088   6.042
 4933SOL    HW131941   4.711   3.061   5.969
 4933SOL    HW231942   4.761   3.014   6.103
 4934SOL     OW31943   2.971   1.930   0.260
 4934SOL    HW131944   3.000   1.927   0.351
 4934SOL    HW231945   2.975   1.839   0.230
 4935SOL     OW31946   3.906   2.013   7.314
 4935SOL    HW131947   3.896   1.918   7.322
 4935SOL    HW231948   3.873   2.048   7.397
 4936SOL     OW31949   5.314   4.192   6.965
 4936SOL    HW131950   5.343   4.172   7.054
 4936SOL    HW231951   5.222   4.215   6.974
 4937SOL     OW31952   3.565   5.674   6.769
 4937SOL    HW131953   3.653   5.640   6.752
 4937SOL    HW231954   3.531   5.698   6.683
 4938SOL     OW31955   1.826   0.929   6.344
 4938SOL    HW131956   1.830   0.999   6.278
 4938SOL    HW231957   1.897   0.950   6.405
 4939SOL     OW31958   5.728   2.392   0.127
 4939SOL    HW131959   5.712   2.479   0.164
 4939SOL    HW231960   5.818   2.371   0.151
 4940SOL     OW31961   2.677   5.901   6.582
 4940SOL    HW131962   2.667   5.991   6.550
 4940SOL    HW231963   2.677   5.910   6.678
 4941SOL     OW31964   3.721   0.913   0.011
 4941SOL    HW131965   3.726   1.009   0.005
 4941SOL    HW231966   3.766   0.892   0.093
 4942SOL     OW31967   0.933   6.282   1.426
 4942SOL    HW131968   0.845   6.245   1.418
 4942SOL    HW231969   0.981   6.246   1.351
 4943SOL     OW31970   0.805   2.910   0.080
 4943SOL    HW131971   0.712   2.920   0.059
 4943SOL    HW231972   0.821   2.816   0.074
 4944SOL     OW31973   1.427   6.182   6.489
 4944SOL    HW131974   1.375   6.119   6.539
 4944SOL    HW231975   1.413   6.266   6.534
 4945SOL     OW31976   5.426   1.193   0.745
 4945SOL    HW131977   5.349   1.185   0.802
 4945SOL    HW231978   5.442   1.103   0.715
 4946SOL     OW31979   0.108   2.550   5.953
 4946SOL    HW131980   0.189   2.536   5.904
 4946SOL    HW231981   0.136   2.557   6.044
 4947SOL     OW31982   6.108   2.809   0.710
 4947SOL    HW131983   6.042   2.852   0.764
 4947SOL    HW231984   6.182   2.796   0.769
 4948SOL     OW31985   2.318   0.194   1.063
 4948SOL    HW131986   2.287   0.133   1.130
 4948SOL    HW231987   2.352   0.269   1.113
 4949SOL     OW31988   2.644   5.162   1.759
 4949SOL    HW131989   2.559   5.204   1.773
 4949SOL    HW231990   2.669   5.129   1.845
 4950SOL     OW31991   2.071   1.841   0.738
 4950SOL    HW131992   2.132   1.782   0.693
 4950SOL    HW231993   2.011   1.783   0.784
 4951SOL     OW31994   2.237   0.414   7.524
 4951SOL    HW131995   2.288   0.436   7.602
 4951SOL    HW231996   2.214   0.322   7.537
 4952SOL     OW31997   0.727   3.973   6.086
 4952SOL    HW131998   0.795   4.000   6.024
 4952SOL    HW231999   0.772   3.914   6.147
 4953SOL     OW32000   2.079   0.495   0.893
 4953SOL    HW132001   1.987   0.474   0.876
 4953SOL    HW232002   2.081   0.521   0.985
 4954SOL     OW32003   1.035   4.411   7.019
 4954SOL    HW132004   1.044   4.498   7.059
 4954SOL    HW232005   1.098   4.356   7.067
 4955SOL     OW32006   4.044   4.210   1.649
 4955SOL    HW132007   4.125   4.159   1.647
 4955SOL    HW232008   4.028   4.226   1.743
 4956SOL     OW32009   2.567   2.992   7.406
 4956SOL    HW132010   2.570   3.036   7.491
 4956SOL    HW232011   2.530   2.906   7.425
 4957SOL     OW32012   0.725   2.802   6.862
 4957SOL    HW132013   0.777   2.768   6.935
 4957SOL    HW232014   0.661   2.860   6.904
 4958SOL     OW32015   3.719   4.564   6.979
 4958SOL    HW132016   3.704   4.566   6.885
 4958SOL    HW232017   3.662   4.494   7.011
 4959SOL     OW32018   2.275   1.970   0.068
 4959SOL    HW132019   2.256   1.960  -0.025
 4959SOL    HW232020   2.338   2.041   0.073
 4960SOL     OW32021   5.706   6.004   7.598
 4960SOL    HW132022   5.701   5.937   7.530
 4960SOL    HW232023   5.704   6.087   7.551
 4961SOL     OW32024   1.088   3.186   0.366
 4961SOL    HW132025   1.059   3.263   0.414
 4961SOL    HW232026   1.172   3.212   0.328
 4962SOL     OW32027   2.434   1.822   1.524
 4962SOL    HW132028   2.521   1.782   1.523
 4962SOL    HW232029   2.386   1.773   1.592
 4963SOL     OW32030   5.182   1.691   2.266
 4963SOL    HW132031   5.137   1.608   2.253
 4963SOL    HW232032   5.273   1.666   2.283
 4964SOL     OW32033   4.316   2.543   1.473
 4964SOL    HW132034   4.264   2.528   1.552
 4964SOL    HW232035   4.407   2.549   1.504
 4965SOL     OW32036   6.309   4.726   6.298
 4965SOL    HW132037   6.400   4.755   6.296
 4965SOL    HW232038   6.269   4.766   6.220
 4966SOL     OW32039   1.247   4.304   5.802
 4966SOL    HW132040   1.264   4.220   5.759
 4966SOL    HW232041   1.290   4.297   5.887
 4967SOL     OW32042   3.036   0.682   7.765
 4967SOL    HW132043   2.950   0.641   7.777
 4967SOL    HW232044   3.095   0.608   7.749
 4968SOL     OW32045   2.530   4.447   0.244
 4968SOL    HW132046   2.596   4.399   0.294
 4968SOL    HW232047   2.464   4.382   0.221
 4969SOL     OW32048   0.479   0.830   7.616
 4969SOL    HW132049   0.454   0.758   7.675
 4969SOL    HW232050   0.465   0.795   7.529
 4970SOL     OW32051   2.875   0.473   7.544
 4970SOL    HW132052   2.915   0.487   7.458
 4970SOL    HW232053   2.851   0.560   7.575
 4971SOL     OW32054   4.192   3.301   7.304
 4971SOL    HW132055   4.193   3.206   7.319
 4971SOL    HW232056   4.272   3.318   7.255
 4972SOL     OW32057   5.105   1.018   7.021
 4972SOL    HW132058   5.010   1.026   7.015
 4972SOL    HW232059   5.137   1.043   6.934
 4973SOL     OW32060   1.945   1.469   0.752
 4973SOL    HW132061   1.872   1.414   0.782
 4973SOL    HW232062   2.023   1.417   0.773
 4974SOL     OW32063   2.324   5.052   6.849
 4974SOL    HW132064   2.350   5.056   6.756
 4974SOL    HW232065   2.321   5.144   6.877
 4975SOL     OW32066   5.849   3.506   0.054
 4975SOL    HW132067   5.777   3.557   0.017
 4975SOL    HW232068   5.894   3.566   0.113
 4976SOL     OW32069   1.162   4.708   6.115
 4976SOL    HW132070   1.213   4.651   6.059
 4976SOL    HW232071   1.077   4.665   6.123
 4977SOL     OW32072   2.745   0.126   0.575
 4977SOL    HW132073   2.809   0.071   0.621
 4977SOL    HW232074   2.717   0.074   0.500
 4978SOL     OW32075   5.611   4.879   0.711
 4978SOL    HW132076   5.604   4.963   0.666
 4978SOL    HW232077   5.570   4.894   0.796
 4979SOL     OW32078   3.981   4.584   7.092
 4979SOL    HW132079   3.938   4.542   7.167
 4979SOL    HW232080   3.913   4.591   7.026
 4980SOL     OW32081   5.371   4.126   1.488
 4980SOL    HW132082   5.449   4.083   1.524
 4980SOL    HW232083   5.326   4.057   1.439
 4981SOL     OW32084   3.058   5.570   0.091
 4981SOL    HW132085   3.065   5.651   0.041
 4981SOL    HW232086   3.149   5.546   0.110
 4982SOL     OW32087   1.786   5.018   6.940
 4982SOL    HW132088   1.730   5.027   7.017
 4982SOL    HW232089   1.875   5.021   6.975
 4983SOL     OW32090   3.720   4.081   7.168
 4983SOL    HW132091   3.776   4.146   7.124
 4983SOL    HW232092   3.655   4.057   7.102
 4984SOL     OW32093   6.008   1.590   1.171
 4984SOL    HW132094   6.027   1.544   1.089
 4984SOL    HW232095   5.978   1.676   1.143
 4985SOL     OW32096   5.142   4.068   1.125
 4985SOL    HW132097   5.148   4.042   1.217
 4985SOL    HW232098   5.048   4.081   1.110
 4986SOL     OW32099   5.079   4.462   5.658
 4986SOL    HW132100   4.999   4.513   5.670
 4986SOL    HW232101   5.150   4.524   5.675
 4987SOL     OW32102   2.088   5.260   7.463
 4987SOL    HW132103   2.080   5.229   7.372
 4987SOL    HW232104   2.093   5.180   7.515
 4988SOL     OW32105   2.392   4.261   1.526
 4988SOL    HW132106   2.485   4.240   1.532
 4988SOL    HW232107   2.375   4.270   1.432
 4989SOL     OW32108   3.173   3.244   6.995
 4989SOL    HW132109   3.186   3.186   6.919
 4989SOL    HW232110   3.224   3.204   7.065
 4990SOL     OW32111   5.614   2.224   2.007
 4990SOL    HW132112   5.674   2.242   2.079
 4990SOL    HW232113   5.531   2.202   2.050
 4991SOL     OW32114   6.219   5.285   7.605
 4991SOL    HW132115   6.246   5.202   7.644
 4991SOL    HW232116   6.220   5.267   7.511
 4992SOL     OW32117   1.657   0.821   6.990
 4992SOL    HW132118   1.566   0.850   6.988
 4992SOL    HW232119   1.688   0.844   7.078
 4993SOL     OW32120   4.338   5.752   0.986
 4993SOL    HW132121   4.243   5.751   0.994
 4993SOL    HW232122   4.362   5.844   0.998
 4994SOL     OW32123   6.285   4.246   1.865
 4994SOL    HW132124   6.295   4.338   1.843
 4994SOL    HW232125   6.370   4.220   1.898
 4995SOL     OW32126   4.433   0.861   6.739
 4995SOL    HW132127   4.399   0.789   6.793
 4995SOL    HW232128   4.391   0.939   6.774
 4996SOL     OW32129   0.300   4.160   6.206
 4996SOL    HW132130   0.214   4.145   6.166
 4996SOL    HW232131   0.314   4.255   6.197
 4997SOL     OW32132   0.886   4.522   1.056
 4997SOL    HW132133   0.867   4.449   1.116
 4997SOL    HW232134   0.945   4.579   1.106
 4998SOL     OW32135   0.314   3.730   0.792
 4998SOL    HW132136   0.326   3.789   0.866
 4998SOL    HW232137   0.307   3.788   0.716
 4999SOL     OW32138   0.227   1.728   0.890
 4999SOL    HW132139   0.305   1.749   0.840
 4999SOL    HW232140   0.236   1.778   0.971
 5000SOL     OW32141   3.213   0.509   0.228
 5000SOL    HW132142   3.246   0.537   0.313
 5000SOL    HW232143   3.196   0.590   0.181
 5001SOL     OW32144   2.045   6.051   1.008
 5001SOL    HW132145   2.049   6.000   1.088
 5001SOL    HW232146   1.956   6.037   0.975
 5002SOL     OW32147   1.670   1.174   0.685
 5002SOL    HW132148   1.599   1.117   0.715
 5002SOL    HW232149   1.649   1.193   0.594
 5003SOL     OW32150   3.107   0.222   7.602
 5003SOL    HW132151   3.134   0.193   7.514
 5003SOL    HW232152   3.118   0.317   7.601
 5004SOL     OW32153   3.274   4.662   2.264
 5004SOL    HW132154   3.197   4.718   2.277
 5004SOL    HW232155   3.337   4.719   2.220
 5005SOL     OW32156   1.806   5.418   7.239
 5005SOL    HW132157   1.815   5.421   7.144
 5005SOL    HW232158   1.740   5.351   7.255
 5006SOL     OW32159   2.029   1.182   0.413
 5006SOL    HW132160   2.121   1.210   0.410
 5006SOL    HW232161   2.016   1.153   0.503
 5007SOL     OW32162   4.409   2.240   1.000
 5007SOL    HW132163   4.432   2.173   1.064
 5007SOL    HW232164   4.426   2.323   1.044
 5008SOL     OW32165   4.149   1.849   6.203
 5008SOL    HW132166   4.184   1.912   6.265
 5008SOL    HW232167   4.223   1.828   6.146
 5009SOL     OW32168   3.181   3.364   6.628
 5009SOL    HW132169   3.194   3.273   6.603
 5009SOL    HW232170   3.141   3.404   6.551
 5010SOL     OW32171   4.714   4.475   0.232
 5010SOL    HW132172   4.633   4.469   0.181
 5010SOL    HW232173   4.755   4.389   0.221
 5011SOL     OW32174   0.666   4.710   5.863
 5011SOL    HW132175   0.623   4.794   5.879
 5011SOL    HW232176   0.610   4.646   5.906
 5012SOL     OW32177   2.292   1.379   5.886
 5012SOL    HW132178   2.297   1.290   5.852
 5012SOL    HW232179   2.203   1.387   5.922
 5013SOL     OW32180   0.694   0.232   5.957
 5013SOL    HW132181   0.605   0.256   5.930
 5013SOL    HW232182   0.747   0.244   5.878
 5014SOL     OW32183   6.315   4.647   6.743
 5014SOL    HW132184   6.269   4.709   6.687
 5014SOL    HW232185   6.408   4.667   6.732
 5015SOL     OW32186   1.486   3.969   0.711
 5015SOL    HW132187   1.449   3.893   0.665
 5015SOL    HW232188   1.479   4.041   0.648
 5016SOL     OW32189   1.700   0.639   0.032
 5016SOL    HW132190   1.695   0.714   0.092
 5016SOL    HW232191   1.609   0.607   0.027
 5017SOL     OW32192   3.659   4.461   0.927
 5017SOL    HW132193   3.685   4.411   0.850
 5017SOL    HW232194   3.717   4.430   0.997
 5018SOL     OW32195   0.279   0.180   0.132
 5018SOL    HW132196   0.364   0.136   0.133
 5018SOL    HW232197   0.272   0.216   0.044
 5019SOL     OW32198   2.270   0.248   0.314
 5019SOL    HW132199   2.354   0.207   0.296
 5019SOL    HW232200   2.257   0.236   0.408
 5020SOL     OW32201   0.901   0.705   7.530
 5020SOL    HW132202   0.888   0.770   7.462
 5020SOL    HW232203   0.972   0.740   7.584
 5021SOL     OW32204   5.847   6.013   7.181
 5021SOL    HW132205   5.800   6.017   7.264
 5021SOL    HW232206   5.783   5.975   7.120
 5022SOL     OW32207   0.946   4.319   0.854
 5022SOL    HW132208   0.919   4.386   0.917
 5022SOL    HW232209   0.876   4.253   0.858
 5023SOL     OW32210   4.798   4.726   0.271
 5023SOL    HW132211   4.855   4.733   0.195
 5023SOL    HW232212   4.767   4.635   0.270
 5024SOL     OW32213   0.326   4.927   0.678
 5024SOL    HW132214   0.313   4.918   0.583
 5024SOL    HW232215   0.312   4.839   0.712
 5025SOL     OW32216   1.155   1.330   5.320
 5025SOL    HW132217   1.103   1.368   5.249
 5025SOL    HW232218   1.217   1.399   5.344
 5026SOL     OW32219   5.269   1.683   7.470
 5026SOL    HW132220   5.229   1.703   7.554
 5026SOL    HW232221   5.292   1.768   7.433
 5027SOL     OW32222   2.540   0.928   6.457
 5027SOL    HW132223   2.513   0.863   6.392
 5027SOL    HW232224   2.552   0.878   6.538
 5028SOL     OW32225   0.825   2.378   0.764
 5028SOL    HW132226   0.749   2.321   0.757
 5028SOL    HW232227   0.893   2.322   0.803
 5029SOL     OW32228   2.713   3.441   6.296
 5029SOL    HW132229   2.668   3.474   6.219
 5029SOL    HW232230   2.703   3.509   6.362
 5030SOL     OW32231   0.880   1.217   1.227
 5030SOL    HW132232   0.807   1.227   1.165
 5030SOL    HW232233   0.861   1.135   1.272
 5031SOL     OW32234   4.096   0.980   2.196
 5031SOL    HW132235   4.173   0.924   2.190
 5031SOL    HW232236   4.131   1.068   2.206
 5032SOL     OW32237   0.447   1.443   5.870
 5032SOL    HW132238   0.400   1.493   5.804
 5032SOL    HW232239   0.378   1.396   5.918
 5033SOL     OW32240   2.386   1.504   6.478
 5033SOL    HW132241   2.426   1.518   6.564
 5033SOL    HW232242   2.458   1.513   6.416
 5034SOL     OW32243   6.261   4.524   7.298
 5034SOL    HW132244   6.334   4.585   7.306
 5034SOL    HW232245   6.186   4.573   7.332
 5035SOL     OW32246   2.295   3.326   5.225
 5035SOL    HW132247   2.298   3.422   5.229
 5035SOL    HW232248   2.350   3.303   5.151
 5036SOL     OW32249   2.120   1.319   5.457
 5036SOL    HW132250   2.143   1.247   5.517
 5036SOL    HW232251   2.031   1.300   5.430
 5037SOL     OW32252   0.573   6.351   6.406
 5037SOL    HW132253   0.661   6.315   6.394
 5037SOL    HW232254   0.586   6.446   6.405
 5038SOL     OW32255   5.587   4.296   4.798
 5038SOL    HW132256   5.549   4.348   4.869
 5038SOL    HW232257   5.620   4.217   4.842
 5039SOL     OW32258   3.814   1.819   6.547
 5039SOL    HW132259   3.867   1.817   6.467
 5039SOL    HW232260   3.735   1.769   6.524
 5040SOL     OW32261   3.984   4.004   5.714
 5040SOL    HW132262   4.049   4.055   5.666
 5040SOL    HW232263   4.011   4.011   5.805
 5041SOL     OW32264   0.121   1.102   6.317
 5041SOL    HW132265   0.171   1.057   6.249
 5041SOL    HW232266   0.097   1.185   6.276
 5042SOL     OW32267   4.749   0.090   1.291
 5042SOL    HW132268   4.730   0.134   1.374
 5042SOL    HW232269   4.826   0.037   1.308
 5043SOL     OW32270   1.557   2.632   6.367
 5043SOL    HW132271   1.608   2.705   6.402
 5043SOL    HW232272   1.470   2.642   6.407
 5044SOL     OW32273   2.590   3.198   6.273
 5044SOL    HW132274   2.507   3.182   6.318
 5044SOL    HW232275   2.620   3.282   6.308
 5045SOL     OW32276   3.459   3.088   6.544
 5045SOL    HW132277   3.367   3.063   6.534
 5045SOL    HW232278   3.508   3.012   6.512
 5046SOL     OW32279   3.100   3.892   0.369
 5046SOL    HW132280   3.074   3.932   0.286
 5046SOL    HW232281   3.094   3.798   0.353
 5047SOL     OW32282   2.608   6.020   7.378
 5047SOL    HW132283   2.551   5.970   7.320
 5047SOL    HW232284   2.686   6.039   7.326
 5048SOL     OW32285   1.023   2.767   6.233
 5048SOL    HW132286   1.074   2.686   6.231
 5048SOL    HW232287   1.037   2.806   6.146
 5049SOL     OW32288   1.322   0.666   6.503
 5049SOL    HW132289   1.385   0.721   6.551
 5049SOL    HW232290   1.337   0.578   6.536
 5050SOL     OW32291   5.955   3.930   6.817
 5050SOL    HW132292   6.011   3.931   6.895
 5050SOL    HW232293   5.904   3.850   6.825
 5051SOL     OW32294   3.566   1.286   5.782
 5051SOL    HW132295   3.627   1.319   5.716
 5051SOL    HW232296   3.605   1.204   5.812
 5052SOL     OW32297   5.517   5.918   2.275
 5052SOL    HW132298   5.447   5.891   2.215
 5052SOL    HW232299   5.565   5.838   2.293
 5053SOL     OW32300   3.035   3.882   0.630
 5053SOL    HW132301   3.073   3.903   0.544
 5053SOL    HW232302   2.942   3.868   0.612
 5054SOL     OW32303   2.253   1.738   5.820
 5054SOL    HW132304   2.196   1.677   5.773
 5054SOL    HW232305   2.286   1.688   5.894
 5055SOL     OW32306   1.002   0.540   0.737
 5055SOL    HW132307   1.087   0.562   0.776
 5055SOL    HW232308   0.971   0.623   0.702
 5056SOL     OW32309   5.541   1.456   6.121
 5056SOL    HW132310   5.567   1.394   6.054
 5056SOL    HW232311   5.553   1.542   6.080
 5057SOL     OW32312   5.425   1.719   6.357
 5057SOL    HW132313   5.412   1.628   6.385
 5057SOL    HW232314   5.337   1.754   6.346
 5058SOL     OW32315   3.473   4.105   0.290
 5058SOL    HW132316   3.393   4.159   0.288
 5058SOL    HW232317   3.498   4.103   0.382
 5059SOL     OW32318   6.096   1.151   6.045
 5059SOL    HW132319   6.042   1.153   6.125
 5059SOL    HW232320   6.158   1.080   6.060
 5060SOL     OW32321   1.539   2.323   6.991
 5060SOL    HW132322   1.621   2.290   7.029
 5060SOL    HW232323   1.567   2.375   6.915
 5061SOL     OW32324   0.029   0.334   7.260
 5061SOL    HW132325   0.118   0.324   7.296
 5061SOL    HW232326   0.024   0.268   7.191
 5062SOL     OW32327   4.673   1.846   7.689
 5062SOL    HW132328   4.755   1.841   7.739
 5062SOL    HW232329   4.692   1.907   7.618
 5063SOL     OW32330   4.235   2.013   0.455
 5063SOL    HW132331   4.322   2.051   0.439
 5063SOL    HW232332   4.252   1.935   0.508
 5064SOL     OW32333   1.779   4.311   0.384
 5064SOL    HW132334   1.728   4.245   0.337
 5064SOL    HW232335   1.748   4.395   0.348
 5065SOL     OW32336   2.687   1.328   7.788
 5065SOL    HW132337   2.772   1.286   7.776
 5065SOL    HW232338   2.668   1.369   7.703
 5066SOL     OW32339   2.637   3.474   0.022
 5066SOL    HW132340   2.587   3.498   0.100
 5066SOL    HW232341   2.629   3.379   0.017
 5067SOL     OW32342   6.075   0.015   0.989
 5067SOL    HW132343   6.110  -0.043   0.922
 5067SOL    HW232344   6.124  -0.008   1.068
 5068SOL     OW32345   4.470   2.115   1.257
 5068SOL    HW132346   4.378   2.091   1.245
 5068SOL    HW232347   4.473   2.156   1.343
 5069SOL     OW32348   2.543   4.156   7.150
 5069SOL    HW132349   2.561   4.071   7.190
 5069SOL    HW232350   2.625   4.180   7.106
 5070SOL     OW32351   5.829   3.161   0.583
 5070SOL    HW132352   5.775   3.238   0.600
 5070SOL    HW232353   5.871   3.179   0.499
 5071SOL     OW32354   5.206   2.532   1.078
 5071SOL    HW132355   5.181   2.448   1.116
 5071SOL    HW232356   5.258   2.509   1.001
 5072SOL     OW32357   2.861   5.160   5.163
 5072SOL    HW132358   2.855   5.202   5.248
 5072SOL    HW232359   2.893   5.072   5.181
 5073SOL     OW32360   2.680   0.936   1.175
 5073SOL    HW132361   2.656   0.865   1.116
 5073SOL    HW232362   2.771   0.957   1.152
 5074SOL     OW32363   1.373   1.462   0.397
 5074SOL    HW132364   1.348   1.539   0.448
 5074SOL    HW232365   1.468   1.457   0.405
 5075SOL     OW32366   0.737   4.991   5.920
 5075SOL    HW132367   0.822   4.957   5.893
 5075SOL    HW232368   0.756   5.075   5.961
 5076SOL     OW32369   1.708   4.911   5.833
 5076SOL    HW132370   1.773   4.980   5.848
 5076SOL    HW232371   1.678   4.925   5.744
 5077SOL     OW32372   0.763   3.679   7.325
 5077SOL    HW132373   0.715   3.722   7.396
 5077SOL    HW232374   0.761   3.741   7.253
 5078SOL     OW32375   5.160   6.263   5.569
 5078SOL    HW132376   5.231   6.209   5.533
 5078SOL    HW232377   5.185   6.278   5.660
 5079SOL     OW32378   2.646   0.858   0.445
 5079SOL    HW132379   2.680   0.772   0.470
 5079SOL    HW232380   2.723   0.914   0.439
 5080SOL     OW32381   1.082   2.258   0.026
 5080SOL    HW132382   1.130   2.175   0.021
 5080SOL    HW232383   1.031   2.260  -0.055
 5081SOL     OW32384   0.450   1.680   6.598
 5081SOL    HW132385   0.519   1.728   6.644
 5081SOL    HW232386   0.497   1.610   6.551
 5082SOL     OW32387   4.367   0.364   7.824
 5082SOL    HW132388   4.402   0.344   7.911
 5082SOL    HW232389   4.373   0.459   7.817
 5083SOL     OW32390   1.554   5.403   6.738
 5083SOL    HW132391   1.483   5.407   6.803
 5083SOL    HW232392   1.574   5.310   6.730
 5084SOL     OW32393   2.182   4.290   5.290
 5084SOL    HW132394   2.186   4.269   5.384
 5084SOL    HW232395   2.221   4.214   5.247
 5085SOL     OW32396   4.551   4.661   7.835
 5085SOL    HW132397   4.482   4.712   7.793
 5085SOL    HW232398   4.511   4.577   7.855
 5086SOL     OW32399   1.778   6.251   0.573
 5086SOL    HW132400   1.831   6.172   0.581
 5086SOL    HW232401   1.826   6.306   0.511
 5087SOL     OW32402   2.732   4.952   6.422
 5087SOL    HW132403   2.820   4.950   6.458
 5087SOL    HW232404   2.691   5.029   6.463
 5088SOL     OW32405   2.040   4.262   0.307
 5088SOL    HW132406   1.949   4.266   0.336
 5088SOL    HW232407   2.064   4.170   0.318
 5089SOL     OW32408   6.372   0.702   0.846
 5089SOL    HW132409   6.443   0.680   0.787
 5089SOL    HW232410   6.406   0.684   0.934
 5090SOL     OW32411   5.495   4.958   7.146
 5090SOL    HW132412   5.404   4.990   7.145
 5090SOL    HW232413   5.487   4.863   7.146
 5091SOL     OW32414   3.024   3.586   1.122
 5091SOL    HW132415   3.118   3.581   1.105
 5091SOL    HW232416   3.014   3.653   1.189
 5092SOL     OW32417   0.102   2.030   1.261
 5092SOL    HW132418   0.190   2.064   1.278
 5092SOL    HW232419   0.049   2.109   1.245
 5093SOL     OW32420   0.552   2.242   0.445
 5093SOL    HW132421   0.589   2.330   0.458
 5093SOL    HW232422   0.599   2.208   0.369
 5094SOL     OW32423   2.053   6.107   6.756
 5094SOL    HW132424   2.044   6.031   6.814
 5094SOL    HW232425   1.980   6.164   6.780
 5095SOL     OW32426   3.054   0.424   0.607
 5095SOL    HW132427   3.040   0.330   0.622
 5095SOL    HW232428   2.996   0.444   0.533
 5096SOL     OW32429   2.703   3.639   0.741
 5096SOL    HW132430   2.785   3.679   0.771
 5096SOL    HW232431   2.655   3.618   0.821
 5097SOL     OW32432   5.256   0.016   0.365
 5097SOL    HW132433   5.280  -0.077   0.359
 5097SOL    HW232434   5.335   0.058   0.398
 5098SOL     OW32435   2.289   3.418   5.633
 5098SOL    HW132436   2.246   3.476   5.696
 5098SOL    HW232437   2.347   3.475   5.583
 5099SOL     OW32438   3.128   5.434   1.887
 5099SOL    HW132439   3.180   5.466   1.814
 5099SOL    HW232440   3.072   5.366   1.849
 5100SOL     OW32441   3.646   5.920   5.322
 5100SOL    HW132442   3.582   5.987   5.301
 5100SOL    HW232443   3.599   5.837   5.312
 5101SOL     OW32444   2.126   0.846   0.780
 5101SOL    HW132445   2.118   0.821   0.872
 5101SOL    HW232446   2.095   0.769   0.732
 5102SOL     OW32447   5.925   5.939   6.430
 5102SOL    HW132448   5.972   5.867   6.471
 5102SOL    HW232449   5.953   6.017   6.478
 5103SOL     OW32450   6.327   4.699   1.071
 5103SOL    HW132451   6.345   4.785   1.032
 5103SOL    HW232452   6.320   4.716   1.165
 5104SOL     OW32453   1.044   5.353   6.357
 5104SOL    HW132454   1.123   5.399   6.329
 5104SOL    HW232455   0.973   5.397   6.309
 5105SOL     OW32456   2.616   2.920   1.104
 5105SOL    HW132457   2.640   3.010   1.130
 5105SOL    HW232458   2.692   2.868   1.128
 5106SOL     OW32459   1.519   6.225   0.611
 5106SOL    HW132460   1.493   6.259   0.696
 5106SOL    HW232461   1.613   6.241   0.606
 5107SOL     OW32462   1.056   4.420   1.551
 5107SOL    HW132463   1.009   4.502   1.569
 5107SOL    HW232464   0.995   4.351   1.577
 5108SOL     OW32465   0.052   1.772   7.733
 5108SOL    HW132466   0.005   1.713   7.793
 5108SOL    HW232467   0.145   1.753   7.750
 5109SOL     OW32468   6.114   1.206   6.901
 5109SOL    HW132469   6.112   1.231   6.809
 5109SOL    HW232470   6.129   1.112   6.900
 5110SOL     OW32471   0.658   1.528   7.083
 5110SOL    HW132472   0.644   1.616   7.118
 5110SOL    HW232473   0.730   1.493   7.135
 5111SOL     OW32474   0.514   0.469   2.499
 5111SOL    HW132475   0.575   0.538   2.473
 5111SOL    HW232476   0.571   0.394   2.517
 5112SOL     OW32477   5.019   2.840   6.405
 5112SOL    HW132478   4.976   2.768   6.451
 5112SOL    HW232479   5.013   2.914   6.466
 5113SOL     OW32480   0.273   4.624   6.756
 5113SOL    HW132481   0.348   4.662   6.801
 5113SOL    HW232482   0.309   4.594   6.672
 5114SOL     OW32483   3.693   0.211   0.540
 5114SOL    HW132484   3.711   0.118   0.558
 5114SOL    HW232485   3.678   0.214   0.445
 5115SOL     OW32486   0.391   5.378   7.863
 5115SOL    HW132487   0.476   5.341   7.840
 5115SOL    HW232488   0.365   5.429   7.786
 5116SOL     OW32489   3.576   1.890   1.207
 5116SOL    HW132490   3.518   1.871   1.281
 5116SOL    HW232491   3.661   1.859   1.235
 5117SOL     OW32492   3.944   1.571   5.917
 5117SOL    HW132493   3.885   1.644   5.898
 5117SOL    HW232494   3.965   1.580   6.010
 5118SOL     OW32495   6.153   0.015   6.566
 5118SOL    HW132496   6.244  -0.012   6.551
 5118SOL    HW232497   6.140   0.005   6.660
 5119SOL     OW32498   0.523   3.708   5.479
 5119SOL    HW132499   0.440   3.735   5.439
 5119SOL    HW232500   0.555   3.637   5.423
 5120SOL     OW32501   1.505   0.689   0.378
 5120SOL    HW132502   1.472   0.679   0.468
 5120SOL    HW232503   1.594   0.655   0.382
 5121SOL     OW32504   2.688   4.346   6.286
 5121SOL    HW132505   2.694   4.260   6.327
 5121SOL    HW232506   2.595   4.357   6.267
 5122SOL     OW32507   0.908   5.542   6.187
 5122SOL    HW132508   0.925   5.609   6.121
 5122SOL    HW232509   0.816   5.518   6.173
 5123SOL     OW32510   2.539   4.306   5.641
 5123SOL    HW132511   2.634   4.321   5.636
 5123SOL    HW232512   2.500   4.386   5.608
 5124SOL     OW32513   0.628   5.033   5.462
 5124SOL    HW132514   0.720   5.048   5.438
 5124SOL    HW232515   0.600   4.962   5.404
 5125SOL     OW32516   5.668   2.805   1.546
 5125SOL    HW132517   5.705   2.893   1.556
 5125SOL    HW232518   5.744   2.748   1.535
 5126SOL     OW32519   1.389   1.411   6.536
 5126SOL    HW132520   1.349   1.343   6.591
 5126SOL    HW232521   1.482   1.386   6.531
 5127SOL     OW32522   1.036   2.094   6.734
 5127SOL    HW132523   1.110   2.039   6.758
 5127SOL    HW232524   1.070   2.183   6.738
 5128SOL     OW32525   0.684   6.284   6.693
 5128SOL    HW132526   0.605   6.241   6.660
 5128SOL    HW232527   0.684   6.371   6.654
 5129SOL     OW32528   4.916   6.046   1.471
 5129SOL    HW132529   4.832   6.087   1.450
 5129SOL    HW232530   4.982   6.104   1.432
 5130SOL     OW32531   6.148   3.053   0.526
 5130SOL    HW132532   6.058   3.079   0.503
 5130SOL    HW232533   6.136   2.972   0.576
 5131SOL     OW32534   5.223   4.342   5.469
 5131SOL    HW132535   5.232   4.392   5.388
 5131SOL    HW232536   5.178   4.400   5.529
 5132SOL     OW32537   0.676   4.597   7.620
 5132SOL    HW132538   0.742   4.581   7.553
 5132SOL    HW232539   0.628   4.514   7.627
 5133SOL     OW32540   2.487   4.812   6.421
 5133SOL    HW132541   2.478   4.782   6.511
 5133SOL    HW232542   2.574   4.852   6.417
 5134SOL     OW32543   5.694   2.840   7.432
 5134SOL    HW132544   5.693   2.842   7.337
 5134SOL    HW232545   5.747   2.916   7.457
 5135SOL     OW32546   0.057   1.745   0.380
 5135SOL    HW132547   0.025   1.834   0.362
 5135SOL    HW232548   0.070   1.744   0.475
 5136SOL     OW32549   1.758   0.882   7.271
 5136SOL    HW132550   1.739   0.797   7.311
 5136SOL    HW232551   1.846   0.873   7.235
 5137SOL     OW32552   5.258   4.488   5.231
 5137SOL    HW132553   5.270   4.399   5.199
 5137SOL    HW232554   5.163   4.500   5.234
 5138SOL     OW32555   1.410   5.502   5.850
 5138SOL    HW132556   1.348   5.567   5.817
 5138SOL    HW232557   1.397   5.503   5.945
 5139SOL     OW32558   1.968   4.709   6.972
 5139SOL    HW132559   1.983   4.615   6.960
 5139SOL    HW232560   1.903   4.731   6.906
 5140SOL     OW32561   1.567   1.954   0.947
 5140SOL    HW132562   1.611   1.983   0.867
 5140SOL    HW232563   1.597   2.015   1.014
 5141SOL     OW32564   5.750   4.420   6.895
 5141SOL    HW132565   5.810   4.347   6.907
 5141SOL    HW232566   5.669   4.380   6.864
 5142SOL     OW32567   1.020   1.182   7.551
 5142SOL    HW132568   0.933   1.148   7.572
 5142SOL    HW232569   1.034   1.159   7.459
 5143SOL     OW32570   1.171   0.404   0.433
 5143SOL    HW132571   1.176   0.309   0.448
 5143SOL    HW232572   1.197   0.443   0.516
 5144SOL     OW32573   2.573   1.252   7.134
 5144SOL    HW132574   2.545   1.271   7.224
 5144SOL    HW232575   2.592   1.339   7.096
 5145SOL     OW32576   0.567   1.322   7.678
 5145SOL    HW132577   0.477   1.299   7.653
 5145SOL    HW232578   0.607   1.238   7.702
 5146SOL     OW32579   2.189   0.443   6.704
 5146SOL    HW132580   2.134   0.521   6.714
 5146SOL    HW232581   2.275   0.477   6.681
 5147SOL     OW32582   5.460   2.897   5.573
 5147SOL    HW132583   5.436   2.951   5.498
 5147SOL    HW232584   5.376   2.870   5.611
 5148SOL     OW32585   4.867   1.929   1.057
 5148SOL    HW132586   4.775   1.932   1.082
 5148SOL    HW232587   4.867   1.923   0.962
 5149SOL     OW32588   2.158   0.609   1.158
 5149SOL    HW132589   2.228   0.667   1.188
 5149SOL    HW232590   2.155   0.539   1.223
 5150SOL     OW32591   6.396   1.792   7.135
 5150SOL    HW132592   6.323   1.844   7.168
 5150SOL    HW232593   6.363   1.751   7.056
 5151SOL     OW32594   2.135   2.829   0.528
 5151SOL    HW132595   2.210   2.882   0.503
 5151SOL    HW232596   2.067   2.851   0.464
 5152SOL     OW32597   5.827   4.113   0.143
 5152SOL    HW132598   5.900   4.057   0.116
 5152SOL    HW232599   5.765   4.053   0.185
 5153SOL     OW32600   2.187   3.407   0.803
 5153SOL    HW132601   2.126   3.334   0.793
 5153SOL    HW232602   2.186   3.427   0.897
 5154SOL     OW32603   4.373   3.955   7.462
 5154SOL    HW132604   4.392   3.978   7.553
 5154SOL    HW232605   4.453   3.910   7.432
 5155SOL     OW32606   2.499   2.097   7.037
 5155SOL    HW132607   2.468   2.184   7.063
 5155SOL    HW232608   2.531   2.058   7.118
 5156SOL     OW32609   1.517   1.778   7.741
 5156SOL    HW132610   1.442   1.832   7.766
 5156SOL    HW232611   1.556   1.824   7.666
 5157SOL     OW32612   1.449   4.476   6.931
 5157SOL    HW132613   1.399   4.457   6.852
 5157SOL    HW232614   1.396   4.440   7.002
 5158SOL     OW32615   2.414   3.960   1.305
 5158SOL    HW132616   2.345   4.024   1.286
 5158SOL    HW232617   2.373   3.875   1.287
 5159SOL     OW32618   1.135   0.823   5.278
 5159SOL    HW132619   1.044   0.825   5.309
 5159SOL    HW232620   1.161   0.915   5.272
 5160SOL     OW32621   3.606   1.300   1.329
 5160SOL    HW132622   3.694   1.338   1.334
 5160SOL    HW232623   3.608   1.243   1.253
 5161SOL     OW32624   2.944   4.304   1.036
 5161SOL    HW132625   2.848   4.306   1.036
 5161SOL    HW232626   2.966   4.242   0.967
 5162SOL     OW32627   0.542   6.126   7.239
 5162SOL    HW132628   0.616   6.156   7.293
 5162SOL    HW232629   0.483   6.083   7.301
 5163SOL     OW32630   0.671   5.285   6.000
 5163SOL    HW132631   0.696   5.376   5.983
 5163SOL    HW232632   0.597   5.269   5.942
 5164SOL     OW32633   1.257   1.684   0.240
 5164SOL    HW132634   1.349   1.660   0.246
 5164SOL    HW232635   1.211   1.600   0.228
 5165SOL     OW32636   6.324   4.624   5.984
 5165SOL    HW132637   6.360   4.540   6.012
 5165SOL    HW232638   6.240   4.601   5.943
 5166SOL     OW32639   5.388   3.585   6.844
 5166SOL    HW132640   5.429   3.506   6.880
 5166SOL    HW232641   5.296   3.576   6.866
 5167SOL     OW32642   1.312   3.205   1.288
 5167SOL    HW132643   1.325   3.148   1.364
 5167SOL    HW232644   1.217   3.215   1.281
 5168SOL     OW32645   1.904   5.609   6.746
 5168SOL    HW132646   1.926   5.567   6.663
 5168SOL    HW232647   1.841   5.677   6.723
 5169SOL     OW32648   0.155   5.679   7.424
 5169SOL    HW132649   0.109   5.759   7.400
 5169SOL    HW232650   0.094   5.633   7.482
 5170SOL     OW32651   6.336   1.270   0.525
 5170SOL    HW132652   6.310   1.287   0.434
 5170SOL    HW232653   6.402   1.201   0.519
 5171SOL     OW32654   4.662   5.832   6.513
 5171SOL    HW132655   4.746   5.788   6.527
 5171SOL    HW232656   4.661   5.849   6.418
 5172SOL     OW32657   2.698   3.208   1.224
 5172SOL    HW132658   2.612   3.249   1.208
 5172SOL    HW232659   2.757   3.253   1.163
 5173SOL     OW32660   4.464   5.788   6.025
 5173SOL    HW132661   4.521   5.718   5.994
 5173SOL    HW232662   4.435   5.833   5.946
 5174SOL     OW32663   3.085   6.103   1.605
 5174SOL    HW132664   3.054   6.084   1.694
 5174SOL    HW232665   3.012   6.150   1.564
 5175SOL     OW32666   3.401   0.638   1.384
 5175SOL    HW132667   3.317   0.598   1.367
 5175SOL    HW232668   3.380   0.728   1.412
 5176SOL     OW32669   1.521   3.919   5.876
 5176SOL    HW132670   1.437   3.963   5.872
 5176SOL    HW232671   1.519   3.856   5.805
 5177SOL     OW32672   6.257   4.685   4.991
 5177SOL    HW132673   6.220   4.682   4.902
 5177SOL    HW232674   6.263   4.778   5.011
 5178SOL     OW32675   5.444   0.389   6.339
 5178SOL    HW132676   5.389   0.430   6.405
 5178SOL    HW232677   5.406   0.302   6.327
 5179SOL     OW32678   5.743   3.879   0.285
 5179SOL    HW132679   5.662   3.833   0.307
 5179SOL    HW232680   5.800   3.810   0.250
 5180SOL     OW32681   3.885   4.659   6.284
 5180SOL    HW132682   3.956   4.722   6.290
 5180SOL    HW232683   3.928   4.574   6.274
 5181SOL     OW32684   5.843   4.455   6.101
 5181SOL    HW132685   5.831   4.360   6.100
 5181SOL    HW232686   5.862   4.477   6.192
 5182SOL     OW32687   3.973   3.431   7.396
 5182SOL    HW132688   3.900   3.410   7.338
 5182SOL    HW232689   4.046   3.379   7.362
 5183SOL     OW32690   3.130   3.894   7.283
 5183SOL    HW132691   3.076   3.833   7.233
 5183SOL    HW232692   3.162   3.842   7.358
 5184SOL     OW32693   5.117   0.473   7.011
 5184SOL    HW132694   5.103   0.567   7.019
 5184SOL    HW232695   5.098   0.438   7.098
 5185SOL     OW32696   3.663   3.425   7.529
 5185SOL    HW132697   3.586   3.481   7.540
 5185SOL    HW232698   3.736   3.479   7.562
 5186SOL     OW32699   2.330   0.277   6.411
 5186SOL    HW132700   2.242   0.295   6.379
 5186SOL    HW232701   2.380   0.257   6.332
 5187SOL     OW32702   0.688   3.604   5.670
 5187SOL    HW132703   0.627   3.662   5.624
 5187SOL    HW232704   0.744   3.569   5.600
 5188SOL     OW32705   1.837   4.515   2.239
 5188SOL    HW132706   1.830   4.571   2.317
 5188SOL    HW232707   1.824   4.575   2.166
 5189SOL     OW32708   0.885   1.821   1.097
 5189SOL    HW132709   0.936   1.822   1.015
 5189SOL    HW232710   0.835   1.903   1.095
 5190SOL     OW32711   4.146   2.165   0.855
 5190SOL    HW132712   4.061   2.142   0.892
 5190SOL    HW232713   4.202   2.179   0.932
 5191SOL     OW32714   2.316   1.712   5.445
 5191SOL    HW132715   2.235   1.674   5.480
 5191SOL    HW232716   2.331   1.791   5.497
 5192SOL     OW32717   1.342   5.378   0.678
 5192SOL    HW132718   1.435   5.367   0.697
 5192SOL    HW232719   1.339   5.443   0.607
 5193SOL     OW32720   6.040   2.382   0.162
 5193SOL    HW132721   6.055   2.371   0.256
 5193SOL    HW232722   6.054   2.475   0.145
 5194SOL     OW32723   0.694   2.224   6.998
 5194SOL    HW132724   0.616   2.275   6.977
 5194SOL    HW232725   0.743   2.279   7.059
 5195SOL     OW32726   3.494   3.271   7.766
 5195SOL    HW132727   3.583   3.267   7.730
 5195SOL    HW232728   3.489   3.356   7.809
 5196SOL     OW32729   2.026   3.592   7.522
 5196SOL    HW132730   2.078   3.556   7.450
 5196SOL    HW232731   2.022   3.686   7.504
 5197SOL     OW32732   4.280   3.509   6.764
 5197SOL    HW132733   4.340   3.528   6.692
 5197SOL    HW232734   4.237   3.593   6.782
 5198SOL     OW32735   3.314   6.063   0.433
 5198SOL    HW132736   3.238   6.119   0.445
 5198SOL    HW232737   3.296   5.986   0.488
 5199SOL     OW32738   1.840   5.190   5.301
 5199SOL    HW132739   1.802   5.255   5.242
 5199SOL    HW232740   1.853   5.236   5.384
 5200SOL     OW32741   3.065   4.145   7.308
 5200SOL    HW132742   3.098   4.178   7.224
 5200SOL    HW232743   3.103   4.057   7.315
 5201SOL     OW32744   3.949   1.461   1.431
 5201SOL    HW132745   4.014   1.453   1.501
 5201SOL    HW232746   3.920   1.372   1.415
 5202SOL     OW32747   4.972   0.716   7.066
 5202SOL    HW132748   4.932   0.759   6.990
 5202SOL    HW232749   4.907   0.726   7.136
 5203SOL     OW32750   1.241   0.383   6.060
 5203SOL    HW132751   1.283   0.387   5.974
 5203SOL    HW232752   1.181   0.308   6.054
 5204SOL     OW32753   3.898   4.891   0.401
 5204SOL    HW132754   3.897   4.977   0.358
 5204SOL    HW232755   3.907   4.911   0.494
 5205SOL     OW32756   3.351   5.870   7.570
 5205SOL    HW132757   3.303   5.876   7.488
 5205SOL    HW232758   3.307   5.800   7.618
 5206SOL     OW32759   1.141   3.463   0.142
 5206SOL    HW132760   1.126   3.546   0.097
 5206SOL    HW232761   1.054   3.423   0.149
 5207SOL     OW32762   0.263   0.394   0.322
 5207SOL    HW132763   0.173   0.412   0.347
 5207SOL    HW232764   0.257   0.324   0.257
 5208SOL     OW32765   1.293   2.463   6.103
 5208SOL    HW132766   1.324   2.479   6.014
 5208SOL    HW232767   1.354   2.400   6.139
 5209SOL     OW32768   1.969   2.974   1.057
 5209SOL    HW132769   2.007   2.909   1.116
 5209SOL    HW232770   2.026   3.050   1.065
 5210SOL     OW32771   5.299   3.775   1.265
 5210SOL    HW132772   5.335   3.844   1.210
 5210SOL    HW232773   5.242   3.821   1.327
 5211SOL     OW32774   0.047   3.318   1.508
 5211SOL    HW132775   0.106   3.303   1.435
 5211SOL    HW232776  -0.026   3.366   1.470
 5212SOL     OW32777   0.441   6.363   0.572
 5212SOL    HW132778   0.431   6.450   0.533
 5212SOL    HW232779   0.405   6.303   0.506
 5213SOL     OW32780   2.886   3.581   7.884
 5213SOL    HW132781   2.938   3.530   7.821
 5213SOL    HW232782   2.813   3.522   7.906
 5214SOL     OW32783   4.568   5.334   0.414
 5214SOL    HW132784   4.618   5.394   0.470
 5214SOL    HW232785   4.573   5.250   0.459
 5215SOL     OW32786   2.626   2.302   7.254
 5215SOL    HW132787   2.568   2.327   7.182
 5215SOL    HW232788   2.620   2.207   7.257
 5216SOL     OW32789   3.376   2.166   5.449
 5216SOL    HW132790   3.302   2.139   5.395
 5216SOL    HW232791   3.399   2.088   5.500
 5217SOL     OW32792   3.093   2.597   6.342
 5217SOL    HW132793   3.061   2.540   6.272
 5217SOL    HW232794   3.018   2.654   6.363
 5218SOL     OW32795   4.396   0.264   1.666
 5218SOL    HW132796   4.429   0.354   1.666
 5218SOL    HW232797   4.334   0.262   1.739
 5219SOL     OW32798   3.958   4.192   7.103
 5219SOL    HW132799   3.987   4.232   7.021
 5219SOL    HW232800   4.031   4.136   7.129
 5220SOL     OW32801   4.700   4.097   0.612
 5220SOL    HW132802   4.789   4.133   0.609
 5220SOL    HW232803   4.680   4.088   0.705
 5221SOL     OW32804   0.745   1.198   7.320
 5221SOL    HW132805   0.669   1.178   7.264
 5221SOL    HW232806   0.772   1.113   7.354
 5222SOL     OW32807   5.650   0.520   5.934
 5222SOL    HW132808   5.704   0.472   5.870
 5222SOL    HW232809   5.568   0.538   5.887
 5223SOL     OW32810   1.584   1.628   0.555
 5223SOL    HW132811   1.521   1.630   0.627
 5223SOL    HW232812   1.642   1.702   0.572
 5224SOL     OW32813   5.874   5.460   7.465
 5224SOL    HW132814   5.941   5.512   7.421
 5224SOL    HW232815   5.803   5.454   7.402
 5225SOL     OW32816   1.157   2.882   5.154
 5225SOL    HW132817   1.178   2.802   5.203
 5225SOL    HW232818   1.067   2.903   5.180
 5226SOL     OW32819   5.234   5.229   5.635
 5226SOL    HW132820   5.322   5.218   5.598
 5226SOL    HW232821   5.195   5.299   5.583
 5227SOL     OW32822   5.488   0.950   0.669
 5227SOL    HW132823   5.432   0.902   0.608
 5227SOL    HW232824   5.554   0.886   0.696
 5228SOL     OW32825   1.392   3.423   0.017
 5228SOL    HW132826   1.313   3.431   0.070
 5228SOL    HW232827   1.390   3.333  -0.016
 5229SOL     OW32828   2.527   1.107   0.651
 5229SOL    HW132829   2.440   1.071   0.631
 5229SOL    HW232830   2.554   1.151   0.570
 5230SOL     OW32831   0.963   3.502   7.391
 5230SOL    HW132832   1.042   3.532   7.348
 5230SOL    HW232833   0.897   3.568   7.371
 5231SOL     OW32834   1.976   2.871   6.645
 5231SOL    HW132835   1.956   2.874   6.738
 5231SOL    HW232836   2.056   2.922   6.636
 5232SOL     OW32837   0.582   0.906   0.831
 5232SOL    HW132838   0.512   0.846   0.804
 5232SOL    HW232839   0.590   0.967   0.758
 5233SOL     OW32840   5.132   5.584   5.772
 5233SOL    HW132841   5.210   5.543   5.736
 5233SOL    HW232842   5.070   5.587   5.700
 5234SOL     OW32843   4.607   3.990   0.137
 5234SOL    HW132844   4.698   3.974   0.112
 5234SOL    HW232845   4.608   3.988   0.233
 5235SOL     OW32846   5.430   6.286   7.629
 5235SOL    HW132847   5.371   6.222   7.670
 5235SOL    HW232848   5.374   6.361   7.610
 5236SOL     OW32849   3.608   5.025   5.712
 5236SOL    HW132850   3.613   5.012   5.807
 5236SOL    HW232851   3.677   5.088   5.693
 5237SOL     OW32852   1.681   0.670   1.807
 5237SOL    HW132853   1.606   0.726   1.784
 5237SOL    HW232854   1.658   0.584   1.772
 5238SOL     OW32855   1.058   3.654   0.784
 5238SOL    HW132856   1.020   3.741   0.792
 5238SOL    HW232857   0.984   3.596   0.768
 5239SOL     OW32858   6.168   0.007   6.848
 5239SOL    HW132859   6.162   0.007   6.944
 5239SOL    HW232860   6.209   0.090   6.827
 5240SOL     OW32861   0.955   4.345   5.281
 5240SOL    HW132862   0.908   4.269   5.247
 5240SOL    HW232863   1.048   4.323   5.268
 5241SOL     OW32864   0.301   5.656   1.875
 5241SOL    HW132865   0.294   5.736   1.927
 5241SOL    HW232866   0.231   5.663   1.809
 5242SOL     OW32867   4.458   3.997   7.751
 5242SOL    HW132868   4.508   4.068   7.711
 5242SOL    HW232869   4.491   3.992   7.841
 5243SOL     OW32870   0.466   0.412   6.156
 5243SOL    HW132871   0.523   0.360   6.213
 5243SOL    HW232872   0.521   0.486   6.130
 5244SOL     OW32873   3.018   0.174   6.767
 5244SOL    HW132874   2.982   0.235   6.831
 5244SOL    HW232875   3.112   0.188   6.770
 5245SOL     OW32876   6.286   5.904   0.577
 5245SOL    HW132877   6.215   5.964   0.600
 5245SOL    HW232878   6.242   5.828   0.538
 5246SOL     OW32879   0.105   2.433   6.856
 5246SOL    HW132880   0.151   2.369   6.910
 5246SOL    HW232881   0.168   2.505   6.846
 5247SOL     OW32882   3.246   6.405   1.457
 5247SOL    HW132883   3.186   6.339   1.423
 5247SOL    HW232884   3.191   6.481   1.476
 5248SOL     OW32885   5.629   2.498   2.343
 5248SOL    HW132886   5.572   2.499   2.420
 5248SOL    HW232887   5.576   2.537   2.273
 5249SOL     OW32888   4.836   4.165   6.708
 5249SOL    HW132889   4.918   4.209   6.685
 5249SOL    HW232890   4.800   4.216   6.780
 5250SOL     OW32891   1.533   1.764   0.292
 5250SOL    HW132892   1.551   1.716   0.373
 5250SOL    HW232893   1.549   1.856   0.315
 5251SOL     OW32894   0.845   6.263   6.394
 5251SOL    HW132895   0.899   6.189   6.367
 5251SOL    HW232896   0.907   6.328   6.427
 5252SOL     OW32897   6.093   3.601   0.906
 5252SOL    HW132898   6.109   3.682   0.956
 5252SOL    HW232899   6.173   3.549   0.918
 5253SOL     OW32900   1.164   2.807   7.438
 5253SOL    HW132901   1.125   2.719   7.432
 5253SOL    HW232902   1.217   2.804   7.518
 5254SOL     OW32903   4.156   0.562   1.116
 5254SOL    HW132904   4.213   0.601   1.182
 5254SOL    HW232905   4.068   0.566   1.154
 5255SOL     OW32906   1.338   3.468   7.612
 5255SOL    HW132907   1.426   3.455   7.578
 5255SOL    HW232908   1.350   3.482   7.705
 5256SOL     OW32909   3.698   3.507   5.360
 5256SOL    HW132910   3.623   3.456   5.330
 5256SOL    HW232911   3.710   3.576   5.294
 5257SOL     OW32912   6.391   4.400   6.403
 5257SOL    HW132913   6.390   4.457   6.326
 5257SOL    HW232914   6.302   4.365   6.408
 5258SOL     OW32915   2.473   0.369   1.189
 5258SOL    HW132916   2.499   0.456   1.159
 5258SOL    HW232917   2.500   0.366   1.281
 5259SOL     OW32918   6.028   2.023   0.904
 5259SOL    HW132919   6.017   2.015   0.809
 5259SOL    HW232920   5.957   1.970   0.941
 5260SOL     OW32921   3.644   1.138   1.147
 5260SOL    HW132922   3.728   1.157   1.106
 5260SOL    HW232923   3.613   1.059   1.103
 5261SOL     OW32924   3.042   4.634   0.487
 5261SOL    HW132925   3.032   4.683   0.406
 5261SOL    HW232926   2.969   4.662   0.541
 5262SOL     OW32927   2.159   3.626   0.156
 5262SOL    HW132928   2.248   3.613   0.122
 5262SOL    HW232929   2.104   3.633   0.078
 5263SOL     OW32930   0.255   4.439   4.846
 5263SOL    HW132931   0.304   4.518   4.824
 5263SOL    HW232932   0.308   4.395   4.912
 5264SOL     OW32933   1.831   2.610   0.946
 5264SOL    HW132934   1.786   2.550   0.886
 5264SOL    HW232935   1.813   2.697   0.911
 5265SOL     OW32936   1.863   1.379   5.387
 5265SOL    HW132937   1.890   1.466   5.416
 5265SOL    HW232938   1.791   1.356   5.445
 5266SOL     OW32939   3.797   4.195   5.880
 5266SOL    HW132940   3.835   4.108   5.899
 5266SOL    HW232941   3.872   4.255   5.886
 5267SOL     OW32942   0.620   2.526   6.072
 5267SOL    HW132943   0.713   2.529   6.095
 5267SOL    HW232944   0.588   2.614   6.090
 5268SOL     OW32945   2.368   0.755   6.095
 5268SOL    HW132946   2.305   0.806   6.044
 5268SOL    HW232947   2.452   0.799   6.081
 5269SOL     OW32948   3.872   5.312   1.521
 5269SOL    HW132949   3.830   5.326   1.437
 5269SOL    HW232950   3.800   5.296   1.582
 5270SOL     OW32951   5.014   4.303   1.872
 5270SOL    HW132952   5.030   4.259   1.955
 5270SOL    HW232953   5.096   4.294   1.823
 5271SOL     OW32954   6.347   2.684   7.386
 5271SOL    HW132955   6.264   2.675   7.432
 5271SOL    HW232956   6.390   2.759   7.427
 5272SOL     OW32957   0.740   3.359   5.167
 5272SOL    HW132958   0.752   3.287   5.228
 5272SOL    HW232959   0.799   3.427   5.197
 5273SOL     OW32960   4.227   2.029   6.408
 5273SOL    HW132961   4.211   2.035   6.502
 5273SOL    HW232962   4.323   2.030   6.400
 5274SOL     OW32963   3.609   0.065   1.264
 5274SOL    HW132964   3.634   0.140   1.209
 5274SOL    HW232965   3.677   0.060   1.330
 5275SOL     OW32966   0.346   0.816   1.246
 5275SOL    HW132967   0.351   0.864   1.163
 5275SOL    HW232968   0.330   0.883   1.312
 5276SOL     OW32969   2.932   3.979   1.617
 5276SOL    HW132970   2.877   4.044   1.660
 5276SOL    HW232971   2.870   3.921   1.573
 5277SOL     OW32972   5.654   2.488   6.752
 5277SOL    HW132973   5.647   2.578   6.720
 5277SOL    HW232974   5.677   2.436   6.675
 5278SOL     OW32975   4.515   4.940   6.058
 5278SOL    HW132976   4.421   4.933   6.077
 5278SOL    HW232977   4.518   4.973   5.968
 5279SOL     OW32978   0.152   5.115   6.377
 5279SOL    HW132979   0.083   5.053   6.397
 5279SOL    HW232980   0.150   5.178   6.448
 5280SOL     OW32981   5.361   5.456   5.739
 5280SOL    HW132982   5.320   5.370   5.731
 5280SOL    HW232983   5.455   5.438   5.742
 5281SOL     OW32984   3.897   5.539   2.173
 5281SOL    HW132985   3.916   5.445   2.175
 5281SOL    HW232986   3.974   5.580   2.213
 5282SOL     OW32987   4.270   0.490   1.558
 5282SOL    HW132988   4.221   0.500   1.640
 5282SOL    HW232989   4.362   0.496   1.584
 5283SOL     OW32990   3.119   4.015   0.084
 5283SOL    HW132991   3.028   4.021   0.056
 5283SOL    HW232992   3.166   4.070   0.021
 5284SOL     OW32993   3.619   5.201   6.521
 5284SOL    HW132994   3.601   5.106   6.521
 5284SOL    HW232995   3.602   5.229   6.611
 5285SOL     OW32996   0.355   2.262   1.623
 5285SOL    HW132997   0.375   2.352   1.595
 5285SOL    HW232998   0.339   2.270   1.717
 5286SOL     OW32999   5.583   0.842   6.000
 5286SOL    HW133000   5.547   0.796   5.924
 5286SOL    HW233001   5.564   0.784   6.074
 5287SOL     OW33002   2.710   0.652   6.598
 5287SOL    HW133003   2.725   0.645   6.692
 5287SOL    HW233004   2.622   0.618   6.584
 5288SOL     OW33005   3.347   1.729   5.901
 5288SOL    HW133006   3.265   1.726   5.850
 5288SOL    HW233007   3.410   1.681   5.847
 5289SOL     OW33008   0.102   3.060   7.609
 5289SOL    HW133009   0.049   3.091   7.535
 5289SOL    HW233010   0.072   3.113   7.683
 5290SOL     OW33011   2.047   4.338   6.621
 5290SOL    HW133012   2.113   4.269   6.610
 5290SOL    HW233013   2.091   4.418   6.594
 5291SOL     OW33014   1.035   3.213   1.363
 5291SOL    HW133015   0.991   3.159   1.429
 5291SOL    HW233016   0.989   3.297   1.367
 5292SOL     OW33017   1.114   1.289   1.132
 5292SOL    HW133018   1.194   1.250   1.166
 5292SOL    HW233019   1.044   1.230   1.162
 5293SOL     OW33020   5.462   2.478   6.978
 5293SOL    HW133021   5.517   2.496   6.902
 5293SOL    HW233022   5.523   2.479   7.052
 5294SOL     OW33023   4.097   6.023   1.009
 5294SOL    HW133024   4.111   6.116   1.027
 5294SOL    HW233025   4.023   5.999   1.066
 5295SOL     OW33026   3.355   2.349   7.144
 5295SOL    HW133027   3.404   2.277   7.104
 5295SOL    HW233028   3.350   2.415   7.076
 5296SOL     OW33029   3.315   4.292   1.340
 5296SOL    HW133030   3.229   4.253   1.321
 5296SOL    HW233031   3.339   4.338   1.259
 5297SOL     OW33032   5.184   4.504   7.859
 5297SOL    HW133033   5.156   4.419   7.824
 5297SOL    HW233034   5.274   4.515   7.829
 5298SOL     OW33035   5.827   5.329   7.881
 5298SOL    HW133036   5.755   5.303   7.939
 5298SOL    HW233037   5.819   5.424   7.873
 5299SOL     OW33038   5.399   2.312   6.634
 5299SOL    HW133039   5.493   2.303   6.617
 5299SOL    HW233040   5.378   2.401   6.605
 5300SOL     OW33041   0.903   0.570   6.418
 5300SOL    HW133042   0.907   0.512   6.342
 5300SOL    HW233043   0.837   0.635   6.395
 5301SOL     OW33044   5.639   1.933   6.236
 5301SOL    HW133045   5.583   1.898   6.305
 5301SOL    HW233046   5.726   1.897   6.256
 5302SOL     OW33047   3.728   0.204   7.100
 5302SOL    HW133048   3.655   0.216   7.161
 5302SOL    HW233049   3.745   0.110   7.103
 5303SOL     OW33050   0.424   6.007   0.692
 5303SOL    HW133051   0.349   6.003   0.633
 5303SOL    HW233052   0.477   5.930   0.670
 5304SOL     OW33053   3.546   3.950   1.161
 5304SOL    HW133054   3.593   3.892   1.102
 5304SOL    HW233055   3.612   4.011   1.193
 5305SOL     OW33056   5.838   2.320   6.863
 5305SOL    HW133057   5.800   2.403   6.836
 5305SOL    HW233058   5.785   2.254   6.819
 5306SOL     OW33059   0.936   3.513   1.012
 5306SOL    HW133060   0.865   3.573   0.991
 5306SOL    HW233061   0.943   3.457   0.935
 5307SOL     OW33062   3.473   3.552   1.563
 5307SOL    HW133063   3.482   3.457   1.573
 5307SOL    HW233064   3.520   3.588   1.638
 5308SOL     OW33065   2.699   4.478   1.573
 5308SOL    HW133066   2.640   4.410   1.542
 5308SOL    HW233067   2.687   4.479   1.668
 5309SOL     OW33068   0.741   6.058   0.201
 5309SOL    HW133069   0.794   6.007   0.139
 5309SOL    HW233070   0.686   5.993   0.245
 5310SOL     OW33071   1.605   4.665   5.856
 5310SOL    HW133072   1.567   4.665   5.768
 5310SOL    HW233073   1.634   4.755   5.870
 5311SOL     OW33074   5.494   0.688   7.369
 5311SOL    HW133075   5.449   0.607   7.395
 5311SOL    HW233076   5.508   0.735   7.451
 5312SOL     OW33077   0.746   0.955   1.713
 5312SOL    HW133078   0.806   0.960   1.787
 5312SOL    HW233079   0.696   0.875   1.726
 5313SOL     OW33080   2.615   3.349   7.038
 5313SOL    HW133081   2.592   3.344   7.131
 5313SOL    HW233082   2.689   3.290   7.028
 5314SOL     OW33083   6.261   2.525   6.223
 5314SOL    HW133084   6.332   2.498   6.281
 5314SOL    HW233085   6.229   2.444   6.184
 5315SOL     OW33086   0.413   2.164   0.980
 5315SOL    HW133087   0.343   2.228   0.989
 5315SOL    HW233088   0.470   2.200   0.912
 5316SOL     OW33089   3.619   4.187   1.791
 5316SOL    HW133090   3.678   4.242   1.843
 5316SOL    HW233091   3.678   4.134   1.738
 5317SOL     OW33092   6.353   2.436   1.132
 5317SOL    HW133093   6.288   2.433   1.061
 5317SOL    HW233094   6.333   2.360   1.186
 5318SOL     OW33095   5.476   0.052   5.690
 5318SOL    HW133096   5.500   0.130   5.641
 5318SOL    HW233097   5.469   0.081   5.781
 5319SOL     OW33098   2.558   5.696   6.207
 5319SOL    HW133099   2.587   5.653   6.287
 5319SOL    HW233100   2.499   5.765   6.236
 5320SOL     OW33101   2.329   3.606   5.201
 5320SOL    HW133102   2.243   3.606   5.159
 5320SOL    HW233103   2.331   3.686   5.253
 5321SOL     OW33104   0.105   3.971   0.969
 5321SOL    HW133105   0.168   3.910   1.008
 5321SOL    HW233106   0.068   3.922   0.895
 5322SOL     OW33107   4.909   4.524   7.518
 5322SOL    HW133108   4.954   4.598   7.558
 5322SOL    HW233109   4.867   4.479   7.591
 5323SOL     OW33110   5.038   5.218   5.839
 5323SOL    HW133111   5.095   5.210   5.763
 5323SOL    HW233112   5.095   5.252   5.909
 5324SOL     OW33113   1.526   4.985   6.040
 5324SOL    HW133114   1.547   5.003   5.948
 5324SOL    HW233115   1.611   4.980   6.084
 5325SOL     OW33116   2.779   5.199   7.365
 5325SOL    HW133117   2.775   5.116   7.318
 5325SOL    HW233118   2.744   5.263   7.302
 5326SOL     OW33119   1.785   0.703   7.676
 5326SOL    HW133120   1.870   0.734   7.709
 5326SOL    HW233121   1.737   0.676   7.754
 5327SOL     OW33122   3.186   2.060   5.273
 5327SOL    HW133123   3.206   2.122   5.202
 5327SOL    HW233124   3.092   2.071   5.288
 5328SOL     OW33125   1.558   2.745   1.107
 5328SOL    HW133126   1.476   2.719   1.067
 5328SOL    HW233127   1.598   2.663   1.136
 5329SOL     OW33128   4.019   1.058   6.930
 5329SOL    HW133129   4.002   1.139   6.979
 5329SOL    HW233130   4.010   0.989   6.995
 5330SOL     OW33131   3.691   3.194   0.545
 5330SOL    HW133132   3.781   3.202   0.577
 5330SOL    HW233133   3.690   3.245   0.464
 5331SOL     OW33134   4.004   0.487   7.333
 5331SOL    HW133135   3.969   0.549   7.397
 5331SOL    HW233136   3.934   0.480   7.267
 5332SOL     OW33137   0.306   5.886   1.535
 5332SOL    HW133138   0.343   5.898   1.447
 5332SOL    HW233139   0.336   5.963   1.584
 5333SOL     OW33140   2.064   2.034   0.217
 5333SOL    HW133141   2.139   2.020   0.160
 5333SOL    HW233142   2.102   2.074   0.296
 5334SOL     OW33143   3.087   0.746   1.198
 5334SOL    HW133144   3.129   0.691   1.265
 5334SOL    HW233145   3.127   0.718   1.116
 5335SOL     OW33146   2.984   3.391   7.746
 5335SOL    HW133147   3.073   3.402   7.712
 5335SOL    HW233148   2.944   3.327   7.688
 5336SOL     OW33149   0.179   1.497   1.497
 5336SOL    HW133150   0.171   1.526   1.406
 5336SOL    HW233151   0.088   1.484   1.526
 5337SOL     OW33152   4.041   4.925   6.487
 5337SOL    HW133153   3.993   5.007   6.482
 5337SOL    HW233154   4.108   4.931   6.419
 5338SOL     OW33155   1.802   3.862   0.802
 5338SOL    HW133156   1.773   3.953   0.802
 5338SOL    HW233157   1.897   3.866   0.808
 5339SOL     OW33158   1.044   5.495   1.663
 5339SOL    HW133159   1.002   5.574   1.698
 5339SOL    HW233160   0.998   5.423   1.706
 5340SOL     OW33161   0.812   3.659   6.430
 5340SOL    HW133162   0.788   3.667   6.338
 5340SOL    HW233163   0.882   3.593   6.431
 5341SOL     OW33164   5.329   2.013   6.777
 5341SOL    HW133165   5.399   2.040   6.717
 5341SOL    HW233166   5.305   2.092   6.824
 5342SOL     OW33167   2.806   5.439   0.031
 5342SOL    HW133168   2.816   5.448  -0.063
 5342SOL    HW233169   2.886   5.479   0.068
 5343SOL     OW33170   2.737   0.509   1.917
 5343SOL    HW133171   2.799   0.438   1.933
 5343SOL    HW233172   2.682   0.477   1.846
 5344SOL     OW33173   3.968   2.166   0.641
 5344SOL    HW133174   3.975   2.259   0.663
 5344SOL    HW233175   4.037   2.124   0.691
 5345SOL     OW33176   6.015   2.340   0.479
 5345SOL    HW133177   6.027   2.247   0.457
 5345SOL    HW233178   5.939   2.341   0.537
 5346SOL     OW33179   6.237   1.646   7.450
 5346SOL    HW133180   6.322   1.628   7.409
 5346SOL    HW233181   6.244   1.735   7.483
 5347SOL     OW33182   1.998   0.434   7.346
 5347SOL    HW133183   2.061   0.422   7.417
 5347SOL    HW233184   2.048   0.415   7.266
 5348SOL     OW33185   2.800   2.860   5.987
 5348SOL    HW133186   2.804   2.880   6.080
 5348SOL    HW233187   2.885   2.821   5.967
 5349SOL     OW33188   3.845   1.682   7.723
 5349SOL    HW133189   3.908   1.672   7.795
 5349SOL    HW233190   3.813   1.594   7.707
 5350SOL     OW33191   5.014   1.794   1.268
 5350SOL    HW133192   5.083   1.854   1.238
 5350SOL    HW233193   4.947   1.798   1.201
 5351SOL     OW33194   3.236   3.220   6.116
 5351SOL    HW133195   3.309   3.231   6.055
 5351SOL    HW233196   3.184   3.300   6.106
 5352SOL     OW33197   3.212   5.103   0.522
 5352SOL    HW133198   3.217   5.090   0.427
 5352SOL    HW233199   3.130   5.151   0.535
 5353SOL     OW33200   4.119   3.836   7.725
 5353SOL    HW133201   4.023   3.837   7.733
 5353SOL    HW233202   4.136   3.779   7.650
 5354SOL     OW33203   0.200   5.065   1.785
 5354SOL    HW133204   0.236   5.049   1.698
 5354SOL    HW233205   0.213   4.983   1.832
 5355SOL     OW33206   1.981   3.282   7.281
 5355SOL    HW133207   1.926   3.353   7.248
 5355SOL    HW233208   1.972   3.212   7.216
 5356SOL     OW33209   4.469   2.812   7.371
 5356SOL    HW133210   4.445   2.884   7.430
 5356SOL    HW233211   4.512   2.748   7.427
 5357SOL     OW33212   2.839   1.076   0.439
 5357SOL    HW133213   2.857   1.094   0.531
 5357SOL    HW233214   2.902   1.128   0.391
 5358SOL     OW33215   2.154   4.915   0.991
 5358SOL    HW133216   2.076   4.877   1.030
 5358SOL    HW233217   2.218   4.918   1.062
 5359SOL     OW33218   3.588   3.494   2.217
 5359SOL    HW133219   3.627   3.447   2.143
 5359SOL    HW233220   3.633   3.578   2.217
 5360SOL     OW33221   5.859   6.344   0.228
 5360SOL    HW133222   5.950   6.363   0.205
 5360SOL    HW233223   5.815   6.335   0.143
 5361SOL     OW33224   5.193   1.008   0.171
 5361SOL    HW133225   5.161   1.004   0.081
 5361SOL    HW233226   5.246   0.930   0.182
 5362SOL     OW33227   1.581   0.054   0.247
 5362SOL    HW133228   1.648  -0.014   0.247
 5362SOL    HW233229   1.575   0.081   0.339
 5363SOL     OW33230   1.850   4.609   7.209
 5363SOL    HW133231   1.767   4.657   7.217
 5363SOL    HW233232   1.890   4.645   7.130
 5364SOL     OW33233   5.953   1.446   1.650
 5364SOL    HW133234   5.920   1.445   1.740
 5364SOL    HW233235   5.931   1.533   1.617
 5365SOL     OW33236   2.939   3.650   7.436
 5365SOL    HW133237   3.029   3.626   7.455
 5365SOL    HW233238   2.925   3.625   7.345
 5366SOL     OW33239   1.251   4.017   7.256
 5366SOL    HW133240   1.204   4.071   7.319
 5366SOL    HW233241   1.310   3.963   7.309
 5367SOL     OW33242   5.988   6.218   6.471
 5367SOL    HW133243   6.047   6.183   6.405
 5367SOL    HW233244   6.017   6.308   6.484
 5368SOL     OW33245   3.183   5.523   0.784
 5368SOL    HW133246   3.094   5.549   0.807
 5368SOL    HW233247   3.225   5.507   0.869
 5369SOL     OW33248   4.123   6.218   6.557
 5369SOL    HW133249   4.070   6.270   6.496
 5369SOL    HW233250   4.165   6.152   6.502
 5370SOL     OW33251   3.467   2.499   5.597
 5370SOL    HW133252   3.377   2.499   5.630
 5370SOL    HW233253   3.513   2.562   5.652
 5371SOL     OW33254   0.705   2.834   1.425
 5371SOL    HW133255   0.699   2.794   1.512
 5371SOL    HW233256   0.715   2.760   1.366
 5372SOL     OW33257   5.100   2.863   7.065
 5372SOL    HW133258   5.138   2.778   7.045
 5372SOL    HW233259   5.023   2.869   7.009
 5373SOL     OW33260   3.244   2.255   0.816
 5373SOL    HW133261   3.241   2.294   0.729
 5373SOL    HW233262   3.248   2.161   0.800
 5374SOL     OW33263   2.486   0.305   7.716
 5374SOL    HW133264   2.526   0.329   7.799
 5374SOL    HW233265   2.529   0.223   7.691
 5375SOL     OW33266   4.697   6.167   6.308
 5375SOL    HW133267   4.713   6.080   6.272
 5375SOL    HW233268   4.702   6.226   6.233
 5376SOL     OW33269   0.431   2.039   1.441
 5376SOL    HW133270   0.444   1.979   1.514
 5376SOL    HW233271   0.406   2.122   1.483
 5377SOL     OW33272   1.433   2.094   1.207
 5377SOL    HW133273   1.399   2.122   1.292
 5377SOL    HW233274   1.355   2.063   1.159
 5378SOL     OW33275   1.656   3.892   0.440
 5378SOL    HW133276   1.662   3.938   0.524
 5378SOL    HW233277   1.646   3.800   0.464
 5379SOL     OW33278   4.281   3.957   5.969
 5379SOL    HW133279   4.313   3.886   6.023
 5379SOL    HW233280   4.360   3.996   5.931
 5380SOL     OW33281   5.839   1.231   1.041
 5380SOL    HW133282   5.824   1.233   0.947
 5380SOL    HW233283   5.935   1.230   1.051
 5381SOL     OW33284   1.285   4.539   5.342
 5381SOL    HW133285   1.295   4.538   5.437
 5381SOL    HW233286   1.259   4.449   5.320
 5382SOL     OW33287   3.362   0.596   0.932
 5382SOL    HW133288   3.352   0.506   0.902
 5382SOL    HW233289   3.409   0.588   1.015
 5383SOL     OW33290   0.638   6.266   0.904
 5383SOL    HW133291   0.712   6.207   0.895
 5383SOL    HW233292   0.564   6.219   0.865
 5384SOL     OW33293   4.598   3.563   5.812
 5384SOL    HW133294   4.570   3.500   5.879
 5384SOL    HW233295   4.596   3.648   5.856
 5385SOL     OW33296   5.689   4.426   1.060
 5385SOL    HW133297   5.648   4.420   1.146
 5385SOL    HW233298   5.783   4.416   1.077
 5386SOL     OW33299   5.382   0.761   0.490
 5386SOL    HW133300   5.331   0.751   0.410
 5386SOL    HW233301   5.393   0.672   0.523
 5387SOL     OW33302   3.999   5.052   7.225
 5387SOL    HW133303   3.928   5.071   7.286
 5387SOL    HW233304   4.061   5.123   7.238
 5388SOL     OW33305   4.903   5.978   6.748
 5388SOL    HW133306   4.917   5.890   6.712
 5388SOL    HW233307   4.834   5.967   6.813
 5389SOL     OW33308   6.230   3.489   7.693
 5389SOL    HW133309   6.324   3.502   7.708
 5389SOL    HW233310   6.202   3.435   7.767
 5390SOL     OW33311   0.283   4.778   7.270
 5390SOL    HW133312   0.194   4.797   7.298
 5390SOL    HW233313   0.317   4.862   7.239
 5391SOL     OW33314   2.023   1.307   1.024
 5391SOL    HW133315   2.045   1.318   1.117
 5391SOL    HW233316   1.939   1.262   1.024
 5392SOL     OW33317   2.691   3.709   1.211
 5392SOL    HW133318   2.642   3.699   1.292
 5392SOL    HW233319   2.783   3.709   1.238
 5393SOL     OW33320   2.901   1.446   0.390
 5393SOL    HW133321   2.834   1.469   0.456
 5393SOL    HW233322   2.982   1.482   0.426
 5394SOL     OW33323   1.185   4.951   6.709
 5394SOL    HW133324   1.155   4.985   6.794
 5394SOL    HW233325   1.155   5.015   6.645
 5395SOL     OW33326   0.398   5.003   6.448
 5395SOL    HW133327   0.455   5.076   6.472
 5395SOL    HW233328   0.326   5.044   6.400
 5396SOL     OW33329   4.333   5.704   6.946
 5396SOL    HW133330   4.423   5.706   6.915
 5396SOL    HW233331   4.282   5.674   6.870
 5397SOL     OW33332   1.699   2.516   6.152
 5397SOL    HW133333   1.650   2.562   6.220
 5397SOL    HW233334   1.737   2.441   6.197
 5398SOL     OW33335   5.634   0.283   7.567
 5398SOL    HW133336   5.642   0.213   7.632
 5398SOL    HW233337   5.588   0.353   7.612
 5399SOL     OW33338   1.882   1.590   7.263
 5399SOL    HW133339   1.823   1.629   7.327
 5399SOL    HW233340   1.870   1.496   7.273
 5400SOL     OW33341   0.958   2.308   6.008
 5400SOL    HW133342   0.956   2.392   6.054
 5400SOL    HW233343   0.875   2.267   6.029
 5401SOL     OW33344   3.203   3.048   1.734
 5401SOL    HW133345   3.198   3.133   1.777
 5401SOL    HW233346   3.283   3.053   1.681
 5402SOL     OW33347   3.717   4.532   6.698
 5402SOL    HW133348   3.632   4.495   6.676
 5402SOL    HW233349   3.732   4.599   6.631
 5403SOL     OW33350   4.650   6.226   1.448
 5403SOL    HW133351   4.583   6.209   1.382
 5403SOL    HW233352   4.602   6.232   1.530
 5404SOL     OW33353   6.310   3.181   0.750
 5404SOL    HW133354   6.255   3.144   0.680
 5404SOL    HW233355   6.248   3.212   0.815
 5405SOL     OW33356   4.625   0.350   7.180
 5405SOL    HW133357   4.572   0.279   7.215
 5405SOL    HW233358   4.706   0.308   7.151
 5406SOL     OW33359   5.809   3.690   6.811
 5406SOL    HW133360   5.778   3.629   6.877
 5406SOL    HW233361   5.882   3.644   6.769
 5407SOL     OW33362   2.976   2.031   6.474
 5407SOL    HW133363   2.942   2.114   6.443
 5407SOL    HW233364   3.071   2.039   6.467
 5408SOL     OW33365   1.571   5.686   0.042
 5408SOL    HW133366   1.515   5.619   0.002
 5408SOL    HW233367   1.514   5.729   0.106
 5409SOL     OW33368   3.881   3.543   7.673
 5409SOL    HW133369   3.972   3.557   7.646
 5409SOL    HW233370   3.884   3.543   7.769
 5410SOL     OW33371   3.499   6.324   7.832
 5410SOL    HW133372   3.472   6.255   7.892
 5410SOL    HW233373   3.419   6.347   7.784
 5411SOL     OW33374   1.107   2.430   0.590
 5411SOL    HW133375   1.015   2.419   0.616
 5411SOL    HW233376   1.106   2.505   0.531
 5412SOL     OW33377   5.529   4.966   6.089
 5412SOL    HW133378   5.472   4.939   6.160
 5412SOL    HW233379   5.595   4.897   6.083
 5413SOL     OW33380   1.443   1.405   0.073
 5413SOL    HW133381   1.521   1.432   0.122
 5413SOL    HW233382   1.393   1.352   0.136
 5414SOL     OW33383   4.326   5.013   0.607
 5414SOL    HW133384   4.268   5.089   0.595
 5414SOL    HW233385   4.343   4.983   0.518
 5415SOL     OW33386   3.592   1.146   7.860
 5415SOL    HW133387   3.519   1.103   7.905
 5415SOL    HW233388   3.605   1.228   7.908
 5416SOL     OW33389   6.176   1.468   7.708
 5416SOL    HW133390   6.213   1.497   7.624
 5416SOL    HW233391   6.093   1.514   7.714
 5417SOL     OW33392   0.148   2.440   0.724
 5417SOL    HW133393   0.145   2.374   0.655
 5417SOL    HW233394   0.140   2.389   0.805
 5418SOL     OW33395   3.002   0.608   7.063
 5418SOL    HW133396   3.076   0.641   7.012
 5418SOL    HW233397   2.990   0.673   7.132
 5419SOL     OW33398   0.539   0.428   6.605
 5419SOL    HW133399   0.463   0.375   6.631
 5419SOL    HW233400   0.551   0.406   6.512
 5420SOL     OW33401   6.229   3.534   7.031
 5420SOL    HW133402   6.310   3.578   7.006
 5420SOL    HW233403   6.251   3.441   7.032
 5421SOL     OW33404   1.360   2.650   7.882
 5421SOL    HW133405   1.403   2.579   7.834
 5421SOL    HW233406   1.331   2.610   7.964
 5422SOL     OW33407   0.073   5.408   5.386
 5422SOL    HW133408   0.141   5.356   5.343
 5422SOL    HW233409   0.101   5.499   5.373
 5423SOL     OW33410   3.289   0.669   6.249
 5423SOL    HW133411   3.261   0.614   6.323
 5423SOL    HW233412   3.232   0.642   6.177
 5424SOL     OW33413   3.995   0.203   7.491
 5424SOL    HW133414   3.955   0.268   7.548
 5424SOL    HW233415   4.001   0.246   7.405
 5425SOL     OW33416   1.097   3.556   6.065
 5425SOL    HW133417   1.059   3.503   6.135
 5425SOL    HW233418   1.033   3.550   5.994
 5426SOL     OW33419   6.390   3.826   0.772
 5426SOL    HW133420   6.416   3.843   0.681
 5426SOL    HW233421   6.309   3.876   0.783
 5427SOL     OW33422   3.840   4.438   0.365
 5427SOL    HW133423   3.845   4.504   0.434
 5427SOL    HW233424   3.866   4.357   0.408
 5428SOL     OW33425   4.841   1.058   6.960
 5428SOL    HW133426   4.829   1.009   6.878
 5428SOL    HW233427   4.761   1.042   7.010
 5429SOL     OW33428   2.410   6.244   6.982
 5429SOL    HW133429   2.506   6.250   6.984
 5429SOL    HW233430   2.391   6.214   6.893
 5430SOL     OW33431   2.441   1.653   7.727
 5430SOL    HW133432   2.479   1.637   7.641
 5430SOL    HW233433   2.367   1.593   7.733
 5431SOL     OW33434   5.467   1.825   0.540
 5431SOL    HW133435   5.531   1.884   0.502
 5431SOL    HW233436   5.394   1.824   0.478
 5432SOL     OW33437   3.140   3.807   5.504
 5432SOL    HW133438   3.170   3.774   5.419
 5432SOL    HW233439   3.091   3.734   5.541
 5433SOL     OW33440   5.006   2.934   1.412
 5433SOL    HW133441   5.092   2.975   1.422
 5433SOL    HW233442   5.025   2.841   1.403
 5434SOL     OW33443   4.817   4.183   7.756
 5434SOL    HW133444   4.839   4.103   7.804
 5434SOL    HW233445   4.820   4.158   7.664
 5435SOL     OW33446   3.578   1.635   1.857
 5435SOL    HW133447   3.634   1.561   1.883
 5435SOL    HW233448   3.622   1.712   1.894
 5436SOL     OW33449   1.158   1.727   5.704
 5436SOL    HW133450   1.149   1.787   5.630
 5436SOL    HW233451   1.252   1.714   5.714
 5437SOL     OW33452   0.816   1.771   7.867
 5437SOL    HW133453   0.910   1.752   7.878
 5437SOL    HW233454   0.790   1.718   7.791
 5438SOL     OW33455   1.149   6.015   1.274
 5438SOL    HW133456   1.194   5.954   1.333
 5438SOL    HW233457   1.057   5.988   1.277
 5439SOL     OW33458   5.791   5.103   1.653
 5439SOL    HW133459   5.876   5.075   1.620
 5439SOL    HW233460   5.802   5.195   1.674
 5440SOL     OW33461   0.058   1.318   6.793
 5440SOL    HW133462   0.029   1.372   6.866
 5440SOL    HW233463   0.140   1.278   6.823
 5441SOL     OW33464   1.929   3.778   1.676
 5441SOL    HW133465   1.903   3.756   1.587
 5441SOL    HW233466   1.940   3.874   1.674
 5442SOL     OW33467   3.161   1.243   7.285
 5442SOL    HW133468   3.195   1.247   7.196
 5442SOL    HW233469   3.144   1.335   7.307
 5443SOL     OW33470   6.146   3.478   6.024
 5443SOL    HW133471   6.145   3.443   5.936
 5443SOL    HW233472   6.091   3.419   6.075
 5444SOL     OW33473   3.402   3.829   0.200
 5444SOL    HW133474   3.379   3.909   0.247
 5444SOL    HW233475   3.318   3.788   0.181
 5445SOL     OW33476   2.696   6.214   7.021
 5445SOL    HW133477   2.740   6.286   6.975
 5445SOL    HW233478   2.764   6.147   7.030
 5446SOL     OW33479   1.259   0.009   5.963
 5446SOL    HW133480   1.280  -0.084   5.972
 5446SOL    HW233481   1.341   0.050   5.937
 5447SOL     OW33482   4.365   1.122   6.815
 5447SOL    HW133483   4.349   1.174   6.894
 5447SOL    HW233484   4.321   1.170   6.745
 5448SOL     OW33485   6.012   2.508   0.994
 5448SOL    HW133486   5.940   2.531   0.936
 5448SOL    HW233487   6.078   2.469   0.936
 5449SOL     OW33488   4.713   2.419   0.007
 5449SOL    HW133489   4.622   2.445   0.019
 5449SOL    HW233490   4.709   2.324  -0.004
 5450SOL     OW33491   1.989   1.996   7.286
 5450SOL    HW133492   1.981   2.084   7.250
 5450SOL    HW233493   1.935   1.942   7.229
 5451SOL     OW33494   1.978   0.630   6.739
 5451SOL    HW133495   1.985   0.692   6.811
 5451SOL    HW233496   1.887   0.600   6.741
 5452SOL     OW33497   1.352   5.994   6.679
 5452SOL    HW133498   1.311   6.013   6.763
 5452SOL    HW233499   1.444   5.979   6.700
 5453SOL     OW33500   2.839   6.160   1.560
 5453SOL    HW133501   2.745   6.144   1.552
 5453SOL    HW233502   2.849   6.201   1.645
 5454SOL     OW33503   1.464   5.828   0.243
 5454SOL    HW133504   1.532   5.881   0.286
 5454SOL    HW233505   1.383   5.855   0.286
 5455SOL     OW33506   3.380   3.365   1.253
 5455SOL    HW133507   3.364   3.283   1.207
 5455SOL    HW233508   3.466   3.354   1.294
 5456SOL     OW33509   4.461   5.701   5.721
 5456SOL    HW133510   4.527   5.730   5.658
 5456SOL    HW233511   4.407   5.779   5.737
 5457SOL     OW33512   0.167   1.490   5.457
 5457SOL    HW133513   0.100   1.422   5.470
 5457SOL    HW233514   0.178   1.496   5.362
 5458SOL     OW33515   2.457   2.850   5.301
 5458SOL    HW133516   2.370   2.867   5.266
 5458SOL    HW233517   2.476   2.926   5.356
 5459SOL     OW33518   0.820   5.987   7.545
 5459SOL    HW133519   0.893   5.984   7.606
 5459SOL    HW233520   0.826   5.904   7.496
 5460SOL     OW33521   5.320   4.748   6.038
 5460SOL    HW133522   5.308   4.830   5.991
 5460SOL    HW233523   5.415   4.740   6.049
 5461SOL     OW33524   3.163   2.542   6.745
 5461SOL    HW133525   3.113   2.465   6.771
 5461SOL    HW233526   3.098   2.611   6.733
 5462SOL     OW33527   1.493   2.471   7.252
 5462SOL    HW133528   1.541   2.398   7.292
 5462SOL    HW233529   1.536   2.549   7.287
 5463SOL     OW33530   1.716   5.283   0.624
 5463SOL    HW133531   1.748   5.328   0.702
 5463SOL    HW233532   1.717   5.190   0.649
 5464SOL     OW33533   3.619   3.949   6.577
 5464SOL    HW133534   3.632   3.970   6.485
 5464SOL    HW233535   3.668   4.016   6.624
 5465SOL     OW33536   3.470   0.332   0.347
 5465SOL    HW133537   3.437   0.280   0.274
 5465SOL    HW233538   3.433   0.289   0.425
 5466SOL     OW33539   1.632   0.061   1.052
 5466SOL    HW133540   1.697   0.052   1.122
 5466SOL    HW233541   1.664   0.133   0.998
 5467SOL     OW33542   5.539   3.475   0.451
 5467SOL    HW133543   5.570   3.413   0.385
 5467SOL    HW233544   5.618   3.499   0.500
 5468SOL     OW33545   1.707   5.407   5.161
 5468SOL    HW133546   1.722   5.455   5.243
 5468SOL    HW233547   1.619   5.435   5.133
 5469SOL     OW33548   3.388   4.332   1.039
 5469SOL    HW133549   3.482   4.316   1.035
 5469SOL    HW233550   3.352   4.284   0.964
 5470SOL     OW33551   3.236   2.036   7.705
 5470SOL    HW133552   3.199   2.001   7.786
 5470SOL    HW233553   3.322   2.069   7.731
 5471SOL     OW33554   6.397   6.342   6.536
 5471SOL    HW133555   6.432   6.429   6.555
 5471SOL    HW233556   6.469   6.296   6.493
 5472SOL     OW33557   2.533   3.576   6.102
 5472SOL    HW133558   2.557   3.542   6.016
 5472SOL    HW233559   2.504   3.666   6.085
 5473SOL     OW33560   4.311   1.511   0.194
 5473SOL    HW133561   4.307   1.443   0.262
 5473SOL    HW233562   4.221   1.522   0.166
 5474SOL     OW33563   3.864   1.095   7.187
 5474SOL    HW133564   3.852   1.054   7.273
 5474SOL    HW233565   3.871   1.189   7.205
 5475SOL     OW33566   0.033   3.724   7.053
 5475SOL    HW133567   0.127   3.740   7.065
 5475SOL    HW233568  -0.004   3.731   7.141
 5476SOL     OW33569   0.387   4.432   6.154
 5476SOL    HW133570   0.306   4.457   6.109
 5476SOL    HW233571   0.403   4.502   6.217
 5477SOL     OW33572   1.806   5.869   6.356
 5477SOL    HW133573   1.840   5.957   6.341
 5477SOL    HW233574   1.884   5.814   6.365
 5478SOL     OW33575   4.482   4.654   0.648
 5478SOL    HW133576   4.402   4.672   0.696
 5478SOL    HW233577   4.484   4.719   0.578
 5479SOL     OW33578   1.905   1.210   0.109
 5479SOL    HW133579   1.969   1.179   0.173
 5479SOL    HW233580   1.926   1.303   0.097
 5480SOL     OW33581   4.196   3.560   0.800
 5480SOL    HW133582   4.101   3.544   0.801
 5480SOL    HW233583   4.232   3.492   0.855
 5481SOL     OW33584   3.507   1.506   6.965
 5481SOL    HW133585   3.450   1.575   6.933
 5481SOL    HW233586   3.596   1.537   6.946
 5482SOL     OW33587   2.325   4.425   0.802
 5482SOL    HW133588   2.414   4.444   0.830
 5482SOL    HW233589   2.325   4.331   0.785
 5483SOL     OW33590   2.036   0.285   6.857
 5483SOL    HW133591   2.076   0.296   6.771
 5483SOL    HW233592   1.944   0.266   6.838
 5484SOL     OW33593   0.291   0.135   2.086
 5484SOL    HW133594   0.315   0.214   2.135
 5484SOL    HW233595   0.223   0.093   2.139
 5485SOL     OW33596   6.331   2.411   5.845
 5485SOL    HW133597   6.404   2.461   5.881
 5485SOL    HW233598   6.338   2.424   5.751
 5486SOL     OW33599   4.279   6.183   1.512
 5486SOL    HW133600   4.334   6.114   1.550
 5486SOL    HW233601   4.322   6.265   1.539
 5487SOL     OW33602   2.566   0.626   7.092
 5487SOL    HW133603   2.476   0.656   7.077
 5487SOL    HW233604   2.557   0.532   7.110
 5488SOL     OW33605   2.363   0.873   7.551
 5488SOL    HW133606   2.455   0.888   7.574
 5488SOL    HW233607   2.319   0.954   7.577
 5489SOL     OW33608   0.522   6.207   0.127
 5489SOL    HW133609   0.597   6.150   0.109
 5489SOL    HW233610   0.447   6.160   0.091
 5490SOL     OW33611   0.074   3.564   0.799
 5490SOL    HW133612   0.037   3.650   0.777
 5490SOL    HW233613   0.168   3.575   0.786
 5491SOL     OW33614   3.569   4.070   0.007
 5491SOL    HW133615   3.573   4.158  -0.030
 5491SOL    HW233616   3.537   4.082   0.096
 5492SOL     OW33617   4.505   5.676   0.073
 5492SOL    HW133618   4.483   5.621   0.148
 5492SOL    HW233619   4.598   5.659   0.057
 5493SOL     OW33620   4.023   5.893   0.028
 5493SOL    HW133621   4.091   5.840  -0.012
 5493SOL    HW233622   4.062   5.927   0.108
 5494SOL     OW33623   3.033   5.734   6.188
 5494SOL    HW133624   2.998   5.712   6.101
 5494SOL    HW233625   2.983   5.680   6.248
 5495SOL     OW33626   4.781   2.886   7.161
 5495SOL    HW133627   4.791   2.972   7.203
 5495SOL    HW233628   4.709   2.899   7.098
 5496SOL     OW33629   3.905   5.888   5.329
 5496SOL    HW133630   3.954   5.941   5.266
 5496SOL    HW233631   3.813   5.906   5.310
 5497SOL     OW33632   6.323   0.965   6.168
 5497SOL    HW133633   6.395   1.028   6.175
 5497SOL    HW233634   6.364   0.880   6.181
 5498SOL     OW33635   3.311   3.827   5.697
 5498SOL    HW133636   3.390   3.826   5.643
 5498SOL    HW233637   3.239   3.823   5.633
 5499SOL     OW33638   2.335   4.419   0.462
 5499SOL    HW133639   2.431   4.417   0.470
 5499SOL    HW233640   2.304   4.455   0.545
 5500SOL     OW33641   1.063   4.761   0.724
 5500SOL    HW133642   1.037   4.698   0.656
 5500SOL    HW233643   0.983   4.810   0.742
 5501SOL     OW33644   3.339   5.313   6.686
 5501SOL    HW133645   3.428   5.280   6.679
 5501SOL    HW233646   3.350   5.407   6.703
 5502SOL     OW33647   5.051   3.336   6.713
 5502SOL    HW133648   5.036   3.422   6.753
 5502SOL    HW233649   4.997   3.335   6.635
 5503SOL     OW33650   0.692   2.527   1.737
 5503SOL    HW133651   0.623   2.465   1.761
 5503SOL    HW233652   0.646   2.598   1.691
 5504SOL     OW33653   4.719   5.624   7.643
 5504SOL    HW133654   4.663   5.702   7.635
 5504SOL    HW233655   4.753   5.628   7.732
 5505SOL     OW33656   6.031   4.749   7.782
 5505SOL    HW133657   6.000   4.815   7.844
 5505SOL    HW233658   6.033   4.793   7.698
 5506SOL     OW33659   4.561   2.647   6.480
 5506SOL    HW133660   4.472   2.639   6.516
 5506SOL    HW233661   4.582   2.740   6.487
 5507SOL     OW33662   2.172   5.286   6.009
 5507SOL    HW133663   2.125   5.206   6.029
 5507SOL    HW233664   2.174   5.290   5.913
 5508SOL     OW33665   2.909   2.535   6.101
 5508SOL    HW133666   2.827   2.577   6.124
 5508SOL    HW233667   2.953   2.598   6.044
 5509SOL     OW33668   1.021   1.421   7.854
 5509SOL    HW133669   1.081   1.413   7.928
 5509SOL    HW233670   1.075   1.404   7.777
 5510SOL     OW33671   0.047   4.983   5.480
 5510SOL    HW133672   0.117   4.981   5.415
 5510SOL    HW233673   0.039   5.075   5.504
 5511SOL     OW33674   5.045   0.245   1.864
 5511SOL    HW133675   4.953   0.228   1.884
 5511SOL    HW233676   5.093   0.181   1.918
 5512SOL     OW33677   5.118   5.742   5.332
 5512SOL    HW133678   5.190   5.696   5.374
 5512SOL    HW233679   5.045   5.680   5.333
 5513SOL     OW33680   3.852   2.658   0.096
 5513SOL    HW133681   3.827   2.750   0.095
 5513SOL    HW233682   3.862   2.637   0.189
 5514SOL     OW33683   4.340   3.714   6.402
 5514SOL    HW133684   4.365   3.743   6.314
 5514SOL    HW233685   4.396   3.764   6.461
 5515SOL     OW33686   2.625   0.043   7.704
 5515SOL    HW133687   2.688   0.007   7.767
 5515SOL    HW233688   2.606  -0.030   7.645
 5516SOL     OW33689   5.226   4.711   7.322
 5516SOL    HW133690   5.264   4.711   7.234
 5516SOL    HW233691   5.299   4.694   7.380
 5517SOL     OW33692   0.746   5.212   6.253
 5517SOL    HW133693   0.725   5.120   6.265
 5517SOL    HW233694   0.721   5.231   6.163
 5518SOL     OW33695   2.740   4.591   6.388
 5518SOL    HW133696   2.703   4.578   6.476
 5518SOL    HW233697   2.743   4.504   6.350
 5519SOL     OW33698   5.174   4.707   5.737
 5519SOL    HW133699   5.179   4.789   5.786
 5519SOL    HW233700   5.156   4.734   5.647
 5520SOL     OW33701   3.975   5.741   1.341
 5520SOL    HW133702   4.062   5.782   1.347
 5520SOL    HW233703   3.954   5.718   1.432
 5521SOL     OW33704   3.983   6.234   1.787
 5521SOL    HW133705   3.990   6.318   1.832
 5521SOL    HW233706   3.957   6.172   1.856
 5522SOL     OW33707   4.495   5.954   0.542
 5522SOL    HW133708   4.497   6.035   0.491
 5522SOL    HW233709   4.431   5.899   0.496
 5523SOL     OW33710   3.898   0.398   7.075
 5523SOL    HW133711   3.850   0.459   7.019
 5523SOL    HW233712   3.834   0.330   7.097
 5524SOL     OW33713   1.466   6.086   7.868
 5524SOL    HW133714   1.394   6.028   7.894
 5524SOL    HW233715   1.531   6.075   7.938
 5525SOL     OW33716   2.835   5.264   6.563
 5525SOL    HW133717   2.885   5.232   6.638
 5525SOL    HW233718   2.892   5.249   6.488
 5526SOL     OW33719   1.831   5.726   0.148
 5526SOL    HW133720   1.899   5.700   0.086
 5526SOL    HW233721   1.752   5.682   0.117
 5527SOL     OW33722   3.429   4.809   7.849
 5527SOL    HW133723   3.461   4.889   7.806
 5527SOL    HW233724   3.420   4.746   7.777
 5528SOL     OW33725   1.818   5.843   7.361
 5528SOL    HW133726   1.818   5.922   7.308
 5528SOL    HW233727   1.752   5.786   7.322
 5529SOL     OW33728   3.339   4.358   1.812
 5529SOL    HW133729   3.267   4.299   1.833
 5529SOL    HW233730   3.416   4.317   1.851
 5530SOL     OW33731   4.042   3.939   0.413
 5530SOL    HW133732   4.056   3.963   0.321
 5530SOL    HW233733   4.126   3.956   0.455
 5531SOL     OW33734   1.798   2.589   0.076
 5531SOL    HW133735   1.788   2.551  -0.011
 5531SOL    HW233736   1.830   2.517   0.130
 5532SOL     OW33737   3.715   2.008   2.166
 5532SOL    HW133738   3.784   2.070   2.189
 5532SOL    HW233739   3.743   1.969   2.084
 5533SOL     OW33740   2.479   5.151   0.652
 5533SOL    HW133741   2.472   5.132   0.745
 5533SOL    HW233742   2.563   5.115   0.626
 5534SOL     OW33743   5.869   4.119   1.275
 5534SOL    HW133744   5.916   4.146   1.354
 5534SOL    HW233745   5.922   4.049   1.237
 5535SOL     OW33746   1.649   5.137   6.696
 5535SOL    HW133747   1.564   5.101   6.723
 5535SOL    HW233748   1.713   5.092   6.750
 5536SOL     OW33749   4.809   4.435   5.361
 5536SOL    HW133750   4.761   4.439   5.444
 5536SOL    HW233751   4.864   4.358   5.370
 5537SOL     OW33752   0.973   6.192   0.038
 5537SOL    HW133753   1.039   6.225   0.099
 5537SOL    HW233754   1.014   6.198  -0.048
 5538SOL     OW33755   2.071   0.262   6.303
 5538SOL    HW133756   2.021   0.343   6.310
 5538SOL    HW233757   2.009   0.199   6.264
 5539SOL     OW33758   2.286   2.661   6.911
 5539SOL    HW133759   2.379   2.667   6.889
 5539SOL    HW233760   2.261   2.750   6.936
 5540SOL     OW33761   2.085   5.820   6.595
 5540SOL    HW133762   2.169   5.795   6.632
 5540SOL    HW233763   2.046   5.877   6.661
 5541SOL     OW33764   1.754   3.644   7.713
 5541SOL    HW133765   1.683   3.619   7.653
 5541SOL    HW233766   1.798   3.716   7.669
 5542SOL     OW33767   2.307   0.202   7.198
 5542SOL    HW133768   2.384   0.246   7.234
 5542SOL    HW233769   2.293   0.243   7.113
 5543SOL     OW33770   5.799   6.249   5.826
 5543SOL    HW133771   5.721   6.250   5.772
 5543SOL    HW233772   5.767   6.258   5.916
 5544SOL     OW33773   2.153   0.505   0.399
 5544SOL    HW133774   2.135   0.533   0.309
 5544SOL    HW233775   2.180   0.414   0.390
 5545SOL     OW33776   5.227   6.077   1.616
 5545SOL    HW133777   5.235   6.163   1.575
 5545SOL    HW233778   5.228   6.015   1.543
 5546SOL     OW33779   2.772   1.742   0.763
 5546SOL    HW133780   2.680   1.745   0.791
 5546SOL    HW233781   2.796   1.833   0.748
 5547SOL     OW33782   1.169   3.656   6.773
 5547SOL    HW133783   1.164   3.562   6.755
 5547SOL    HW233784   1.137   3.665   6.863
 5548SOL     OW33785   5.459   2.621   1.632
 5548SOL    HW133786   5.493   2.704   1.600
 5548SOL    HW233787   5.522   2.593   1.698
 5549SOL     OW33788   3.039   2.620   1.322
 5549SOL    HW133789   3.129   2.653   1.319
 5549SOL    HW233790   3.048   2.531   1.356
 5550SOL     OW33791   5.628   0.331   6.622
 5550SOL    HW133792   5.662   0.312   6.535
 5550SOL    HW233793   5.546   0.283   6.626
 5551SOL     OW33794   1.596   2.005   7.575
 5551SOL    HW133795   1.687   2.033   7.590
 5551SOL    HW233796   1.551   2.027   7.657
 5552SOL     OW33797   2.152   3.198   5.024
 5552SOL    HW133798   2.242   3.188   4.991
 5552SOL    HW233799   2.161   3.260   5.097
 5553SOL     OW33800   0.004   3.591   7.359
 5553SOL    HW133801   0.043   3.618   7.442
 5553SOL    HW233802  -0.040   3.670   7.327
 5554SOL     OW33803   0.481   1.993   0.545
 5554SOL    HW133804   0.570   1.965   0.526
 5554SOL    HW233805   0.471   2.075   0.496
 5555SOL     OW33806   3.941   0.529   1.299
 5555SOL    HW133807   3.911   0.573   1.378
 5555SOL    HW233808   3.981   0.448   1.331
 5556SOL     OW33809   0.646   3.335   6.754
 5556SOL    HW133810   0.591   3.398   6.800
 5556SOL    HW233811   0.731   3.342   6.797
 5557SOL     OW33812   3.743   2.981   7.776
 5557SOL    HW133813   3.784   2.956   7.859
 5557SOL    HW233814   3.761   3.075   7.767
 5558SOL     OW33815   3.206   0.552   6.753
 5558SOL    HW133816   3.212   0.622   6.818
 5558SOL    HW233817   3.118   0.561   6.716
 5559SOL     OW33818   4.513   0.668   0.252
 5559SOL    HW133819   4.535   0.604   0.319
 5559SOL    HW233820   4.595   0.715   0.236
 5560SOL     OW33821   5.592   0.076   0.119
 5560SOL    HW133822   5.577  -0.016   0.138
 5560SOL    HW233823   5.505   0.111   0.098
 5561SOL     OW33824   2.216   1.797   7.043
 5561SOL    HW133825   2.268   1.799   6.962
 5561SOL    HW233826   2.132   1.759   7.017
 5562SOL     OW33827   5.527   5.219   1.222
 5562SOL    HW133828   5.464   5.151   1.200
 5562SOL    HW233829   5.574   5.184   1.299
 5563SOL     OW33830   0.683   0.217   1.222
 5563SOL    HW133831   0.757   0.227   1.282
 5563SOL    HW233832   0.702   0.278   1.150
 5564SOL     OW33833   5.868   1.017   0.515
 5564SOL    HW133834   5.796   1.028   0.577
 5564SOL    HW233835   5.947   1.024   0.569
 5565SOL     OW33836   2.079   4.007   1.384
 5565SOL    HW133837   2.010   3.945   1.403
 5565SOL    HW233838   2.085   4.008   1.288
 5566SOL     OW33839   1.222   0.808   1.360
 5566SOL    HW133840   1.301   0.841   1.403
 5566SOL    HW233841   1.166   0.779   1.432
 5567SOL     OW33842   0.023   2.011   0.329
 5567SOL    HW133843   0.002   2.076   0.396
 5567SOL    HW233844   0.003   2.054   0.246
 5568SOL     OW33845   5.862   3.522   7.260
 5568SOL    HW133846   5.845   3.460   7.331
 5568SOL    HW233847   5.858   3.469   7.180
 5569SOL     OW33848   3.191   5.745   7.359
 5569SOL    HW133849   3.116   5.712   7.409
 5569SOL    HW233850   3.155   5.819   7.309
 5570SOL     OW33851   4.505   2.671   0.370
 5570SOL    HW133852   4.464   2.593   0.407
 5570SOL    HW233853   4.442   2.704   0.306
 5571SOL     OW33854   5.004   2.443   2.037
 5571SOL    HW133855   5.071   2.395   2.085
 5571SOL    HW233856   5.048   2.522   2.005
 5572SOL     OW33857   5.835   1.105   7.774
 5572SOL    HW133858   5.808   1.021   7.810
 5572SOL    HW233859   5.875   1.083   7.690
 5573SOL     OW33860   1.423   4.887   1.038
 5573SOL    HW133861   1.393   4.844   0.958
 5573SOL    HW233862   1.392   4.977   1.029
 5574SOL     OW33863   5.918   1.233   0.202
 5574SOL    HW133864   5.844   1.177   0.180
 5574SOL    HW233865   5.880   1.303   0.256
 5575SOL     OW33866   4.929   5.433   7.662
 5575SOL    HW133867   4.961   5.516   7.626
 5575SOL    HW233868   4.898   5.384   7.586
 5576SOL     OW33869   3.577   2.662   1.041
 5576SOL    HW133870   3.574   2.571   1.014
 5576SOL    HW233871   3.495   2.700   1.009
 5577SOL     OW33872   4.824   6.245   2.107
 5577SOL    HW133873   4.834   6.329   2.150
 5577SOL    HW233874   4.878   6.185   2.157
 5578SOL     OW33875   5.312   2.912   0.596
 5578SOL    HW133876   5.238   2.860   0.627
 5578SOL    HW233877   5.337   2.965   0.671
 5579SOL     OW33878   0.349   3.883   7.388
 5579SOL    HW133879   0.437   3.917   7.403
 5579SOL    HW233880   0.295   3.961   7.374
 5580SOL     OW33881   0.424   5.914   1.269
 5580SOL    HW133882   0.396   6.003   1.246
 5580SOL    HW233883   0.519   5.915   1.257
 5581SOL     OW33884   2.408   3.860   0.880
 5581SOL    HW133885   2.457   3.935   0.914
 5581SOL    HW233886   2.365   3.822   0.957
 5582SOL     OW33887   2.127   6.305   6.155
 5582SOL    HW133888   2.217   6.337   6.156
 5582SOL    HW233889   2.082   6.357   6.222
 5583SOL     OW33890   4.683   1.891   2.240
 5583SOL    HW133891   4.743   1.833   2.287
 5583SOL    HW233892   4.596   1.860   2.264
 5584SOL     OW33893   4.729   1.739   0.190
 5584SOL    HW133894   4.654   1.699   0.147
 5584SOL    HW233895   4.692   1.783   0.266
 5585SOL     OW33896   2.633   5.666   7.710
 5585SOL    HW133897   2.672   5.665   7.797
 5585SOL    HW233898   2.611   5.758   7.695
 5586SOL     OW33899   0.540   1.578   7.777
 5586SOL    HW133900   0.526   1.569   7.871
 5586SOL    HW233901   0.537   1.488   7.744
 5587SOL     OW33902   1.379   6.155   6.015
 5587SOL    HW133903   1.387   6.068   5.976
 5587SOL    HW233904   1.422   6.148   6.100
 5588SOL     OW33905   2.616   5.205   6.008
 5588SOL    HW133906   2.648   5.164   5.927
 5588SOL    HW233907   2.631   5.138   6.075
 5589SOL     OW33908   5.088   2.486   5.322
 5589SOL    HW133909   4.993   2.483   5.336
 5589SOL    HW233910   5.125   2.450   5.403
 5590SOL     OW33911   2.006   1.426   5.877
 5590SOL    HW133912   1.979   1.335   5.860
 5590SOL    HW233913   1.947   1.478   5.823
 5591SOL     OW33914   0.379   1.232   2.195
 5591SOL    HW133915   0.327   1.295   2.143
 5591SOL    HW233916   0.395   1.277   2.278
 5592SOL     OW33917   2.489   5.124   0.916
 5592SOL    HW133918   2.567   5.069   0.918
 5592SOL    HW233919   2.424   5.075   0.968
 5593SOL     OW33920   3.294   3.504   5.828
 5593SOL    HW133921   3.316   3.597   5.818
 5593SOL    HW233922   3.342   3.477   5.906
 5594SOL     OW33923   6.148   4.014   7.687
 5594SOL    HW133924   6.159   4.035   7.595
 5594SOL    HW233925   6.148   4.099   7.731
 5595SOL     OW33926   4.786   0.095   7.306
 5595SOL    HW133927   4.801   0.035   7.379
 5595SOL    HW233928   4.739   0.042   7.241
 5596SOL     OW33929   1.180   2.159   6.214
 5596SOL    HW133930   1.130   2.205   6.147
 5596SOL    HW233931   1.137   2.074   6.223
 5597SOL     OW33932   3.677   0.985   6.938
 5597SOL    HW133933   3.733   1.021   7.007
 5597SOL    HW233934   3.729   0.993   6.858
 5598SOL     OW33935   4.375   6.362   7.120
 5598SOL    HW133936   4.341   6.273   7.118
 5598SOL    HW233937   4.338   6.404   7.043
 5599SOL     OW33938   2.388   4.562   5.994
 5599SOL    HW133939   2.480   4.566   5.967
 5599SOL    HW233940   2.382   4.625   6.066
 5600SOL     OW33941   2.730   4.961   1.265
 5600SOL    HW133942   2.755   4.990   1.353
 5600SOL    HW233943   2.778   5.020   1.207
 5601SOL     OW33944   1.168   2.745   6.986
 5601SOL    HW133945   1.197   2.807   7.053
 5601SOL    HW233946   1.230   2.672   6.994
 5602SOL     OW33947   2.560   0.102   5.928
 5602SOL    HW133948   2.600   0.015   5.926
 5602SOL    HW233949   2.632   0.161   5.949
 5603SOL     OW33950   0.406   0.984   1.033
 5603SOL    HW133951   0.479   0.963   0.976
 5603SOL    HW233952   0.386   1.075   1.014
 5604SOL     OW33953   3.037   3.705   6.187
 5604SOL    HW133954   3.018   3.718   6.094
 5604SOL    HW233955   3.133   3.713   6.193
 5605SOL     OW33956   4.278   4.881   0.087
 5605SOL    HW133957   4.370   4.904   0.103
 5605SOL    HW233958   4.229   4.936   0.148
 5606SOL     OW33959   0.616   6.101   7.689
 5606SOL    HW133960   0.680   6.059   7.632
 5606SOL    HW233961   0.604   6.039   7.762
 5607SOL     OW33962   3.363   3.083   7.140
 5607SOL    HW133963   3.447   3.063   7.181
 5607SOL    HW233964   3.364   3.033   7.059
 5608SOL     OW33965   5.823   3.254   6.423
 5608SOL    HW133966   5.799   3.161   6.424
 5608SOL    HW233967   5.843   3.272   6.331
 5609SOL     OW33968   4.091   2.265   1.508
 5609SOL    HW133969   4.083   2.327   1.581
 5609SOL    HW233970   4.179   2.280   1.474
 5610SOL     OW33971   3.179   2.585   7.502
 5610SOL    HW133972   3.185   2.592   7.406
 5610SOL    HW233973   3.174   2.491   7.518
 5611SOL     OW33974   1.612   2.421   1.561
 5611SOL    HW133975   1.619   2.489   1.628
 5611SOL    HW233976   1.549   2.358   1.598
 5612SOL     OW33977   0.351   2.277   1.899
 5612SOL    HW133978   0.341   2.185   1.924
 5612SOL    HW233979   0.434   2.303   1.938
 5613SOL     OW33980   4.909   5.112   2.384
 5613SOL    HW133981   4.847   5.168   2.336
 5613SOL    HW233982   4.854   5.048   2.428
 5614SOL     OW33983   0.663   3.856   6.790
 5614SOL    HW133984   0.690   3.849   6.882
 5614SOL    HW233985   0.651   3.951   6.777
 5615SOL     OW33986   3.300   3.038   5.782
 5615SOL    HW133987   3.317   2.953   5.824
 5615SOL    HW233988   3.207   3.036   5.760
 5616SOL     OW33989   5.979   2.695   0.089
 5616SOL    HW133990   5.908   2.755   0.069
 5616SOL    HW233991   6.049   2.750   0.125
 5617SOL     OW33992   6.328   0.088   7.733
 5617SOL    HW133993   6.252   0.145   7.722
 5617SOL    HW233994   6.382   0.106   7.657
 5618SOL     OW33995   4.824   2.603   7.214
 5618SOL    HW133996   4.743   2.575   7.257
 5618SOL    HW233997   4.818   2.698   7.209
 5619SOL     OW33998   5.633   1.006   7.240
 5619SOL    HW133999   5.605   1.074   7.301
 5619SOL    HW234000   5.554   0.983   7.192
 5620SOL     OW34001   2.697   3.059   6.842
 5620SOL    HW134002   2.649   3.003   6.780
 5620SOL    HW234003   2.638   3.068   6.916
 5621SOL     OW34004   5.891   2.437   7.240
 5621SOL    HW134005   5.940   2.357   7.219
 5621SOL    HW234006   5.844   2.417   7.320
 5622SOL     OW34007   5.248   5.825   0.779
 5622SOL    HW134008   5.197   5.886   0.833
 5622SOL    HW234009   5.299   5.774   0.842
 5623SOL     OW34010   6.388   2.485   0.344
 5623SOL    HW134011   6.359   2.526   0.425
 5623SOL    HW234012   6.442   2.411   0.373
 5624SOL     OW34013   5.470   4.821   1.598
 5624SOL    HW134014   5.458   4.912   1.569
 5624SOL    HW234015   5.382   4.787   1.608
 5625SOL     OW34016   3.940   1.406   2.198
 5625SOL    HW134017   4.007   1.439   2.139
 5625SOL    HW234018   3.928   1.476   2.263
 5626SOL     OW34019   0.136   5.160   6.808
 5626SOL    HW134020   0.108   5.078   6.849
 5626SOL    HW234021   0.122   5.227   6.875
 5627SOL     OW34022   3.621   0.851   5.736
 5627SOL    HW134023   3.614   0.905   5.815
 5627SOL    HW234024   3.715   0.836   5.726
 5628SOL     OW34025   3.496   1.541   1.281
 5628SOL    HW134026   3.405   1.512   1.288
 5628SOL    HW234027   3.548   1.461   1.292
 5629SOL     OW34028   5.720   3.351   1.577
 5629SOL    HW134029   5.692   3.260   1.583
 5629SOL    HW234030   5.639   3.401   1.570
 5630SOL     OW34031   4.057   4.688   6.841
 5630SOL    HW134032   4.064   4.592   6.843
 5630SOL    HW234033   4.076   4.716   6.930
 5631SOL     OW34034   5.580   4.981   0.368
 5631SOL    HW134035   5.613   5.043   0.434
 5631SOL    HW234036   5.490   4.963   0.396
 5632SOL     OW34037   0.764   3.884   7.828
 5632SOL    HW134038   0.850   3.893   7.787
 5632SOL    HW234039   0.779   3.902   7.921
 5633SOL     OW34040   0.646   0.387   0.851
 5633SOL    HW134041   0.663   0.302   0.811
 5633SOL    HW234042   0.718   0.400   0.913
 5634SOL     OW34043   4.025   1.165   7.641
 5634SOL    HW134044   3.931   1.180   7.627
 5634SOL    HW234045   4.067   1.242   7.604
 5635SOL     OW34046   3.025   0.131   0.608
 5635SOL    HW134047   3.090   0.069   0.576
 5635SOL    HW234048   2.982   0.087   0.681
 5636SOL     OW34049   3.447   3.051   1.597
 5636SOL    HW134050   3.495   3.022   1.675
 5636SOL    HW234051   3.454   2.977   1.537
 5637SOL     OW34052   2.031   0.191   5.614
 5637SOL    HW134053   2.032   0.263   5.550
 5637SOL    HW234054   1.979   0.123   5.572
 5638SOL     OW34055   3.802   5.188   5.646
 5638SOL    HW134056   3.776   5.258   5.586
 5638SOL    HW234057   3.884   5.155   5.610
 5639SOL     OW34058   0.852   4.490   7.381
 5639SOL    HW134059   0.935   4.469   7.425
 5639SOL    HW234060   0.815   4.405   7.357
 5640SOL     OW34061   2.993   5.697   5.712
 5640SOL    HW134062   3.055   5.688   5.784
 5640SOL    HW234063   2.991   5.611   5.671
 5641SOL     OW34064   4.375   5.291   0.759
 5641SOL    HW134065   4.343   5.348   0.690
 5641SOL    HW234066   4.454   5.334   0.792
 5642SOL     OW34067   5.029   1.536   1.333
 5642SOL    HW134068   5.006   1.494   1.250
 5642SOL    HW234069   5.020   1.629   1.316
 5643SOL     OW34070   5.687   6.110   0.830
 5643SOL    HW134071   5.657   6.164   0.903
 5643SOL    HW234072   5.757   6.056   0.867
 5644SOL     OW34073   0.751   3.321   6.069
 5644SOL    HW134074   0.761   3.264   5.992
 5644SOL    HW234075   0.692   3.274   6.127
 5645SOL     OW34076   1.621   6.005   0.433
 5645SOL    HW134077   1.710   5.995   0.464
 5645SOL    HW234078   1.595   6.093   0.462
 5646SOL     OW34079   3.284   4.679   6.605
 5646SOL    HW134080   3.241   4.737   6.542
 5646SOL    HW234081   3.312   4.737   6.676
 5647SOL     OW34082   4.640   0.983   6.588
 5647SOL    HW134083   4.561   0.965   6.639
 5647SOL    HW234084   4.655   1.077   6.600
 5648SOL     OW34085   5.318   5.498   7.380
 5648SOL    HW134086   5.297   5.483   7.472
 5648SOL    HW234087   5.233   5.510   7.338
 5649SOL     OW34088   4.492   5.273   7.263
 5649SOL    HW134089   4.530   5.335   7.325
 5649SOL    HW234090   4.406   5.251   7.300
 5650SOL     OW34091   3.913   1.746   7.376
 5650SOL    HW134092   3.926   1.710   7.288
 5650SOL    HW234093   3.857   1.682   7.420
 5651SOL     OW34094   4.101   4.913   1.601
 5651SOL    HW134095   4.009   4.914   1.625
 5651SOL    HW234096   4.123   5.005   1.586
 5652SOL     OW34097   0.433   6.061   7.501
 5652SOL    HW134098   0.352   6.102   7.532
 5652SOL    HW234099   0.502   6.096   7.557
 5653SOL     OW34100   0.985   2.914   0.331
 5653SOL    HW134101   1.044   2.988   0.344
 5653SOL    HW234102   1.013   2.877   0.247
 5654SOL     OW34103   5.595   4.199   1.239
 5654SOL    HW134104   5.607   4.275   1.296
 5654SOL    HW234105   5.684   4.173   1.216
 5655SOL     OW34106   2.265   4.142   7.465
 5655SOL    HW134107   2.334   4.197   7.427
 5655SOL    HW234108   2.290   4.132   7.557
 5656MOL     C134109   4.065   3.060   5.376
 5656MOL     C234110   4.088   3.053   5.522
 5656MOL     N134111   3.846   3.181   5.400
 5656MOL     N234112   4.069   3.148   5.607
 5656MOL     C334113   3.866   3.247   5.519
 5656MOL     C434114   4.008   3.275   5.566
 5656MOL     H134115   4.076   3.313   5.489
 5656MOL     H234116   4.009   3.337   5.657
 5656MOL     C534117   3.931   3.138   5.189
 5656MOL     C634118   4.026   3.096   5.095
 5656MOL     C734119   3.955   3.130   5.326
 5656MOL     C834120   4.135   3.026   5.146
 5656MOL     C934121   4.154   3.006   5.283
 5656MOL     H334122   4.010   3.105   4.988
 5656MOL     H434123   4.240   2.948   5.316
 5656MOL     H534124   3.846   3.196   5.155
 5656MOL     O134125   3.767   3.288   5.579
 5656MOL    C1034126   4.125   2.923   5.580
 5656MOL    C1134127   4.206   2.916   5.693
 5656MOL     N334128   4.085   2.812   5.517
 5656MOL    C1234129   4.242   2.792   5.749
 5656MOL    C1334130   4.110   2.692   5.570
 5656MOL    C1434131   4.195   2.680   5.681
 5656MOL     H634132   4.240   3.007   5.743
 5656MOL     H734133   4.310   2.792   5.833
 5656MOL     H834134   4.067   2.605   5.521
 5656MOL     H934135   4.229   2.584   5.718
 5656MOL    H1034136   3.758   3.201   5.353
 5656MOL    BR134137   4.251   2.934   5.024
 5656MOL     EP34138   4.373   2.838   4.895
   6.41967   6.41967   7.88552
