POPC bilayer and 5FIBZ with EP hydrated t= 3910.00000 step= 455000
34138
    1PA    C116    1   4.426   2.958   4.750
    1PA    H16R    2   4.466   2.959   4.648
    1PA    H16S    3   4.408   2.858   4.788
    1PA    H16T    4   4.502   3.016   4.803
    1PA    C115    5   4.292   3.032   4.760
    1PA    H15R    6   4.299   3.108   4.681
    1PA    H15S    7   4.205   2.974   4.730
    1PA    C114    8   4.266   3.089   4.900
    1PA    H14R    9   4.262   3.009   4.975
    1PA    H14S   10   4.337   3.164   4.936
    1PA    C113   11   4.124   3.146   4.905
    1PA    H13R   12   4.111   3.221   4.827
    1PA    H13S   13   4.061   3.058   4.887
    1PA    C112   14   4.090   3.200   5.044
    1PA    H12R   15   3.982   3.203   5.063
    1PA    H12S   16   4.126   3.132   5.122
    1PA    C111   17   4.158   3.334   5.077
    1PA    H11R   18   4.265   3.340   5.056
    1PA    H11S   19   4.102   3.403   5.013
    1PA    C110   20   4.133   3.380   5.221
    1PA    H10R   21   4.136   3.489   5.219
    1PA    H10S   22   4.033   3.353   5.257
    1PA     C19   23   4.243   3.331   5.316
    1PA     H9R   24   4.248   3.222   5.312
    1PA     H9S   25   4.341   3.370   5.287
    1PA     C18   26   4.235   3.382   5.461
    1PA     H8R   27   4.272   3.485   5.468
    1PA     H8S   28   4.137   3.362   5.503
    1PA     C17   29   4.341   3.312   5.547
    1PA     H7R   30   4.435   3.303   5.492
    1PA     H7S   31   4.365   3.378   5.630
    1PA     C16   32   4.295   3.172   5.591
    1PA     H6R   33   4.210   3.183   5.659
    1PA     H6S   34   4.261   3.115   5.505
    1PA     C15   35   4.403   3.100   5.673
    1PA     H5R   36   4.501   3.116   5.630
    1PA     H5S   37   4.416   3.151   5.769
    1PA     C14   38   4.365   2.954   5.698
    1PA     H4R   39   4.270   2.950   5.751
    1PA     H4S   40   4.340   2.914   5.599
    1PA     C13   41   4.478   2.882   5.773
    1PA     H3R   42   4.575   2.890   5.722
    1PA     H3S   43   4.490   2.927   5.872
    1PA     C12   44   4.450   2.734   5.803
    1PA     H2R   45   4.449   2.679   5.709
    1PA     H2S   46   4.530   2.689   5.864
    2PC     C11   47   4.317   2.721   5.872
    2PC     O12   48   4.292   2.772   5.980
    2PC     O11   49   4.226   2.664   5.792
    2PC      C1   50   4.087   2.644   5.825
    2PC      HR   51   4.039   2.577   5.753
    2PC      HS   52   4.091   2.607   5.928
    2PC      C2   53   4.019   2.782   5.822
    2PC      HX   54   4.084   2.846   5.881
    2PC      C3   55   3.873   2.767   5.867
    2PC      HA   56   3.813   2.723   5.786
    2PC      HB   57   3.862   2.702   5.954
    2PC     O31   58   3.826   2.899   5.898
    2PC     P31   59   3.669   2.917   5.925
    2PC     O32   60   3.655   2.849   6.069
    2PC     C31   61   3.679   2.941   6.177
    2PC     H1A   62   3.785   2.965   6.185
    2PC     H1B   63   3.632   3.035   6.147
    2PC     C32   64   3.631   2.876   6.307
    2PC     H2A   65   3.664   2.952   6.378
    2PC     H2B   66   3.523   2.859   6.307
    2PC     N31   67   3.693   2.746   6.348
    2PC     C33   68   3.644   2.722   6.488
    2PC     H3A   69   3.709   2.651   6.538
    2PC     H3B   70   3.634   2.815   6.545
    2PC     H3C   71   3.540   2.692   6.479
    2PC     C34   72   3.654   2.626   6.267
    2PC     H4A   73   3.694   2.533   6.309
    2PC     H4B   74   3.545   2.619   6.274
    2PC     H4C   75   3.668   2.634   6.160
    2PC     C35   76   3.843   2.746   6.337
    2PC     H5A   77   3.864   2.764   6.231
    2PC     H5B   78   3.884   2.648   6.362
    2PC     H5C   79   3.888   2.825   6.398
    2PC     O33   80   3.624   3.057   5.909
    2PC     O34   81   3.594   2.837   5.824
    2PC     O21   82   4.018   2.830   5.686
    2PC     C21   83   4.005   2.960   5.656
    2PC     O22   84   4.007   3.055   5.731
    3OL     C12   85   3.980   2.975   5.508
    3OL     H2R   86   3.939   2.881   5.470
    3OL     H2S   87   4.078   2.983   5.460
    3OL     C13   88   3.890   3.094   5.470
    3OL     H3R   89   3.938   3.189   5.491
    3OL     H3S   90   3.797   3.086   5.527
    3OL     C14   91   3.855   3.095   5.320
    3OL     H4R   92   3.946   3.080   5.261
    3OL     H4S   93   3.825   3.193   5.283
    3OL     C15   94   3.749   2.990   5.283
    3OL     H5R   95   3.662   2.993   5.349
    3OL     H5S   96   3.797   2.894   5.302
    3OL     C16   97   3.715   3.003   5.134
    3OL     H6R   98   3.796   2.976   5.066
    3OL     H6S   99   3.692   3.108   5.112
    3OL     C17  100   3.587   2.928   5.094
    3OL     H7R  101   3.512   2.974   5.159
    3OL     H7S  102   3.601   2.825   5.127
    3OL     C18  103   3.543   2.942   4.948
    3OL     H8R  104   3.471   2.862   4.939
    3OL     H8S  105   3.625   2.921   4.879
    3OL     C19  106   3.482   3.079   4.926
    3OL     H9R  107   3.430   3.124   5.010
    3OL    C110  108   3.500   3.156   4.820
    3OL    H10R  109   3.455   3.255   4.816
    3OL    C111  110   3.578   3.121   4.696
    3OL    H11R  111   3.522   3.155   4.608
    3OL    H11S  112   3.605   3.015   4.691
    3OL    C112  113   3.706   3.205   4.708
    3OL    H12R  114   3.748   3.179   4.805
    3OL    H12S  115   3.674   3.310   4.709
    3OL    C113  116   3.817   3.178   4.605
    3OL    H13R  117   3.885   3.249   4.653
    3OL    H13S  118   3.774   3.207   4.509
    3OL    C114  119   3.868   3.034   4.607
    3OL    H14R  120   3.796   2.972   4.553
    3OL    H14S  121   3.880   3.003   4.711
    3OL    C115  122   4.001   3.020   4.531
    3OL    H15R  123   4.038   2.921   4.560
    3OL    H15S  124   4.076   3.085   4.577
    3OL    C116  125   3.985   3.037   4.379
    3OL    H16R  126   3.938   3.133   4.357
    3OL    H16S  127   3.934   2.955   4.329
    3OL    C117  128   4.126   3.030   4.319
    3OL    H17R  129   4.158   2.927   4.335
    3OL    H17S  130   4.195   3.094   4.374
    3OL    C118  131   4.138   3.048   4.167
    3OL    H18R  132   4.074   2.981   4.108
    3OL    H18S  133   4.241   3.021   4.143
    3OL    H18T  134   4.116   3.151   4.138
    1PA    C116  135   2.901   2.140   3.278
    1PA    H16R  136   3.004   2.127   3.245
    1PA    H16S  137   2.866   2.218   3.210
    1PA    H16T  138   2.831   2.057   3.263
    1PA    C115  139   2.898   2.192   3.422
    1PA    H15R  140   2.924   2.298   3.420
    1PA    H15S  141   2.793   2.187   3.450
    1PA    C114  142   2.986   2.107   3.514
    1PA    H14R  143   2.961   2.002   3.499
    1PA    H14S  144   3.092   2.120   3.489
    1PA    C113  145   2.974   2.136   3.665
    1PA    H13R  146   2.869   2.137   3.694
    1PA    H13S  147   3.029   2.050   3.705
    1PA    C112  148   3.044   2.268   3.696
    1PA    H12R  149   3.145   2.268   3.654
    1PA    H12S  150   2.984   2.339   3.638
    1PA    C111  151   3.041   2.305   3.845
    1PA    H11R  152   3.079   2.407   3.854
    1PA    H11S  153   2.937   2.305   3.878
    1PA    C110  154   3.104   2.206   3.944
    1PA    H10R  155   3.045   2.114   3.949
    1PA    H10S  156   3.203   2.170   3.916
    1PA     C19  157   3.106   2.253   4.090
    1PA     H9R  158   3.158   2.349   4.095
    1PA     H9S  159   3.005   2.272   4.126
    1PA     C18  160   3.172   2.148   4.181
    1PA     H8R  161   3.121   2.052   4.175
    1PA     H8S  162   3.271   2.127   4.139
    1PA     C17  163   3.212   2.185   4.324
    1PA     H7R  164   3.272   2.108   4.374
    1PA     H7S  165   3.272   2.276   4.327
    1PA     C16  166   3.090   2.197   4.416
    1PA     H6R  167   3.039   2.293   4.414
    1PA     H6S  168   3.021   2.114   4.398
    1PA     C15  169   3.138   2.191   4.562
    1PA     H5R  170   3.191   2.099   4.584
    1PA     H5S  171   3.210   2.272   4.572
    1PA     C14  172   3.014   2.191   4.652
    1PA     H4R  173   2.960   2.284   4.671
    1PA     H4S  174   2.943   2.122   4.607
    1PA     C13  175   3.062   2.144   4.790
    1PA     H3R  176   3.123   2.054   4.786
    1PA     H3S  177   3.121   2.223   4.835
    1PA     C12  178   2.943   2.111   4.881
    1PA     H2R  179   2.861   2.182   4.881
    1PA     H2S  180   2.902   2.012   4.861
    2PC     C11  181   2.986   2.104   5.026
    2PC     O12  182   3.049   2.195   5.076
    2PC     O11  183   2.956   1.985   5.081
    2PC      C1  184   3.021   1.937   5.200
    2PC      HR  185   3.028   2.027   5.262
    2PC      HS  186   2.965   1.858   5.251
    2PC      C2  187   3.168   1.898   5.176
    2PC      HX  188   3.172   1.825   5.095
    2PC      C3  189   3.242   1.834   5.295
    2PC      HA  190   3.234   1.727   5.279
    2PC      HB  191   3.349   1.855   5.300
    2PC     O31  192   3.187   1.876   5.421
    2PC     P31  193   3.241   1.807   5.555
    2PC     O32  194   3.398   1.787   5.527
    2PC     C31  195   3.497   1.824   5.625
    2PC     H1A  196   3.480   1.930   5.648
    2PC     H1B  197   3.484   1.750   5.704
    2PC     C32  198   3.631   1.814   5.552
    2PC     H2A  199   3.708   1.793   5.627
    2PC     H2B  200   3.627   1.731   5.481
    2PC     N31  201   3.688   1.930   5.476
    2PC     C33  202   3.811   1.888   5.400
    2PC     H3A  203   3.755   1.825   5.331
    2PC     H3B  204   3.854   1.977   5.355
    2PC     H3C  205   3.883   1.831   5.460
    2PC     C34  206   3.583   1.984   5.384
    2PC     H4A  207   3.557   1.897   5.323
    2PC     H4B  208   3.498   2.020   5.442
    2PC     H4C  209   3.635   2.058   5.323
    2PC     C35  210   3.726   2.046   5.563
    2PC     H5A  211   3.751   2.129   5.497
    2PC     H5B  212   3.802   2.007   5.631
    2PC     H5C  213   3.641   2.069   5.627
    2PC     O33  214   3.229   1.868   5.689
    2PC     O34  215   3.182   1.671   5.556
    2PC     O21  216   3.242   2.019   5.148
    2PC     C21  217   3.334   2.019   5.051
    2PC     O22  218   3.362   1.922   4.983
    3OL     C12  219   3.405   2.152   5.041
    3OL     H2R  220   3.433   2.184   5.141
    3OL     H2S  221   3.334   2.230   5.012
    3OL     C13  222   3.521   2.149   4.941
    3OL     H3R  223   3.578   2.058   4.959
    3OL     H3S  224   3.577   2.240   4.965
    3OL     C14  225   3.480   2.160   4.793
    3OL     H4R  226   3.444   2.262   4.780
    3OL     H4S  227   3.405   2.085   4.768
    3OL     C15  228   3.594   2.141   4.692
    3OL     H5R  229   3.634   2.039   4.693
    3OL     H5S  230   3.673   2.205   4.729
    3OL     C16  231   3.546   2.189   4.554
    3OL     H6R  232   3.516   2.294   4.554
    3OL     H6S  233   3.455   2.137   4.522
    3OL     C17  234   3.652   2.169   4.445
    3OL     H7R  235   3.678   2.063   4.437
    3OL     H7S  236   3.746   2.212   4.481
    3OL     C18  237   3.614   2.229   4.309
    3OL     H8R  238   3.612   2.338   4.323
    3OL     H8S  239   3.517   2.194   4.275
    3OL     C19  240   3.719   2.208   4.203
    3OL     H9R  241   3.809   2.268   4.216
    3OL    C110  242   3.712   2.131   4.095
    3OL    H10R  243   3.798   2.126   4.030
    3OL    C111  244   3.595   2.043   4.057
    3OL    H11R  245   3.512   2.108   4.086
    3OL    H11S  246   3.579   1.966   4.132
    3OL    C112  247   3.590   1.996   3.911
    3OL    H12R  248   3.511   1.923   3.891
    3OL    H12S  249   3.680   1.936   3.896
    3OL    C113  250   3.586   2.114   3.812
    3OL    H13R  251   3.680   2.169   3.816
    3OL    H13S  252   3.500   2.174   3.844
    3OL    C114  253   3.554   2.070   3.668
    3OL    H14R  254   3.476   1.993   3.662
    3OL    H14S  255   3.643   2.030   3.619
    3OL    C115  256   3.506   2.185   3.578
    3OL    H15R  257   3.569   2.273   3.587
    3OL    H15S  258   3.411   2.226   3.615
    3OL    C116  259   3.498   2.152   3.429
    3OL    H16R  260   3.568   2.073   3.400
    3OL    H16S  261   3.521   2.238   3.366
    3OL    C117  262   3.360   2.095   3.394
    3OL    H17R  263   3.287   2.173   3.416
    3OL    H17S  264   3.332   2.006   3.452
    3OL    C118  265   3.353   2.062   3.244
    3OL    H18R  266   3.412   2.136   3.190
    3OL    H18S  267   3.254   2.075   3.199
    3OL    H18T  268   3.407   1.971   3.219
    1PA    C116  269   2.336   2.317   4.166
    1PA    H16R  270   2.228   2.306   4.178
    1PA    H16S  271   2.388   2.240   4.108
    1PA    H16T  272   2.370   2.413   4.126
    1PA    C115  273   2.397   2.310   4.306
    1PA    H15R  274   2.362   2.392   4.370
    1PA    H15S  275   2.353   2.229   4.366
    1PA    C114  276   2.549   2.291   4.307
    1PA    H14R  277   2.590   2.257   4.403
    1PA    H14S  278   2.583   2.213   4.240
    1PA    C113  279   2.627   2.418   4.268
    1PA    H13R  280   2.726   2.386   4.232
    1PA    H13S  281   2.581   2.449   4.175
    1PA    C112  282   2.653   2.521   4.378
    1PA    H12R  283   2.664   2.622   4.337
    1PA    H12S  284   2.570   2.523   4.449
    1PA    C111  285   2.775   2.471   4.457
    1PA    H11R  286   2.753   2.375   4.504
    1PA    H11S  287   2.856   2.468   4.384
    1PA    C110  288   2.817   2.561   4.574
    1PA    H10R  289   2.919   2.528   4.593
    1PA    H10S  290   2.813   2.663   4.533
    1PA     C19  291   2.737   2.545   4.704
    1PA     H9R  292   2.632   2.570   4.689
    1PA     H9S  293   2.751   2.443   4.739
    1PA     C18  294   2.785   2.650   4.805
    1PA     H8R  295   2.893   2.645   4.820
    1PA     H8S  296   2.750   2.745   4.763
    1PA     C17  297   2.735   2.655   4.950
    1PA     H7R  298   2.782   2.744   4.993
    1PA     H7S  299   2.628   2.675   4.935
    1PA     C16  300   2.779   2.526   5.019
    1PA     H6R  301   2.727   2.433   4.995
    1PA     H6S  302   2.884   2.503   5.000
    1PA     C15  303   2.753   2.527   5.171
    1PA     H5R  304   2.810   2.614   5.202
    1PA     H5S  305   2.645   2.527   5.186
    1PA     C14  306   2.802   2.396   5.234
    1PA     H4R  307   2.760   2.320   5.168
    1PA     H4S  308   2.911   2.395   5.232
    1PA     C13  309   2.754   2.367   5.377
    1PA     H3R  310   2.781   2.457   5.433
    1PA     H3S  311   2.646   2.361   5.391
    1PA     C12  312   2.827   2.241   5.426
    1PA     H2R  313   2.816   2.156   5.359
    1PA     H2S  314   2.934   2.263   5.434
    2PC     C11  315   2.791   2.207   5.568
    2PC     O12  316   2.798   2.092   5.605
    2PC     O11  317   2.796   2.306   5.660
    2PC      C1  318   2.774   2.296   5.802
    2PC      HR  319   2.669   2.286   5.832
    2PC      HS  320   2.838   2.221   5.848
    2PC      C2  321   2.823   2.429   5.861
    2PC      HX  322   2.926   2.441   5.828
    2PC      C3  323   2.809   2.427   6.014
    2PC      HA  324   2.849   2.334   6.053
    2PC      HB  325   2.867   2.508   6.060
    2PC     O31  326   2.670   2.437   6.052
    2PC     P31  327   2.642   2.412   6.208
    2PC     O32  328   2.582   2.554   6.247
    2PC     C31  329   2.473   2.561   6.342
    2PC     H1A  330   2.380   2.533   6.293
    2PC     H1B  331   2.479   2.491   6.425
    2PC     C32  332   2.453   2.708   6.382
    2PC     H2A  333   2.545   2.742   6.431
    2PC     H2B  334   2.429   2.764   6.292
    2PC     N31  335   2.333   2.735   6.468
    2PC     C33  336   2.338   2.656   6.595
    2PC     H3A  337   2.338   2.549   6.571
    2PC     H3B  338   2.426   2.685   6.651
    2PC     H3C  339   2.255   2.687   6.658
    2PC     C34  340   2.321   2.881   6.501
    2PC     H4A  341   2.411   2.913   6.554
    2PC     H4B  342   2.316   2.937   6.408
    2PC     H4C  343   2.229   2.905   6.555
    2PC     C35  344   2.203   2.695   6.406
    2PC     H5A  345   2.209   2.587   6.389
    2PC     H5B  346   2.194   2.756   6.315
    2PC     H5C  347   2.134   2.739   6.477
    2PC     O33  348   2.531   2.315   6.220
    2PC     O34  349   2.760   2.365   6.285
    2PC     O21  350   2.747   2.532   5.794
    2PC     C21  351   2.796   2.657   5.789
    2PC     O22  352   2.892   2.697   5.853
    3OL     C12  353   2.703   2.746   5.711
    3OL     H2R  354   2.765   2.829   5.677
    3OL     H2S  355   2.636   2.764   5.795
    3OL     C13  356   2.626   2.668   5.604
    3OL     H3R  357   2.569   2.584   5.646
    3OL     H3S  358   2.691   2.626   5.527
    3OL     C14  359   2.516   2.751   5.537
    3OL     H4R  360   2.574   2.832   5.494
    3OL     H4S  361   2.438   2.798   5.598
    3OL     C15  362   2.446   2.673   5.426
    3OL     H5R  363   2.374   2.604   5.471
    3OL     H5S  364   2.516   2.622   5.359
    3OL     C16  365   2.353   2.774   5.356
    3OL     H6R  366   2.398   2.872   5.344
    3OL     H6S  367   2.279   2.783   5.436
    3OL     C17  368   2.290   2.726   5.225
    3OL     H7R  369   2.202   2.789   5.206
    3OL     H7S  370   2.248   2.626   5.235
    3OL     C18  371   2.385   2.750   5.107
    3OL     H8R  372   2.475   2.690   5.114
    3OL     H8S  373   2.415   2.855   5.115
    3OL     C19  374   2.309   2.719   4.980
    3OL     H9R  375   2.294   2.615   4.951
    3OL    C110  376   2.275   2.805   4.886
    3OL    H10R  377   2.225   2.781   4.792
    3OL    C111  378   2.287   2.954   4.898
    3OL    H11R  379   2.324   2.997   4.805
    3OL    H11S  380   2.371   2.979   4.964
    3OL    C112  381   2.166   3.034   4.951
    3OL    H12R  382   2.193   3.138   4.966
    3OL    H12S  383   2.139   2.980   5.042
    3OL    C113  384   2.046   3.029   4.856
    3OL    H13R  385   2.086   3.018   4.755
    3OL    H13S  386   1.987   3.121   4.857
    3OL    C114  387   1.942   2.921   4.891
    3OL    H14R  388   1.905   2.946   4.991
    3OL    H14S  389   1.991   2.825   4.911
    3OL    C115  390   1.829   2.898   4.790
    3OL    H15R  391   1.775   2.993   4.783
    3OL    H15S  392   1.753   2.831   4.829
    3OL    C116  393   1.884   2.845   4.657
    3OL    H16R  394   1.949   2.761   4.682
    3OL    H16S  395   1.943   2.916   4.599
    3OL    C117  396   1.768   2.808   4.563
    3OL    H17R  397   1.711   2.899   4.545
    3OL    H17S  398   1.714   2.723   4.605
    3OL    C118  399   1.818   2.752   4.429
    3OL    H18R  400   1.890   2.823   4.388
    3OL    H18S  401   1.729   2.740   4.367
    3OL    H18T  402   1.869   2.661   4.459
    1PA    C116  403   4.307   2.819   3.882
    1PA    H16R  404   4.377   2.824   3.966
    1PA    H16S  405   4.242   2.907   3.891
    1PA    H16T  406   4.358   2.833   3.787
    1PA    C115  407   4.226   2.689   3.875
    1PA    H15R  408   4.177   2.696   3.778
    1PA    H15S  409   4.288   2.599   3.882
    1PA    C114  410   4.121   2.674   3.986
    1PA    H14R  411   4.041   2.747   3.977
    1PA    H14S  412   4.064   2.583   3.964
    1PA    C113  413   4.173   2.672   4.130
    1PA    H13R  414   4.241   2.587   4.140
    1PA    H13S  415   4.232   2.758   4.164
    1PA    C112  416   4.062   2.663   4.235
    1PA    H12R  417   4.101   2.643   4.335
    1PA    H12S  418   4.012   2.759   4.238
    1PA    C111  419   3.953   2.558   4.209
    1PA    H11R  420   3.888   2.583   4.125
    1PA    H11S  421   4.008   2.465   4.190
    1PA    C110  422   3.866   2.538   4.333
    1PA    H10R  423   3.794   2.462   4.301
    1PA    H10S  424   3.932   2.497   4.410
    1PA     C19  425   3.794   2.668   4.372
    1PA     H9R  426   3.860   2.747   4.410
    1PA     H9S  427   3.753   2.703   4.277
    1PA     C18  428   3.688   2.644   4.480
    1PA     H8R  429   3.620   2.730   4.478
    1PA     H8S  430   3.630   2.553   4.470
    1PA     C17  431   3.761   2.643   4.615
    1PA     H7R  432   3.844   2.573   4.610
    1PA     H7S  433   3.791   2.746   4.635
    1PA     C16  434   3.659   2.597   4.719
    1PA     H6R  435   3.578   2.670   4.724
    1PA     H6S  436   3.623   2.498   4.689
    1PA     C15  437   3.714   2.602   4.862
    1PA     H5R  438   3.801   2.538   4.876
    1PA     H5S  439   3.749   2.704   4.879
    1PA     C14  440   3.615   2.561   4.972
    1PA     H4R  441   3.546   2.645   4.984
    1PA     H4S  442   3.560   2.472   4.940
    1PA     C13  443   3.694   2.532   5.100
    1PA     H3R  444   3.770   2.455   5.090
    1PA     H3S  445   3.743   2.623   5.134
    1PA     C12  446   3.601   2.504   5.219
    1PA     H2R  447   3.563   2.602   5.249
    1PA     H2S  448   3.511   2.449   5.195
    2PC     C11  449   3.666   2.433   5.335
    2PC     O12  450   3.691   2.314   5.334
    2PC     O11  451   3.689   2.519   5.436
    2PC      C1  452   3.760   2.459   5.546
    2PC      HR  453   3.759   2.537   5.623
    2PC      HS  454   3.699   2.377   5.584
    2PC      C2  455   3.906   2.420   5.517
    2PC      HX  456   3.922   2.366   5.423
    2PC      C3  457   3.955   2.332   5.633
    2PC      HA  458   3.900   2.238   5.620
    2PC      HB  459   4.063   2.316   5.632
    2PC     O31  460   3.921   2.402   5.753
    2PC     P31  461   3.949   2.321   5.889
    2PC     O32  462   4.108   2.305   5.872
    2PC     C31  463   4.202   2.262   5.972
    2PC     H1A  464   4.233   2.351   6.028
    2PC     H1B  465   4.147   2.187   6.031
    2PC     C32  466   4.322   2.189   5.911
    2PC     H2A  467   4.377   2.149   5.997
    2PC     H2B  468   4.294   2.104   5.850
    2PC     N31  469   4.419   2.283   5.846
    2PC     C33  470   4.476   2.370   5.954
    2PC     H3A  471   4.399   2.434   5.998
    2PC     H3B  472   4.523   2.308   6.030
    2PC     H3C  473   4.551   2.430   5.902
    2PC     C34  474   4.530   2.193   5.801
    2PC     H4A  475   4.573   2.118   5.868
    2PC     H4B  476   4.487   2.126   5.727
    2PC     H4C  477   4.612   2.255   5.765
    2PC     C35  478   4.379   2.363   5.725
    2PC     H5A  479   4.304   2.433   5.760
    2PC     H5B  480   4.332   2.297   5.652
    2PC     H5C  481   4.472   2.406   5.688
    2PC     O33  482   3.898   2.384   6.013
    2PC     O34  483   3.863   2.201   5.879
    2PC     O21  484   3.989   2.536   5.509
    2PC     C21  485   4.116   2.521   5.468
    2PC     O22  486   4.177   2.417   5.452
    3OL     C12  487   4.181   2.654   5.439
    3OL     H2R  488   4.282   2.664   5.482
    3OL     H2S  489   4.118   2.726   5.491
    3OL     C13  490   4.183   2.685   5.289
    3OL     H3R  491   4.251   2.616   5.237
    3OL     H3S  492   4.219   2.787   5.284
    3OL     C14  493   4.048   2.662   5.219
    3OL     H4R  494   3.967   2.703   5.280
    3OL     H4S  495   4.024   2.556   5.212
    3OL     C15  496   4.035   2.722   5.079
    3OL     H5R  497   4.100   2.807   5.060
    3OL     H5S  498   3.931   2.743   5.053
    3OL     C16  499   4.074   2.613   4.978
    3OL     H6R  500   4.003   2.529   4.985
    3OL     H6S  501   4.171   2.576   5.010
    3OL     C17  502   4.085   2.662   4.833
    3OL     H7R  503   4.167   2.732   4.818
    3OL     H7S  504   3.992   2.710   4.802
    3OL     C18  505   4.120   2.545   4.740
    3OL     H8R  506   4.128   2.600   4.646
    3OL     H8S  507   4.039   2.472   4.745
    3OL     C19  508   4.253   2.479   4.765
    3OL     H9R  509   4.287   2.473   4.868
    3OL    C110  510   4.333   2.429   4.672
    3OL    H10R  511   4.426   2.376   4.688
    3OL    C111  512   4.301   2.436   4.524
    3OL    H11R  513   4.324   2.534   4.484
    3OL    H11S  514   4.195   2.414   4.508
    3OL    C112  515   4.383   2.332   4.447
    3OL    H12R  516   4.365   2.235   4.494
    3OL    H12S  517   4.491   2.351   4.453
    3OL    C113  518   4.327   2.333   4.304
    3OL    H13R  519   4.356   2.430   4.263
    3OL    H13S  520   4.219   2.334   4.291
    3OL    C114  521   4.379   2.209   4.230
    3OL    H14R  522   4.321   2.121   4.258
    3OL    H14S  523   4.482   2.191   4.261
    3OL    C115  524   4.372   2.203   4.077
    3OL    H15R  525   4.269   2.212   4.043
    3OL    H15S  526   4.398   2.102   4.045
    3OL    C116  527   4.443   2.325   4.017
    3OL    H16R  528   4.548   2.321   4.046
    3OL    H16S  529   4.398   2.421   4.046
    3OL    C117  530   4.422   2.314   3.865
    3OL    H17R  531   4.318   2.339   3.844
    3OL    H17S  532   4.441   2.211   3.833
    3OL    C118  533   4.511   2.411   3.787
    3OL    H18R  534   4.475   2.512   3.809
    3OL    H18S  535   4.497   2.394   3.680
    3OL    H18T  536   4.617   2.407   3.811
    1PA    C116  537   3.576   1.754   4.482
    1PA    H16R  538   3.526   1.712   4.394
    1PA    H16S  539   3.660   1.687   4.502
    1PA    H16T  540   3.615   1.851   4.450
    1PA    C115  541   3.469   1.770   4.590
    1PA    H15R  542   3.506   1.816   4.683
    1PA    H15S  543   3.383   1.829   4.557
    1PA    C114  544   3.411   1.631   4.620
    1PA    H14R  545   3.383   1.583   4.526
    1PA    H14S  546   3.485   1.566   4.666
    1PA    C113  547   3.294   1.637   4.719
    1PA    H13R  548   3.274   1.539   4.762
    1PA    H13S  549   3.316   1.707   4.800
    1PA    C112  550   3.166   1.684   4.649
    1PA    H12R  551   3.185   1.783   4.607
    1PA    H12S  552   3.146   1.625   4.559
    1PA    C111  553   3.046   1.700   4.744
    1PA    H11R  554   3.075   1.728   4.845
    1PA    H11S  555   2.979   1.778   4.709
    1PA    C110  556   2.967   1.568   4.749
    1PA    H10R  557   2.911   1.558   4.657
    1PA    H10S  558   3.029   1.480   4.769
    1PA     C19  559   2.869   1.568   4.867
    1PA     H9R  560   2.809   1.477   4.860
    1PA     H9S  561   2.913   1.567   4.967
    1PA     C18  562   2.763   1.678   4.853
    1PA     H8R  563   2.814   1.772   4.832
    1PA     H8S  564   2.711   1.660   4.759
    1PA     C17  565   2.670   1.704   4.973
    1PA     H7R  566   2.721   1.718   5.068
    1PA     H7S  567   2.614   1.794   4.947
    1PA     C16  568   2.572   1.586   4.977
    1PA     H6R  569   2.509   1.595   4.889
    1PA     H6S  570   2.639   1.499   4.974
    1PA     C15  571   2.484   1.588   5.103
    1PA     H5R  572   2.535   1.575   5.199
    1PA     H5S  573   2.421   1.677   5.110
    1PA     C14  574   2.378   1.477   5.104
    1PA     H4R  575   2.301   1.517   5.171
    1PA     H4S  576   2.338   1.480   5.002
    1PA     C13  577   2.426   1.334   5.135
    1PA     H3R  578   2.330   1.284   5.154
    1PA     H3S  579   2.477   1.293   5.048
    1PA     C12  580   2.513   1.324   5.261
    1PA     H2R  581   2.617   1.356   5.254
    1PA     H2S  582   2.462   1.374   5.344
    2PC     C11  583   2.534   1.185   5.315
    2PC     O12  584   2.448   1.099   5.311
    2PC     O11  585   2.653   1.168   5.374
    2PC      C1  586   2.717   1.039   5.373
    2PC      HR  587   2.667   0.982   5.451
    2PC      HS  588   2.719   0.998   5.272
    2PC      C2  589   2.859   1.062   5.427
    2PC      HX  590   2.911   0.968   5.445
    2PC      C3  591   2.873   1.141   5.558
    2PC      HA  592   2.886   1.245   5.528
    2PC      HB  593   2.797   1.126   5.635
    2PC     O31  594   3.001   1.092   5.600
    2PC     P31  595   3.055   1.127   5.746
    2PC     O32  596   3.108   1.276   5.722
    2PC     C31  597   3.246   1.296   5.684
    2PC     H1A  598   3.302   1.221   5.741
    2PC     H1B  599   3.258   1.279   5.577
    2PC     C32  600   3.273   1.441   5.725
    2PC     H2A  601   3.372   1.465   5.686
    2PC     H2B  602   3.199   1.508   5.681
    2PC     N31  603   3.275   1.488   5.867
    2PC     C33  604   3.318   1.632   5.876
    2PC     H3A  605   3.311   1.658   5.982
    2PC     H3B  606   3.422   1.638   5.844
    2PC     H3C  607   3.258   1.699   5.814
    2PC     C34  608   3.141   1.480   5.934
    2PC     H4A  609   3.137   1.517   6.036
    2PC     H4B  610   3.066   1.526   5.869
    2PC     H4C  611   3.118   1.374   5.939
    2PC     C35  612   3.375   1.405   5.942
    2PC     H5A  613   3.332   1.308   5.966
    2PC     H5B  614   3.404   1.464   6.029
    2PC     H5C  615   3.459   1.386   5.875
    2PC     O33  616   2.940   1.124   5.839
    2PC     O34  617   3.147   1.025   5.800
    2PC     O21  618   2.935   1.133   5.327
    2PC     C21  619   3.000   1.058   5.238
    2PC     O22  620   2.971   0.943   5.209
    3OL     C12  621   3.101   1.136   5.157
    3OL     H2R  622   3.193   1.078   5.156
    3OL     H2S  623   3.118   1.231   5.208
    3OL     C13  624   3.054   1.161   5.013
    3OL     H3R  625   2.964   1.223   5.015
    3OL     H3S  626   3.027   1.062   4.975
    3OL     C14  627   3.167   1.215   4.923
    3OL     H4R  628   3.223   1.298   4.964
    3OL     H4S  629   3.125   1.251   4.829
    3OL     C15  630   3.261   1.106   4.869
    3OL     H5R  631   3.207   1.014   4.845
    3OL     H5S  632   3.330   1.086   4.951
    3OL     C16  633   3.315   1.146   4.731
    3OL     H6R  634   3.228   1.154   4.665
    3OL     H6S  635   3.378   1.070   4.685
    3OL     C17  636   3.400   1.274   4.730
    3OL     H7R  637   3.350   1.342   4.799
    3OL     H7S  638   3.403   1.307   4.626
    3OL     C18  639   3.545   1.248   4.775
    3OL     H8R  640   3.578   1.144   4.768
    3OL     H8S  641   3.545   1.281   4.879
    3OL     C19  642   3.644   1.340   4.708
    3OL     H9R  643   3.695   1.396   4.786
    3OL    C110  644   3.662   1.357   4.578
    3OL    H10R  645   3.747   1.418   4.548
    3OL    C111  646   3.615   1.254   4.477
    3OL    H11R  647   3.563   1.169   4.522
    3OL    H11S  648   3.704   1.212   4.430
    3OL    C112  649   3.519   1.315   4.374
    3OL    H12R  650   3.563   1.396   4.315
    3OL    H12S  651   3.437   1.361   4.430
    3OL    C113  652   3.449   1.203   4.297
    3OL    H13R  653   3.409   1.128   4.366
    3OL    H13S  654   3.523   1.149   4.236
    3OL    C114  655   3.341   1.256   4.202
    3OL    H14R  656   3.398   1.316   4.131
    3OL    H14S  657   3.282   1.322   4.267
    3OL    C115  658   3.259   1.147   4.133
    3OL    H15R  659   3.180   1.184   4.066
    3OL    H15S  660   3.215   1.106   4.223
    3OL    C116  661   3.345   1.042   4.062
    3OL    H16R  662   3.283   0.957   4.034
    3OL    H16S  663   3.425   1.002   4.125
    3OL    C117  664   3.408   1.091   3.931
    3OL    H17R  665   3.477   1.170   3.962
    3OL    H17S  666   3.334   1.142   3.869
    3OL    C118  667   3.488   0.991   3.845
    3OL    H18R  668   3.567   0.944   3.904
    3OL    H18S  669   3.536   1.040   3.760
    3OL    H18T  670   3.420   0.915   3.805
    1PA    C116  671   2.910   2.946   3.590
    1PA    H16R  672   2.982   3.025   3.568
    1PA    H16S  673   2.809   2.976   3.561
    1PA    H16T  674   2.935   2.865   3.522
    1PA    C115  675   2.927   2.899   3.735
    1PA    H15R  676   3.033   2.887   3.756
    1PA    H15S  677   2.884   2.972   3.805
    1PA    C114  678   2.865   2.761   3.756
    1PA    H14R  679   2.761   2.758   3.722
    1PA    H14S  680   2.921   2.695   3.689
    1PA    C113  681   2.868   2.714   3.902
    1PA    H13R  682   2.803   2.780   3.960
    1PA    H13S  683   2.826   2.614   3.899
    1PA    C112  684   3.010   2.703   3.959
    1PA    H12R  685   3.059   2.618   3.912
    1PA    H12S  686   3.072   2.791   3.940
    1PA    C111  687   3.018   2.680   4.110
    1PA    H11R  688   2.965   2.767   4.148
    1PA    H11S  689   2.951   2.596   4.129
    1PA    C110  690   3.162   2.677   4.163
    1PA    H10R  691   3.214   2.597   4.110
    1PA    H10S  692   3.206   2.773   4.134
    1PA     C19  693   3.163   2.648   4.314
    1PA     H9R  694   3.085   2.709   4.360
    1PA     H9S  695   3.133   2.546   4.341
    1PA     C18  696   3.302   2.682   4.368
    1PA     H8R  697   3.377   2.614   4.329
    1PA     H8S  698   3.328   2.779   4.327
    1PA     C17  699   3.308   2.692   4.521
    1PA     H7R  700   3.402   2.736   4.555
    1PA     H7S  701   3.243   2.771   4.560
    1PA     C16  702   3.289   2.563   4.602
    1PA     H6R  703   3.191   2.527   4.572
    1PA     H6S  704   3.359   2.488   4.564
    1PA     C15  705   3.293   2.575   4.755
    1PA     H5R  706   3.328   2.483   4.802
    1PA     H5S  707   3.371   2.646   4.785
    1PA     C14  708   3.161   2.616   4.822
    1PA     H4R  709   3.097   2.668   4.751
    1PA     H4S  710   3.096   2.535   4.856
    1PA     C13  711   3.181   2.710   4.942
    1PA     H3R  712   3.276   2.682   4.987
    1PA     H3S  713   3.208   2.812   4.911
    1PA     C12  714   3.069   2.712   5.047
    1PA     H2R  715   2.982   2.758   4.999
    1PA     H2S  716   3.037   2.610   5.067
    2PC     C11  717   3.119   2.769   5.177
    2PC     O12  718   3.233   2.749   5.214
    2PC     O11  719   3.028   2.840   5.245
    2PC      C1  720   3.066   2.898   5.371
    2PC      HR  721   2.980   2.946   5.416
    2PC      HS  722   3.107   2.827   5.444
    2PC      C2  723   3.171   3.008   5.350
    2PC      HX  724   3.253   2.973   5.287
    2PC      C3  725   3.232   3.064   5.479
    2PC      HA  726   3.311   2.992   5.504
    2PC      HB  727   3.278   3.162   5.462
    2PC     O31  728   3.135   3.078   5.585
    2PC     P31  729   3.176   3.106   5.737
    2PC     O32  730   3.208   2.954   5.775
    2PC     C31  731   3.113   2.846   5.772
    2PC     H1A  732   3.034   2.863   5.845
    2PC     H1B  733   3.072   2.827   5.673
    2PC     C32  734   3.198   2.724   5.814
    2PC     H2A  735   3.140   2.634   5.795
    2PC     H2B  736   3.294   2.723   5.762
    2PC     N31  737   3.236   2.707   5.958
    2PC     C33  738   3.114   2.708   6.045
    2PC     H3A  739   3.071   2.808   6.043
    2PC     H3B  740   3.049   2.631   6.004
    2PC     H3C  741   3.138   2.682   6.148
    2PC     C34  742   3.306   2.575   5.969
    2PC     H4A  743   3.349   2.574   6.069
    2PC     H4B  744   3.236   2.491   5.961
    2PC     H4C  745   3.383   2.567   5.892
    2PC     C35  746   3.327   2.819   5.999
    2PC     H5A  747   3.420   2.821   5.942
    2PC     H5B  748   3.344   2.806   6.106
    2PC     H5C  749   3.271   2.911   5.983
    2PC     O33  750   3.293   3.194   5.759
    2PC     O34  751   3.075   3.157   5.833
    2PC     O21  752   3.104   3.118   5.284
    2PC     C21  753   3.184   3.208   5.225
    2PC     O22  754   3.305   3.201   5.222
    3OL     C12  755   3.108   3.318   5.157
    3OL     H2R  756   3.048   3.371   5.232
    3OL     H2S  757   3.037   3.272   5.088
    3OL     C13  758   3.201   3.426   5.100
    3OL     H3R  759   3.271   3.386   5.026
    3OL     H3S  760   3.258   3.475   5.179
    3OL     C14  761   3.124   3.540   5.032
    3OL     H4R  762   3.081   3.593   5.117
    3OL     H4S  763   3.042   3.503   4.970
    3OL     C15  764   3.200   3.647   4.953
    3OL     H5R  765   3.300   3.662   4.993
    3OL     H5S  766   3.146   3.741   4.964
    3OL     C16  767   3.211   3.613   4.804
    3OL     H6R  768   3.253   3.704   4.761
    3OL     H6S  769   3.107   3.608   4.771
    3OL     C17  770   3.286   3.483   4.768
    3OL     H7R  771   3.228   3.401   4.811
    3OL     H7S  772   3.375   3.473   4.830
    3OL     C18  773   3.313   3.470   4.617
    3OL     H8R  774   3.219   3.486   4.565
    3OL     H8S  775   3.354   3.376   4.581
    3OL     C19  776   3.408   3.581   4.582
    3OL     H9R  777   3.390   3.673   4.637
    3OL    C110  778   3.515   3.563   4.506
    3OL    H10R  779   3.581   3.647   4.485
    3OL    C111  780   3.535   3.446   4.413
    3OL    H11R  781   3.441   3.394   4.392
    3OL    H11S  782   3.587   3.370   4.472
    3OL    C112  783   3.618   3.496   4.294
    3OL    H12R  784   3.720   3.509   4.329
    3OL    H12S  785   3.578   3.586   4.248
    3OL    C113  786   3.603   3.384   4.190
    3OL    H13R  787   3.502   3.392   4.147
    3OL    H13S  788   3.618   3.282   4.226
    3OL    C114  789   3.695   3.408   4.069
    3OL    H14R  790   3.799   3.398   4.101
    3OL    H14S  791   3.694   3.511   4.032
    3OL    C115  792   3.661   3.310   3.956
    3OL    H15R  793   3.557   3.330   3.930
    3OL    H15S  794   3.668   3.209   3.998
    3OL    C116  795   3.757   3.317   3.837
    3OL    H16R  796   3.769   3.220   3.787
    3OL    H16S  797   3.859   3.345   3.865
    3OL    C117  798   3.730   3.434   3.742
    3OL    H17R  799   3.819   3.460   3.683
    3OL    H17S  800   3.693   3.523   3.792
    3OL    C118  801   3.611   3.400   3.651
    3OL    H18R  802   3.638   3.308   3.598
    3OL    H18S  803   3.594   3.480   3.579
    3OL    H18T  804   3.517   3.386   3.704
    1PA    C116  805   1.800   0.746   4.428
    1PA    H16R  806   1.751   0.648   4.420
    1PA    H16S  807   1.907   0.725   4.438
    1PA    H16T  808   1.785   0.811   4.342
    1PA    C115  809   1.776   0.819   4.561
    1PA    H15R  810   1.823   0.764   4.644
    1PA    H15S  811   1.826   0.916   4.567
    1PA    C114  812   1.629   0.824   4.603
    1PA    H14R  813   1.570   0.734   4.587
    1PA    H14S  814   1.626   0.847   4.710
    1PA    C113  815   1.561   0.934   4.520
    1PA    H13R  816   1.614   1.022   4.557
    1PA    H13S  817   1.580   0.918   4.414
    1PA    C112  818   1.410   0.953   4.540
    1PA    H12R  819   1.353   0.860   4.525
    1PA    H12S  820   1.397   0.977   4.646
    1PA    C111  821   1.355   1.064   4.450
    1PA    H11R  822   1.390   1.162   4.483
    1PA    H11S  823   1.375   1.042   4.345
    1PA    C110  824   1.202   1.068   4.466
    1PA    H10R  825   1.154   0.979   4.426
    1PA    H10S  826   1.179   1.063   4.573
    1PA     C19  827   1.142   1.188   4.392
    1PA     H9R  828   1.203   1.275   4.415
    1PA     H9S  829   1.146   1.173   4.284
    1PA     C18  830   0.998   1.208   4.444
    1PA     H8R  831   0.947   1.114   4.426
    1PA     H8S  832   0.998   1.223   4.552
    1PA     C17  833   0.928   1.327   4.376
    1PA     H7R  834   0.978   1.417   4.412
    1PA     H7S  835   0.936   1.322   4.267
    1PA     C16  836   0.776   1.328   4.401
    1PA     H6R  837   0.728   1.418   4.363
    1PA     H6S  838   0.740   1.238   4.349
    1PA     C15  839   0.722   1.322   4.544
    1PA     H5R  840   0.616   1.299   4.544
    1PA     H5S  841   0.760   1.237   4.600
    1PA     C14  842   0.761   1.450   4.621
    1PA     H4R  843   0.869   1.454   4.636
    1PA     H4S  844   0.745   1.538   4.560
    1PA     C13  845   0.697   1.462   4.760
    1PA     H3R  846   0.589   1.453   4.759
    1PA     H3S  847   0.737   1.380   4.820
    1PA     C12  848   0.737   1.597   4.823
    1PA     H2R  849   0.845   1.599   4.834
    1PA     H2S  850   0.700   1.675   4.756
    2PC     C11  851   0.676   1.614   4.960
    2PC     O12  852   0.574   1.555   4.992
    2PC     O11  853   0.751   1.693   5.038
    2PC      C1  854   0.718   1.715   5.176
    2PC      HR  855   0.755   1.810   5.215
    2PC      HS  856   0.610   1.701   5.181
    2PC      C2  857   0.761   1.599   5.268
    2PC      HX  858   0.720   1.506   5.230
    2PC      C3  859   0.719   1.616   5.415
    2PC      HA  860   0.803   1.658   5.471
    2PC      HB  861   0.628   1.674   5.425
    2PC     O31  862   0.686   1.485   5.465
    2PC     P31  863   0.777   1.399   5.565
    2PC     O32  864   0.737   1.486   5.693
    2PC     C31  865   0.674   1.423   5.806
    2PC     H1A  866   0.578   1.373   5.791
    2PC     H1B  867   0.737   1.343   5.845
    2PC     C32  868   0.662   1.529   5.917
    2PC     H2A  869   0.655   1.469   6.008
    2PC     H2B  870   0.756   1.581   5.934
    2PC     N31  871   0.552   1.631   5.921
    2PC     C33  872   0.548   1.701   5.788
    2PC     H3A  873   0.560   1.628   5.707
    2PC     H3B  874   0.447   1.742   5.783
    2PC     H3C  875   0.622   1.780   5.778
    2PC     C34  876   0.420   1.565   5.947
    2PC     H4A  877   0.342   1.639   5.933
    2PC     H4B  878   0.408   1.492   5.868
    2PC     H4C  879   0.414   1.516   6.044
    2PC     C35  880   0.560   1.726   6.037
    2PC     H5A  881   0.574   1.669   6.129
    2PC     H5B  882   0.473   1.789   6.055
    2PC     H5C  883   0.644   1.794   6.022
    2PC     O33  884   0.739   1.256   5.571
    2PC     O34  885   0.923   1.402   5.545
    2PC     O21  886   0.903   1.580   5.268
    2PC     C21  887   0.957   1.456   5.264
    2PC     O22  888   0.893   1.354   5.250
    3OL     C12  889   1.107   1.461   5.265
    3OL     H2R  890   1.135   1.505   5.361
    3OL     H2S  891   1.145   1.528   5.188
    3OL     C13  892   1.168   1.320   5.271
    3OL     H3R  893   1.132   1.262   5.185
    3OL     H3S  894   1.136   1.273   5.365
    3OL     C14  895   1.321   1.317   5.264
    3OL     H4R  896   1.368   1.383   5.337
    3OL     H4S  897   1.352   1.331   5.160
    3OL     C15  898   1.373   1.178   5.305
    3OL     H5R  899   1.328   1.104   5.238
    3OL     H5S  900   1.331   1.152   5.402
    3OL     C16  901   1.525   1.163   5.306
    3OL     H6R  902   1.565   1.240   5.372
    3OL     H6S  903   1.554   1.186   5.204
    3OL     C17  904   1.576   1.027   5.357
    3OL     H7R  905   1.544   1.025   5.461
    3OL     H7S  906   1.685   1.027   5.365
    3OL     C18  907   1.537   0.896   5.288
    3OL     H8R  908   1.429   0.883   5.300
    3OL     H8S  909   1.582   0.808   5.335
    3OL     C19  910   1.577   0.892   5.142
    3OL     H9R  911   1.681   0.893   5.110
    3OL    C110  912   1.487   0.885   5.045
    3OL    H10R  913   1.526   0.873   4.944
    3OL    C111  914   1.339   0.909   5.048
    3OL    H11R  915   1.321   1.001   4.992
    3OL    H11S  916   1.302   0.922   5.151
    3OL    C112  917   1.255   0.798   4.985
    3OL    H12R  918   1.150   0.829   4.992
    3OL    H12S  919   1.276   0.699   5.027
    3OL    C113  920   1.299   0.793   4.838
    3OL    H13R  921   1.391   0.736   4.828
    3OL    H13S  922   1.318   0.894   4.800
    3OL    C114  923   1.202   0.723   4.742
    3OL    H14R  924   1.234   0.735   4.638
    3OL    H14S  925   1.103   0.767   4.759
    3OL    C115  926   1.199   0.573   4.772
    3OL    H15R  927   1.175   0.551   4.877
    3OL    H15S  928   1.298   0.526   4.766
    3OL    C116  929   1.109   0.505   4.668
    3OL    H16R  930   1.167   0.514   4.576
    3OL    H16S  931   1.015   0.560   4.662
    3OL    C117  932   1.080   0.357   4.697
    3OL    H17R  933   1.032   0.357   4.795
    3OL    H17S  934   1.173   0.301   4.714
    3OL    C118  935   0.995   0.305   4.580
    3OL    H18R  936   0.906   0.368   4.582
    3OL    H18S  937   0.969   0.200   4.598
    3OL    H18T  938   1.054   0.308   4.488
    1PA    C116  939   4.646   3.373   4.119
    1PA    H16R  940   4.718   3.307   4.072
    1PA    H16S  941   4.678   3.475   4.097
    1PA    H16T  942   4.548   3.367   4.071
    1PA    C115  943   4.639   3.346   4.270
    1PA    H15R  944   4.608   3.242   4.287
    1PA    H15S  945   4.741   3.350   4.307
    1PA    C114  946   4.565   3.455   4.348
    1PA    H14R  947   4.615   3.551   4.331
    1PA    H14S  948   4.468   3.467   4.300
    1PA    C113  949   4.549   3.419   4.496
    1PA    H13R  950   4.474   3.485   4.539
    1PA    H13S  951   4.528   3.312   4.504
    1PA    C112  952   4.675   3.450   4.578
    1PA    H12R  953   4.760   3.387   4.550
    1PA    H12S  954   4.708   3.553   4.566
    1PA    C111  955   4.647   3.439   4.728
    1PA    H11R  956   4.545   3.473   4.747
    1PA    H11S  957   4.646   3.331   4.745
    1PA    C110  958   4.758   3.498   4.817
    1PA    H10R  959   4.855   3.453   4.798
    1PA    H10S  960   4.761   3.606   4.799
    1PA     C19  961   4.721   3.477   4.964
    1PA     H9R  962   4.616   3.501   4.982
    1PA     H9S  963   4.736   3.374   4.997
    1PA     C18  964   4.813   3.564   5.051
    1PA     H8R  965   4.913   3.533   5.022
    1PA     H8S  966   4.800   3.669   5.023
    1PA     C17  967   4.775   3.537   5.197
    1PA     H7R  968   4.677   3.585   5.206
    1PA     H7S  969   4.743   3.433   5.210
    1PA     C16  970   4.861   3.612   5.300
    1PA     H6R  971   4.953   3.556   5.319
    1PA     H6S  972   4.888   3.710   5.260
    1PA     C15  973   4.780   3.626   5.430
    1PA     H5R  974   4.705   3.705   5.429
    1PA     H5S  975   4.730   3.529   5.433
    1PA     C14  976   4.878   3.634   5.548
    1PA     H4R  977   4.945   3.548   5.554
    1PA     H4S  978   4.934   3.726   5.534
    1PA     C13  979   4.809   3.647   5.685
    1PA     H3R  980   4.737   3.729   5.678
    1PA     H3S  981   4.751   3.558   5.711
    1PA     C12  982   4.906   3.683   5.798
    1PA     H2R  983   4.997   3.623   5.794
    1PA     H2S  984   4.939   3.787   5.786
    2PC     C11  985   4.837   3.669   5.932
    2PC     O12  986   4.741   3.737   5.960
    2PC     O11  987   4.884   3.570   6.009
    2PC      C1  988   4.817   3.549   6.134
    2PC      HR  989   4.882   3.501   6.207
    2PC      HS  990   4.785   3.644   6.178
    2PC      C2  991   4.690   3.468   6.102
    2PC      HX  992   4.631   3.528   6.033
    2PC      C3  993   4.617   3.435   6.233
    2PC      HA  994   4.555   3.515   6.272
    2PC      HB  995   4.549   3.352   6.209
    2PC     O31  996   4.712   3.394   6.334
    2PC     P31  997   4.683   3.441   6.484
    2PC     O32  998   4.531   3.403   6.515
    2PC     C31  999   4.508   3.260   6.519
    2PC     H1A 1000   4.508   3.221   6.417
    2PC     H1B 1001   4.587   3.208   6.574
    2PC     C32 1002   4.371   3.253   6.588
    2PC     H2A 1003   4.374   3.272   6.696
    2PC     H2B 1004   4.310   3.326   6.534
    2PC     N31 1005   4.287   3.131   6.569
    2PC     C33 1006   4.341   3.016   6.650
    2PC     H3A 1007   4.437   2.984   6.608
    2PC     H3B 1008   4.364   3.050   6.751
    2PC     H3C 1009   4.275   2.934   6.624
    2PC     C34 1010   4.141   3.157   6.593
    2PC     H4A 1011   4.090   3.061   6.598
    2PC     H4B 1012   4.136   3.221   6.681
    2PC     H4C 1013   4.104   3.219   6.512
    2PC     C35 1014   4.290   3.085   6.427
    2PC     H5A 1015   4.225   2.997   6.419
    2PC     H5B 1016   4.391   3.048   6.408
    2PC     H5C 1017   4.258   3.172   6.369
    2PC     O33 1018   4.765   3.381   6.592
    2PC     O34 1019   4.705   3.587   6.486
    2PC     O21 1020   4.727   3.346   6.037
    2PC     C21 1021   4.641   3.282   5.957
    2PC     O22 1022   4.523   3.313   5.953
    3OL     C12 1023   4.705   3.172   5.875
    3OL     H2R 1024   4.632   3.093   5.857
    3OL     H2S 1025   4.790   3.129   5.927
    3OL     C13 1026   4.753   3.224   5.739
    3OL     H3R 1027   4.804   3.318   5.759
    3OL     H3S 1028   4.663   3.255   5.686
    3OL     C14 1029   4.845   3.128   5.662
    3OL     H4R 1030   4.782   3.046   5.626
    3OL     H4S 1031   4.918   3.081   5.727
    3OL     C15 1032   4.909   3.202   5.544
    3OL     H5R 1033   4.851   3.288   5.511
    3OL     H5S 1034   4.891   3.133   5.461
    3OL     C16 1035   5.054   3.252   5.559
    3OL     H6R 1036   5.110   3.159   5.569
    3OL     H6S 1037   5.070   3.317   5.645
    3OL     C17 1038   5.101   3.329   5.435
    3OL     H7R 1039   5.210   3.341   5.440
    3OL     H7S 1040   5.063   3.430   5.449
    3OL     C18 1041   5.070   3.277   5.294
    3OL     H8R 1042   5.122   3.335   5.218
    3OL     H8S 1043   4.964   3.298   5.279
    3OL     C19 1044   5.095   3.131   5.272
    3OL     H9R 1045   5.017   3.062   5.303
    3OL    C110 1046   5.190   3.076   5.196
    3OL    H10R 1047   5.181   2.969   5.184
    3OL    C111 1048   5.302   3.152   5.129
    3OL    H11R 1049   5.393   3.150   5.189
    3OL    H11S 1050   5.278   3.254   5.097
    3OL    C112 1051   5.333   3.065   5.007
    3OL    H12R 1052   5.242   3.053   4.947
    3OL    H12S 1053   5.352   2.968   5.054
    3OL    C113 1054   5.459   3.109   4.931
    3OL    H13R 1055   5.505   3.024   4.880
    3OL    H13S 1056   5.538   3.142   4.999
    3OL    C114 1057   5.429   3.220   4.830
    3OL    H14R 1058   5.414   3.307   4.894
    3OL    H14S 1059   5.341   3.198   4.770
    3OL    C115 1060   5.549   3.235   4.736
    3OL    H15R 1061   5.547   3.149   4.670
    3OL    H15S 1062   5.642   3.238   4.794
    3OL    C116 1063   5.542   3.346   4.629
    3OL    H16R 1064   5.616   3.319   4.553
    3OL    H16S 1065   5.445   3.331   4.583
    3OL    C117 1066   5.584   3.483   4.684
    3OL    H17R 1067   5.512   3.510   4.761
    3OL    H17S 1068   5.578   3.553   4.602
    3OL    C118 1069   5.724   3.488   4.749
    3OL    H18R 1070   5.721   3.425   4.838
    3OL    H18S 1071   5.798   3.451   4.679
    3OL    H18T 1072   5.741   3.593   4.774
    1PA    C116 1073   3.475   3.023   3.641
    1PA    H16R 1074   3.547   2.944   3.664
    1PA    H16S 1075   3.523   3.102   3.584
    1PA    H16T 1076   3.400   2.979   3.575
    1PA    C115 1077   3.418   3.088   3.768
    1PA    H15R 1078   3.505   3.109   3.830
    1PA    H15S 1079   3.381   3.187   3.740
    1PA    C114 1080   3.297   3.012   3.826
    1PA    H14R 1081   3.229   3.010   3.741
    1PA    H14S 1082   3.321   2.909   3.855
    1PA    C113 1083   3.229   3.078   3.946
    1PA    H13R 1084   3.194   3.179   3.924
    1PA    H13S 1085   3.144   3.019   3.980
    1PA    C112 1086   3.330   3.092   4.061
    1PA    H12R 1087   3.380   2.996   4.076
    1PA    H12S 1088   3.414   3.155   4.028
    1PA    C111 1089   3.269   3.145   4.192
    1PA    H11R 1090   3.349   3.172   4.261
    1PA    H11S 1091   3.230   3.243   4.163
    1PA    C110 1092   3.157   3.061   4.256
    1PA    H10R 1093   3.071   3.069   4.190
    1PA    H10S 1094   3.192   2.959   4.271
    1PA     C19 1095   3.121   3.125   4.391
    1PA     H9R 1096   3.116   3.234   4.379
    1PA     H9S 1097   3.019   3.093   4.413
    1PA     C18 1098   3.217   3.098   4.508
    1PA     H8R 1099   3.229   2.992   4.533
    1PA     H8S 1100   3.306   3.160   4.498
    1PA     C17 1101   3.147   3.143   4.636
    1PA     H7R 1102   3.228   3.131   4.708
    1PA     H7S 1103   3.122   3.249   4.635
    1PA     C16 1104   3.027   3.062   4.688
    1PA     H6R 1105   2.956   3.059   4.605
    1PA     H6S 1106   3.059   2.958   4.703
    1PA     C15 1107   2.969   3.121   4.817
    1PA     H5R 1108   3.041   3.119   4.898
    1PA     H5S 1109   2.949   3.227   4.798
    1PA     C14 1110   2.842   3.057   4.873
    1PA     H4R 1111   2.759   3.065   4.801
    1PA     H4S 1112   2.859   2.950   4.875
    1PA     C13 1113   2.813   3.105   5.016
    1PA     H3R 1114   2.902   3.089   5.076
    1PA     H3S 1115   2.794   3.213   5.013
    1PA     C12 1116   2.681   3.036   5.054
    1PA     H2R 1117   2.602   3.032   4.979
    1PA     H2S 1118   2.701   2.933   5.084
    2PC     C11 1119   2.628   3.113   5.172
    2PC     O12 1120   2.509   3.115   5.196
    2PC     O11 1121   2.721   3.162   5.255
    2PC      C1 1122   2.684   3.174   5.394
    2PC      HR 1123   2.602   3.246   5.401
    2PC      HS 1124   2.648   3.077   5.427
    2PC      C2 1125   2.808   3.224   5.468
    2PC      HX 1126   2.898   3.182   5.422
    2PC      C3 1127   2.804   3.162   5.608
    2PC      HA 1128   2.833   3.057   5.607
    2PC      HB 1129   2.882   3.208   5.669
    2PC     O31 1130   2.672   3.167   5.665
    2PC     P31 1131   2.633   3.296   5.752
    2PC     O32 1132   2.590   3.205   5.877
    2PC     C31 1133   2.694   3.130   5.942
    2PC     H1A 1134   2.715   3.041   5.883
    2PC     H1B 1135   2.784   3.188   5.960
    2PC     C32 1136   2.658   3.079   6.083
    2PC     H2A 1137   2.559   3.034   6.081
    2PC     H2B 1138   2.728   3.000   6.109
    2PC     N31 1139   2.656   3.183   6.191
    2PC     C33 1140   2.549   3.278   6.147
    2PC     H3A 1141   2.513   3.332   6.235
    2PC     H3B 1142   2.590   3.345   6.071
    2PC     H3C 1143   2.463   3.222   6.110
    2PC     C34 1144   2.614   3.123   6.322
    2PC     H4A 1145   2.591   3.205   6.391
    2PC     H4B 1146   2.531   3.053   6.316
    2PC     H4C 1147   2.696   3.061   6.359
    2PC     C35 1148   2.787   3.254   6.206
    2PC     H5A 1149   2.794   3.303   6.303
    2PC     H5B 1150   2.801   3.334   6.133
    2PC     H5C 1151   2.861   3.174   6.194
    2PC     O33 1152   2.749   3.380   5.789
    2PC     O34 1153   2.517   3.382   5.722
    2PC     O21 1154   2.806   3.367   5.481
    2PC     C21 1155   2.916   3.432   5.522
    2PC     O22 1156   3.019   3.373   5.548
    3OL     C12 1157   2.911   3.582   5.512
    3OL     H2R 1158   3.019   3.599   5.513
    3OL     H2S 1159   2.860   3.631   5.594
    3OL     C13 1160   2.849   3.634   5.381
    3OL     H3R 1161   2.743   3.612   5.378
    3OL     H3S 1162   2.889   3.583   5.294
    3OL     C14 1163   2.882   3.783   5.359
    3OL     H4R 1164   2.988   3.803   5.373
    3OL     H4S 1165   2.820   3.833   5.434
    3OL     C15 1166   2.845   3.825   5.217
    3OL     H5R 1167   2.738   3.819   5.193
    3OL     H5S 1168   2.897   3.771   5.138
    3OL     C16 1169   2.877   3.975   5.203
    3OL     H6R 1170   2.850   4.030   5.294
    3OL     H6S 1171   2.826   4.019   5.117
    3OL     C17 1172   3.024   4.002   5.171
    3OL     H7R 1173   3.059   3.965   5.075
    3OL     H7S 1174   3.090   3.958   5.246
    3OL     C18 1175   3.030   4.155   5.171
    3OL     H8R 1176   2.993   4.189   5.269
    3OL     H8S 1177   2.966   4.208   5.100
    3OL     C19 1178   3.169   4.213   5.165
    3OL     H9R 1179   3.238   4.202   5.248
    3OL    C110 1180   3.223   4.260   5.053
    3OL    H10R 1181   3.324   4.300   5.057
    3OL    C111 1182   3.148   4.274   4.922
    3OL    H11R 1183   3.151   4.375   4.881
    3OL    H11S 1184   3.040   4.260   4.933
    3OL    C112 1185   3.201   4.166   4.827
    3OL    H12R 1186   3.248   4.083   4.880
    3OL    H12S 1187   3.284   4.207   4.771
    3OL    C113 1188   3.098   4.116   4.724
    3OL    H13R 1189   3.072   4.198   4.658
    3OL    H13S 1190   3.012   4.093   4.787
    3OL    C114 1191   3.148   3.994   4.645
    3OL    H14R 1192   3.069   3.918   4.641
    3OL    H14S 1193   3.226   3.941   4.700
    3OL    C115 1194   3.199   4.023   4.503
    3OL    H15R 1195   3.274   4.103   4.508
    3OL    H15S 1196   3.119   4.067   4.443
    3OL    C116 1197   3.229   3.886   4.442
    3OL    H16R 1198   3.151   3.810   4.445
    3OL    H16S 1199   3.313   3.841   4.496
    3OL    C117 1200   3.275   3.887   4.295
    3OL    H17R 1201   3.285   3.779   4.277
    3OL    H17S 1202   3.369   3.936   4.272
    3OL    C118 1203   3.160   3.925   4.200
    3OL    H18R 1204   3.196   3.910   4.098
    3OL    H18S 1205   3.144   4.033   4.205
    3OL    H18T 1206   3.072   3.862   4.215
    1PA    C116 1207   3.062   1.303   4.478
    1PA    H16R 1208   3.071   1.401   4.527
    1PA    H16S 1209   3.160   1.258   4.464
    1PA    H16T 1210   2.996   1.237   4.535
    1PA    C115 1211   2.995   1.331   4.343
    1PA    H15R 1212   3.077   1.367   4.281
    1PA    H15S 1213   2.960   1.240   4.295
    1PA    C114 1214   2.881   1.432   4.358
    1PA    H14R 1215   2.794   1.403   4.300
    1PA    H14S 1216   2.835   1.444   4.457
    1PA    C113 1217   2.914   1.575   4.314
    1PA    H13R 1218   2.993   1.602   4.384
    1PA    H13S 1219   2.951   1.575   4.212
    1PA    C112 1220   2.789   1.665   4.318
    1PA    H12R 1221   2.719   1.629   4.243
    1PA    H12S 1222   2.750   1.667   4.420
    1PA    C111 1223   2.832   1.810   4.291
    1PA    H11R 1224   2.897   1.850   4.369
    1PA    H11S 1225   2.880   1.798   4.194
    1PA    C110 1226   2.716   1.908   4.269
    1PA    H10R 1227   2.750   2.010   4.248
    1PA    H10S 1228   2.654   1.871   4.187
    1PA     C19 1229   2.623   1.904   4.391
    1PA     H9R 1230   2.549   1.984   4.386
    1PA     H9S 1231   2.562   1.813   4.394
    1PA     C18 1232   2.694   1.926   4.525
    1PA     H8R 1233   2.778   1.857   4.527
    1PA     H8S 1234   2.737   2.026   4.530
    1PA     C17 1235   2.602   1.904   4.646
    1PA     H7R 1236   2.533   1.821   4.630
    1PA     H7S 1237   2.665   1.887   4.734
    1PA     C16 1238   2.512   2.024   4.675
    1PA     H6R 1239   2.467   2.064   4.584
    1PA     H6S 1240   2.432   1.986   4.739
    1PA     C15 1241   2.587   2.145   4.732
    1PA     H5R 1242   2.644   2.122   4.822
    1PA     H5S 1243   2.658   2.177   4.656
    1PA     C14 1244   2.487   2.259   4.757
    1PA     H4R 1245   2.541   2.353   4.743
    1PA     H4S 1246   2.409   2.258   4.681
    1PA     C13 1247   2.433   2.234   4.899
    1PA     H3R 1248   2.364   2.149   4.900
    1PA     H3S 1249   2.512   2.211   4.971
    1PA     C12 1250   2.374   2.356   4.972
    1PA     H2R 1251   2.448   2.435   4.968
    1PA     H2S 1252   2.296   2.403   4.912
    2PC     C11 1253   2.337   2.326   5.115
    2PC     O12 1254   2.409   2.278   5.200
    2PC     O11 1255   2.207   2.346   5.139
    2PC      C1 1256   2.164   2.332   5.276
    2PC      HR 1257   2.156   2.227   5.304
    2PC      HS 1258   2.241   2.375   5.341
    2PC      C2 1259   2.032   2.404   5.309
    2PC      HX 1260   2.034   2.507   5.273
    2PC      C3 1261   2.025   2.403   5.462
    2PC      HA 1262   2.020   2.302   5.504
    2PC      HB 1263   2.109   2.453   5.510
    2PC     O31 1264   1.908   2.480   5.497
    2PC     P31 1265   1.877   2.516   5.650
    2PC     O32 1266   1.904   2.674   5.647
    2PC     C31 1267   1.823   2.772   5.714
    2PC     H1A 1268   1.727   2.784   5.663
    2PC     H1B 1269   1.811   2.745   5.819
    2PC     C32 1270   1.880   2.912   5.690
    2PC     H2A 1271   1.890   2.922   5.581
    2PC     H2B 1272   1.806   2.983   5.727
    2PC     N31 1273   2.015   2.944   5.746
    2PC     C33 1274   2.119   2.871   5.665
    2PC     H3A 1275   2.097   2.766   5.649
    2PC     H3B 1276   2.120   2.909   5.562
    2PC     H3C 1277   2.214   2.899   5.711
    2PC     C34 1278   2.042   3.091   5.730
    2PC     H4A 1279   2.081   3.120   5.632
    2PC     H4B 1280   1.948   3.141   5.749
    2PC     H4C 1281   2.115   3.114   5.808
    2PC     C35 1282   2.021   2.912   5.892
    2PC     H5A 1283   1.947   2.974   5.943
    2PC     H5B 1284   2.124   2.933   5.920
    2PC     H5C 1285   2.000   2.806   5.903
    2PC     O33 1286   1.735   2.483   5.680
    2PC     O34 1287   1.952   2.446   5.758
    2PC     O21 1288   1.921   2.325   5.262
    2PC     C21 1289   1.800   2.380   5.239
    2PC     O22 1290   1.781   2.500   5.235
    3OL     C12 1291   1.695   2.279   5.203
    3OL     H2R 1292   1.676   2.216   5.291
    3OL     H2S 1293   1.735   2.200   5.140
    3OL     C13 1294   1.561   2.323   5.141
    3OL     H3R 1295   1.574   2.341   5.034
    3OL     H3S 1296   1.528   2.415   5.190
    3OL     C14 1297   1.452   2.220   5.169
    3OL     H4R 1298   1.410   2.255   5.264
    3OL     H4S 1299   1.485   2.119   5.194
    3OL     C15 1300   1.336   2.218   5.069
    3OL     H5R 1301   1.302   2.322   5.062
    3OL     H5S 1302   1.254   2.156   5.105
    3OL     C16 1303   1.378   2.176   4.927
    3OL     H6R 1304   1.388   2.067   4.934
    3OL     H6S 1305   1.474   2.218   4.897
    3OL     C17 1306   1.268   2.212   4.827
    3OL     H7R 1307   1.236   2.316   4.816
    3OL     H7S 1308   1.177   2.162   4.862
    3OL     C18 1309   1.304   2.173   4.683
    3OL     H8R 1310   1.325   2.066   4.676
    3OL     H8S 1311   1.398   2.219   4.653
    3OL     C19 1312   1.193   2.205   4.586
    3OL     H9R 1313   1.115   2.131   4.571
    3OL    C110 1314   1.195   2.303   4.497
    3OL    H10R 1315   1.116   2.312   4.422
    3OL    C111 1316   1.307   2.402   4.474
    3OL    H11R 1317   1.406   2.370   4.507
    3OL    H11S 1318   1.290   2.489   4.537
    3OL    C112 1319   1.318   2.441   4.326
    3OL    H12R 1320   1.230   2.498   4.293
    3OL    H12S 1321   1.341   2.357   4.260
    3OL    C113 1322   1.432   2.541   4.303
    3OL    H13R 1323   1.532   2.504   4.328
    3OL    H13S 1324   1.410   2.633   4.358
    3OL    C114 1325   1.451   2.587   4.158
    3OL    H14R 1326   1.361   2.609   4.101
    3OL    H14S 1327   1.496   2.506   4.099
    3OL    C115 1328   1.547   2.706   4.155
    3OL    H15R 1329   1.649   2.682   4.186
    3OL    H15S 1330   1.507   2.786   4.218
    3OL    C116 1331   1.567   2.769   4.016
    3OL    H16R 1332   1.474   2.794   3.965
    3OL    H16S 1333   1.626   2.695   3.961
    3OL    C117 1334   1.653   2.893   4.045
    3OL    H17R 1335   1.744   2.870   4.101
    3OL    H17S 1336   1.589   2.959   4.104
    3OL    C118 1337   1.685   2.960   3.911
    3OL    H18R 1338   1.596   3.006   3.867
    3OL    H18S 1339   1.724   2.892   3.835
    3OL    H18T 1340   1.757   3.040   3.929
    1PA    C116 1341   1.893   1.954   4.104
    1PA    H16R 1342   1.838   1.859   4.099
    1PA    H16S 1343   1.926   1.974   4.002
    1PA    H16T 1344   1.822   2.030   4.135
    1PA    C115 1345   2.008   1.966   4.206
    1PA    H15R 1346   2.094   1.918   4.160
    1PA    H15S 1347   2.022   2.075   4.208
    1PA    C114 1348   1.976   1.906   4.343
    1PA    H14R 1349   1.892   1.956   4.393
    1PA    H14S 1350   1.952   1.801   4.324
    1PA    C113 1351   2.096   1.890   4.438
    1PA    H13R 1352   2.187   1.865   4.383
    1PA    H13S 1353   2.112   1.977   4.501
    1PA    C112 1354   2.070   1.775   4.536
    1PA    H12R 1355   1.981   1.798   4.595
    1PA    H12S 1356   2.045   1.687   4.475
    1PA    C111 1357   2.186   1.742   4.630
    1PA    H11R 1358   2.284   1.752   4.583
    1PA    H11S 1359   2.178   1.811   4.714
    1PA    C110 1360   2.163   1.607   4.700
    1PA    H10R 1361   2.132   1.535   4.624
    1PA    H10S 1362   2.257   1.580   4.750
    1PA     C19 1363   2.062   1.633   4.813
    1PA     H9R 1364   2.099   1.698   4.892
    1PA     H9S 1365   1.962   1.664   4.780
    1PA     C18 1366   2.041   1.493   4.872
    1PA     H8R 1367   1.981   1.428   4.808
    1PA     H8S 1368   2.138   1.444   4.886
    1PA     C17 1369   1.972   1.499   5.009
    1PA     H7R 1370   2.031   1.546   5.088
    1PA     H7S 1371   1.892   1.573   5.005
    1PA     C16 1372   1.933   1.360   5.061
    1PA     H6R 1373   1.866   1.318   4.985
    1PA     H6S 1374   2.026   1.305   5.079
    1PA     C15 1375   1.851   1.366   5.191
    1PA     H5R 1376   1.838   1.472   5.211
    1PA     H5S 1377   1.751   1.326   5.178
    1PA     C14 1378   1.910   1.298   5.315
    1PA     H4R 1379   1.841   1.316   5.398
    1PA     H4S 1380   1.909   1.189   5.303
    1PA     C13 1381   2.045   1.362   5.351
    1PA     H3R 1382   2.113   1.336   5.270
    1PA     H3S 1383   2.039   1.470   5.368
    1PA     C12 1384   2.110   1.297   5.474
    1PA     H2R 1385   2.033   1.295   5.551
    1PA     H2S 1386   2.137   1.194   5.454
    2PC     C11 1387   2.239   1.363   5.518
    2PC     O12 1388   2.338   1.297   5.541
    2PC     O11 1389   2.230   1.496   5.531
    2PC      C1 1390   2.356   1.559   5.563
    2PC      HR 1391   2.422   1.509   5.635
    2PC      HS 1392   2.415   1.573   5.473
    2PC      C2 1393   2.327   1.704   5.606
    2PC      HX 1394   2.415   1.768   5.597
    2PC      C3 1395   2.264   1.706   5.746
    2PC      HA 1396   2.166   1.657   5.751
    2PC      HB 1397   2.324   1.641   5.810
    2PC     O31 1398   2.267   1.836   5.808
    2PC     P31 1399   2.222   1.865   5.959
    2PC     O32 1400   2.320   1.790   6.061
    2PC     C31 1401   2.431   1.866   6.114
    2PC     H1A 1402   2.492   1.890   6.027
    2PC     H1B 1403   2.411   1.959   6.168
    2PC     C32 1404   2.513   1.782   6.212
    2PC     H2A 1405   2.535   1.682   6.174
    2PC     H2B 1406   2.606   1.836   6.230
    2PC     N31 1407   2.463   1.744   6.348
    2PC     C33 1408   2.332   1.674   6.325
    2PC     H3A 1409   2.288   1.654   6.423
    2PC     H3B 1410   2.263   1.739   6.270
    2PC     H3C 1411   2.342   1.582   6.269
    2PC     C34 1412   2.565   1.663   6.422
    2PC     H4A 1413   2.511   1.640   6.514
    2PC     H4B 1414   2.590   1.573   6.364
    2PC     H4C 1415   2.657   1.716   6.445
    2PC     C35 1416   2.436   1.867   6.429
    2PC     H5A 1417   2.384   1.828   6.517
    2PC     H5B 1418   2.376   1.937   6.370
    2PC     H5C 1419   2.529   1.919   6.455
    2PC     O33 1420   2.211   2.010   5.984
    2PC     O34 1421   2.092   1.802   5.992
    2PC     O21 1422   2.230   1.767   5.520
    2PC     C21 1423   2.253   1.798   5.391
    2PC     O22 1424   2.360   1.799   5.334
    3OL     C12 1425   2.128   1.821   5.309
    3OL     H2R 1426   2.055   1.874   5.370
    3OL     H2S 1427   2.084   1.727   5.276
    3OL     C13 1428   2.163   1.919   5.195
    3OL     H3R 1429   2.230   1.874   5.122
    3OL     H3S 1430   2.217   2.002   5.241
    3OL     C14 1431   2.039   1.962   5.116
    3OL     H4R 1432   1.981   2.035   5.173
    3OL     H4S 1433   1.979   1.874   5.089
    3OL     C15 1434   2.082   2.036   4.989
    3OL     H5R 1435   2.138   1.975   4.918
    3OL     H5S 1436   2.153   2.116   5.014
    3OL     C16 1437   1.962   2.088   4.909
    3OL     H6R 1438   1.888   2.134   4.975
    3OL     H6S 1439   1.923   2.001   4.856
    3OL     C17 1440   2.009   2.194   4.809
    3OL     H7R 1441   2.037   2.145   4.715
    3OL     H7S 1442   2.099   2.249   4.839
    3OL     C18 1443   1.908   2.303   4.773
    3OL     H8R 1444   1.944   2.370   4.695
    3OL     H8S 1445   1.909   2.366   4.863
    3OL     C19 1446   1.772   2.241   4.750
    3OL     H9R 1447   1.736   2.184   4.836
    3OL    C110 1448   1.710   2.237   4.634
    3OL    H10R 1449   1.619   2.177   4.624
    3OL    C111 1450   1.740   2.330   4.519
    3OL    H11R 1451   1.769   2.430   4.552
    3OL    H11S 1452   1.650   2.359   4.465
    3OL    C112 1453   1.849   2.262   4.435
    3OL    H12R 1454   1.792   2.187   4.378
    3OL    H12S 1455   1.930   2.217   4.492
    3OL    C113 1456   1.915   2.356   4.334
    3OL    H13R 1457   2.012   2.314   4.308
    3OL    H13S 1458   1.929   2.454   4.381
    3OL    C114 1459   1.837   2.367   4.201
    3OL    H14R 1460   1.729   2.358   4.215
    3OL    H14S 1461   1.859   2.278   4.142
    3OL    C115 1462   1.860   2.496   4.120
    3OL    H15R 1463   1.862   2.582   4.187
    3OL    H15S 1464   1.786   2.506   4.041
    3OL    C116 1465   1.995   2.494   4.047
    3OL    H16R 1466   1.995   2.417   3.970
    3OL    H16S 1467   2.075   2.459   4.112
    3OL    C117 1468   2.027   2.628   3.978
    3OL    H17R 1469   1.952   2.676   3.915
    3OL    H17S 1470   2.104   2.598   3.906
    3OL    C118 1471   2.101   2.726   4.070
    3OL    H18R 1472   2.207   2.699   4.073
    3OL    H18S 1473   2.054   2.727   4.168
    3OL    H18T 1474   2.083   2.825   4.029
    1PA    C116 1475   3.419   0.194   4.436
    1PA    H16R 1476   3.398   0.107   4.499
    1PA    H16S 1477   3.520   0.222   4.464
    1PA    H16T 1478   3.417   0.181   4.327
    1PA    C115 1479   3.324   0.306   4.480
    1PA    H15R 1480   3.326   0.326   4.588
    1PA    H15S 1481   3.349   0.403   4.437
    1PA    C114 1482   3.180   0.262   4.448
    1PA    H14R 1483   3.193   0.234   4.344
    1PA    H14S 1484   3.144   0.174   4.501
    1PA    C113 1485   3.082   0.379   4.469
    1PA    H13R 1486   3.102   0.420   4.568
    1PA    H13S 1487   3.109   0.457   4.397
    1PA    C112 1488   2.937   0.337   4.445
    1PA    H12R 1489   2.931   0.287   4.349
    1PA    H12S 1490   2.903   0.265   4.520
    1PA    C111 1491   2.845   0.459   4.426
    1PA    H11R 1492   2.875   0.527   4.346
    1PA    H11S 1493   2.755   0.416   4.382
    1PA    C110 1494   2.817   0.523   4.562
    1PA    H10R 1495   2.797   0.447   4.638
    1PA    H10S 1496   2.905   0.584   4.583
    1PA     C19 1497   2.710   0.633   4.553
    1PA     H9R 1498   2.719   0.714   4.626
    1PA     H9S 1499   2.724   0.682   4.457
    1PA     C18 1500   2.569   0.574   4.567
    1PA     H8R 1501   2.555   0.479   4.514
    1PA     H8S 1502   2.545   0.558   4.672
    1PA     C17 1503   2.465   0.656   4.490
    1PA     H7R 1504   2.480   0.764   4.494
    1PA     H7S 1505   2.484   0.630   4.386
    1PA     C16 1506   2.323   0.612   4.528
    1PA     H6R 1507   2.249   0.652   4.458
    1PA     H6S 1508   2.325   0.504   4.517
    1PA     C15 1509   2.283   0.642   4.674
    1PA     H5R 1510   2.227   0.555   4.710
    1PA     H5S 1511   2.367   0.651   4.743
    1PA     C14 1512   2.192   0.763   4.696
    1PA     H4R 1513   2.090   0.741   4.665
    1PA     H4S 1514   2.183   0.761   4.805
    1PA     C13 1515   2.249   0.896   4.644
    1PA     H3R 1516   2.358   0.888   4.653
    1PA     H3S 1517   2.230   0.894   4.537
    1PA     C12 1518   2.185   1.020   4.709
    1PA     H2R 1519   2.204   1.110   4.650
    1PA     H2S 1520   2.079   0.997   4.711
    2PC     C11 1521   2.238   1.040   4.849
    2PC     O12 1522   2.199   1.128   4.923
    2PC     O11 1523   2.305   0.942   4.912
    2PC      C1 1524   2.331   0.955   5.053
    2PC      HR 1525   2.381   1.050   5.075
    2PC      HS 1526   2.253   0.927   5.124
    2PC      C2 1527   2.431   0.840   5.073
    2PC      HX 1528   2.401   0.745   5.028
    2PC      C3 1529   2.442   0.802   5.222
    2PC      HA 1530   2.507   0.872   5.275
    2PC      HB 1531   2.342   0.800   5.265
    2PC     O31 1532   2.513   0.679   5.247
    2PC     P31 1533   2.591   0.644   5.382
    2PC     O32 1534   2.480   0.655   5.497
    2PC     C31 1535   2.509   0.766   5.584
    2PC     H1A 1536   2.602   0.759   5.641
    2PC     H1B 1537   2.501   0.858   5.525
    2PC     C32 1538   2.405   0.780   5.696
    2PC     H2A 1539   2.370   0.683   5.733
    2PC     H2B 1540   2.454   0.828   5.780
    2PC     N31 1541   2.284   0.866   5.675
    2PC     C33 1542   2.191   0.842   5.789
    2PC     H3A 1543   2.174   0.735   5.784
    2PC     H3B 1544   2.228   0.880   5.885
    2PC     H3C 1545   2.105   0.905   5.764
    2PC     C34 1546   2.335   1.007   5.688
    2PC     H4A 1547   2.365   1.030   5.790
    2PC     H4B 1548   2.412   1.018   5.611
    2PC     H4C 1549   2.254   1.072   5.658
    2PC     C35 1550   2.229   0.850   5.537
    2PC     H5A 1551   2.309   0.865   5.463
    2PC     H5B 1552   2.165   0.937   5.523
    2PC     H5C 1553   2.184   0.751   5.540
    2PC     O33 1554   2.652   0.509   5.392
    2PC     O34 1555   2.703   0.740   5.400
    2PC     O21 1556   2.556   0.894   5.027
    2PC     C21 1557   2.633   0.817   4.948
    2PC     O22 1558   2.596   0.718   4.889
    3OL     C12 1559   2.773   0.873   4.937
    3OL     H2R 1560   2.831   0.780   4.937
    3OL     H2S 1561   2.778   0.913   5.038
    3OL     C13 1562   2.806   0.966   4.819
    3OL     H3R 1563   2.765   0.929   4.725
    3OL     H3S 1564   2.915   0.964   4.815
    3OL     C14 1565   2.762   1.109   4.851
    3OL     H4R 1566   2.837   1.175   4.805
    3OL     H4S 1567   2.764   1.126   4.959
    3OL     C15 1568   2.622   1.131   4.792
    3OL     H5R 1569   2.571   1.216   4.837
    3OL     H5S 1570   2.565   1.043   4.822
    3OL     C16 1571   2.624   1.139   4.638
    3OL     H6R 1572   2.522   1.111   4.611
    3OL     H6S 1573   2.690   1.069   4.586
    3OL     C17 1574   2.654   1.280   4.586
    3OL     H7R 1575   2.679   1.272   4.480
    3OL     H7S 1576   2.743   1.321   4.636
    3OL     C18 1577   2.535   1.375   4.604
    3OL     H8R 1578   2.566   1.473   4.565
    3OL     H8S 1579   2.510   1.379   4.710
    3OL     C19 1580   2.418   1.324   4.523
    3OL     H9R 1581   2.380   1.233   4.569
    3OL    C110 1582   2.375   1.369   4.407
    3OL    H10R 1583   2.291   1.327   4.353
    3OL    C111 1584   2.439   1.487   4.337
    3OL    H11R 1585   2.540   1.497   4.376
    3OL    H11S 1586   2.385   1.578   4.365
    3OL    C112 1587   2.439   1.477   4.184
    3OL    H12R 1588   2.520   1.406   4.160
    3OL    H12S 1589   2.477   1.571   4.144
    3OL    C113 1590   2.305   1.444   4.118
    3OL    H13R 1591   2.226   1.514   4.146
    3OL    H13S 1592   2.275   1.340   4.133
    3OL    C114 1593   2.333   1.435   3.967
    3OL    H14R 1594   2.340   1.331   3.937
    3OL    H14S 1595   2.431   1.475   3.942
    3OL    C115 1596   2.234   1.505   3.872
    3OL    H15R 1597   2.254   1.613   3.867
    3OL    H15S 1598   2.134   1.501   3.915
    3OL    C116 1599   2.226   1.443   3.732
    3OL    H16R 1600   2.326   1.438   3.690
    3OL    H16S 1601   2.156   1.492   3.663
    3OL    C117 1602   2.180   1.297   3.735
    3OL    H17R 1603   2.087   1.281   3.789
    3OL    H17S 1604   2.261   1.247   3.789
    3OL    C118 1605   2.172   1.228   3.598
    3OL    H18R 1606   2.259   1.243   3.533
    3OL    H18S 1607   2.093   1.273   3.538
    3OL    H18T 1608   2.144   1.123   3.599
    1PA    C116 1609   0.315   5.957   3.824
    1PA    H16R 1610   0.356   6.050   3.782
    1PA    H16S 1611   0.208   5.973   3.811
    1PA    H16T 1612   0.350   5.873   3.763
    1PA    C115 1613   0.360   5.937   3.969
    1PA    H15R 1614   0.469   5.929   3.975
    1PA    H15S 1615   0.325   6.026   4.021
    1PA    C114 1616   0.284   5.814   4.023
    1PA    H14R 1617   0.177   5.834   4.025
    1PA    H14S 1618   0.296   5.731   3.953
    1PA    C113 1619   0.323   5.770   4.164
    1PA    H13R 1620   0.360   5.858   4.216
    1PA    H13S 1621   0.239   5.724   4.217
    1PA    C112 1622   0.446   5.678   4.175
    1PA    H12R 1623   0.426   5.592   4.112
    1PA    H12S 1624   0.535   5.727   4.136
    1PA    C111 1625   0.470   5.623   4.317
    1PA    H11R 1626   0.572   5.582   4.318
    1PA    H11S 1627   0.473   5.710   4.382
    1PA    C110 1628   0.369   5.516   4.362
    1PA    H10R 1629   0.270   5.559   4.378
    1PA    H10S 1630   0.362   5.443   4.282
    1PA     C19 1631   0.406   5.452   4.497
    1PA     H9R 1632   0.429   5.535   4.563
    1PA     H9S 1633   0.318   5.405   4.541
    1PA     C18 1634   0.517   5.347   4.488
    1PA     H8R 1635   0.491   5.255   4.435
    1PA     H8S 1636   0.598   5.387   4.428
    1PA     C17 1637   0.575   5.322   4.628
    1PA     H7R 1638   0.676   5.282   4.616
    1PA     H7S 1639   0.594   5.418   4.678
    1PA     C16 1640   0.495   5.220   4.710
    1PA     H6R 1641   0.401   5.268   4.739
    1PA     H6S 1642   0.473   5.130   4.654
    1PA     C15 1643   0.573   5.192   4.840
    1PA     H5R 1644   0.668   5.140   4.826
    1PA     H5S 1645   0.579   5.283   4.900
    1PA     C14 1646   0.498   5.085   4.921
    1PA     H4R 1647   0.392   5.110   4.927
    1PA     H4S 1648   0.495   4.983   4.880
    1PA     C13 1649   0.560   5.070   5.061
    1PA     H3R 1650   0.664   5.041   5.049
    1PA     H3S 1651   0.560   5.171   5.104
    1PA     C12 1652   0.476   4.972   5.145
    1PA     H2R 1653   0.369   4.994   5.141
    1PA     H2S 1654   0.491   4.874   5.100
    2PC     C11 1655   0.512   4.972   5.291
    2PC     O12 1656   0.468   5.057   5.364
    2PC     O11 1657   0.574   4.861   5.334
    2PC      C1 1658   0.576   4.845   5.477
    2PC      HR 1659   0.611   4.929   5.538
    2PC      HS 1660   0.475   4.843   5.518
    2PC      C2 1661   0.636   4.708   5.511
    2PC      HX 1662   0.588   4.636   5.444
    2PC      C3 1663   0.596   4.676   5.655
    2PC      HA 1664   0.492   4.642   5.654
    2PC      HB 1665   0.655   4.593   5.696
    2PC     O31 1666   0.617   4.786   5.746
    2PC     P31 1667   0.555   4.769   5.893
    2PC     O32 1668   0.548   4.914   5.960
    2PC     C31 1669   0.623   5.020   5.898
    2PC     H1A 1670   0.714   4.984   5.850
    2PC     H1B 1671   0.553   5.076   5.835
    2PC     C32 1672   0.659   5.113   6.015
    2PC     H2A 1673   0.684   5.213   5.979
    2PC     H2B 1674   0.562   5.119   6.066
    2PC     N31 1675   0.766   5.064   6.107
    2PC     C33 1676   0.779   5.162   6.219
    2PC     H3A 1677   0.680   5.180   6.262
    2PC     H3B 1678   0.847   5.121   6.294
    2PC     H3C 1679   0.826   5.253   6.182
    2PC     C34 1680   0.741   4.925   6.158
    2PC     H4A 1681   0.740   4.854   6.076
    2PC     H4B 1682   0.825   4.911   6.227
    2PC     H4C 1683   0.646   4.931   6.210
    2PC     C35 1684   0.898   5.059   6.035
    2PC     H5A 1685   0.968   4.997   6.092
    2PC     H5B 1686   0.940   5.159   6.025
    2PC     H5C 1687   0.894   5.006   5.940
    2PC     O33 1688   0.423   4.703   5.880
    2PC     O34 1689   0.652   4.684   5.966
    2PC     O21 1690   0.777   4.725   5.488
    2PC     C21 1691   0.856   4.616   5.497
    2PC     O22 1692   0.808   4.505   5.502
    3OL     C12 1693   0.993   4.645   5.551
    3OL     H2R 1694   1.001   4.589   5.645
    3OL     H2S 1695   1.009   4.749   5.582
    3OL     C13 1696   1.115   4.607   5.466
    3OL     H3R 1697   1.098   4.506   5.428
    3OL     H3S 1698   1.210   4.601   5.520
    3OL     C14 1699   1.128   4.691   5.338
    3OL     H4R 1700   1.176   4.785   5.367
    3OL     H4S 1701   1.033   4.700   5.284
    3OL     C15 1702   1.232   4.622   5.249
    3OL     H5R 1703   1.182   4.542   5.195
    3OL     H5S 1704   1.308   4.573   5.310
    3OL     C16 1705   1.301   4.713   5.147
    3OL     H6R 1706   1.362   4.786   5.201
    3OL     H6S 1707   1.221   4.759   5.088
    3OL     C17 1708   1.368   4.627   5.039
    3OL     H7R 1709   1.294   4.577   4.977
    3OL     H7S 1710   1.448   4.566   5.081
    3OL     C18 1711   1.442   4.719   4.941
    3OL     H8R 1712   1.511   4.776   5.003
    3OL     H8S 1713   1.372   4.794   4.902
    3OL     C19 1714   1.513   4.659   4.823
    3OL     H9R 1715   1.611   4.616   4.839
    3OL    C110 1716   1.470   4.638   4.699
    3OL    H10R 1717   1.528   4.580   4.628
    3OL    C111 1718   1.336   4.675   4.641
    3OL    H11R 1719   1.264   4.716   4.713
    3OL    H11S 1720   1.298   4.582   4.599
    3OL    C112 1721   1.351   4.775   4.526
    3OL    H12R 1722   1.431   4.751   4.456
    3OL    H12S 1723   1.375   4.873   4.568
    3OL    C113 1724   1.220   4.771   4.446
    3OL    H13R 1725   1.130   4.794   4.503
    3OL    H13S 1726   1.204   4.670   4.408
    3OL    C114 1727   1.236   4.865   4.326
    3OL    H14R 1728   1.331   4.858   4.272
    3OL    H14S 1729   1.240   4.966   4.368
    3OL    C115 1730   1.120   4.861   4.226
    3OL    H15R 1731   1.027   4.887   4.276
    3OL    H15S 1732   1.109   4.760   4.184
    3OL    C116 1733   1.133   4.956   4.106
    3OL    H16R 1734   1.204   4.920   4.031
    3OL    H16S 1735   1.163   5.052   4.149
    3OL    C117 1736   0.997   4.987   4.043
    3OL    H17R 1737   0.937   5.051   4.108
    3OL    H17S 1738   0.940   4.894   4.032
    3OL    C118 1739   0.994   5.057   3.907
    3OL    H18R 1740   0.890   5.059   3.874
    3OL    H18S 1741   1.066   5.022   3.833
    3OL    H18T 1742   1.029   5.159   3.925
    1PA    C116 1743   2.609   3.799   4.512
    1PA    H16R 1744   2.533   3.866   4.472
    1PA    H16S 1745   2.649   3.838   4.606
    1PA    H16T 1746   2.549   3.709   4.528
    1PA    C115 1747   2.727   3.777   4.416
    1PA    H15R 1748   2.784   3.692   4.454
    1PA    H15S 1749   2.680   3.749   4.322
    1PA    C114 1750   2.820   3.899   4.403
    1PA    H14R 1751   2.849   3.946   4.498
    1PA    H14S 1752   2.909   3.857   4.355
    1PA    C113 1753   2.768   4.000   4.300
    1PA    H13R 1754   2.857   4.045   4.255
    1PA    H13S 1755   2.713   3.961   4.214
    1PA    C112 1756   2.698   4.119   4.366
    1PA    H12R 1757   2.626   4.161   4.296
    1PA    H12S 1758   2.645   4.074   4.451
    1PA    C111 1759   2.794   4.232   4.408
    1PA    H11R 1760   2.876   4.190   4.467
    1PA    H11S 1761   2.825   4.287   4.319
    1PA    C110 1762   2.728   4.344   4.489
    1PA    H10R 1763   2.802   4.424   4.498
    1PA    H10S 1764   2.642   4.392   4.442
    1PA     C19 1765   2.687   4.310   4.633
    1PA     H9R 1766   2.636   4.393   4.683
    1PA     H9S 1767   2.608   4.235   4.629
    1PA     C18 1768   2.799   4.268   4.728
    1PA     H8R 1769   2.845   4.176   4.692
    1PA     H8S 1770   2.886   4.334   4.735
    1PA     C17 1771   2.747   4.245   4.871
    1PA     H7R 1772   2.645   4.207   4.866
    1PA     H7S 1773   2.814   4.174   4.919
    1PA     C16 1774   2.747   4.380   4.943
    1PA     H6R 1775   2.850   4.416   4.950
    1PA     H6S 1776   2.696   4.447   4.874
    1PA     C15 1777   2.675   4.372   5.079
    1PA     H5R 1778   2.575   4.328   5.074
    1PA     H5S 1779   2.738   4.306   5.139
    1PA     C14 1780   2.657   4.507   5.151
    1PA     H4R 1781   2.757   4.546   5.168
    1PA     H4S 1782   2.605   4.585   5.095
    1PA     C13 1783   2.597   4.486   5.291
    1PA     H3R 1784   2.531   4.568   5.318
    1PA     H3S 1785   2.528   4.400   5.293
    1PA     C12 1786   2.704   4.465   5.398
    1PA     H2R 1787   2.771   4.386   5.364
    1PA     H2S 1788   2.768   4.554   5.404
    2PC     C11 1789   2.645   4.444   5.535
    2PC     O12 1790   2.623   4.533   5.615
    2PC     O11 1791   2.635   4.313   5.564
    2PC      C1 1792   2.584   4.279   5.694
    2PC      HR 1793   2.610   4.176   5.720
    2PC      HS 1794   2.622   4.348   5.770
    2PC      C2 1795   2.431   4.281   5.690
    2PC      HX 1796   2.396   4.379   5.653
    2PC      C3 1797   2.369   4.258   5.828
    2PC      HA 1798   2.397   4.342   5.892
    2PC      HB 1799   2.259   4.256   5.824
    2PC     O31 1800   2.419   4.139   5.893
    2PC     P31 1801   2.371   4.094   6.039
    2PC     O32 1802   2.251   3.988   6.047
    2PC     C31 1803   2.260   3.856   5.992
    2PC     H1A 1804   2.351   3.820   6.041
    2PC     H1B 1805   2.168   3.799   6.012
    2PC     C32 1806   2.282   3.871   5.841
    2PC     H2A 1807   2.197   3.921   5.794
    2PC     H2B 1808   2.363   3.943   5.829
    2PC     N31 1809   2.312   3.748   5.761
    2PC     C33 1810   2.440   3.687   5.811
    2PC     H3A 1811   2.460   3.584   5.781
    2PC     H3B 1812   2.517   3.757   5.777
    2PC     H3C 1813   2.422   3.681   5.919
    2PC     C34 1814   2.196   3.656   5.786
    2PC     H4A 1815   2.175   3.638   5.891
    2PC     H4B 1816   2.102   3.680   5.736
    2PC     H4C 1817   2.224   3.556   5.753
    2PC     C35 1818   2.321   3.781   5.615
    2PC     H5A 1819   2.366   3.697   5.562
    2PC     H5B 1820   2.377   3.874   5.608
    2PC     H5C 1821   2.219   3.787   5.577
    2PC     O33 1822   2.495   4.036   6.095
    2PC     O34 1823   2.354   4.202   6.139
    2PC     O21 1824   2.385   4.176   5.603
    2PC     C21 1825   2.378   4.210   5.473
    2PC     O22 1826   2.342   4.318   5.432
    3OL     C12 1827   2.398   4.094   5.379
    3OL     H2R 1828   2.360   4.004   5.428
    3OL     H2S 1829   2.505   4.072   5.372
    3OL     C13 1830   2.329   4.118   5.245
    3OL     H3R 1831   2.371   4.207   5.196
    3OL     H3S 1832   2.224   4.134   5.268
    3OL     C14 1833   2.334   3.991   5.159
    3OL     H4R 1834   2.280   4.008   5.066
    3OL     H4S 1835   2.294   3.905   5.214
    3OL     C15 1836   2.477   3.949   5.123
    3OL     H5R 1837   2.537   3.951   5.214
    3OL     H5S 1838   2.514   4.025   5.053
    3OL     C16 1839   2.495   3.814   5.052
    3OL     H6R 1840   2.491   3.734   5.126
    3OL     H6S 1841   2.596   3.811   5.010
    3OL     C17 1842   2.396   3.781   4.940
    3OL     H7R 1843   2.292   3.793   4.969
    3OL     H7S 1844   2.423   3.679   4.909
    3OL     C18 1845   2.426   3.863   4.813
    3OL     H8R 1846   2.530   3.836   4.797
    3OL     H8S 1847   2.435   3.969   4.841
    3OL     C19 1848   2.332   3.828   4.701
    3OL     H9R 1849   2.312   3.723   4.678
    3OL    C110 1850   2.275   3.917   4.622
    3OL    H10R 1851   2.209   3.889   4.540
    3OL    C111 1852   2.281   4.066   4.648
    3OL    H11R 1853   2.261   4.126   4.559
    3OL    H11S 1854   2.381   4.091   4.684
    3OL    C112 1855   2.181   4.117   4.752
    3OL    H12R 1856   2.208   4.069   4.846
    3OL    H12S 1857   2.085   4.087   4.710
    3OL    C113 1858   2.194   4.270   4.763
    3OL    H13R 1859   2.109   4.299   4.824
    3OL    H13S 1860   2.184   4.316   4.665
    3OL    C114 1861   2.325   4.299   4.838
    3OL    H14R 1862   2.412   4.276   4.776
    3OL    H14S 1863   2.333   4.249   4.935
    3OL    C115 1864   2.345   4.449   4.861
    3OL    H15R 1865   2.340   4.490   4.760
    3OL    H15S 1866   2.439   4.467   4.913
    3OL    C116 1867   2.229   4.513   4.939
    3OL    H16R 1868   2.132   4.480   4.901
    3OL    H16S 1869   2.224   4.621   4.929
    3OL    C117 1870   2.237   4.479   5.089
    3OL    H17R 1871   2.331   4.527   5.117
    3OL    H17S 1872   2.237   4.371   5.106
    3OL    C118 1873   2.127   4.544   5.174
    3OL    H18R 1874   2.100   4.647   5.152
    3OL    H18S 1875   2.161   4.537   5.278
    3OL    H18T 1876   2.037   4.484   5.159
    1PA    C116 1877   4.706   1.430   4.035
    1PA    H16R 1878   4.781   1.404   4.110
    1PA    H16S 1879   4.733   1.372   3.946
    1PA    H16T 1880   4.609   1.399   4.075
    1PA    C115 1881   4.730   1.580   4.012
    1PA    H15R 1882   4.830   1.594   3.972
    1PA    H15S 1883   4.670   1.627   3.933
    1PA    C114 1884   4.725   1.655   4.145
    1PA    H14R 1885   4.783   1.608   4.225
    1PA    H14S 1886   4.779   1.749   4.133
    1PA    C113 1887   4.583   1.695   4.189
    1PA    H13R 1888   4.545   1.764   4.114
    1PA    H13S 1889   4.511   1.614   4.194
    1PA    C112 1890   4.594   1.767   4.325
    1PA    H12R 1891   4.605   1.690   4.402
    1PA    H12S 1892   4.682   1.831   4.320
    1PA    C111 1893   4.461   1.837   4.353
    1PA    H11R 1894   4.419   1.895   4.270
    1PA    H11S 1895   4.394   1.756   4.381
    1PA    C110 1896   4.471   1.933   4.472
    1PA    H10R 1897   4.505   2.031   4.438
    1PA    H10S 1898   4.369   1.946   4.509
    1PA     C19 1899   4.542   1.884   4.599
    1PA     H9R 1900   4.518   1.778   4.602
    1PA     H9S 1901   4.650   1.899   4.592
    1PA     C18 1902   4.480   1.953   4.722
    1PA     H8R 1903   4.510   2.055   4.746
    1PA     H8S 1904   4.373   1.965   4.704
    1PA     C17 1905   4.495   1.865   4.847
    1PA     H7R 1906   4.440   1.775   4.820
    1PA     H7S 1907   4.596   1.842   4.882
    1PA     C16 1908   4.408   1.935   4.953
    1PA     H6R 1909   4.446   2.037   4.953
    1PA     H6S 1910   4.308   1.958   4.916
    1PA     C15 1911   4.412   1.864   5.089
    1PA     H5R 1912   4.516   1.831   5.098
    1PA     H5S 1913   4.383   1.929   5.172
    1PA     C14 1914   4.313   1.746   5.090
    1PA     H4R 1915   4.224   1.786   5.042
    1PA     H4S 1916   4.352   1.678   5.014
    1PA     C13 1917   4.282   1.698   5.232
    1PA     H3R 1918   4.373   1.673   5.288
    1PA     H3S 1919   4.228   1.778   5.284
    1PA     C12 1920   4.187   1.578   5.246
    1PA     H2R 1921   4.089   1.609   5.208
    1PA     H2S 1922   4.217   1.501   5.174
    2PC     C11 1923   4.170   1.510   5.379
    2PC     O12 1924   4.208   1.553   5.486
    2PC     O11 1925   4.101   1.395   5.366
    2PC      C1 1926   4.069   1.326   5.488
    2PC      HR 1927   4.154   1.314   5.555
    2PC      HS 1928   4.001   1.385   5.550
    2PC      C2 1929   4.005   1.192   5.449
    2PC      HX 1930   3.918   1.213   5.386
    2PC      C3 1931   3.981   1.105   5.573
    2PC      HA 1932   3.892   1.143   5.623
    2PC      HB 1933   3.944   1.005   5.548
    2PC     O31 1934   4.100   1.103   5.653
    2PC     P31 1935   4.122   1.015   5.785
    2PC     O32 1936   4.168   0.872   5.731
    2PC     C31 1937   4.071   0.766   5.725
    2PC     H1A 1938   3.980   0.794   5.672
    2PC     H1B 1939   4.124   0.689   5.669
    2PC     C32 1940   4.027   0.703   5.858
    2PC     H2A 1941   3.970   0.783   5.907
    2PC     H2B 1942   3.965   0.615   5.841
    2PC     N31 1943   4.131   0.664   5.959
    2PC     C33 1944   4.199   0.784   6.016
    2PC     H3A 1945   4.241   0.760   6.113
    2PC     H3B 1946   4.275   0.816   5.945
    2PC     H3C 1947   4.123   0.863   6.018
    2PC     C34 1948   4.080   0.583   6.074
    2PC     H4A 1949   4.161   0.536   6.130
    2PC     H4B 1950   4.024   0.647   6.143
    2PC     H4C 1951   4.034   0.493   6.032
    2PC     C35 1952   4.245   0.590   5.897
    2PC     H5A 1953   4.293   0.640   5.813
    2PC     H5B 1954   4.221   0.489   5.862
    2PC     H5C 1955   4.320   0.585   5.976
    2PC     O33 1956   4.234   1.074   5.862
    2PC     O34 1957   4.015   1.016   5.887
    2PC     O21 1958   4.098   1.118   5.368
    2PC     C21 1959   4.063   1.004   5.306
    2PC     O22 1960   3.956   0.947   5.314
    3OL     C12 1961   4.176   0.948   5.224
    3OL     H2R 1962   4.250   0.903   5.290
    3OL     H2S 1963   4.233   1.034   5.188
    3OL     C13 1964   4.136   0.869   5.098
    3OL     H3R 1965   4.046   0.910   5.051
    3OL     H3S 1966   4.118   0.766   5.130
    3OL     C14 1967   4.250   0.873   4.996
    3OL     H4R 1968   4.345   0.869   5.048
    3OL     H4S 1969   4.235   0.967   4.943
    3OL     C15 1970   4.244   0.751   4.903
    3OL     H5R 1971   4.225   0.653   4.948
    3OL     H5S 1972   4.342   0.742   4.855
    3OL     C16 1973   4.137   0.769   4.795
    3OL     H6R 1974   4.150   0.868   4.751
    3OL     H6S 1975   4.034   0.766   4.830
    3OL     C17 1976   4.154   0.673   4.676
    3OL     H7R 1977   4.066   0.680   4.612
    3OL     H7S 1978   4.168   0.570   4.707
    3OL     C18 1979   4.282   0.697   4.595
    3OL     H8R 1980   4.371   0.690   4.658
    3OL     H8S 1981   4.274   0.793   4.545
    3OL     C19 1982   4.293   0.596   4.483
    3OL     H9R 1983   4.228   0.609   4.397
    3OL    C110 1984   4.390   0.507   4.469
    3OL    H10R 1985   4.380   0.434   4.389
    3OL    C111 1986   4.504   0.476   4.563
    3OL    H11R 1987   4.494   0.369   4.585
    3OL    H11S 1988   4.495   0.526   4.660
    3OL    C112 1989   4.634   0.504   4.487
    3OL    H12R 1990   4.718   0.495   4.557
    3OL    H12S 1991   4.631   0.605   4.448
    3OL    C113 1992   4.650   0.402   4.373
    3OL    H13R 1993   4.574   0.427   4.298
    3OL    H13S 1994   4.634   0.299   4.405
    3OL    C114 1995   4.787   0.405   4.305
    3OL    H14R 1996   4.798   0.326   4.231
    3OL    H14S 1997   4.868   0.384   4.376
    3OL    C115 1998   4.818   0.546   4.253
    3OL    H15R 1999   4.804   0.620   4.333
    3OL    H15S 2000   4.743   0.568   4.176
    3OL    C116 2001   4.960   0.552   4.196
    3OL    H16R 2002   4.975   0.458   4.142
    3OL    H16S 2003   5.022   0.550   4.286
    3OL    C117 2004   4.978   0.683   4.118
    3OL    H17R 2005   4.970   0.764   4.191
    3OL    H17S 2006   4.909   0.688   4.034
    3OL    C118 2007   5.121   0.698   4.064
    3OL    H18R 2008   5.144   0.804   4.049
    3OL    H18S 2009   5.134   0.644   3.970
    3OL    H18T 2010   5.194   0.675   4.141
    1PA    C116 2011   3.864   3.853   4.089
    1PA    H16R 2012   3.785   3.796   4.137
    1PA    H16S 2013   3.950   3.787   4.074
    1PA    H16T 2014   3.833   3.899   3.995
    1PA    C115 2015   3.916   3.968   4.177
    1PA    H15R 2016   4.003   4.004   4.123
    1PA    H15S 2017   3.840   4.046   4.183
    1PA    C114 2018   3.947   3.916   4.318
    1PA    H14R 2019   3.849   3.895   4.361
    1PA    H14S 2020   4.008   3.825   4.311
    1PA    C113 2021   4.017   4.018   4.409
    1PA    H13R 2022   4.124   4.018   4.385
    1PA    H13S 2023   3.976   4.116   4.384
    1PA    C112 2024   4.009   3.992   4.560
    1PA    H12R 2025   3.905   4.003   4.592
    1PA    H12S 2026   4.053   3.895   4.581
    1PA    C111 2027   4.098   4.099   4.625
    1PA    H11R 2028   4.196   4.092   4.577
    1PA    H11S 2029   4.056   4.198   4.608
    1PA    C110 2030   4.100   4.067   4.775
    1PA    H10R 2031   4.006   4.065   4.830
    1PA    H10S 2032   4.136   3.964   4.772
    1PA     C19 2033   4.200   4.161   4.843
    1PA     H9R 2034   4.303   4.154   4.806
    1PA     H9S 2035   4.169   4.265   4.828
    1PA     C18 2036   4.205   4.127   4.993
    1PA     H8R 2037   4.100   4.130   5.024
    1PA     H8S 2038   4.239   4.025   5.011
    1PA     C17 2039   4.291   4.225   5.074
    1PA     H7R 2040   4.394   4.209   5.039
    1PA     H7S 2041   4.264   4.329   5.056
    1PA     C16 2042   4.262   4.196   5.222
    1PA     H6R 2043   4.154   4.194   5.239
    1PA     H6S 2044   4.291   4.094   5.251
    1PA     C15 2045   4.333   4.305   5.302
    1PA     H5R 2046   4.442   4.299   5.304
    1PA     H5S 2047   4.310   4.400   5.254
    1PA     C14 2048   4.288   4.323   5.448
    1PA     H4R 2049   4.306   4.429   5.469
    1PA     H4S 2050   4.187   4.285   5.465
    1PA     C13 2051   4.374   4.236   5.540
    1PA     H3R 2052   4.367   4.135   5.498
    1PA     H3S 2053   4.477   4.271   5.532
    1PA     C12 2054   4.327   4.237   5.686
    1PA     H2R 2055   4.384   4.311   5.743
    1PA     H2S 2056   4.220   4.258   5.685
    2PC     C11 2057   4.356   4.111   5.764
    2PC     O12 2058   4.296   4.066   5.860
    2PC     O11 2059   4.464   4.044   5.721
    2PC      C1 2060   4.503   3.916   5.775
    2PC      HR 2061   4.588   3.876   5.719
    2PC      HS 2062   4.526   3.912   5.882
    2PC      C2 2063   4.401   3.809   5.734
    2PC      HX 2064   4.299   3.847   5.729
    2PC      C3 2065   4.407   3.684   5.824
    2PC      HA 2066   4.507   3.641   5.812
    2PC      HB 2067   4.411   3.702   5.932
    2PC     O31 2068   4.301   3.596   5.785
    2PC     P31 2069   4.146   3.624   5.816
    2PC     O32 2070   4.122   3.501   5.915
    2PC     C31 2071   4.090   3.372   5.859
    2PC     H1A 2072   4.051   3.386   5.758
    2PC     H1B 2073   4.188   3.326   5.844
    2PC     C32 2074   3.988   3.297   5.944
    2PC     H2A 2075   3.990   3.188   5.936
    2PC     H2B 2076   4.011   3.322   6.048
    2PC     N31 2077   3.844   3.336   5.929
    2PC     C33 2078   3.788   3.296   5.796
    2PC     H3A 2079   3.796   3.377   5.724
    2PC     H3B 2080   3.851   3.210   5.772
    2PC     H3C 2081   3.683   3.266   5.807
    2PC     C34 2082   3.777   3.262   6.041
    2PC     H4A 2083   3.795   3.156   6.021
    2PC     H4B 2084   3.823   3.288   6.136
    2PC     H4C 2085   3.669   3.278   6.039
    2PC     C35 2086   3.817   3.482   5.943
    2PC     H5A 2087   3.708   3.490   5.948
    2PC     H5B 2088   3.857   3.532   5.854
    2PC     H5C 2089   3.850   3.517   6.040
    2PC     O33 2090   4.139   3.747   5.898
    2PC     O34 2091   4.047   3.642   5.707
    2PC     O21 2092   4.437   3.760   5.603
    2PC     C21 2093   4.377   3.809   5.494
    2PC     O22 2094   4.279   3.881   5.500
    3OL     C12 2095   4.437   3.750   5.369
    3OL     H2R 2096   4.451   3.643   5.386
    3OL     H2S 2097   4.535   3.798   5.361
    3OL     C13 2098   4.348   3.768   5.245
    3OL     H3R 2099   4.346   3.872   5.211
    3OL     H3S 2100   4.242   3.753   5.265
    3OL     C14 2101   4.400   3.691   5.123
    3OL     H4R 2102   4.397   3.583   5.143
    3OL     H4S 2103   4.500   3.728   5.099
    3OL     C15 2104   4.313   3.731   5.004
    3OL     H5R 2105   4.323   3.839   4.991
    3OL     H5S 2106   4.210   3.694   5.008
    3OL     C16 2107   4.379   3.658   4.886
    3OL     H6R 2108   4.378   3.552   4.909
    3OL     H6S 2109   4.483   3.691   4.881
    3OL     C17 2110   4.299   3.686   4.758
    3OL     H7R 2111   4.363   3.661   4.673
    3OL     H7S 2112   4.273   3.791   4.743
    3OL     C18 2113   4.174   3.602   4.729
    3OL     H8R 2114   4.127   3.646   4.641
    3OL     H8S 2115   4.115   3.616   4.820
    3OL     C19 2116   4.210   3.457   4.714
    3OL     H9R 2117   4.268   3.410   4.793
    3OL    C110 2118   4.171   3.381   4.612
    3OL    H10R 2119   4.204   3.277   4.609
    3OL    C111 2120   4.083   3.414   4.495
    3OL    H11R 2121   4.004   3.484   4.522
    3OL    H11S 2122   4.040   3.325   4.449
    3OL    C112 2123   4.172   3.464   4.380
    3OL    H12R 2124   4.256   3.399   4.356
    3OL    H12S 2125   4.210   3.558   4.421
    3OL    C113 2126   4.086   3.501   4.259
    3OL    H13R 2127   4.030   3.592   4.282
    3OL    H13S 2128   4.011   3.424   4.241
    3OL    C114 2129   4.161   3.527   4.127
    3OL    H14R 2130   4.249   3.591   4.132
    3OL    H14S 2131   4.090   3.578   4.061
    3OL    C115 2132   4.200   3.397   4.056
    3OL    H15R 2133   4.109   3.347   4.021
    3OL    H15S 2134   4.248   3.336   4.133
    3OL    C116 2135   4.286   3.430   3.933
    3OL    H16R 2136   4.385   3.469   3.958
    3OL    H16S 2137   4.244   3.497   3.858
    3OL    C117 2138   4.314   3.300   3.856
    3OL    H17R 2139   4.216   3.265   3.822
    3OL    H17S 2140   4.355   3.225   3.924
    3OL    C118 2141   4.405   3.318   3.734
    3OL    H18R 2142   4.443   3.220   3.703
    3OL    H18S 2143   4.496   3.376   3.754
    3OL    H18T 2144   4.356   3.356   3.645
    1PA    C116 2145   4.750   1.987   3.811
    1PA    H16R 2146   4.840   1.995   3.751
    1PA    H16S 2147   4.696   2.081   3.800
    1PA    H16T 2148   4.671   1.914   3.790
    1PA    C115 2149   4.798   1.948   3.952
    1PA    H15R 2150   4.709   1.960   4.014
    1PA    H15S 2151   4.834   1.845   3.950
    1PA    C114 2152   4.910   2.045   3.989
    1PA    H14R 2153   4.879   2.146   3.960
    1PA    H14S 2154   4.923   2.043   4.097
    1PA    C113 2155   5.046   2.014   3.923
    1PA    H13R 2156   5.066   1.907   3.927
    1PA    H13S 2157   5.040   2.022   3.815
    1PA    C112 2158   5.160   2.101   3.978
    1PA    H12R 2159   5.247   2.094   3.912
    1PA    H12S 2160   5.132   2.207   3.971
    1PA    C111 2161   5.203   2.061   4.119
    1PA    H11R 2162   5.113   2.051   4.181
    1PA    H11S 2163   5.241   1.958   4.114
    1PA    C110 2164   5.306   2.154   4.183
    1PA    H10R 2165   5.395   2.141   4.121
    1PA    H10S 2166   5.279   2.257   4.160
    1PA     C19 2167   5.331   2.123   4.331
    1PA     H9R 2168   5.245   2.078   4.382
    1PA     H9S 2169   5.410   2.048   4.327
    1PA     C18 2170   5.381   2.247   4.406
    1PA     H8R 2171   5.464   2.279   4.343
    1PA     H8S 2172   5.306   2.325   4.421
    1PA     C17 2173   5.423   2.208   4.549
    1PA     H7R 2174   5.346   2.144   4.594
    1PA     H7S 2175   5.503   2.135   4.536
    1PA     C16 2176   5.446   2.330   4.639
    1PA     H6R 2177   5.498   2.406   4.580
    1PA     H6S 2178   5.349   2.374   4.662
    1PA     C15 2179   5.531   2.292   4.761
    1PA     H5R 2180   5.481   2.212   4.816
    1PA     H5S 2181   5.628   2.258   4.724
    1PA     C14 2182   5.551   2.403   4.865
    1PA     H4R 2183   5.457   2.426   4.915
    1PA     H4S 2184   5.624   2.371   4.940
    1PA     C13 2185   5.596   2.537   4.806
    1PA     H3R 2186   5.686   2.520   4.748
    1PA     H3S 2187   5.524   2.578   4.734
    1PA     C12 2188   5.621   2.646   4.911
    1PA     H2R 2189   5.660   2.733   4.857
    1PA     H2S 2190   5.528   2.666   4.965
    2PC     C11 2191   5.723   2.605   5.014
    2PC     O12 2192   5.844   2.618   5.006
    2PC     O11 2193   5.660   2.556   5.122
    2PC      C1 2194   5.733   2.491   5.227
    2PC      HR 2195   5.828   2.545   5.241
    2PC      HS 2196   5.669   2.490   5.315
    2PC      C2 2197   5.771   2.348   5.186
    2PC      HX 2198   5.680   2.312   5.138
    2PC      C3 2199   5.820   2.261   5.302
    2PC      HA 2200   5.741   2.253   5.377
    2PC      HB 2201   5.837   2.158   5.270
    2PC     O31 2202   5.944   2.308   5.358
    2PC     P31 2203   6.041   2.214   5.445
    2PC     O32 2204   5.950   2.208   5.576
    2PC     C31 2205   6.015   2.210   5.704
    2PC     H1A 2206   6.089   2.131   5.719
    2PC     H1B 2207   6.050   2.312   5.722
    2PC     C32 2208   5.916   2.181   5.818
    2PC     H2A 2209   5.853   2.094   5.797
    2PC     H2B 2210   5.973   2.152   5.906
    2PC     N31 2211   5.827   2.295   5.857
    2PC     C33 2212   5.736   2.337   5.745
    2PC     H3A 2213   5.791   2.354   5.652
    2PC     H3B 2214   5.654   2.266   5.733
    2PC     H3C 2215   5.692   2.430   5.781
    2PC     C34 2216   5.729   2.261   5.964
    2PC     H4A 2217   5.778   2.233   6.058
    2PC     H4B 2218   5.661   2.344   5.986
    2PC     H4C 2219   5.670   2.177   5.926
    2PC     C35 2220   5.910   2.414   5.896
    2PC     H5A 2221   5.961   2.456   5.810
    2PC     H5B 2222   5.982   2.370   5.965
    2PC     H5C 2223   5.848   2.482   5.955
    2PC     O33 2224   6.044   2.075   5.394
    2PC     O34 2225   6.182   2.259   5.456
    2PC     O21 2226   5.879   2.350   5.091
    2PC     C21 2227   5.925   2.238   5.034
    2PC     O22 2228   5.884   2.125   5.055
    3OL     C12 2229   6.024   2.278   4.927
    3OL     H2R 2230   6.096   2.196   4.916
    3OL     H2S 2231   6.089   2.361   4.953
    3OL     C13 2232   5.957   2.319   4.795
    3OL     H3R 2233   6.036   2.372   4.740
    3OL     H3S 2234   5.869   2.382   4.808
    3OL     C14 2235   5.919   2.203   4.703
    3OL     H4R 2236   5.845   2.133   4.743
    3OL     H4S 2237   6.010   2.145   4.687
    3OL     C15 2238   5.880   2.247   4.561
    3OL     H5R 2239   5.970   2.298   4.527
    3OL     H5S 2240   5.799   2.320   4.555
    3OL     C16 2241   5.844   2.116   4.488
    3OL     H6R 2242   5.789   2.057   4.561
    3OL     H6S 2243   5.941   2.068   4.470
    3OL     C17 2244   5.747   2.146   4.373
    3OL     H7R 2245   5.808   2.189   4.292
    3OL     H7S 2246   5.674   2.220   4.406
    3OL     C18 2247   5.678   2.013   4.340
    3OL     H8R 2248   5.599   2.023   4.266
    3OL     H8S 2249   5.620   1.976   4.425
    3OL     C19 2250   5.776   1.909   4.291
    3OL     H9R 2251   5.813   1.838   4.365
    3OL    C110 2252   5.791   1.874   4.164
    3OL    H10R 2253   5.846   1.785   4.135
    3OL    C111 2254   5.752   1.954   4.043
    3OL    H11R 2255   5.838   1.970   3.978
    3OL    H11S 2256   5.713   2.052   4.072
    3OL    C112 2257   5.642   1.883   3.961
    3OL    H12R 2258   5.556   1.856   4.023
    3OL    H12S 2259   5.676   1.783   3.933
    3OL    C113 2260   5.581   1.960   3.843
    3OL    H13R 2261   5.651   1.981   3.762
    3OL    H13S 2262   5.546   2.059   3.872
    3OL    C114 2263   5.453   1.896   3.787
    3OL    H14R 2264   5.401   1.872   3.880
    3OL    H14S 2265   5.465   1.796   3.743
    3OL    C115 2266   5.377   1.983   3.687
    3OL    H15R 2267   5.438   2.010   3.601
    3OL    H15S 2268   5.348   2.076   3.736
    3OL    C116 2269   5.250   1.911   3.637
    3OL    H16R 2270   5.193   1.873   3.722
    3OL    H16S 2271   5.279   1.817   3.589
    3OL    C117 2272   5.180   2.008   3.542
    3OL    H17R 2273   5.244   2.045   3.462
    3OL    H17S 2274   5.143   2.093   3.600
    3OL    C118 2275   5.069   1.938   3.462
    3OL    H18R 2276   5.018   2.000   3.388
    3OL    H18S 2277   4.993   1.885   3.519
    3OL    H18T 2278   5.117   1.863   3.398
    1PA    C116 2279   0.439   2.830   3.382
    1PA    H16R 2280   0.402   2.878   3.291
    1PA    H16S 2281   0.429   2.724   3.358
    1PA    H16T 2282   0.545   2.854   3.394
    1PA    C115 2283   0.354   2.865   3.505
    1PA    H15R 2284   0.362   2.970   3.533
    1PA    H15S 2285   0.252   2.838   3.478
    1PA    C114 2286   0.408   2.800   3.633
    1PA    H14R 2287   0.420   2.695   3.607
    1PA    H14S 2288   0.508   2.840   3.650
    1PA    C113 2289   0.316   2.823   3.754
    1PA    H13R 2290   0.316   2.930   3.773
    1PA    H13S 2291   0.212   2.793   3.738
    1PA    C112 2292   0.380   2.736   3.863
    1PA    H12R 2293   0.353   2.633   3.840
    1PA    H12S 2294   0.487   2.760   3.861
    1PA    C111 2295   0.334   2.785   4.001
    1PA    H11R 2296   0.355   2.892   4.006
    1PA    H11S 2297   0.231   2.750   4.008
    1PA    C110 2298   0.422   2.730   4.113
    1PA    H10R 2299   0.419   2.621   4.120
    1PA    H10S 2300   0.523   2.767   4.094
    1PA     C19 2301   0.398   2.784   4.255
    1PA     H9R 2302   0.473   2.758   4.329
    1PA     H9S 2303   0.401   2.893   4.261
    1PA     C18 2304   0.267   2.733   4.316
    1PA     H8R 2305   0.244   2.797   4.401
    1PA     H8S 2306   0.176   2.756   4.259
    1PA     C17 2307   0.263   2.584   4.354
    1PA     H7R 2308   0.175   2.526   4.329
    1PA     H7S 2309   0.354   2.535   4.319
    1PA     C16 2310   0.263   2.572   4.507
    1PA     H6R 2311   0.345   2.631   4.550
    1PA     H6S 2312   0.173   2.620   4.545
    1PA     C15 2313   0.269   2.427   4.558
    1PA     H5R 2314   0.197   2.366   4.503
    1PA     H5S 2315   0.365   2.387   4.524
    1PA     C14 2316   0.256   2.419   4.711
    1PA     H4R 2317   0.159   2.451   4.749
    1PA     H4S 2318   0.262   2.314   4.738
    1PA     C13 2319   0.365   2.492   4.791
    1PA     H3R 2320   0.461   2.440   4.785
    1PA     H3S 2321   0.364   2.592   4.749
    1PA     C12 2322   0.316   2.499   4.937
    1PA     H2R 2323   0.213   2.535   4.940
    1PA     H2S 2324   0.327   2.400   4.980
    2PC     C11 2325   0.398   2.592   5.023
    2PC     O12 2326   0.384   2.712   5.032
    2PC     O11 2327   0.506   2.533   5.076
    2PC      C1 2328   0.594   2.609   5.160
    2PC      HR 2329   0.627   2.699   5.107
    2PC      HS 2330   0.543   2.628   5.255
    2PC      C2 2331   0.721   2.528   5.193
    2PC      HX 2332   0.689   2.425   5.208
    2PC      C3 2333   0.795   2.578   5.317
    2PC      HA 2334   0.734   2.553   5.404
    2PC      HB 2335   0.891   2.527   5.334
    2PC     O31 2336   0.819   2.719   5.310
    2PC     P31 2337   0.770   2.815   5.428
    2PC     O32 2338   0.621   2.846   5.376
    2PC     C31 2339   0.597   2.966   5.300
    2PC     H1A 2340   0.604   3.049   5.372
    2PC     H1B 2341   0.678   2.977   5.229
    2PC     C32 2342   0.469   2.951   5.216
    2PC     H2A 2343   0.452   3.036   5.148
    2PC     H2B 2344   0.488   2.863   5.154
    2PC     N31 2345   0.335   2.930   5.279
    2PC     C33 2346   0.236   2.941   5.168
    2PC     H3A 2347   0.213   3.046   5.144
    2PC     H3B 2348   0.266   2.880   5.083
    2PC     H3C 2349   0.142   2.904   5.208
    2PC     C34 2350   0.327   2.795   5.343
    2PC     H4A 2351   0.352   2.709   5.280
    2PC     H4B 2352   0.404   2.805   5.420
    2PC     H4C 2353   0.229   2.785   5.389
    2PC     C35 2354   0.297   3.035   5.380
    2PC     H5A 2355   0.338   3.128   5.342
    2PC     H5B 2356   0.341   3.008   5.476
    2PC     H5C 2357   0.188   3.036   5.384
    2PC     O33 2358   0.756   2.742   5.556
    2PC     O34 2359   0.849   2.936   5.461
    2PC     O21 2360   0.809   2.541   5.080
    2PC     C21 2361   0.904   2.448   5.064
    2PC     O22 2362   0.938   2.373   5.153
    3OL     C12 2363   0.967   2.456   4.927
    3OL     H2R 2364   0.961   2.353   4.890
    3OL     H2S 2365   1.073   2.479   4.933
    3OL     C13 2366   0.889   2.536   4.822
    3OL     H3R 2367   0.896   2.638   4.861
    3OL     H3S 2368   0.783   2.509   4.814
    3OL     C14 2369   0.952   2.527   4.682
    3OL     H4R 2370   0.948   2.425   4.642
    3OL     H4S 2371   1.059   2.542   4.692
    3OL     C15 2372   0.892   2.615   4.571
    3OL     H5R 2373   0.963   2.616   4.488
    3OL     H5S 2374   0.902   2.715   4.615
    3OL     C16 2375   0.749   2.583   4.527
    3OL     H6R 2376   0.731   2.657   4.449
    3OL     H6S 2377   0.690   2.606   4.616
    3OL     C17 2378   0.738   2.436   4.482
    3OL     H7R 2379   0.743   2.377   4.573
    3OL     H7S 2380   0.826   2.400   4.429
    3OL     C18 2381   0.615   2.408   4.394
    3OL     H8R 2382   0.543   2.482   4.427
    3OL     H8S 2383   0.582   2.306   4.415
    3OL     C19 2384   0.635   2.426   4.245
    3OL     H9R 2385   0.676   2.520   4.210
    3OL    C110 2386   0.598   2.335   4.156
    3OL    H10R 2387   0.607   2.365   4.051
    3OL    C111 2388   0.550   2.194   4.176
    3OL    H11R 2389   0.567   2.155   4.277
    3OL    H11S 2390   0.606   2.125   4.113
    3OL    C112 2391   0.399   2.185   4.152
    3OL    H12R 2392   0.381   2.228   4.053
    3OL    H12S 2393   0.350   2.260   4.215
    3OL    C113 2394   0.334   2.046   4.146
    3OL    H13R 2395   0.404   1.985   4.089
    3OL    H13S 2396   0.241   2.055   4.088
    3OL    C114 2397   0.298   1.991   4.284
    3OL    H14R 2398   0.230   2.064   4.328
    3OL    H14S 2399   0.383   2.000   4.353
    3OL    C115 2400   0.228   1.855   4.273
    3OL    H15R 2401   0.136   1.846   4.215
    3OL    H15S 2402   0.192   1.825   4.372
    3OL    C116 2403   0.324   1.757   4.204
    3OL    H16R 2404   0.425   1.762   4.245
    3OL    H16S 2405   0.326   1.784   4.099
    3OL    C117 2406   0.272   1.612   4.212
    3OL    H17R 2407   0.192   1.589   4.142
    3OL    H17S 2408   0.234   1.602   4.314
    3OL    C118 2409   0.383   1.511   4.178
    3OL    H18R 2410   0.460   1.507   4.255
    3OL    H18S 2411   0.438   1.545   4.091
    3OL    H18T 2412   0.338   1.413   4.157
    1PA    C116 2413   6.106   0.489   3.998
    1PA    H16R 2414   6.070   0.409   4.064
    1PA    H16S 2415   6.207   0.474   3.959
    1PA    H16T 2416   6.037   0.484   3.914
    1PA    C115 2417   6.099   0.630   4.059
    1PA    H15R 2418   6.135   0.707   3.991
    1PA    H15S 2419   5.995   0.661   4.073
    1PA    C114 2420   6.171   0.634   4.194
    1PA    H14R 2421   6.128   0.553   4.254
    1PA    H14S 2422   6.275   0.615   4.166
    1PA    C113 2423   6.167   0.767   4.270
    1PA    H13R 2424   6.230   0.845   4.227
    1PA    H13S 2425   6.066   0.810   4.271
    1PA    C112 2426   6.196   0.730   4.416
    1PA    H12R 2427   6.129   0.656   4.460
    1PA    H12S 2428   6.302   0.708   4.429
    1PA    C111 2429   6.183   0.858   4.501
    1PA    H11R 2430   6.242   0.940   4.461
    1PA    H11S 2431   6.076   0.880   4.502
    1PA    C110 2432   6.225   0.832   4.646
    1PA    H10R 2433   6.322   0.783   4.658
    1PA    H10S 2434   6.244   0.930   4.690
    1PA     C19 2435   6.114   0.754   4.719
    1PA     H9R 2436   6.030   0.823   4.713
    1PA     H9S 2437   6.084   0.658   4.675
    1PA     C18 2438   6.154   0.727   4.864
    1PA     H8R 2439   6.260   0.706   4.872
    1PA     H8S 2440   6.141   0.818   4.922
    1PA     C17 2441   6.069   0.614   4.925
    1PA     H7R 2442   6.109   0.526   4.873
    1PA     H7S 2443   6.070   0.613   5.034
    1PA     C16 2444   5.921   0.620   4.883
    1PA     H6R 2445   5.908   0.628   4.775
    1PA     H6S 2446   5.876   0.524   4.908
    1PA     C15 2447   5.852   0.735   4.957
    1PA     H5R 2448   5.868   0.723   5.065
    1PA     H5S 2449   5.903   0.825   4.922
    1PA     C14 2450   5.708   0.740   4.903
    1PA     H4R 2451   5.674   0.843   4.910
    1PA     H4S 2452   5.700   0.712   4.798
    1PA     C13 2453   5.615   0.652   4.987
    1PA     H3R 2454   5.655   0.551   4.976
    1PA     H3S 2455   5.622   0.669   5.095
    1PA     C12 2456   5.469   0.657   4.940
    1PA     H2R 2457   5.442   0.760   4.918
    1PA     H2S 2458   5.474   0.608   4.843
    2PC     C11 2459   5.369   0.601   5.038
    2PC     O12 2460   5.399   0.561   5.149
    2PC     O11 2461   5.242   0.619   4.999
    2PC      C1 2462   5.129   0.561   5.068
    2PC      HR 2463   5.046   0.552   4.998
    2PC      HS 2464   5.159   0.461   5.101
    2PC      C2 2465   5.084   0.654   5.182
    2PC      HX 2466   5.169   0.665   5.250
    2PC      C3 2467   4.966   0.600   5.263
    2PC      HA 2468   4.871   0.613   5.211
    2PC      HB 2469   4.987   0.495   5.285
    2PC     O31 2470   4.967   0.678   5.384
    2PC     P31 2471   4.876   0.624   5.505
    2PC     O32 2472   4.844   0.757   5.589
    2PC     C31 2473   4.928   0.825   5.684
    2PC     H1A 2474   4.962   0.741   5.744
    2PC     H1B 2475   5.019   0.867   5.639
    2PC     C32 2476   4.850   0.941   5.747
    2PC     H2A 2477   4.923   1.008   5.793
    2PC     H2B 2478   4.809   0.995   5.661
    2PC     N31 2479   4.739   0.916   5.845
    2PC     C33 2480   4.674   1.051   5.858
    2PC     H3A 2481   4.606   1.065   5.774
    2PC     H3B 2482   4.618   1.049   5.952
    2PC     H3C 2483   4.756   1.123   5.864
    2PC     C34 2484   4.629   0.832   5.786
    2PC     H4A 2485   4.670   0.736   5.754
    2PC     H4B 2486   4.548   0.827   5.859
    2PC     H4C 2487   4.585   0.893   5.707
    2PC     C35 2488   4.780   0.861   5.978
    2PC     H5A 2489   4.816   0.758   5.976
    2PC     H5B 2490   4.694   0.861   6.044
    2PC     H5C 2491   4.863   0.919   6.017
    2PC     O33 2492   4.747   0.569   5.459
    2PC     O34 2493   4.937   0.511   5.578
    2PC     O21 2494   5.052   0.789   5.143
    2PC     C21 2495   5.143   0.887   5.160
    2PC     O22 2496   5.256   0.881   5.203
    3OL     C12 2497   5.084   1.019   5.117
    3OL     H2R 2498   5.156   1.094   5.150
    3OL     H2S 2499   4.994   1.039   5.175
    3OL     C13 2500   5.056   1.029   4.966
    3OL     H3R 2501   4.991   0.946   4.935
    3OL     H3S 2502   5.153   1.025   4.917
    3OL     C14 2503   4.990   1.162   4.931
    3OL     H4R 2504   5.058   1.244   4.957
    3OL     H4S 2505   4.900   1.164   4.992
    3OL     C15 2506   4.954   1.180   4.782
    3OL     H5R 2507   4.877   1.256   4.767
    3OL     H5S 2508   4.906   1.091   4.742
    3OL     C16 2509   5.076   1.200   4.691
    3OL     H6R 2510   5.149   1.119   4.701
    3OL     H6S 2511   5.129   1.295   4.701
    3OL     C17 2512   5.021   1.187   4.549
    3OL     H7R 2513   4.947   1.267   4.541
    3OL     H7S 2514   4.975   1.089   4.534
    3OL     C18 2515   5.130   1.220   4.446
    3OL     H8R 2516   5.194   1.132   4.445
    3OL     H8S 2517   5.184   1.312   4.471
    3OL     C19 2518   5.061   1.215   4.312
    3OL     H9R 2519   4.952   1.226   4.313
    3OL    C110 2520   5.121   1.194   4.196
    3OL    H10R 2521   5.070   1.184   4.101
    3OL    C111 2522   5.271   1.187   4.179
    3OL    H11R 2523   5.330   1.222   4.264
    3OL    H11S 2524   5.296   1.244   4.090
    3OL    C112 2525   5.307   1.041   4.147
    3OL    H12R 2526   5.235   1.012   4.070
    3OL    H12S 2527   5.282   0.979   4.233
    3OL    C113 2528   5.453   1.015   4.105
    3OL    H13R 2529   5.522   1.050   4.182
    3OL    H13S 2530   5.461   1.070   4.011
    3OL    C114 2531   5.471   0.864   4.086
    3OL    H14R 2532   5.419   0.819   4.001
    3OL    H14S 2533   5.433   0.809   4.171
    3OL    C115 2534   5.620   0.835   4.058
    3OL    H15R 2535   5.671   0.854   4.152
    3OL    H15S 2536   5.666   0.899   3.982
    3OL    C116 2537   5.651   0.688   4.028
    3OL    H16R 2538   5.597   0.623   4.098
    3OL    H16S 2539   5.758   0.666   4.035
    3OL    C117 2540   5.612   0.653   3.884
    3OL    H17R 2541   5.509   0.675   3.855
    3OL    H17S 2542   5.634   0.547   3.871
    3OL    C118 2543   5.691   0.731   3.778
    3OL    H18R 2544   5.665   0.700   3.676
    3OL    H18S 2545   5.795   0.701   3.791
    3OL    H18T 2546   5.680   0.839   3.785
    1PA    C116 2547   1.757   6.376   4.168
    1PA    H16R 2548   1.854   6.421   4.148
    1PA    H16S 2549   1.683   6.428   4.106
    1PA    H16T 2550   1.756   6.276   4.123
    1PA    C115 2551   1.721   6.397   4.316
    1PA    H15R 2552   1.688   6.500   4.333
    1PA    H15S 2553   1.635   6.332   4.334
    1PA    C114 2554   1.826   6.361   4.422
    1PA    H14R 2555   1.920   6.413   4.400
    1PA    H14S 2556   1.789   6.383   4.522
    1PA    C113 2557   1.870   6.214   4.425
    1PA    H13R 2558   1.781   6.152   4.440
    1PA    H13S 2559   1.920   6.193   4.330
    1PA    C112 2560   1.971   6.190   4.538
    1PA    H12R 2561   2.024   6.102   4.501
    1PA    H12S 2562   2.045   6.269   4.551
    1PA    C111 2563   1.910   6.172   4.678
    1PA    H11R 2564   1.976   6.205   4.759
    1PA    H11S 2565   1.827   6.242   4.680
    1PA    C110 2566   1.868   6.027   4.701
    1PA    H10R 2567   1.779   5.998   4.644
    1PA    H10S 2568   1.953   5.965   4.671
    1PA     C19 2569   1.827   5.998   4.846
    1PA     H9R 2570   1.912   6.012   4.913
    1PA     H9S 2571   1.756   6.077   4.869
    1PA     C18 2572   1.766   5.859   4.866
    1PA     H8R 2573   1.683   5.844   4.797
    1PA     H8S 2574   1.835   5.780   4.836
    1PA     C17 2575   1.738   5.828   5.014
    1PA     H7R 2576   1.715   5.723   5.038
    1PA     H7S 2577   1.829   5.839   5.072
    1PA     C16 2578   1.628   5.924   5.060
    1PA     H6R 2579   1.661   6.027   5.049
    1PA     H6S 2580   1.553   5.924   4.980
    1PA     C15 2581   1.557   5.903   5.195
    1PA     H5R 2582   1.533   5.797   5.204
    1PA     H5S 2583   1.619   5.931   5.281
    1PA     C14 2584   1.431   5.991   5.192
    1PA     H4R 2585   1.451   6.092   5.154
    1PA     H4S 2586   1.368   5.940   5.119
    1PA     C13 2587   1.345   5.983   5.319
    1PA     H3R 2588   1.240   6.016   5.313
    1PA     H3S 2589   1.347   5.878   5.347
    1PA     C12 2590   1.413   6.068   5.426
    1PA     H2R 2591   1.521   6.054   5.430
    1PA     H2S 2592   1.385   6.170   5.398
    2PC     C11 2593   1.363   6.033   5.564
    2PC     O12 2594   1.409   6.090   5.661
    2PC     O11 2595   1.263   5.943   5.561
    2PC      C1 2596   1.217   5.890   5.687
    2PC      HR 2597   1.166   5.794   5.672
    2PC      HS 2598   1.304   5.886   5.752
    2PC      C2 2599   1.111   5.985   5.746
    2PC      HX 2600   1.147   6.087   5.734
    2PC      C3 2601   1.091   5.944   5.892
    2PC      HA 2602   1.170   5.979   5.959
    2PC      HB 2603   1.003   5.990   5.938
    2PC     O31 2604   1.075   5.801   5.906
    2PC     P31 2605   1.041   5.746   6.052
    2PC     O32 2606   1.176   5.791   6.126
    2PC     C31 2607   1.288   5.710   6.084
    2PC     H1A 2608   1.265   5.607   6.111
    2PC     H1B 2609   1.292   5.720   5.975
    2PC     C32 2610   1.419   5.763   6.144
    2PC     H2A 2611   1.504   5.699   6.124
    2PC     H2B 2612   1.429   5.865   6.105
    2PC     N31 2613   1.421   5.773   6.294
    2PC     C33 2614   1.559   5.785   6.351
    2PC     H3A 2615   1.599   5.876   6.305
    2PC     H3B 2616   1.554   5.786   6.460
    2PC     H3C 2617   1.613   5.697   6.315
    2PC     C34 2618   1.353   5.899   6.339
    2PC     H4A 2619   1.397   5.992   6.303
    2PC     H4B 2620   1.248   5.901   6.311
    2PC     H4C 2621   1.349   5.894   6.447
    2PC     C35 2622   1.358   5.657   6.366
    2PC     H5A 2623   1.366   5.679   6.473
    2PC     H5B 2624   1.421   5.569   6.350
    2PC     H5C 2625   1.255   5.646   6.334
    2PC     O33 2626   0.920   5.805   6.115
    2PC     O34 2627   0.992   5.607   6.044
    2PC     O21 2628   0.991   5.967   5.669
    2PC     C21 2629   0.895   6.060   5.677
    2PC     O22 2630   0.904   6.163   5.741
    3OL     C12 2631   0.776   6.029   5.589
    3OL     H2R 2632   0.687   6.028   5.653
    3OL     H2S 2633   0.785   5.927   5.550
    3OL     C13 2634   0.741   6.142   5.491
    3OL     H3R 2635   0.822   6.149   5.418
    3OL     H3S 2636   0.751   6.236   5.544
    3OL     C14 2637   0.608   6.121   5.416
    3OL     H4R 2638   0.584   6.218   5.373
    3OL     H4S 2639   0.522   6.089   5.475
    3OL     C15 2640   0.619   6.018   5.303
    3OL     H5R 2641   0.625   5.919   5.350
    3OL     H5S 2642   0.699   6.052   5.237
    3OL     C16 2643   0.485   6.013   5.228
    3OL     H6R 2644   0.464   6.107   5.176
    3OL     H6S 2645   0.402   6.007   5.298
    3OL     C17 2646   0.478   5.895   5.130
    3OL     H7R 2647   0.372   5.872   5.114
    3OL     H7S 2648   0.523   5.804   5.170
    3OL     C18 2649   0.528   5.943   4.993
    3OL     H8R 2650   0.628   5.987   4.994
    3OL     H8S 2651   0.465   6.029   4.969
    3OL     C19 2652   0.518   5.834   4.889
    3OL     H9R 2653   0.521   5.736   4.935
    3OL    C110 2654   0.516   5.864   4.760
    3OL    H10R 2655   0.510   5.788   4.682
    3OL    C111 2656   0.541   6.002   4.707
    3OL    H11R 2657   0.650   6.013   4.699
    3OL    H11S 2658   0.490   6.081   4.762
    3OL    C112 2659   0.481   6.033   4.569
    3OL    H12R 2660   0.377   6.052   4.596
    3OL    H12S 2661   0.471   5.943   4.508
    3OL    C113 2662   0.550   6.133   4.476
    3OL    H13R 2663   0.650   6.097   4.452
    3OL    H13S 2664   0.568   6.230   4.523
    3OL    C114 2665   0.471   6.163   4.348
    3OL    H14R 2666   0.387   6.231   4.361
    3OL    H14S 2667   0.423   6.072   4.312
    3OL    C115 2668   0.567   6.220   4.242
    3OL    H15R 2669   0.656   6.158   4.226
    3OL    H15S 2670   0.603   6.317   4.277
    3OL    C116 2671   0.500   6.253   4.109
    3OL    H16R 2672   0.494   6.169   4.039
    3OL    H16S 2673   0.566   6.320   4.053
    3OL    C117 2674   0.363   6.323   4.107
    3OL    H17R 2675   0.352   6.405   4.178
    3OL    H17S 2676   0.286   6.251   4.136
    3OL    C118 2677   0.327   6.376   3.968
    3OL    H18R 2678   0.229   6.424   3.964
    3OL    H18S 2679   0.318   6.292   3.899
    3OL    H18T 2680   0.399   6.451   3.933
    1PA    C116 2681   4.569   3.038   3.957
    1PA    H16R 2682   4.513   3.044   4.051
    1PA    H16S 2683   4.509   3.002   3.873
    1PA    H16T 2684   4.611   3.136   3.935
    1PA    C115 2685   4.699   2.961   3.988
    1PA    H15R 2686   4.757   2.987   3.900
    1PA    H15S 2687   4.756   2.995   4.075
    1PA    C114 2688   4.677   2.810   3.993
    1PA    H14R 2689   4.618   2.785   3.904
    1PA    H14S 2690   4.772   2.757   3.981
    1PA    C113 2691   4.618   2.771   4.129
    1PA    H13R 2692   4.528   2.830   4.150
    1PA    H13S 2693   4.584   2.667   4.120
    1PA    C112 2694   4.713   2.783   4.249
    1PA    H12R 2695   4.803   2.724   4.231
    1PA    H12S 2696   4.746   2.886   4.265
    1PA    C111 2697   4.635   2.740   4.374
    1PA    H11R 2698   4.565   2.821   4.395
    1PA    H11S 2699   4.574   2.650   4.363
    1PA    C110 2700   4.721   2.734   4.501
    1PA    H10R 2701   4.812   2.680   4.473
    1PA    H10S 2702   4.760   2.834   4.519
    1PA     C19 2703   4.664   2.672   4.629
    1PA     H9R 2704   4.590   2.742   4.669
    1PA     H9S 2705   4.612   2.579   4.608
    1PA     C18 2706   4.774   2.675   4.737
    1PA     H8R 2707   4.847   2.598   4.714
    1PA     H8S 2708   4.832   2.768   4.745
    1PA     C17 2709   4.724   2.641   4.878
    1PA     H7R 2710   4.814   2.634   4.939
    1PA     H7S 2711   4.650   2.714   4.909
    1PA     C16 2712   4.652   2.506   4.891
    1PA     H6R 2713   4.564   2.522   4.829
    1PA     H6S 2714   4.713   2.422   4.857
    1PA     C15 2715   4.607   2.474   5.034
    1PA     H5R 2716   4.699   2.474   5.093
    1PA     H5S 2717   4.571   2.560   5.090
    1PA     C14 2718   4.520   2.348   5.032
    1PA     H4R 2719   4.430   2.359   4.971
    1PA     H4S 2720   4.578   2.265   4.991
    1PA     C13 2721   4.479   2.301   5.172
    1PA     H3R 2722   4.408   2.368   5.220
    1PA     H3S 2723   4.434   2.201   5.165
    1PA     C12 2724   4.589   2.275   5.276
    1PA     H2R 2725   4.672   2.210   5.247
    1PA     H2S 2726   4.622   2.372   5.313
    2PC     C11 2727   4.542   2.198   5.397
    2PC     O12 2728   4.522   2.249   5.505
    2PC     O11 2729   4.522   2.068   5.368
    2PC      C1 2730   4.451   1.982   5.458
    2PC      HR 2731   4.463   1.880   5.419
    2PC      HS 2732   4.504   1.973   5.553
    2PC      C2 2733   4.305   2.023   5.482
    2PC      HX 2734   4.303   2.117   5.537
    2PC      C3 2735   4.235   1.917   5.567
    2PC      HA 2736   4.128   1.937   5.580
    2PC      HB 2737   4.248   1.814   5.532
    2PC     O31 2738   4.296   1.918   5.697
    2PC     P31 2739   4.237   1.824   5.813
    2PC     O32 2740   4.382   1.760   5.832
    2PC     C31 2741   4.417   1.718   5.965
    2PC     H1A 2742   4.393   1.806   6.026
    2PC     H1B 2743   4.361   1.627   5.990
    2PC     C32 2744   4.570   1.701   5.963
    2PC     H2A 2745   4.617   1.765   5.889
    2PC     H2B 2746   4.606   1.722   6.064
    2PC     N31 2747   4.619   1.560   5.947
    2PC     C33 2748   4.570   1.474   6.059
    2PC     H3A 2749   4.581   1.533   6.150
    2PC     H3B 2750   4.464   1.451   6.045
    2PC     H3C 2751   4.624   1.379   6.059
    2PC     C34 2752   4.561   1.503   5.821
    2PC     H4A 2753   4.600   1.401   5.812
    2PC     H4B 2754   4.452   1.508   5.818
    2PC     H4C 2755   4.603   1.557   5.735
    2PC     C35 2756   4.768   1.569   5.959
    2PC     H5A 2757   4.794   1.464   5.973
    2PC     H5B 2758   4.782   1.629   6.049
    2PC     H5C 2759   4.825   1.612   5.876
    2PC     O33 2760   4.195   1.902   5.931
    2PC     O34 2761   4.136   1.724   5.770
    2PC     O21 2762   4.245   2.025   5.351
    2PC     C21 2763   4.120   2.071   5.338
    2PC     O22 2764   4.055   2.118   5.429
    3OL     C12 2765   4.084   2.076   5.191
    3OL     H2R 2766   4.025   1.991   5.157
    3OL     H2S 2767   4.183   2.079   5.144
    3OL     C13 2768   4.013   2.205   5.150
    3OL     H3R 2769   4.080   2.291   5.138
    3OL     H3S 2770   3.944   2.218   5.233
    3OL     C14 2771   3.937   2.189   5.018
    3OL     H4R 2772   3.908   2.290   4.988
    3OL     H4S 2773   3.850   2.131   5.048
    3OL     C15 2774   4.033   2.131   4.912
    3OL     H5R 2775   4.076   2.033   4.933
    3OL     H5S 2776   4.111   2.207   4.905
    3OL     C16 2777   3.959   2.112   4.779
    3OL     H6R 2778   3.907   2.207   4.763
    3OL     H6S 2779   3.879   2.044   4.807
    3OL     C17 2780   4.052   2.066   4.666
    3OL     H7R 2781   4.079   1.962   4.685
    3OL     H7S 2782   4.136   2.135   4.672
    3OL     C18 2783   3.985   2.074   4.528
    3OL     H8R 2784   3.972   2.181   4.511
    3OL     H8S 2785   3.882   2.039   4.540
    3OL     C19 2786   4.068   2.021   4.414
    3OL     H9R 2787   4.155   2.083   4.392
    3OL    C110 2788   4.038   1.926   4.327
    3OL    H10R 2789   4.100   1.912   4.238
    3OL    C111 2790   3.901   1.867   4.312
    3OL    H11R 2791   3.829   1.948   4.300
    3OL    H11S 2792   3.873   1.801   4.395
    3OL    C112 2793   3.894   1.776   4.188
    3OL    H12R 2794   3.960   1.692   4.211
    3OL    H12S 2795   3.930   1.830   4.100
    3OL    C113 2796   3.750   1.723   4.177
    3OL    H13R 2797   3.664   1.789   4.185
    3OL    H13S 2798   3.739   1.662   4.267
    3OL    C114 2799   3.726   1.641   4.050
    3OL    H14R 2800   3.748   1.697   3.959
    3OL    H14S 2801   3.620   1.619   4.046
    3OL    C115 2802   3.816   1.517   4.036
    3OL    H15R 2803   3.918   1.543   4.063
    3OL    H15S 2804   3.812   1.488   3.930
    3OL    C116 2805   3.769   1.398   4.120
    3OL    H16R 2806   3.660   1.401   4.118
    3OL    H16S 2807   3.807   1.411   4.221
    3OL    C117 2808   3.829   1.269   4.063
    3OL    H17R 2809   3.938   1.270   4.054
    3OL    H17S 2810   3.790   1.253   3.962
    3OL    C118 2811   3.803   1.147   4.152
    3OL    H18R 2812   3.876   1.072   4.121
    3OL    H18S 2813   3.703   1.106   4.143
    3OL    H18T 2814   3.823   1.175   4.256
    1PA    C116 2815   2.965   4.444   4.035
    1PA    H16R 2816   2.928   4.382   3.953
    1PA    H16S 2817   2.987   4.542   3.993
    1PA    H16T 2818   2.895   4.445   4.118
    1PA    C115 2819   3.089   4.374   4.094
    1PA    H15R 2820   3.069   4.275   4.134
    1PA    H15S 2821   3.162   4.355   4.015
    1PA    C114 2822   3.147   4.462   4.206
    1PA    H14R 2823   3.247   4.427   4.233
    1PA    H14S 2824   3.162   4.562   4.165
    1PA    C113 2825   3.056   4.462   4.329
    1PA    H13R 2826   2.960   4.509   4.303
    1PA    H13S 2827   3.037   4.365   4.375
    1PA    C112 2828   3.126   4.549   4.434
    1PA    H12R 2829   3.131   4.653   4.400
    1PA    H12S 2830   3.057   4.553   4.519
    1PA    C111 2831   3.254   4.490   4.494
    1PA    H11R 2832   3.232   4.384   4.514
    1PA    H11S 2833   3.330   4.488   4.416
    1PA    C110 2834   3.288   4.563   4.625
    1PA    H10R 2835   3.314   4.668   4.614
    1PA    H10S 2836   3.199   4.563   4.689
    1PA     C19 2837   3.408   4.491   4.688
    1PA     H9R 2838   3.359   4.403   4.729
    1PA     H9S 2839   3.485   4.461   4.616
    1PA     C18 2840   3.472   4.563   4.807
    1PA     H8R 2841   3.550   4.499   4.849
    1PA     H8S 2842   3.516   4.658   4.774
    1PA     C17 2843   3.375   4.594   4.922
    1PA     H7R 2844   3.291   4.655   4.890
    1PA     H7S 2845   3.332   4.502   4.964
    1PA     C16 2846   3.439   4.668   5.040
    1PA     H6R 2847   3.521   4.609   5.082
    1PA     H6S 2848   3.475   4.767   5.013
    1PA     C15 2849   3.341   4.702   5.154
    1PA     H5R 2850   3.397   4.754   5.232
    1PA     H5S 2851   3.273   4.778   5.114
    1PA     C14 2852   3.272   4.577   5.209
    1PA     H4R 2853   3.206   4.529   5.137
    1PA     H4S 2854   3.360   4.517   5.234
    1PA     C13 2855   3.196   4.602   5.341
    1PA     H3R 2856   3.266   4.637   5.417
    1PA     H3S 2857   3.123   4.681   5.324
    1PA     C12 2858   3.130   4.466   5.364
    1PA     H2R 2859   3.069   4.448   5.275
    1PA     H2S 2860   3.190   4.375   5.369
    2PC     C11 2861   3.038   4.478   5.483
    2PC     O12 2862   3.009   4.584   5.534
    2PC     O11 2863   3.008   4.357   5.532
    2PC      C1 2864   2.972   4.353   5.671
    2PC      HR 2865   3.060   4.369   5.733
    2PC      HS 2866   2.887   4.418   5.693
    2PC      C2 2867   2.947   4.204   5.700
    2PC      HX 2868   2.866   4.173   5.632
    2PC      C3 2869   2.912   4.181   5.847
    2PC      HA 2870   2.811   4.218   5.870
    2PC      HB 2871   2.912   4.076   5.875
    2PC     O31 2872   3.000   4.249   5.937
    2PC     P31 2873   3.003   4.207   6.092
    2PC     O32 2874   3.135   4.116   6.099
    2PC     C31 2875   3.123   3.982   6.048
    2PC     H1A 2876   3.057   3.930   6.119
    2PC     H1B 2877   3.093   3.979   5.943
    2PC     C32 2878   3.260   3.915   6.060
    2PC     H2A 2879   3.277   3.851   5.974
    2PC     H2B 2880   3.336   3.992   6.044
    2PC     N31 2881   3.301   3.829   6.176
    2PC     C33 2882   3.443   3.782   6.171
    2PC     H3A 2883   3.497   3.870   6.135
    2PC     H3B 2884   3.482   3.738   6.262
    2PC     H3C 2885   3.454   3.710   6.090
    2PC     C34 2886   3.290   3.917   6.297
    2PC     H4A 2887   3.360   4.000   6.285
    2PC     H4B 2888   3.184   3.944   6.307
    2PC     H4C 2889   3.332   3.860   6.380
    2PC     C35 2890   3.210   3.709   6.180
    2PC     H5A 2891   3.250   3.623   6.234
    2PC     H5B 2892   3.197   3.674   6.077
    2PC     H5C 2893   3.110   3.728   6.217
    2PC     O33 2894   3.019   4.324   6.182
    2PC     O34 2895   2.876   4.146   6.135
    2PC     O21 2896   3.073   4.136   5.686
    2PC     C21 2897   3.076   4.003   5.670
    2PC     O22 2898   2.974   3.938   5.667
    3OL     C12 2899   3.213   3.941   5.656
    3OL     H2R 2900   3.233   3.879   5.744
    3OL     H2S 2901   3.290   4.019   5.651
    3OL     C13 2902   3.219   3.859   5.527
    3OL     H3R 2903   3.178   3.917   5.443
    3OL     H3S 2904   3.150   3.779   5.553
    3OL     C14 2905   3.358   3.802   5.496
    3OL     H4R 2906   3.406   3.737   5.570
    3OL     H4S 2907   3.431   3.883   5.492
    3OL     C15 2908   3.335   3.718   5.369
    3OL     H5R 2909   3.280   3.786   5.304
    3OL     H5S 2910   3.272   3.632   5.394
    3OL     C16 2911   3.461   3.661   5.303
    3OL     H6R 2912   3.431   3.609   5.212
    3OL     H6S 2913   3.515   3.591   5.368
    3OL     C17 2914   3.559   3.774   5.266
    3OL     H7R 2915   3.574   3.836   5.355
    3OL     H7S 2916   3.513   3.830   5.185
    3OL     C18 2917   3.692   3.724   5.209
    3OL     H8R 2918   3.686   3.661   5.120
    3OL     H8S 2919   3.742   3.662   5.284
    3OL     C19 2920   3.785   3.839   5.179
    3OL     H9R 2921   3.837   3.885   5.263
    3OL    C110 2922   3.804   3.897   5.061
    3OL    H10R 2923   3.861   3.989   5.051
    3OL    C111 2924   3.760   3.843   4.927
    3OL    H11R 2925   3.708   3.747   4.928
    3OL    H11S 2926   3.846   3.834   4.862
    3OL    C112 2927   3.667   3.946   4.860
    3OL    H12R 2928   3.718   4.037   4.828
    3OL    H12S 2929   3.589   3.972   4.932
    3OL    C113 2930   3.591   3.884   4.742
    3OL    H13R 2931   3.531   3.805   4.788
    3OL    H13S 2932   3.664   3.854   4.667
    3OL    C114 2933   3.508   3.987   4.664
    3OL    H14R 2934   3.456   4.052   4.734
    3OL    H14S 2935   3.428   3.925   4.624
    3OL    C115 2936   3.582   4.050   4.545
    3OL    H15R 2937   3.520   4.049   4.455
    3OL    H15S 2938   3.670   3.991   4.518
    3OL    C116 2939   3.634   4.188   4.586
    3OL    H16R 2940   3.700   4.164   4.669
    3OL    H16S 2941   3.556   4.257   4.618
    3OL    C117 2942   3.713   4.254   4.471
    3OL    H17R 2943   3.782   4.176   4.436
    3OL    H17S 2944   3.773   4.332   4.518
    3OL    C118 2945   3.623   4.301   4.356
    3OL    H18R 2946   3.565   4.390   4.384
    3OL    H18S 2947   3.555   4.222   4.324
    3OL    H18T 2948   3.676   4.335   4.268
    1PA    C116 2949   1.155   3.263   3.820
    1PA    H16R 2950   1.078   3.216   3.760
    1PA    H16S 2951   1.205   3.188   3.881
    1PA    H16T 2952   1.232   3.316   3.763
    1PA    C115 2953   1.091   3.365   3.915
    1PA    H15R 2954   0.999   3.314   3.943
    1PA    H15S 2955   1.145   3.382   4.009
    1PA    C114 2956   1.044   3.499   3.857
    1PA    H14R 2957   1.134   3.550   3.821
    1PA    H14S 2958   0.981   3.488   3.768
    1PA    C113 2959   0.977   3.589   3.961
    1PA    H13R 2960   1.020   3.573   4.060
    1PA    H13S 2961   0.998   3.692   3.931
    1PA    C112 2962   0.825   3.565   3.969
    1PA    H12R 2963   0.785   3.611   3.880
    1PA    H12S 2964   0.809   3.458   3.953
    1PA    C111 2965   0.756   3.619   4.095
    1PA    H11R 2966   0.790   3.721   4.113
    1PA    H11S 2967   0.649   3.617   4.075
    1PA    C110 2968   0.780   3.536   4.222
    1PA    H10R 2969   0.756   3.432   4.198
    1PA    H10S 2970   0.887   3.539   4.243
    1PA     C19 2971   0.699   3.586   4.343
    1PA     H9R 2972   0.746   3.677   4.380
    1PA     H9S 2973   0.591   3.590   4.326
    1PA     C18 2974   0.724   3.491   4.461
    1PA     H8R 2975   0.666   3.530   4.545
    1PA     H8S 2976   0.688   3.392   4.431
    1PA     C17 2977   0.869   3.485   4.510
    1PA     H7R 2978   0.937   3.438   4.438
    1PA     H7S 2979   0.897   3.587   4.536
    1PA     C16 2980   0.877   3.390   4.631
    1PA     H6R 2981   0.826   3.433   4.717
    1PA     H6S 2982   0.836   3.293   4.604
    1PA     C15 2983   1.018   3.368   4.687
    1PA     H5R 2984   1.074   3.314   4.610
    1PA     H5S 2985   1.065   3.465   4.699
    1PA     C14 2986   1.024   3.286   4.817
    1PA     H4R 2987   0.944   3.211   4.816
    1PA     H4S 2988   1.114   3.224   4.820
    1PA     C13 2989   1.001   3.377   4.939
    1PA     H3R 2990   0.906   3.427   4.924
    1PA     H3S 2991   0.982   3.310   5.023
    1PA     C12 2992   1.122   3.469   4.964
    1PA     H2R 2993   1.212   3.411   4.982
    1PA     H2S 2994   1.158   3.527   4.879
    2PC     C11 2995   1.108   3.558   5.085
    2PC     O12 2996   1.026   3.538   5.172
    2PC     O11 2997   1.195   3.660   5.084
    2PC      C1 2998   1.181   3.751   5.194
    2PC      HR 2999   1.224   3.843   5.154
    2PC      HS 3000   1.080   3.790   5.205
    2PC      C2 3001   1.248   3.698   5.322
    2PC      HX 3002   1.214   3.597   5.345
    2PC      C3 3003   1.209   3.790   5.438
    2PC      HA 3004   1.251   3.890   5.436
    2PC      HB 3005   1.101   3.783   5.452
    2PC     O31 3006   1.264   3.724   5.554
    2PC     P31 3007   1.188   3.606   5.630
    2PC     O32 3008   1.311   3.569   5.726
    2PC     C31 3009   1.281   3.515   5.856
    2PC     H1A 3010   1.249   3.598   5.919
    2PC     H1B 3011   1.201   3.441   5.854
    2PC     C32 3012   1.400   3.443   5.921
    2PC     H2A 3013   1.361   3.377   5.999
    2PC     H2B 3014   1.454   3.385   5.846
    2PC     N31 3015   1.506   3.533   5.978
    2PC     C33 3016   1.622   3.446   6.017
    2PC     H3A 3017   1.672   3.422   5.924
    2PC     H3B 3018   1.696   3.501   6.076
    2PC     H3C 3019   1.582   3.354   6.059
    2PC     C34 3020   1.544   3.627   5.868
    2PC     H4A 3021   1.567   3.565   5.782
    2PC     H4B 3022   1.465   3.700   5.848
    2PC     H4C 3023   1.634   3.683   5.895
    2PC     C35 3024   1.455   3.614   6.094
    2PC     H5A 3025   1.407   3.551   6.168
    2PC     H5B 3026   1.384   3.690   6.061
    2PC     H5C 3027   1.542   3.672   6.126
    2PC     O33 3028   1.064   3.643   5.702
    2PC     O34 3029   1.163   3.485   5.549
    2PC     O21 3030   1.392   3.697   5.308
    2PC     C21 3031   1.461   3.616   5.225
    2PC     O22 3032   1.408   3.519   5.174
    3OL     C12 3033   1.604   3.656   5.200
    3OL     H2R 3034   1.659   3.692   5.287
    3OL     H2S 3035   1.611   3.734   5.124
    3OL     C13 3036   1.688   3.540   5.146
    3OL     H3R 3037   1.670   3.457   5.215
    3OL     H3S 3038   1.791   3.573   5.165
    3OL     C14 3039   1.658   3.488   5.005
    3OL     H4R 3040   1.679   3.573   4.939
    3OL     H4S 3041   1.552   3.465   4.995
    3OL     C15 3042   1.738   3.360   4.980
    3OL     H5R 3043   1.702   3.329   4.882
    3OL     H5S 3044   1.717   3.284   5.055
    3OL     C16 3045   1.891   3.379   4.981
    3OL     H6R 3046   1.939   3.282   4.994
    3OL     H6S 3047   1.926   3.445   5.060
    3OL     C17 3048   1.938   3.437   4.847
    3OL     H7R 3049   1.882   3.528   4.824
    3OL     H7S 3050   1.925   3.369   4.763
    3OL     C18 3051   2.087   3.469   4.867
    3OL     H8R 3052   2.137   3.380   4.906
    3OL     H8S 3053   2.073   3.541   4.948
    3OL     C19 3054   2.153   3.540   4.752
    3OL     H9R 3055   2.152   3.648   4.757
    3OL    C110 3056   2.239   3.483   4.669
    3OL    H10R 3057   2.289   3.544   4.594
    3OL    C111 3058   2.275   3.336   4.661
    3OL    H11R 3059   2.210   3.281   4.729
    3OL    H11S 3060   2.371   3.325   4.712
    3OL    C112 3061   2.294   3.279   4.520
    3OL    H12R 3062   2.384   3.318   4.472
    3OL    H12S 3063   2.210   3.294   4.452
    3OL    C113 3064   2.288   3.126   4.525
    3OL    H13R 3065   2.198   3.093   4.578
    3OL    H13S 3066   2.369   3.080   4.582
    3OL    C114 3067   2.284   3.066   4.384
    3OL    H14R 3068   2.389   3.045   4.359
    3OL    H14S 3069   2.260   3.134   4.302
    3OL    C115 3070   2.214   2.929   4.381
    3OL    H15R 3071   2.227   2.882   4.283
    3OL    H15S 3072   2.110   2.955   4.399
    3OL    C116 3073   2.273   2.819   4.470
    3OL    H16R 3074   2.298   2.840   4.574
    3OL    H16S 3075   2.366   2.782   4.425
    3OL    C117 3076   2.163   2.713   4.463
    3OL    H17R 3077   2.150   2.687   4.358
    3OL    H17S 3078   2.069   2.740   4.511
    3OL    C118 3079   2.203   2.591   4.547
    3OL    H18R 3080   2.303   2.560   4.516
    3OL    H18S 3081   2.139   2.506   4.521
    3OL    H18T 3082   2.197   2.607   4.654
    1PA    C116 3083   1.656   3.446   3.806
    1PA    H16R 3084   1.680   3.468   3.701
    1PA    H16S 3085   1.731   3.372   3.834
    1PA    H16T 3086   1.680   3.520   3.882
    1PA    C115 3087   1.517   3.380   3.810
    1PA    H15R 3088   1.442   3.460   3.816
    1PA    H15S 3089   1.510   3.332   3.712
    1PA    C114 3090   1.509   3.283   3.928
    1PA    H14R 3091   1.462   3.192   3.892
    1PA    H14S 3092   1.611   3.262   3.959
    1PA    C113 3093   1.434   3.342   4.049
    1PA    H13R 3094   1.507   3.406   4.100
    1PA    H13S 3095   1.352   3.403   4.010
    1PA    C112 3096   1.371   3.239   4.144
    1PA    H12R 3097   1.297   3.176   4.094
    1PA    H12S 3098   1.450   3.177   4.187
    1PA    C111 3099   1.296   3.310   4.257
    1PA    H11R 3100   1.356   3.393   4.294
    1PA    H11S 3101   1.212   3.366   4.216
    1PA    C110 3102   1.263   3.220   4.377
    1PA    H10R 3103   1.353   3.165   4.405
    1PA    H10S 3104   1.228   3.279   4.462
    1PA     C19 3105   1.170   3.105   4.335
    1PA     H9R 3106   1.072   3.140   4.303
    1PA     H9S 3107   1.198   3.044   4.248
    1PA     C18 3108   1.162   3.015   4.459
    1PA     H8R 3109   1.158   3.079   4.548
    1PA     H8S 3110   1.070   2.956   4.450
    1PA     C17 3111   1.283   2.922   4.460
    1PA     H7R 3112   1.295   2.871   4.364
    1PA     H7S 3113   1.382   2.966   4.476
    1PA     C16 3114   1.254   2.807   4.558
    1PA     H6R 3115   1.149   2.781   4.542
    1PA     H6S 3116   1.320   2.721   4.545
    1PA     C15 3117   1.277   2.853   4.703
    1PA     H5R 3118   1.381   2.879   4.721
    1PA     H5S 3119   1.213   2.940   4.721
    1PA     C14 3120   1.228   2.752   4.807
    1PA     H4R 3121   1.227   2.809   4.900
    1PA     H4S 3122   1.125   2.719   4.790
    1PA     C13 3123   1.324   2.632   4.811
    1PA     H3R 3124   1.262   2.548   4.842
    1PA     H3S 3125   1.360   2.609   4.710
    1PA     C12 3126   1.438   2.640   4.913
    1PA     H2R 3127   1.491   2.544   4.910
    1PA     H2S 3128   1.506   2.720   4.884
    2PC     C11 3129   1.390   2.667   5.054
    2PC     O12 3130   1.465   2.714   5.136
    2PC     O11 3131   1.267   2.618   5.079
    2PC      C1 3132   1.210   2.616   5.211
    2PC      HR 3133   1.109   2.577   5.193
    2PC      HS 3134   1.267   2.553   5.279
    2PC      C2 3135   1.192   2.758   5.265
    2PC      HX 3136   1.290   2.806   5.259
    2PC      C3 3137   1.149   2.758   5.413
    2PC      HA 3138   1.135   2.861   5.447
    2PC      HB 3139   1.054   2.707   5.434
    2PC     O31 3140   1.261   2.716   5.493
    2PC     P31 3141   1.259   2.743   5.651
    2PC     O32 3142   1.184   2.616   5.715
    2PC     C31 3143   1.216   2.479   5.686
    2PC     H1A 3144   1.183   2.461   5.583
    2PC     H1B 3145   1.324   2.467   5.695
    2PC     C32 3146   1.152   2.391   5.795
    2PC     H2A 3147   1.056   2.437   5.817
    2PC     H2B 3148   1.147   2.290   5.755
    2PC     N31 3149   1.222   2.367   5.925
    2PC     C33 3150   1.358   2.307   5.904
    2PC     H3A 3151   1.403   2.271   5.997
    2PC     H3B 3152   1.326   2.219   5.847
    2PC     H3C 3153   1.420   2.373   5.844
    2PC     C34 3154   1.259   2.495   5.995
    2PC     H4A 3155   1.167   2.554   6.002
    2PC     H4B 3156   1.305   2.465   6.089
    2PC     H4C 3157   1.329   2.552   5.935
    2PC     C35 3158   1.126   2.280   6.001
    2PC     H5A 3159   1.098   2.186   5.953
    2PC     H5B 3160   1.041   2.347   6.015
    2PC     H5C 3161   1.172   2.261   6.099
    2PC     O33 3162   1.398   2.769   5.693
    2PC     O34 3163   1.205   2.876   5.685
    2PC     O21 3164   1.094   2.831   5.190
    2PC     C21 3165   1.126   2.955   5.147
    2PC     O22 3166   1.216   3.018   5.197
    3OL     C12 3167   1.044   3.009   5.032
    3OL     H2R 3168   1.102   3.013   4.940
    3OL     H2S 3169   1.007   3.107   5.062
    3OL     C13 3170   0.920   2.922   5.011
    3OL     H3R 3171   0.851   2.927   5.096
    3OL     H3S 3172   0.961   2.825   4.983
    3OL     C14 3173   0.841   2.961   4.886
    3OL     H4R 3174   0.918   2.949   4.809
    3OL     H4S 3175   0.815   3.067   4.884
    3OL     C15 3176   0.710   2.886   4.858
    3OL     H5R 3177   0.642   2.912   4.939
    3OL     H5S 3178   0.723   2.777   4.857
    3OL     C16 3179   0.657   2.922   4.718
    3OL     H6R 3180   0.724   2.893   4.637
    3OL     H6S 3181   0.640   3.029   4.733
    3OL     C17 3182   0.525   2.844   4.711
    3OL     H7R 3183   0.514   2.757   4.776
    3OL     H7S 3184   0.514   2.819   4.605
    3OL     C18 3185   0.412   2.941   4.748
    3OL     H8R 3186   0.419   3.025   4.679
    3OL     H8S 3187   0.428   2.977   4.849
    3OL     C19 3188   0.277   2.876   4.760
    3OL     H9R 3189   0.279   2.794   4.832
    3OL    C110 3190   0.160   2.921   4.718
    3OL    H10R 3191   0.067   2.871   4.746
    3OL    C111 3192   0.136   3.040   4.628
    3OL    H11R 3193   0.224   3.058   4.567
    3OL    H11S 3194   0.126   3.127   4.694
    3OL    C112 3195   0.008   3.033   4.544
    3OL    H12R 3196  -0.073   2.987   4.601
    3OL    H12S 3197   0.027   2.970   4.457
    3OL    C113 3198  -0.035   3.167   4.484
    3OL    H13R 3199   0.023   3.186   4.393
    3OL    H13S 3200  -0.008   3.256   4.540
    3OL    C114 3201  -0.177   3.169   4.424
    3OL    H14R 3202  -0.251   3.171   4.504
    3OL    H14S 3203  -0.195   3.070   4.381
    3OL    C115 3204  -0.196   3.282   4.321
    3OL    H15R 3205  -0.297   3.256   4.289
    3OL    H15S 3206  -0.126   3.261   4.239
    3OL    C116 3207  -0.204   3.422   4.382
    3OL    H16R 3208  -0.206   3.496   4.301
    3OL    H16S 3209  -0.116   3.438   4.444
    3OL    C117 3210  -0.332   3.441   4.464
    3OL    H17R 3211  -0.341   3.369   4.546
    3OL    H17S 3212  -0.415   3.434   4.393
    3OL    C118 3213  -0.323   3.580   4.528
    3OL    H18R 3214  -0.250   3.582   4.609
    3OL    H18S 3215  -0.423   3.612   4.557
    3OL    H18T 3216  -0.291   3.649   4.450
    1PA    C116 3217   2.901  -0.369   4.000
    1PA    H16R 3218   2.951  -0.338   3.908
    1PA    H16S 3219   2.972  -0.420   4.065
    1PA    H16T 3220   2.880  -0.272   4.045
    1PA    C115 3221   2.775  -0.450   3.967
    1PA    H15R 3222   2.693  -0.387   3.930
    1PA    H15S 3223   2.795  -0.505   3.875
    1PA    C114 3224   2.718  -0.552   4.066
    1PA    H14R 3225   2.783  -0.639   4.076
    1PA    H14S 3226   2.712  -0.504   4.164
    1PA    C113 3227   2.582  -0.596   4.010
    1PA    H13R 3228   2.516  -0.509   3.996
    1PA    H13S 3229   2.591  -0.641   3.911
    1PA    C112 3230   2.522  -0.696   4.110
    1PA    H12R 3231   2.442  -0.740   4.050
    1PA    H12S 3232   2.582  -0.780   4.145
    1PA    C111 3233   2.474  -0.618   4.234
    1PA    H11R 3234   2.564  -0.577   4.282
    1PA    H11S 3235   2.412  -0.535   4.201
    1PA    C110 3236   2.380  -0.708   4.315
    1PA    H10R 3237   2.303  -0.752   4.252
    1PA    H10S 3238   2.427  -0.797   4.357
    1PA     C19 3239   2.316  -0.630   4.431
    1PA     H9R 3240   2.284  -0.529   4.406
    1PA     H9S 3241   2.237  -0.702   4.454
    1PA     C18 3242   2.412  -0.631   4.550
    1PA     H8R 3243   2.455  -0.731   4.552
    1PA     H8S 3244   2.488  -0.552   4.542
    1PA     C17 3245   2.346  -0.594   4.684
    1PA     H7R 3246   2.260  -0.661   4.686
    1PA     H7S 3247   2.411  -0.631   4.764
    1PA     C16 3248   2.306  -0.446   4.690
    1PA     H6R 3249   2.378  -0.386   4.634
    1PA     H6S 3250   2.211  -0.436   4.637
    1PA     C15 3251   2.278  -0.412   4.837
    1PA     H5R 3252   2.186  -0.463   4.867
    1PA     H5S 3253   2.357  -0.452   4.901
    1PA     C14 3254   2.267  -0.263   4.872
    1PA     H4R 3255   2.365  -0.220   4.892
    1PA     H4S 3256   2.230  -0.206   4.786
    1PA     C13 3257   2.190  -0.244   5.003
    1PA     H3R 3258   2.083  -0.253   4.979
    1PA     H3S 3259   2.215  -0.326   5.070
    1PA     C12 3260   2.208  -0.102   5.059
    1PA     H2R 3261   2.310  -0.077   5.087
    1PA     H2S 3262   2.168  -0.040   4.979
    2PC     C11 3263   2.118  -0.081   5.179
    2PC     O12 3264   2.017  -0.139   5.211
    2PC     O11 3265   2.173   0.011   5.260
    2PC      C1 3266   2.099   0.041   5.380
    2PC      HR 3267   2.016   0.105   5.349
    2PC      HS 3268   2.066  -0.050   5.430
    2PC      C2 3269   2.182   0.124   5.479
    2PC      HX 3270   2.288   0.112   5.457
    2PC      C3 3271   2.147   0.099   5.626
    2PC      HA 3272   2.169  -0.002   5.664
    2PC      HB 3273   2.201   0.164   5.695
    2PC     O31 3274   2.005   0.115   5.646
    2PC     P31 3275   1.946   0.133   5.794
    2PC     O32 3276   1.900  -0.017   5.824
    2PC     C31 3277   2.003  -0.112   5.859
    2PC     H1A 3278   2.077  -0.135   5.783
    2PC     H1B 3279   2.062  -0.068   5.940
    2PC     C32 3280   1.936  -0.243   5.903
    2PC     H2A 3281   2.010  -0.307   5.951
    2PC     H2B 3282   1.866  -0.219   5.983
    2PC     N31 3283   1.869  -0.332   5.803
    2PC     C33 3284   1.977  -0.387   5.714
    2PC     H3A 3285   2.029  -0.303   5.668
    2PC     H3B 3286   2.050  -0.434   5.780
    2PC     H3C 3287   1.937  -0.453   5.637
    2PC     C34 3288   1.802  -0.450   5.866
    2PC     H4A 3289   1.707  -0.425   5.915
    2PC     H4B 3290   1.794  -0.530   5.792
    2PC     H4C 3291   1.869  -0.488   5.943
    2PC     C35 3292   1.761  -0.267   5.721
    2PC     H5A 3293   1.798  -0.178   5.670
    2PC     H5B 3294   1.691  -0.245   5.802
    2PC     H5C 3295   1.716  -0.332   5.646
    2PC     O33 3296   2.050   0.178   5.890
    2PC     O34 3297   1.836   0.228   5.824
    2PC     O21 3298   2.154   0.261   5.445
    2PC     C21 3299   2.244   0.355   5.478
    2PC     O22 3300   2.325   0.343   5.568
    3OL     C12 3301   2.234   0.486   5.405
    3OL     H2R 3302   2.326   0.505   5.348
    3OL     H2S 3303   2.221   0.564   5.480
    3OL     C13 3304   2.114   0.505   5.312
    3OL     H3R 3305   2.028   0.502   5.379
    3OL     H3S 3306   2.107   0.423   5.240
    3OL     C14 3307   2.119   0.642   5.243
    3OL     H4R 3308   2.203   0.651   5.173
    3OL     H4S 3309   2.147   0.720   5.314
    3OL     C15 3310   1.989   0.678   5.170
    3OL     H5R 3311   1.988   0.783   5.141
    3OL     H5S 3312   1.903   0.661   5.235
    3OL     C16 3313   1.973   0.601   5.038
    3OL     H6R 3314   1.946   0.496   5.052
    3OL     H6S 3315   2.061   0.614   4.976
    3OL     C17 3316   1.867   0.670   4.951
    3OL     H7R 3317   1.889   0.651   4.846
    3OL     H7S 3318   1.875   0.776   4.977
    3OL     C18 3319   1.724   0.625   4.986
    3OL     H8R 3320   1.643   0.675   4.934
    3OL     H8S 3321   1.702   0.664   5.086
    3OL     C19 3322   1.705   0.477   4.970
    3OL     H9R 3323   1.745   0.412   5.048
    3OL    C110 3324   1.640   0.418   4.870
    3OL    H10R 3325   1.618   0.312   4.875
    3OL    C111 3326   1.596   0.484   4.742
    3OL    H11R 3327   1.664   0.557   4.697
    3OL    H11S 3328   1.498   0.527   4.763
    3OL    C112 3329   1.572   0.370   4.643
    3OL    H12R 3330   1.482   0.323   4.684
    3OL    H12S 3331   1.651   0.295   4.634
    3OL    C113 3332   1.555   0.418   4.499
    3OL    H13R 3333   1.544   0.334   4.431
    3OL    H13S 3334   1.633   0.492   4.476
    3OL    C114 3335   1.421   0.492   4.494
    3OL    H14R 3336   1.418   0.577   4.563
    3OL    H14S 3337   1.341   0.428   4.532
    3OL    C115 3338   1.391   0.536   4.350
    3OL    H15R 3339   1.476   0.576   4.295
    3OL    H15S 3340   1.322   0.619   4.366
    3OL    C116 3341   1.323   0.420   4.275
    3OL    H16R 3342   1.240   0.394   4.340
    3OL    H16S 3343   1.384   0.331   4.257
    3OL    C117 3344   1.276   0.474   4.139
    3OL    H17R 3345   1.358   0.528   4.091
    3OL    H17S 3346   1.197   0.549   4.144
    3OL    C118 3347   1.219   0.366   4.047
    3OL    H18R 3348   1.281   0.278   4.062
    3OL    H18S 3349   1.215   0.406   3.945
    3OL    H18T 3350   1.117   0.344   4.079
    1PA    C116 3351   1.902   5.880   4.167
    1PA    H16R 3352   1.978   5.811   4.129
    1PA    H16S 3353   1.952   5.963   4.217
    1PA    H16T 3354   1.845   5.915   4.081
    1PA    C115 3355   1.803   5.801   4.254
    1PA    H15R 3356   1.724   5.872   4.282
    1PA    H15S 3357   1.759   5.720   4.194
    1PA    C114 3358   1.882   5.735   4.367
    1PA    H14R 3359   1.944   5.661   4.316
    1PA    H14S 3360   1.945   5.801   4.427
    1PA    C113 3361   1.784   5.666   4.463
    1PA    H13R 3362   1.707   5.738   4.492
    1PA    H13S 3363   1.725   5.586   4.416
    1PA    C112 3364   1.848   5.597   4.584
    1PA    H12R 3365   1.915   5.671   4.628
    1PA    H12S 3366   1.774   5.562   4.656
    1PA    C111 3367   1.922   5.469   4.543
    1PA    H11R 3368   1.847   5.395   4.515
    1PA    H11S 3369   1.999   5.485   4.468
    1PA    C110 3370   1.985   5.395   4.662
    1PA    H10R 3371   1.916   5.363   4.739
    1PA    H10S 3372   2.028   5.300   4.627
    1PA     C19 3373   2.093   5.476   4.734
    1PA     H9R 3374   2.165   5.510   4.659
    1PA     H9S 3375   2.043   5.562   4.778
    1PA     C18 3376   2.172   5.397   4.839
    1PA     H8R 3377   2.110   5.353   4.917
    1PA     H8S 3378   2.215   5.319   4.776
    1PA     C17 3379   2.278   5.485   4.907
    1PA     H7R 3380   2.302   5.412   4.985
    1PA     H7S 3381   2.366   5.490   4.842
    1PA     C16 3382   2.232   5.620   4.962
    1PA     H6R 3383   2.327   5.666   4.991
    1PA     H6S 3384   2.181   5.680   4.886
    1PA     C15 3385   2.137   5.606   5.082
    1PA     H5R 3386   2.051   5.544   5.058
    1PA     H5S 3387   2.190   5.551   5.160
    1PA     C14 3388   2.087   5.732   5.153
    1PA     H4R 3389   2.045   5.789   5.070
    1PA     H4S 3390   2.002   5.702   5.215
    1PA     C13 3391   2.198   5.813   5.222
    1PA     H3R 3392   2.254   5.751   5.292
    1PA     H3S 3393   2.278   5.835   5.152
    1PA     C12 3394   2.173   5.943   5.300
    1PA     H2R 3395   2.100   6.001   5.243
    1PA     H2S 3396   2.107   5.922   5.384
    2PC     C11 3397   2.296   6.023   5.333
    2PC     O12 3398   2.409   5.985   5.308
    2PC     O11 3399   2.270   6.133   5.405
    2PC      C1 3400   2.373   6.181   5.493
    2PC      HR 3401   2.331   6.255   5.561
    2PC      HS 3402   2.414   6.102   5.556
    2PC      C2 3403   2.493   6.246   5.421
    2PC      HX 3404   2.507   6.197   5.325
    2PC      C3 3405   2.608   6.220   5.518
    2PC      HA 3406   2.588   6.267   5.615
    2PC      HB 3407   2.624   6.112   5.531
    2PC     O31 3408   2.727   6.278   5.460
    2PC     P31 3409   2.852   6.294   5.559
    2PC     O32 3410   2.969   6.275   5.452
    2PC     C31 3411   3.033   6.381   5.379
    2PC     H1A 3412   3.042   6.468   5.445
    2PC     H1B 3413   3.130   6.349   5.340
    2PC     C32 3414   2.938   6.421   5.265
    2PC     H2A 3415   2.912   6.331   5.210
    2PC     H2B 3416   2.844   6.453   5.310
    2PC     N31 3417   2.975   6.529   5.167
    2PC     C33 3418   3.017   6.652   5.241
    2PC     H3A 3419   3.108   6.629   5.296
    2PC     H3B 3420   3.019   6.729   5.164
    2PC     H3C 3421   2.941   6.686   5.312
    2PC     C34 3422   3.098   6.488   5.092
    2PC     H4A 3423   3.127   6.568   5.024
    2PC     H4B 3424   3.175   6.462   5.165
    2PC     H4C 3425   3.083   6.398   5.032
    2PC     C35 3426   2.862   6.541   5.071
    2PC     H5A 3427   2.889   6.624   5.005
    2PC     H5B 3428   2.767   6.561   5.122
    2PC     H5C 3429   2.851   6.448   5.014
    2PC     O33 3430   2.837   6.422   5.631
    2PC     O34 3431   2.840   6.191   5.665
    2PC     O21 3432   2.472   6.387   5.399
    2PC     C21 3433   2.544   6.449   5.305
    2PC     O22 3434   2.622   6.386   5.236
    3OL     C12 3435   2.526   6.598   5.316
    3OL     H2R 3436   2.619   6.654   5.308
    3OL     H2S 3437   2.485   6.619   5.415
    3OL     C13 3438   2.436   6.651   5.203
    3OL     H3R 3439   2.451   6.759   5.200
    3OL     H3S 3440   2.331   6.637   5.228
    3OL     C14 3441   2.464   6.601   5.060
    3OL     H4R 3442   2.437   6.495   5.062
    3OL     H4S 3443   2.570   6.606   5.034
    3OL     C15 3444   2.374   6.671   4.957
    3OL     H5R 3445   2.384   6.780   4.957
    3OL     H5S 3446   2.267   6.647   4.957
    3OL     C16 3447   2.422   6.632   4.817
    3OL     H6R 3448   2.515   6.686   4.798
    3OL     H6S 3449   2.349   6.662   4.742
    3OL     C17 3450   2.436   6.481   4.791
    3OL     H7R 3451   2.341   6.429   4.803
    3OL     H7S 3452   2.514   6.446   4.859
    3OL     C18 3453   2.469   6.442   4.647
    3OL     H8R 3454   2.464   6.333   4.649
    3OL     H8S 3455   2.566   6.478   4.613
    3OL     C19 3456   2.360   6.488   4.553
    3OL     H9R 3457   2.256   6.462   4.572
    3OL    C110 3458   2.378   6.533   4.430
    3OL    H10R 3459   2.288   6.544   4.370
    3OL    C111 3460   2.504   6.584   4.364
    3OL    H11R 3461   2.586   6.519   4.394
    3OL    H11S 3462   2.534   6.678   4.410
    3OL    C112 3463   2.490   6.615   4.215
    3OL    H12R 3464   2.430   6.704   4.194
    3OL    H12S 3465   2.440   6.534   4.160
    3OL    C113 3466   2.628   6.646   4.156
    3OL    H13R 3467   2.667   6.740   4.195
    3OL    H13S 3468   2.605   6.660   4.050
    3OL    C114 3469   2.728   6.532   4.176
    3OL    H14R 3470   2.676   6.437   4.190
    3OL    H14S 3471   2.792   6.552   4.263
    3OL    C115 3472   2.833   6.524   4.065
    3OL    H15R 3473   2.885   6.620   4.065
    3OL    H15S 3474   2.784   6.508   3.969
    3OL    C116 3475   2.943   6.421   4.097
    3OL    H16R 3476   2.988   6.375   4.009
    3OL    H16S 3477   2.896   6.339   4.151
    3OL    C117 3478   3.052   6.464   4.196
    3OL    H17R 3479   3.013   6.482   4.296
    3OL    H17S 3480   3.105   6.550   4.155
    3OL    C118 3481   3.162   6.358   4.211
    3OL    H18R 3482   3.131   6.257   4.239
    3OL    H18S 3483   3.227   6.392   4.292
    3OL    H18T 3484   3.219   6.364   4.118
    1PA    C116 3485   3.388   3.681   3.703
    1PA    H16R 3486   3.419   3.577   3.700
    1PA    H16S 3487   3.289   3.681   3.658
    1PA    H16T 3488   3.458   3.746   3.648
    1PA    C115 3489   3.383   3.707   3.854
    1PA    H15R 3490   3.482   3.726   3.894
    1PA    H15S 3491   3.327   3.799   3.873
    1PA    C114 3492   3.315   3.594   3.931
    1PA    H14R 3493   3.354   3.496   3.903
    1PA    H14S 3494   3.332   3.610   4.038
    1PA    C113 3495   3.162   3.597   3.912
    1PA    H13R 3496   3.112   3.694   3.918
    1PA    H13S 3497   3.155   3.561   3.809
    1PA    C112 3498   3.083   3.503   4.004
    1PA    H12R 3499   2.982   3.492   3.964
    1PA    H12S 3500   3.132   3.406   4.001
    1PA    C111 3501   3.066   3.553   4.148
    1PA    H11R 3502   3.166   3.563   4.191
    1PA    H11S 3503   3.024   3.653   4.158
    1PA    C110 3504   2.972   3.460   4.227
    1PA    H10R 3505   2.869   3.479   4.199
    1PA    H10S 3506   2.991   3.353   4.222
    1PA     C19 3507   2.992   3.496   4.375
    1PA     H9R 3508   3.093   3.457   4.391
    1PA     H9S 3509   2.980   3.602   4.396
    1PA     C18 3510   2.886   3.423   4.458
    1PA     H8R 3511   2.784   3.442   4.422
    1PA     H8S 3512   2.912   3.317   4.461
    1PA     C17 3513   2.893   3.475   4.602
    1PA     H7R 3514   2.981   3.433   4.649
    1PA     H7S 3515   2.894   3.584   4.612
    1PA     C16 3516   2.774   3.413   4.676
    1PA     H6R 3517   2.681   3.444   4.627
    1PA     H6S 3518   2.780   3.304   4.681
    1PA     C15 3519   2.756   3.468   4.819
    1PA     H5R 3520   2.837   3.444   4.888
    1PA     H5S 3521   2.761   3.577   4.822
    1PA     C14 3522   2.623   3.414   4.874
    1PA     H4R 3523   2.544   3.462   4.816
    1PA     H4S 3524   2.609   3.306   4.875
    1PA     C13 3525   2.600   3.467   5.016
    1PA     H3R 3526   2.683   3.431   5.077
    1PA     H3S 3527   2.605   3.576   5.024
    1PA     C12 3528   2.460   3.425   5.064
    1PA     H2R 3529   2.393   3.488   5.005
    1PA     H2S 3530   2.443   3.318   5.047
    2PC     C11 3531   2.422   3.456   5.206
    2PC     O12 3532   2.511   3.465   5.288
    2PC     O11 3533   2.291   3.473   5.232
    2PC      C1 3534   2.250   3.512   5.364
    2PC      HR 3535   2.271   3.432   5.436
    2PC      HS 3536   2.300   3.606   5.391
    2PC      C2 3537   2.098   3.537   5.366
    2PC      HX 3538   2.081   3.584   5.463
    2PC      C3 3539   2.026   3.404   5.343
    2PC      HA 3540   2.008   3.380   5.237
    2PC      HB 3541   2.067   3.317   5.395
    2PC     O31 3542   1.898   3.425   5.406
    2PC     P31 3543   1.824   3.303   5.477
    2PC     O32 3544   1.672   3.349   5.452
    2PC     C31 3545   1.568   3.383   5.546
    2PC     H1A 3546   1.569   3.305   5.622
    2PC     H1B 3547   1.598   3.477   5.592
    2PC     C32 3548   1.429   3.382   5.480
    2PC     H2A 3549   1.351   3.401   5.554
    2PC     H2B 3550   1.432   3.467   5.411
    2PC     N31 3551   1.380   3.266   5.399
    2PC     C33 3552   1.465   3.235   5.280
    2PC     H3A 3553   1.431   3.309   5.207
    2PC     H3B 3554   1.572   3.251   5.294
    2PC     H3C 3555   1.456   3.129   5.253
    2PC     C34 3556   1.371   3.139   5.477
    2PC     H4A 3557   1.476   3.115   5.498
    2PC     H4B 3558   1.318   3.158   5.570
    2PC     H4C 3559   1.321   3.070   5.408
    2PC     C35 3560   1.244   3.298   5.342
    2PC     H5A 3561   1.211   3.223   5.270
    2PC     H5B 3562   1.235   3.398   5.301
    2PC     H5C 3563   1.170   3.301   5.422
    2PC     O33 3564   1.858   3.164   5.439
    2PC     O34 3565   1.839   3.309   5.624
    2PC     O21 3566   2.048   3.622   5.261
    2PC     C21 3567   2.056   3.752   5.291
    2PC     O22 3568   2.129   3.816   5.365
    3OL     C12 3569   1.966   3.835   5.202
    3OL     H2R 3570   1.998   3.939   5.213
    3OL     H2S 3571   1.863   3.830   5.238
    3OL     C13 3572   1.979   3.803   5.053
    3OL     H3R 3573   1.951   3.698   5.041
    3OL     H3S 3574   2.083   3.829   5.031
    3OL     C14 3575   1.891   3.893   4.966
    3OL     H4R 3576   1.915   3.999   4.981
    3OL     H4S 3577   1.786   3.886   4.995
    3OL     C15 3578   1.905   3.849   4.820
    3OL     H5R 3579   1.877   3.745   4.798
    3OL     H5S 3580   2.009   3.863   4.790
    3OL     C16 3581   1.817   3.927   4.721
    3OL     H6R 3582   1.854   4.030   4.720
    3OL     H6S 3583   1.715   3.929   4.760
    3OL     C17 3584   1.814   3.855   4.585
    3OL     H7R 3585   1.781   3.754   4.608
    3OL     H7S 3586   1.913   3.856   4.540
    3OL     C18 3587   1.726   3.922   4.479
    3OL     H8R 3588   1.783   3.993   4.419
    3OL     H8S 3589   1.641   3.974   4.524
    3OL     C19 3590   1.679   3.817   4.382
    3OL     H9R 3591   1.580   3.774   4.398
    3OL    C110 3592   1.740   3.778   4.271
    3OL    H10R 3593   1.694   3.709   4.201
    3OL    C111 3594   1.876   3.825   4.227
    3OL    H11R 3595   1.933   3.737   4.197
    3OL    H11S 3596   1.923   3.867   4.316
    3OL    C112 3597   1.865   3.929   4.114
    3OL    H12R 3598   1.807   3.874   4.039
    3OL    H12S 3599   1.962   3.952   4.070
    3OL    C113 3600   1.803   4.059   4.166
    3OL    H13R 3601   1.882   4.106   4.226
    3OL    H13S 3602   1.717   4.035   4.228
    3OL    C114 3603   1.756   4.163   4.062
    3OL    H14R 3604   1.744   4.265   4.099
    3OL    H14S 3605   1.656   4.136   4.028
    3OL    C115 3606   1.857   4.172   3.947
    3OL    H15R 3607   1.876   4.079   3.893
    3OL    H15S 3608   1.949   4.196   4.001
    3OL    C116 3609   1.830   4.293   3.857
    3OL    H16R 3610   1.906   4.284   3.780
    3OL    H16S 3611   1.838   4.387   3.913
    3OL    C117 3612   1.690   4.293   3.794
    3OL    H17R 3613   1.613   4.319   3.867
    3OL    H17S 3614   1.659   4.194   3.759
    3OL    C118 3615   1.682   4.386   3.672
    3OL    H18R 3616   1.576   4.381   3.645
    3OL    H18S 3617   1.754   4.360   3.594
    3OL    H18T 3618   1.696   4.488   3.710
    1PA    C116 3619   3.247  -0.013   3.782
    1PA    H16R 3620   3.230  -0.053   3.882
    1PA    H16S 3621   3.350  -0.036   3.754
    1PA    H16T 3622   3.170  -0.060   3.720
    1PA    C115 3623   3.219   0.138   3.792
    1PA    H15R 3624   3.235   0.186   3.695
    1PA    H15S 3625   3.115   0.154   3.820
    1PA    C114 3626   3.304   0.203   3.901
    1PA    H14R 3627   3.302   0.154   3.999
    1PA    H14S 3628   3.405   0.209   3.861
    1PA    C113 3629   3.260   0.350   3.917
    1PA    H13R 3630   3.284   0.400   3.823
    1PA    H13S 3631   3.154   0.374   3.920
    1PA    C112 3632   3.336   0.414   4.034
    1PA    H12R 3633   3.293   0.377   4.127
    1PA    H12S 3634   3.444   0.396   4.028
    1PA    C111 3635   3.311   0.565   4.032
    1PA    H11R 3636   3.359   0.595   3.938
    1PA    H11S 3637   3.206   0.593   4.019
    1PA    C110 3638   3.369   0.624   4.161
    1PA    H10R 3639   3.311   0.717   4.159
    1PA    H10S 3640   3.343   0.571   4.252
    1PA     C19 3641   3.517   0.665   4.147
    1PA     H9R 3642   3.558   0.572   4.108
    1PA     H9S 3643   3.528   0.748   4.076
    1PA     C18 3644   3.590   0.696   4.278
    1PA     H8R 3645   3.550   0.637   4.360
    1PA     H8S 3646   3.695   0.667   4.269
    1PA     C17 3647   3.587   0.845   4.317
    1PA     H7R 3648   3.607   0.914   4.235
    1PA     H7S 3649   3.486   0.882   4.334
    1PA     C16 3650   3.685   0.868   4.433
    1PA     H6R 3651   3.775   0.809   4.416
    1PA     H6S 3652   3.706   0.975   4.440
    1PA     C15 3653   3.633   0.834   4.574
    1PA     H5R 3654   3.542   0.893   4.586
    1PA     H5S 3655   3.608   0.728   4.575
    1PA     C14 3656   3.724   0.875   4.691
    1PA     H4R 3657   3.817   0.818   4.698
    1PA     H4S 3658   3.737   0.980   4.668
    1PA     C13 3659   3.651   0.858   4.825
    1PA     H3R 3660   3.554   0.908   4.826
    1PA     H3S 3661   3.635   0.750   4.819
    1PA     C12 3662   3.738   0.895   4.946
    1PA     H2R 3663   3.812   0.817   4.962
    1PA     H2S 3664   3.788   0.991   4.930
    2PC     C11 3665   3.652   0.907   5.069
    2PC     O12 3666   3.647   0.819   5.153
    2PC     O11 3667   3.597   1.029   5.070
    2PC      C1 3668   3.538   1.074   5.194
    2PC      HR 3669   3.465   1.155   5.180
    2PC      HS 3670   3.490   0.989   5.242
    2PC      C2 3671   3.653   1.126   5.281
    2PC      HX 3672   3.717   1.040   5.304
    2PC      C3 3673   3.582   1.198   5.396
    2PC      HA 3674   3.546   1.294   5.359
    2PC      HB 3675   3.506   1.139   5.450
    2PC     O31 3676   3.677   1.233   5.498
    2PC     P31 3677   3.632   1.321   5.624
    2PC     O32 3678   3.780   1.339   5.683
    2PC     C31 3679   3.788   1.383   5.820
    2PC     H1A 3680   3.747   1.483   5.838
    2PC     H1B 3681   3.734   1.308   5.878
    2PC     C32 3682   3.941   1.381   5.838
    2PC     H2A 3683   3.971   1.279   5.816
    2PC     H2B 3684   3.989   1.454   5.772
    2PC     N31 3685   3.984   1.410   5.978
    2PC     C33 3686   3.938   1.301   6.070
    2PC     H3A 3687   3.976   1.204   6.037
    2PC     H3B 3688   3.982   1.318   6.169
    2PC     H3C 3689   3.830   1.313   6.083
    2PC     C34 3690   4.134   1.401   5.979
    2PC     H4A 3691   4.161   1.400   6.085
    2PC     H4B 3692   4.148   1.311   5.920
    2PC     H4C 3693   4.180   1.488   5.933
    2PC     C35 3694   3.943   1.546   6.025
    2PC     H5A 3695   3.834   1.558   6.023
    2PC     H5B 3696   3.983   1.616   5.952
    2PC     H5C 3697   3.984   1.564   6.125
    2PC     O33 3698   3.578   1.454   5.589
    2PC     O34 3699   3.540   1.251   5.717
    2PC     O21 3700   3.744   1.211   5.209
    2PC     C21 3701   3.714   1.324   5.143
    2PC     O22 3702   3.600   1.367   5.145
    3OL     C12 3703   3.817   1.396   5.060
    3OL     H2R 3704   3.825   1.503   5.080
    3OL     H2S 3705   3.779   1.392   4.957
    3OL     C13 3706   3.959   1.340   5.076
    3OL     H3R 3707   3.981   1.316   5.180
    3OL     H3S 3708   4.040   1.407   5.045
    3OL     C14 3709   3.978   1.215   4.989
    3OL     H4R 3710   3.908   1.136   5.018
    3OL     H4S 3711   4.080   1.182   5.006
    3OL     C15 3712   3.965   1.239   4.838
    3OL     H5R 3713   4.018   1.329   4.805
    3OL     H5S 3714   3.862   1.257   4.808
    3OL     C16 3715   4.010   1.112   4.764
    3OL     H6R 3716   3.954   1.024   4.793
    3OL     H6S 3717   4.117   1.096   4.777
    3OL     C17 3718   3.973   1.124   4.615
    3OL     H7R 3719   4.014   1.215   4.571
    3OL     H7S 3720   3.865   1.122   4.601
    3OL     C18 3721   4.035   1.011   4.531
    3OL     H8R 3722   3.990   0.919   4.569
    3OL     H8S 3723   4.140   1.016   4.558
    3OL     C19 3724   4.010   1.023   4.382
    3OL     H9R 3725   3.912   0.986   4.354
    3OL    C110 3726   4.099   1.055   4.289
    3OL    H10R 3727   4.063   1.064   4.186
    3OL    C111 3728   4.243   1.098   4.296
    3OL    H11R 3729   4.321   1.023   4.283
    3OL    H11S 3730   4.274   1.129   4.396
    3OL    C112 3731   4.269   1.206   4.190
    3OL    H12R 3732   4.373   1.231   4.211
    3OL    H12S 3733   4.209   1.298   4.196
    3OL    C113 3734   4.261   1.151   4.047
    3OL    H13R 3735   4.158   1.120   4.026
    3OL    H13S 3736   4.326   1.063   4.042
    3OL    C114 3737   4.291   1.261   3.944
    3OL    H14R 3738   4.378   1.318   3.978
    3OL    H14S 3739   4.201   1.322   3.946
    3OL    C115 3740   4.319   1.202   3.805
    3OL    H15R 3741   4.312   1.274   3.724
    3OL    H15S 3742   4.234   1.140   3.776
    3OL    C116 3743   4.452   1.125   3.795
    3OL    H16R 3744   4.450   1.056   3.879
    3OL    H16S 3745   4.531   1.199   3.808
    3OL    C117 3746   4.474   1.036   3.672
    3OL    H17R 3747   4.379   0.998   3.634
    3OL    H17S 3748   4.543   0.954   3.692
    3OL    C118 3749   4.532   1.125   3.561
    3OL    H18R 3750   4.633   1.155   3.591
    3OL    H18S 3751   4.469   1.213   3.547
    3OL    H18T 3752   4.532   1.075   3.464
    1PA    C116 3753   5.173   1.558   3.797
    1PA    H16R 3754   5.267   1.547   3.743
    1PA    H16S 3755   5.148   1.663   3.814
    1PA    H16T 3756   5.097   1.515   3.732
    1PA    C115 3757   5.160   1.483   3.930
    1PA    H15R 3758   5.054   1.478   3.956
    1PA    H15S 3759   5.193   1.380   3.912
    1PA    C114 3760   5.256   1.554   4.027
    1PA    H14R 3761   5.310   1.488   4.095
    1PA    H14S 3762   5.336   1.605   3.974
    1PA    C113 3763   5.202   1.665   4.119
    1PA    H13R 3764   5.291   1.710   4.165
    1PA    H13S 3765   5.146   1.749   4.078
    1PA    C112 3766   5.114   1.607   4.230
    1PA    H12R 3767   5.024   1.562   4.188
    1PA    H12S 3768   5.175   1.529   4.278
    1PA    C111 3769   5.073   1.705   4.341
    1PA    H11R 3770   5.159   1.760   4.379
    1PA    H11S 3771   5.012   1.782   4.292
    1PA    C110 3772   4.995   1.637   4.455
    1PA    H10R 3773   4.897   1.612   4.413
    1PA    H10S 3774   5.048   1.547   4.486
    1PA     C19 3775   4.970   1.741   4.565
    1PA     H9R 3776   5.060   1.791   4.602
    1PA     H9S 3777   4.898   1.812   4.524
    1PA     C18 3778   4.890   1.671   4.675
    1PA     H8R 3779   4.787   1.657   4.639
    1PA     H8S 3780   4.929   1.572   4.700
    1PA     C17 3781   4.879   1.755   4.802
    1PA     H7R 3782   4.832   1.850   4.777
    1PA     H7S 3783   4.816   1.709   4.879
    1PA     C16 3784   5.015   1.785   4.867
    1PA     H6R 3785   5.090   1.810   4.792
    1PA     H6S 3786   4.989   1.869   4.931
    1PA     C15 3787   5.066   1.669   4.953
    1PA     H5R 3788   4.984   1.626   5.011
    1PA     H5S 3789   5.111   1.595   4.886
    1PA     C14 3790   5.176   1.721   5.047
    1PA     H4R 3791   5.258   1.778   5.002
    1PA     H4S 3792   5.131   1.792   5.117
    1PA     C13 3793   5.255   1.608   5.114
    1PA     H3R 3794   5.282   1.538   5.035
    1PA     H3S 3795   5.343   1.652   5.162
    1PA     C12 3796   5.165   1.542   5.219
    1PA     H2R 3797   5.066   1.525   5.175
    1PA     H2S 3798   5.212   1.449   5.252
    2PC     C11 3799   5.164   1.622   5.347
    2PC     O12 3800   5.228   1.722   5.371
    2PC     O11 3801   5.077   1.570   5.436
    2PC      C1 3802   5.046   1.635   5.561
    2PC      HR 3803   5.136   1.656   5.618
    2PC      HS 3804   4.998   1.732   5.549
    2PC      C2 3805   4.952   1.540   5.636
    2PC      HX 3806   4.917   1.594   5.724
    2PC      C3 3807   5.033   1.417   5.678
    2PC      HA 3808   5.033   1.363   5.583
    2PC      HB 3809   5.136   1.441   5.708
    2PC     O31 3810   4.962   1.341   5.777
    2PC     P31 3811   5.046   1.247   5.876
    2PC     O32 3812   5.116   1.352   5.975
    2PC     C31 3813   5.212   1.324   6.079
    2PC     H1A 3814   5.160   1.251   6.142
    2PC     H1B 3815   5.292   1.265   6.033
    2PC     C32 3816   5.250   1.454   6.150
    2PC     H2A 3817   5.154   1.503   6.163
    2PC     H2B 3818   5.307   1.433   6.241
    2PC     N31 3819   5.320   1.563   6.074
    2PC     C33 3820   5.239   1.612   5.957
    2PC     H3A 3821   5.265   1.547   5.874
    2PC     H3B 3822   5.134   1.618   5.986
    2PC     H3C 3823   5.275   1.714   5.939
    2PC     C34 3824   5.347   1.687   6.152
    2PC     H4A 3825   5.271   1.703   6.228
    2PC     H4B 3826   5.445   1.674   6.198
    2PC     H4C 3827   5.343   1.777   6.089
    2PC     C35 3828   5.453   1.516   6.024
    2PC     H5A 3829   5.502   1.597   5.970
    2PC     H5B 3830   5.444   1.429   5.958
    2PC     H5C 3831   5.516   1.487   6.109
    2PC     O33 3832   4.972   1.159   5.970
    2PC     O34 3833   5.154   1.166   5.816
    2PC     O21 3834   4.847   1.498   5.547
    2PC     C21 3835   4.745   1.582   5.527
    2PC     O22 3836   4.712   1.673   5.601
    3OL     C12 3837   4.654   1.538   5.414
    3OL     H2R 3838   4.719   1.545   5.327
    3OL     H2S 3839   4.576   1.612   5.399
    3OL     C13 3840   4.595   1.397   5.428
    3OL     H3R 3841   4.536   1.392   5.521
    3OL     H3S 3842   4.683   1.334   5.439
    3OL     C14 3843   4.515   1.341   5.309
    3OL     H4R 3844   4.417   1.389   5.313
    3OL     H4S 3845   4.511   1.232   5.307
    3OL     C15 3846   4.571   1.381   5.172
    3OL     H5R 3847   4.680   1.376   5.170
    3OL     H5S 3848   4.539   1.482   5.146
    3OL     C16 3849   4.501   1.303   5.061
    3OL     H6R 3850   4.401   1.346   5.053
    3OL     H6S 3851   4.489   1.200   5.095
    3OL     C17 3852   4.564   1.318   4.922
    3OL     H7R 3853   4.503   1.259   4.853
    3OL     H7S 3854   4.663   1.276   4.938
    3OL     C18 3855   4.580   1.465   4.882
    3OL     H8R 3856   4.651   1.522   4.941
    3OL     H8S 3857   4.481   1.509   4.892
    3OL     C19 3858   4.627   1.470   4.738
    3OL     H9R 3859   4.731   1.489   4.716
    3OL    C110 3860   4.552   1.446   4.631
    3OL    H10R 3861   4.581   1.442   4.527
    3OL    C111 3862   4.406   1.412   4.621
    3OL    H11R 3863   4.354   1.419   4.716
    3OL    H11S 3864   4.395   1.310   4.583
    3OL    C112 3865   4.342   1.498   4.512
    3OL    H12R 3866   4.402   1.497   4.420
    3OL    H12S 3867   4.336   1.603   4.544
    3OL    C113 3868   4.199   1.448   4.486
    3OL    H13R 3869   4.200   1.339   4.477
    3OL    H13S 3870   4.167   1.482   4.388
    3OL    C114 3871   4.105   1.503   4.594
    3OL    H14R 3872   4.168   1.505   4.683
    3OL    H14S 3873   4.014   1.445   4.611
    3OL    C115 3874   4.051   1.640   4.552
    3OL    H15R 3875   4.005   1.627   4.454
    3OL    H15S 3876   4.131   1.714   4.549
    3OL    C116 3877   3.940   1.677   4.651
    3OL    H16R 3878   3.869   1.595   4.645
    3OL    H16S 3879   3.901   1.770   4.609
    3OL    C117 3880   3.992   1.703   4.794
    3OL    H17R 3881   4.065   1.783   4.807
    3OL    H17S 3882   4.050   1.621   4.835
    3OL    C118 3883   3.877   1.751   4.884
    3OL    H18R 3884   3.805   1.670   4.887
    3OL    H18S 3885   3.825   1.840   4.848
    3OL    H18T 3886   3.908   1.771   4.987
    1PA    C116 3887   2.881   4.818   3.666
    1PA    H16R 3888   2.944   4.906   3.679
    1PA    H16S 3889   2.845   4.815   3.562
    1PA    H16T 3890   2.939   4.726   3.679
    1PA    C115 3891   2.788   4.829   3.787
    1PA    H15R 3892   2.740   4.927   3.783
    1PA    H15S 3893   2.694   4.773   3.779
    1PA    C114 3894   2.861   4.805   3.920
    1PA    H14R 3895   2.924   4.716   3.917
    1PA    H14S 3896   2.936   4.880   3.945
    1PA    C113 3897   2.770   4.815   4.043
    1PA    H13R 3898   2.730   4.917   4.046
    1PA    H13S 3899   2.669   4.773   4.036
    1PA    C112 3900   2.830   4.757   4.172
    1PA    H12R 3901   2.834   4.648   4.166
    1PA    H12S 3902   2.929   4.790   4.202
    1PA    C111 3903   2.742   4.790   4.293
    1PA    H11R 3904   2.761   4.895   4.316
    1PA    H11S 3905   2.635   4.777   4.274
    1PA    C110 3906   2.783   4.716   4.421
    1PA    H10R 3907   2.758   4.612   4.396
    1PA    H10S 3908   2.890   4.724   4.438
    1PA     C19 3909   2.705   4.775   4.539
    1PA     H9R 3910   2.692   4.883   4.535
    1PA     H9S 3911   2.605   4.731   4.532
    1PA     C18 3912   2.764   4.723   4.671
    1PA     H8R 3913   2.694   4.737   4.754
    1PA     H8S 3914   2.773   4.615   4.656
    1PA     C17 3915   2.902   4.777   4.710
    1PA     H7R 3916   2.977   4.733   4.645
    1PA     H7S 3917   2.907   4.882   4.680
    1PA     C16 3918   2.954   4.762   4.853
    1PA     H6R 3919   2.967   4.655   4.868
    1PA     H6S 3920   3.054   4.804   4.870
    1PA     C15 3921   2.855   4.806   4.961
    1PA     H5R 3922   2.812   4.903   4.937
    1PA     H5S 3923   2.772   4.734   4.967
    1PA     C14 3924   2.920   4.810   5.100
    1PA     H4R 3925   2.945   4.709   5.133
    1PA     H4S 3926   3.014   4.864   5.099
    1PA     C13 3927   2.813   4.867   5.195
    1PA     H3R 3928   2.795   4.971   5.167
    1PA     H3S 3929   2.718   4.816   5.180
    1PA     C12 3930   2.859   4.859   5.341
    1PA     H2R 3931   2.891   4.756   5.355
    1PA     H2S 3932   2.942   4.930   5.340
    2PC     C11 3933   2.755   4.903   5.441
    2PC     O12 3934   2.779   4.993   5.518
    2PC     O11 3935   2.645   4.827   5.455
    2PC      C1 3936   2.560   4.850   5.568
    2PC      HR 3937   2.497   4.763   5.592
    2PC      HS 3938   2.624   4.852   5.657
    2PC      C2 3939   2.476   4.977   5.553
    2PC      HX 3940   2.548   5.058   5.534
    2PC      C3 3941   2.403   5.002   5.686
    2PC      HA 3942   2.345   4.913   5.710
    2PC      HB 3943   2.477   5.017   5.765
    2PC     O31 3944   2.311   5.112   5.676
    2PC     P31 3945   2.226   5.155   5.805
    2PC     O32 3946   2.352   5.237   5.860
    2PC     C31 3947   2.338   5.304   5.987
    2PC     H1A 3948   2.410   5.386   5.990
    2PC     H1B 3949   2.245   5.357   6.003
    2PC     C32 3950   2.345   5.194   6.094
    2PC     H2A 3951   2.256   5.133   6.077
    2PC     H2B 3952   2.435   5.137   6.069
    2PC     N31 3953   2.353   5.229   6.239
    2PC     C33 3954   2.217   5.274   6.284
    2PC     H3A 3955   2.143   5.213   6.232
    2PC     H3B 3956   2.220   5.255   6.391
    2PC     H3C 3957   2.207   5.381   6.263
    2PC     C34 3958   2.391   5.103   6.311
    2PC     H4A 3959   2.479   5.060   6.263
    2PC     H4B 3960   2.428   5.128   6.411
    2PC     H4C 3961   2.313   5.026   6.310
    2PC     C35 3962   2.454   5.335   6.269
    2PC     H5A 3963   2.417   5.426   6.221
    2PC     H5B 3964   2.549   5.322   6.216
    2PC     H5C 3965   2.469   5.351   6.376
    2PC     O33 3966   2.115   5.244   5.766
    2PC     O34 3967   2.180   5.048   5.897
    2PC     O21 3968   2.385   4.966   5.442
    2PC     C21 3969   2.285   4.878   5.426
    2PC     O22 3970   2.251   4.792   5.505
    3OL     C12 3971   2.242   4.896   5.283
    3OL     H2R 3972   2.153   4.834   5.269
    3OL     H2S 3973   2.324   4.852   5.226
    3OL     C13 3974   2.218   5.041   5.239
    3OL     H3R 3975   2.206   5.102   5.330
    3OL     H3S 3976   2.119   5.028   5.194
    3OL     C14 3977   2.322   5.106   5.147
    3OL     H4R 3978   2.421   5.087   5.189
    3OL     H4S 3979   2.318   5.215   5.144
    3OL     C15 3980   2.320   5.050   5.003
    3OL     H5R 3981   2.217   5.045   4.969
    3OL     H5S 3982   2.360   4.948   5.005
    3OL     C16 3983   2.403   5.136   4.906
    3OL     H6R 3984   2.360   5.236   4.898
    3OL     H6S 3985   2.393   5.094   4.806
    3OL     C17 3986   2.554   5.136   4.936
    3OL     H7R 3987   2.583   5.043   4.985
    3OL     H7S 3988   2.558   5.207   5.019
    3OL     C18 3989   2.643   5.168   4.815
    3OL     H8R 3990   2.608   5.110   4.730
    3OL     H8S 3991   2.743   5.128   4.834
    3OL     C19 3992   2.657   5.317   4.792
    3OL     H9R 3993   2.718   5.369   4.866
    3OL    C110 3994   2.628   5.386   4.683
    3OL    H10R 3995   2.658   5.489   4.668
    3OL    C111 3996   2.562   5.324   4.563
    3OL    H11R 3997   2.453   5.317   4.570
    3OL    H11S 3998   2.585   5.219   4.546
    3OL    C112 3999   2.610   5.401   4.439
    3OL    H12R 4000   2.596   5.509   4.441
    3OL    H12S 4001   2.561   5.363   4.349
    3OL    C113 4002   2.759   5.373   4.419
    3OL    H13R 4003   2.760   5.283   4.358
    3OL    H13S 4004   2.823   5.359   4.507
    3OL    C114 4005   2.828   5.487   4.342
    3OL    H14R 4006   2.757   5.518   4.265
    3OL    H14S 4007   2.920   5.461   4.290
    3OL    C115 4008   2.849   5.605   4.438
    3OL    H15R 4009   2.762   5.633   4.497
    3OL    H15S 4010   2.877   5.693   4.379
    3OL    C116 4011   2.968   5.575   4.529
    3OL    H16R 4012   3.049   5.536   4.467
    3OL    H16S 4013   2.941   5.509   4.612
    3OL    C117 4014   3.023   5.704   4.590
    3OL    H17R 4015   3.021   5.783   4.515
    3OL    H17S 4016   3.119   5.689   4.639
    3OL    C118 4017   2.936   5.752   4.707
    3OL    H18R 4018   2.987   5.825   4.770
    3OL    H18S 4019   2.899   5.666   4.763
    3OL    H18T 4020   2.858   5.811   4.656
    1PA    C116 4021   5.056   3.187   3.949
    1PA    H16R 4022   5.000   3.164   4.040
    1PA    H16S 4023   5.005   3.273   3.905
    1PA    H16T 4024   5.162   3.210   3.961
    1PA    C115 4025   5.063   3.076   3.843
    1PA    H15R 4026   4.962   3.038   3.830
    1PA    H15S 4027   5.091   3.124   3.749
    1PA    C114 4028   5.168   2.977   3.896
    1PA    H14R 4029   5.187   2.903   3.819
    1PA    H14S 4030   5.261   3.033   3.913
    1PA    C113 4031   5.127   2.902   4.024
    1PA    H13R 4032   5.110   2.961   4.114
    1PA    H13S 4033   5.033   2.854   3.997
    1PA    C112 4034   5.235   2.794   4.040
    1PA    H12R 4035   5.230   2.725   3.956
    1PA    H12S 4036   5.339   2.825   4.049
    1PA    C111 4037   5.204   2.709   4.164
    1PA    H11R 4038   5.099   2.683   4.166
    1PA    H11S 4039   5.258   2.615   4.150
    1PA    C110 4040   5.252   2.794   4.284
    1PA    H10R 4041   5.337   2.858   4.259
    1PA    H10S 4042   5.168   2.859   4.310
    1PA     C19 4043   5.267   2.715   4.414
    1PA     H9R 4044   5.178   2.656   4.438
    1PA     H9S 4045   5.349   2.646   4.394
    1PA     C18 4046   5.283   2.803   4.539
    1PA     H8R 4047   5.367   2.871   4.527
    1PA     H8S 4048   5.203   2.877   4.539
    1PA     C17 4049   5.283   2.718   4.667
    1PA     H7R 4050   5.342   2.627   4.654
    1PA     H7S 4051   5.338   2.773   4.743
    1PA     C16 4052   5.138   2.686   4.706
    1PA     H6R 4053   5.089   2.783   4.708
    1PA     H6S 4054   5.083   2.627   4.633
    1PA     C15 4055   5.147   2.614   4.842
    1PA     H5R 4056   5.044   2.582   4.858
    1PA     H5S 4057   5.212   2.527   4.850
    1PA     C14 4058   5.167   2.721   4.950
    1PA     H4R 4059   5.268   2.762   4.947
    1PA     H4S 4060   5.101   2.809   4.946
    1PA     C13 4061   5.159   2.661   5.091
    1PA     H3R 4062   5.155   2.744   5.162
    1PA     H3S 4063   5.065   2.606   5.098
    1PA     C12 4064   5.268   2.559   5.125
    1PA     H2R 4065   5.278   2.484   5.046
    1PA     H2S 4066   5.367   2.604   5.125
    2PC     C11 4067   5.250   2.492   5.259
    2PC     O12 4068   5.144   2.478   5.318
    2PC     O11 4069   5.372   2.454   5.300
    2PC      C1 4070   5.395   2.381   5.421
    2PC      HR 4071   5.496   2.408   5.452
    2PC      HS 4072   5.325   2.408   5.501
    2PC      C2 4073   5.378   2.231   5.393
    2PC      HX 4074   5.278   2.216   5.350
    2PC      C3 4075   5.362   2.146   5.520
    2PC      HA 4076   5.300   2.199   5.593
    2PC      HB 4077   5.334   2.041   5.511
    2PC     O31 4078   5.497   2.143   5.571
    2PC     P31 4079   5.545   2.028   5.672
    2PC     O32 4080   5.705   2.022   5.663
    2PC     C31 4081   5.762   1.960   5.547
    2PC     H1A 4082   5.705   1.883   5.493
    2PC     H1B 4083   5.777   2.034   5.468
    2PC     C32 4084   5.895   1.891   5.578
    2PC     H2A 4085   5.927   1.846   5.484
    2PC     H2B 4086   5.973   1.966   5.594
    2PC     N31 4087   5.900   1.776   5.675
    2PC     C33 4088   5.840   1.654   5.612
    2PC     H3A 4089   5.907   1.640   5.527
    2PC     H3B 4090   5.851   1.570   5.680
    2PC     H3C 4091   5.739   1.672   5.574
    2PC     C34 4092   6.047   1.766   5.706
    2PC     H4A 4093   6.067   1.822   5.797
    2PC     H4B 4094   6.057   1.658   5.722
    2PC     H4C 4095   6.112   1.781   5.620
    2PC     C35 4096   5.828   1.801   5.804
    2PC     H5A 4097   5.829   1.709   5.863
    2PC     H5B 4098   5.724   1.828   5.785
    2PC     H5C 4099   5.875   1.878   5.864
    2PC     O33 4100   5.502   2.061   5.810
    2PC     O34 4101   5.482   1.895   5.658
    2PC     O21 4102   5.483   2.175   5.312
    2PC     C21 4103   5.448   2.066   5.243
    2PC     O22 4104   5.336   2.020   5.242
    3OL     C12 4105   5.560   2.017   5.155
    3OL     H2R 4106   5.626   1.959   5.220
    3OL     H2S 4107   5.602   2.110   5.116
    3OL     C13 4108   5.507   1.935   5.037
    3OL     H3R 4109   5.430   1.999   4.992
    3OL     H3S 4110   5.457   1.846   5.075
    3OL     C14 4111   5.615   1.923   4.928
    3OL     H4R 4112   5.686   1.845   4.957
    3OL     H4S 4113   5.667   2.016   4.904
    3OL     C15 4114   5.544   1.872   4.802
    3OL     H5R 4115   5.618   1.893   4.725
    3OL     H5S 4116   5.449   1.924   4.785
    3OL     C16 4117   5.512   1.722   4.800
    3OL     H6R 4118   5.431   1.694   4.868
    3OL     H6S 4119   5.603   1.668   4.826
    3OL     C17 4120   5.454   1.700   4.659
    3OL     H7R 4121   5.530   1.707   4.580
    3OL     H7S 4122   5.365   1.755   4.625
    3OL     C18 4123   5.415   1.553   4.640
    3OL     H8R 4124   5.342   1.530   4.718
    3OL     H8S 4125   5.502   1.493   4.667
    3OL     C19 4126   5.365   1.513   4.504
    3OL     H9R 4127   5.257   1.523   4.493
    3OL    C110 4128   5.442   1.468   4.406
    3OL    H10R 4129   5.401   1.451   4.307
    3OL    C111 4130   5.593   1.466   4.404
    3OL    H11R 4131   5.625   1.372   4.448
    3OL    H11S 4132   5.633   1.552   4.458
    3OL    C112 4133   5.652   1.477   4.263
    3OL    H12R 4134   5.760   1.463   4.272
    3OL    H12S 4135   5.633   1.578   4.228
    3OL    C113 4136   5.618   1.376   4.153
    3OL    H13R 4137   5.509   1.379   4.139
    3OL    H13S 4138   5.649   1.275   4.179
    3OL    C114 4139   5.686   1.413   4.020
    3OL    H14R 4140   5.790   1.389   4.042
    3OL    H14S 4141   5.677   1.520   4.002
    3OL    C115 4142   5.635   1.334   3.899
    3OL    H15R 4143   5.663   1.230   3.916
    3OL    H15S 4144   5.686   1.365   3.807
    3OL    C116 4145   5.488   1.352   3.860
    3OL    H16R 4146   5.468   1.459   3.847
    3OL    H16S 4147   5.426   1.322   3.945
    3OL    C117 4148   5.443   1.261   3.745
    3OL    H17R 4149   5.336   1.281   3.736
    3OL    H17S 4150   5.453   1.154   3.764
    3OL    C118 4151   5.523   1.295   3.619
    3OL    H18R 4152   5.507   1.400   3.594
    3OL    H18S 4153   5.494   1.244   3.526
    3OL    H18T 4154   5.630   1.282   3.634
    1PA    C116 4155  -0.144   6.117   4.105
    1PA    H16R 4156  -0.156   6.191   4.025
    1PA    H16S 4157  -0.206   6.141   4.191
    1PA    H16T 4158  -0.172   6.021   4.062
    1PA    C115 4159   0.004   6.111   4.145
    1PA    H15R 4160   0.059   6.102   4.051
    1PA    H15S 4161   0.031   6.208   4.189
    1PA    C114 4162   0.045   5.999   4.242
    1PA    H14R 4163   0.023   5.901   4.200
    1PA    H14S 4164   0.154   6.007   4.243
    1PA    C113 4165  -0.022   6.014   4.379
    1PA    H13R 4166   0.022   6.105   4.420
    1PA    H13S 4167  -0.131   6.016   4.367
    1PA    C112 4168   0.019   5.894   4.465
    1PA    H12R 4169  -0.037   5.905   4.558
    1PA    H12S 4170  -0.031   5.809   4.418
    1PA    C111 4171   0.168   5.871   4.496
    1PA    H11R 4172   0.221   5.842   4.405
    1PA    H11S 4173   0.206   5.966   4.535
    1PA    C110 4174   0.187   5.755   4.594
    1PA    H10R 4175   0.140   5.669   4.548
    1PA    H10S 4176   0.295   5.737   4.597
    1PA     C19 4177   0.141   5.778   4.739
    1PA     H9R 4178   0.192   5.855   4.796
    1PA     H9S 4179   0.035   5.805   4.742
    1PA     C18 4180   0.160   5.648   4.819
    1PA     H8R 4181   0.098   5.565   4.785
    1PA     H8S 4182   0.268   5.632   4.810
    1PA     C17 4183   0.128   5.667   4.967
    1PA     H7R 4184   0.185   5.752   5.006
    1PA     H7S 4185   0.025   5.705   4.972
    1PA     C16 4186   0.135   5.533   5.041
    1PA     H6R 4187   0.092   5.559   5.138
    1PA     H6S 4188   0.072   5.462   4.986
    1PA     C15 4189   0.274   5.474   5.065
    1PA     H5R 4190   0.308   5.438   4.967
    1PA     H5S 4191   0.334   5.552   5.113
    1PA     C14 4192   0.277   5.348   5.153
    1PA     H4R 4193   0.229   5.265   5.102
    1PA     H4S 4194   0.383   5.327   5.171
    1PA     C13 4195   0.209   5.372   5.289
    1PA     H3R 4196   0.270   5.448   5.338
    1PA     H3S 4197   0.107   5.406   5.273
    1PA     C12 4198   0.209   5.249   5.381
    1PA     H2R 4199   0.172   5.160   5.331
    1PA     H2S 4200   0.308   5.225   5.420
    2PC     C11 4201   0.113   5.276   5.495
    2PC     O12 4202   0.063   5.385   5.515
    2PC     O11 4203   0.100   5.166   5.571
    2PC      C1 4204  -0.002   5.161   5.672
    2PC      HR 4205   0.020   5.067   5.723
    2PC      HS 4206   0.022   5.244   5.738
    2PC      C2 4207  -0.152   5.160   5.637
    2PC      HX 4208  -0.161   5.221   5.546
    2PC      C3 4209  -0.237   5.219   5.750
    2PC      HA 4210  -0.231   5.328   5.753
    2PC      HB 4211  -0.345   5.203   5.743
    2PC     O31 4212  -0.197   5.174   5.880
    2PC     P31 4213  -0.241   5.244   6.017
    2PC     O32 4214  -0.367   5.335   5.980
    2PC     C31 4215  -0.468   5.357   6.080
    2PC     H1A 4216  -0.515   5.261   6.102
    2PC     H1B 4217  -0.420   5.403   6.167
    2PC     C32 4218  -0.581   5.448   6.028
    2PC     H2A 4219  -0.619   5.499   6.116
    2PC     H2B 4220  -0.541   5.523   5.959
    2PC     N31 4221  -0.693   5.378   5.957
    2PC     C33 4222  -0.767   5.287   6.051
    2PC     H3A 4223  -0.828   5.221   5.990
    2PC     H3B 4224  -0.702   5.221   6.110
    2PC     H3C 4225  -0.826   5.354   6.113
    2PC     C34 4226  -0.791   5.481   5.910
    2PC     H4A 4227  -0.823   5.529   6.003
    2PC     H4B 4228  -0.735   5.544   5.840
    2PC     H4C 4229  -0.870   5.431   5.853
    2PC     C35 4230  -0.642   5.294   5.844
    2PC     H5A 4231  -0.608   5.364   5.767
    2PC     H5B 4232  -0.727   5.245   5.796
    2PC     H5C 4233  -0.575   5.218   5.884
    2PC     O33 4234  -0.274   5.152   6.128
    2PC     O34 4235  -0.138   5.341   6.061
    2PC     O21 4236  -0.193   5.028   5.598
    2PC     C21 4237  -0.155   4.974   5.480
    2PC     O22 4238  -0.080   5.029   5.402
    3OL     C12 4239  -0.211   4.838   5.451
    3OL     H2R 4240  -0.317   4.850   5.427
    3OL     H2S 4241  -0.203   4.780   5.543
    3OL     C13 4242  -0.137   4.758   5.343
    3OL     H3R 4243  -0.171   4.654   5.350
    3OL     H3S 4244  -0.029   4.770   5.345
    3OL     C14 4245  -0.179   4.803   5.202
    3OL     H4R 4246  -0.155   4.909   5.193
    3OL     H4S 4247  -0.284   4.794   5.174
    3OL     C15 4248  -0.099   4.729   5.093
    3OL     H5R 4249  -0.148   4.752   4.999
    3OL     H5S 4250  -0.095   4.623   5.116
    3OL     C16 4251   0.039   4.795   5.074
    3OL     H6R 4252   0.099   4.788   5.165
    3OL     H6S 4253   0.022   4.899   5.048
    3OL     C17 4254   0.102   4.720   4.955
    3OL     H7R 4255   0.027   4.722   4.876
    3OL     H7S 4256   0.124   4.615   4.977
    3OL     C18 4257   0.227   4.788   4.899
    3OL     H8R 4258   0.295   4.801   4.984
    3OL     H8S 4259   0.201   4.887   4.861
    3OL     C19 4260   0.287   4.709   4.786
    3OL     H9R 4261   0.250   4.730   4.686
    3OL    C110 4262   0.369   4.606   4.805
    3OL    H10R 4263   0.399   4.563   4.711
    3OL    C111 4264   0.437   4.552   4.928
    3OL    H11R 4265   0.453   4.444   4.922
    3OL    H11S 4266   0.377   4.577   5.016
    3OL    C112 4267   0.573   4.621   4.945
    3OL    H12R 4268   0.564   4.730   4.949
    3OL    H12S 4269   0.637   4.600   4.858
    3OL    C113 4270   0.644   4.568   5.070
    3OL    H13R 4271   0.652   4.459   5.059
    3OL    H13S 4272   0.582   4.587   5.158
    3OL    C114 4273   0.781   4.628   5.101
    3OL    H14R 4274   0.807   4.609   5.206
    3OL    H14S 4275   0.771   4.737   5.096
    3OL    C115 4276   0.898   4.580   5.014
    3OL    H15R 4277   0.983   4.647   5.029
    3OL    H15S 4278   0.870   4.607   4.912
    3OL    C116 4279   0.940   4.434   5.039
    3OL    H16R 4280   0.863   4.372   4.993
    3OL    H16S 4281   0.941   4.408   5.145
    3OL    C117 4282   1.068   4.389   4.968
    3OL    H17R 4283   1.149   4.444   5.016
    3OL    H17S 4284   1.069   4.433   4.867
    3OL    C118 4285   1.075   4.236   4.958
    3OL    H18R 4286   1.154   4.195   4.894
    3OL    H18S 4287   0.977   4.196   4.928
    3OL    H18T 4288   1.090   4.199   5.059
    1PA    C116 4289   3.915   4.961   3.999
    1PA    H16R 4290   3.959   5.058   4.023
    1PA    H16S 4291   3.811   4.973   3.968
    1PA    H16T 4292   3.973   4.923   3.915
    1PA    C115 4293   3.922   4.876   4.127
    1PA    H15R 4294   4.026   4.862   4.159
    1PA    H15S 4295   3.884   4.932   4.213
    1PA    C114 4296   3.844   4.744   4.125
    1PA    H14R 4297   3.738   4.767   4.138
    1PA    H14S 4298   3.860   4.704   4.025
    1PA    C113 4299   3.887   4.646   4.235
    1PA    H13R 4300   3.841   4.548   4.221
    1PA    H13S 4301   3.994   4.627   4.219
    1PA    C112 4302   3.836   4.689   4.373
    1PA    H12R 4303   3.861   4.792   4.397
    1PA    H12S 4304   3.727   4.684   4.379
    1PA    C111 4305   3.902   4.603   4.483
    1PA    H11R 4306   3.873   4.498   4.475
    1PA    H11S 4307   4.011   4.605   4.473
    1PA    C110 4308   3.858   4.656   4.620
    1PA    H10R 4309   3.878   4.763   4.620
    1PA    H10S 4310   3.752   4.633   4.630
    1PA     C19 4311   3.929   4.583   4.735
    1PA     H9R 4312   3.908   4.477   4.729
    1PA     H9S 4313   4.038   4.595   4.730
    1PA     C18 4314   3.888   4.636   4.874
    1PA     H8R 4315   3.926   4.737   4.888
    1PA     H8S 4316   3.780   4.647   4.889
    1PA     C17 4317   3.950   4.550   4.985
    1PA     H7R 4318   4.057   4.537   4.969
    1PA     H7S 4319   3.924   4.596   5.080
    1PA     C16 4320   3.883   4.413   5.005
    1PA     H6R 4321   3.851   4.375   4.907
    1PA     H6S 4322   3.963   4.353   5.049
    1PA     C15 4323   3.765   4.426   5.101
    1PA     H5R 4324   3.795   4.489   5.185
    1PA     H5S 4325   3.690   4.474   5.037
    1PA     C14 4326   3.732   4.286   5.156
    1PA     H4R 4327   3.789   4.210   5.102
    1PA     H4S 4328   3.768   4.288   5.259
    1PA     C13 4329   3.580   4.266   5.154
    1PA     H3R 4330   3.532   4.348   5.208
    1PA     H3S 4331   3.565   4.265   5.046
    1PA     C12 4332   3.541   4.129   5.211
    1PA     H2R 4333   3.447   4.090   5.171
    1PA     H2S 4334   3.615   4.054   5.183
    2PC     C11 4335   3.525   4.135   5.361
    2PC     O12 4336   3.605   4.077   5.431
    2PC     O11 4337   3.434   4.228   5.394
    2PC      C1 4338   3.441   4.275   5.529
    2PC      HR 4339   3.349   4.331   5.548
    2PC      HS 4340   3.450   4.193   5.601
    2PC      C2 4341   3.561   4.368   5.558
    2PC      HX 4342   3.656   4.315   5.562
    2PC      C3 4343   3.550   4.405   5.706
    2PC      HA 4344   3.549   4.316   5.769
    2PC      HB 4345   3.622   4.481   5.737
    2PC     O31 4346   3.417   4.456   5.723
    2PC     P31 4347   3.364   4.500   5.868
    2PC     O32 4348   3.208   4.530   5.845
    2PC     C31 4349   3.140   4.611   5.943
    2PC     H1A 4350   3.108   4.546   6.025
    2PC     H1B 4351   3.207   4.693   5.971
    2PC     C32 4352   3.016   4.670   5.875
    2PC     H2A 4353   3.029   4.687   5.768
    2PC     H2B 4354   2.939   4.594   5.885
    2PC     N31 4355   2.962   4.795   5.937
    2PC     C33 4356   3.070   4.895   5.964
    2PC     H3A 4357   3.139   4.862   6.041
    2PC     H3B 4358   3.119   4.927   5.872
    2PC     H3C 4359   3.023   4.984   6.006
    2PC     C34 4360   2.866   4.854   5.839
    2PC     H4A 4361   2.794   4.777   5.808
    2PC     H4B 4362   2.820   4.940   5.888
    2PC     H4C 4363   2.920   4.895   5.753
    2PC     C35 4364   2.897   4.764   6.069
    2PC     H5A 4365   2.966   4.712   6.134
    2PC     H5B 4366   2.805   4.705   6.066
    2PC     H5C 4367   2.876   4.864   6.108
    2PC     O33 4368   3.391   4.404   5.977
    2PC     O34 4369   3.429   4.622   5.919
    2PC     O21 4370   3.562   4.489   5.480
    2PC     C21 4371   3.681   4.537   5.439
    2PC     O22 4372   3.793   4.492   5.448
    3OL     C12 4373   3.659   4.678   5.391
    3OL     H2R 4374   3.635   4.742   5.476
    3OL     H2S 4375   3.576   4.673   5.319
    3OL     C13 4376   3.778   4.747   5.323
    3OL     H3R 4377   3.840   4.670   5.276
    3OL     H3S 4378   3.840   4.794   5.399
    3OL     C14 4379   3.722   4.847   5.220
    3OL     H4R 4380   3.675   4.918   5.289
    3OL     H4S 4381   3.641   4.806   5.159
    3OL     C15 4382   3.850   4.893   5.150
    3OL     H5R 4383   3.889   4.807   5.095
    3OL     H5S 4384   3.930   4.926   5.217
    3OL     C16 4385   3.841   5.020   5.063
    3OL     H6R 4386   3.941   5.063   5.058
    3OL     H6S 4387   3.775   5.091   5.113
    3OL     C17 4388   3.797   4.987   4.920
    3OL     H7R 4389   3.695   4.946   4.926
    3OL     H7S 4390   3.858   4.919   4.861
    3OL     C18 4391   3.777   5.116   4.838
    3OL     H8R 4392   3.871   5.173   4.835
    3OL     H8S 4393   3.707   5.183   4.888
    3OL     C19 4394   3.716   5.072   4.708
    3OL     H9R 4395   3.609   5.053   4.706
    3OL    C110 4396   3.773   5.046   4.591
    3OL    H10R 4397   3.704   5.014   4.513
    3OL    C111 4398   3.921   5.057   4.567
    3OL    H11R 4399   3.962   4.956   4.560
    3OL    H11S 4400   3.969   5.106   4.652
    3OL    C112 4401   3.951   5.127   4.434
    3OL    H12R 4402   3.909   5.228   4.439
    3OL    H12S 4403   3.909   5.069   4.351
    3OL    C113 4404   4.102   5.140   4.406
    3OL    H13R 4405   4.148   5.041   4.406
    3OL    H13S 4406   4.151   5.194   4.488
    3OL    C114 4407   4.126   5.210   4.271
    3OL    H14R 4408   4.083   5.311   4.268
    3OL    H14S 4409   4.080   5.152   4.191
    3OL    C115 4410   4.277   5.230   4.253
    3OL    H15R 4411   4.320   5.131   4.270
    3OL    H15S 4412   4.322   5.294   4.330
    3OL    C116 4413   4.309   5.277   4.111
    3OL    H16R 4414   4.251   5.369   4.099
    3OL    H16S 4415   4.275   5.201   4.039
    3OL    C117 4416   4.460   5.301   4.098
    3OL    H17R 4417   4.518   5.211   4.121
    3OL    H17S 4418   4.489   5.380   4.167
    3OL    C118 4419   4.493   5.349   3.956
    3OL    H18R 4420   4.444   5.443   3.932
    3OL    H18S 4421   4.446   5.281   3.884
    3OL    H18T 4422   4.602   5.358   3.957
    1PA    C116 4423   5.926   3.724   3.985
    1PA    H16R 4424   5.887   3.824   3.966
    1PA    H16S 4425   5.926   3.656   3.900
    1PA    H16T 4426   6.025   3.729   4.032
    1PA    C115 4427   5.817   3.669   4.078
    1PA    H15R 4428   5.735   3.641   4.012
    1PA    H15S 4429   5.847   3.578   4.129
    1PA    C114 4430   5.746   3.771   4.169
    1PA    H14R 4431   5.730   3.865   4.117
    1PA    H14S 4432   5.653   3.722   4.197
    1PA    C113 4433   5.818   3.788   4.304
    1PA    H13R 4434   5.843   3.693   4.352
    1PA    H13S 4435   5.914   3.837   4.288
    1PA    C112 4436   5.744   3.878   4.403
    1PA    H12R 4437   5.748   3.980   4.364
    1PA    H12S 4438   5.640   3.845   4.405
    1PA    C111 4439   5.818   3.879   4.537
    1PA    H11R 4440   5.815   3.783   4.589
    1PA    H11S 4441   5.922   3.913   4.532
    1PA    C110 4442   5.743   3.981   4.624
    1PA    H10R 4443   5.745   4.080   4.579
    1PA    H10S 4444   5.640   3.945   4.621
    1PA     C19 4445   5.787   4.007   4.769
    1PA     H9R 4446   5.894   3.994   4.790
    1PA     H9S 4447   5.757   4.109   4.794
    1PA     C18 4448   5.709   3.911   4.860
    1PA     H8R 4449   5.603   3.923   4.837
    1PA     H8S 4450   5.737   3.809   4.836
    1PA     C17 4451   5.734   3.924   5.010
    1PA     H7R 4452   5.833   3.881   5.031
    1PA     H7S 4453   5.743   4.026   5.050
    1PA     C16 4454   5.640   3.843   5.101
    1PA     H6R 4455   5.658   3.876   5.203
    1PA     H6S 4456   5.537   3.857   5.068
    1PA     C15 4457   5.668   3.692   5.093
    1PA     H5R 4458   5.651   3.648   4.995
    1PA     H5S 4459   5.773   3.681   5.121
    1PA     C14 4460   5.580   3.606   5.184
    1PA     H4R 4461   5.583   3.648   5.285
    1PA     H4S 4462   5.477   3.598   5.149
    1PA     C13 4463   5.629   3.460   5.179
    1PA     H3R 4464   5.610   3.431   5.076
    1PA     H3S 4465   5.736   3.452   5.201
    1PA     C12 4466   5.561   3.369   5.282
    1PA     H2R 4467   5.455   3.386   5.305
    1PA     H2S 4468   5.555   3.277   5.222
    2PC     C11 4469   5.636   3.369   5.412
    2PC     O12 4470   5.742   3.312   5.433
    2PC     O11 4471   5.582   3.454   5.500
    2PC      C1 4472   5.629   3.466   5.636
    2PC      HR 4473   5.555   3.513   5.701
    2PC      HS 4474   5.643   3.364   5.674
    2PC      C2 4475   5.762   3.543   5.632
    2PC      HX 4476   5.824   3.481   5.565
    2PC      C3 4477   5.817   3.547   5.775
    2PC      HA 4478   5.801   3.447   5.815
    2PC      HB 4479   5.923   3.573   5.776
    2PC     O31 4480   5.741   3.636   5.858
    2PC     P31 4481   5.798   3.668   6.004
    2PC     O32 4482   5.678   3.762   6.056
    2PC     C31 4483   5.699   3.828   6.181
    2PC     H1A 4484   5.646   3.763   6.251
    2PC     H1B 4485   5.804   3.840   6.208
    2PC     C32 4486   5.624   3.959   6.155
    2PC     H2A 4487   5.524   3.931   6.123
    2PC     H2B 4488   5.642   4.014   6.248
    2PC     N31 4489   5.685   4.055   6.057
    2PC     C33 4490   5.669   4.005   5.917
    2PC     H3A 4491   5.684   4.091   5.853
    2PC     H3B 4492   5.752   3.935   5.908
    2PC     H3C 4493   5.567   3.966   5.916
    2PC     C34 4494   5.612   4.186   6.061
    2PC     H4A 4495   5.670   4.253   5.998
    2PC     H4B 4496   5.518   4.161   6.011
    2PC     H4C 4497   5.603   4.220   6.164
    2PC     C35 4498   5.829   4.081   6.088
    2PC     H5A 4499   5.885   3.993   6.121
    2PC     H5B 4500   5.828   4.145   6.176
    2PC     H5C 4501   5.886   4.128   6.008
    2PC     O33 4502   5.803   3.557   6.101
    2PC     O34 4503   5.935   3.724   5.996
    2PC     O21 4504   5.737   3.674   5.579
    2PC     C21 4505   5.841   3.748   5.538
    2PC     O22 4506   5.958   3.715   5.550
    3OL     C12 4507   5.796   3.868   5.459
    3OL     H2R 4508   5.775   3.952   5.526
    3OL     H2S 4509   5.704   3.842   5.406
    3OL     C13 4510   5.901   3.906   5.354
    3OL     H3R 4511   5.877   3.857   5.259
    3OL     H3S 4512   6.001   3.884   5.393
    3OL     C14 4513   5.872   4.055   5.331
    3OL     H4R 4514   5.874   4.114   5.423
    3OL     H4S 4515   5.776   4.065   5.279
    3OL     C15 4516   5.978   4.120   5.241
    3OL     H5R 4517   5.979   4.054   5.154
    3OL     H5S 4518   6.073   4.123   5.294
    3OL     C16 4519   5.947   4.263   5.193
    3OL     H6R 4520   5.944   4.331   5.278
    3OL     H6S 4521   5.854   4.256   5.137
    3OL     C17 4522   6.051   4.321   5.095
    3OL     H7R 4523   6.063   4.255   5.010
    3OL     H7S 4524   6.151   4.322   5.139
    3OL     C18 4525   6.020   4.464   5.049
    3OL     H8R 4526   6.042   4.532   5.131
    3OL     H8S 4527   5.911   4.457   5.036
    3OL     C19 4528   6.093   4.508   4.925
    3OL     H9R 4529   6.185   4.563   4.944
    3OL    C110 4530   6.045   4.494   4.802
    3OL    H10R 4531   6.091   4.535   4.713
    3OL    C111 4532   5.923   4.414   4.763
    3OL    H11R 4533   5.834   4.475   4.779
    3OL    H11S 4534   5.898   4.337   4.837
    3OL    C112 4535   5.936   4.364   4.619
    3OL    H12R 4536   5.929   4.439   4.540
    3OL    H12S 4537   5.850   4.297   4.610
    3OL    C113 4538   6.061   4.275   4.606
    3OL    H13R 4539   6.041   4.189   4.670
    3OL    H13S 4540   6.154   4.324   4.635
    3OL    C114 4541   6.071   4.238   4.457
    3OL    H14R 4542   6.101   4.321   4.393
    3OL    H14S 4543   5.975   4.198   4.424
    3OL    C115 4544   6.172   4.125   4.430
    3OL    H15R 4545   6.120   4.036   4.466
    3OL    H15S 4546   6.270   4.141   4.476
    3OL    C116 4547   6.200   4.100   4.282
    3OL    H16R 4548   6.252   4.188   4.245
    3OL    H16S 4549   6.105   4.096   4.227
    3OL    C117 4550   6.283   3.972   4.265
    3OL    H17R 4551   6.284   3.953   4.157
    3OL    H17S 4552   6.243   3.888   4.322
    3OL    C118 4553   6.432   3.996   4.294
    3OL    H18R 4554   6.465   4.075   4.226
    3OL    H18S 4555   6.479   3.904   4.260
    3OL    H18T 4556   6.452   4.017   4.400
    1PA    C116 4557   0.767   4.988   4.451
    1PA    H16R 4558   0.705   4.960   4.365
    1PA    H16S 4559   0.870   4.971   4.419
    1PA    H16T 4560   0.748   5.093   4.475
    1PA    C115 4561   0.723   4.891   4.562
    1PA    H15R 4562   0.751   4.926   4.661
    1PA    H15S 4563   0.614   4.897   4.560
    1PA    C114 4564   0.743   4.740   4.542
    1PA    H14R 4565   0.849   4.718   4.555
    1PA    H14S 4566   0.688   4.683   4.618
    1PA    C113 4567   0.730   4.681   4.401
    1PA    H13R 4568   0.628   4.697   4.363
    1PA    H13S 4569   0.798   4.742   4.341
    1PA    C112 4570   0.754   4.530   4.396
    1PA    H12R 4571   0.695   4.478   4.473
    1PA    H12S 4572   0.714   4.487   4.304
    1PA    C111 4573   0.901   4.486   4.406
    1PA    H11R 4574   0.948   4.506   4.309
    1PA    H11S 4575   0.957   4.543   4.480
    1PA    C110 4576   0.897   4.337   4.442
    1PA    H10R 4577   0.848   4.328   4.539
    1PA    H10S 4578   0.845   4.288   4.360
    1PA     C19 4579   1.037   4.275   4.444
    1PA     H9R 4580   1.090   4.301   4.352
    1PA     H9S 4581   1.088   4.311   4.533
    1PA     C18 4582   1.019   4.122   4.453
    1PA     H8R 4583   0.948   4.091   4.376
    1PA     H8S 4584   1.112   4.068   4.434
    1PA     C17 4585   0.983   4.082   4.597
    1PA     H7R 4586   1.067   4.113   4.660
    1PA     H7S 4587   0.900   4.139   4.639
    1PA     C16 4588   0.959   3.932   4.620
    1PA     H6R 4589   0.879   3.896   4.555
    1PA     H6S 4590   1.048   3.873   4.599
    1PA     C15 4591   0.920   3.916   4.768
    1PA     H5R 4592   1.004   3.936   4.835
    1PA     H5S 4593   0.846   3.990   4.799
    1PA     C14 4594   0.868   3.776   4.800
    1PA     H4R 4595   0.787   3.745   4.733
    1PA     H4S 4596   0.936   3.697   4.766
    1PA     C13 4597   0.824   3.771   4.947
    1PA     H3R 4598   0.911   3.756   5.010
    1PA     H3S 4599   0.775   3.865   4.974
    1PA     C12 4600   0.728   3.655   4.979
    1PA     H2R 4601   0.636   3.667   4.922
    1PA     H2S 4602   0.763   3.558   4.942
    2PC     C11 4603   0.708   3.650   5.129
    2PC     O12 4604   0.711   3.747   5.201
    2PC     O11 4605   0.689   3.527   5.180
    2PC      C1 4606   0.674   3.510   5.323
    2PC      HR 4607   0.704   3.407   5.341
    2PC      HS 4608   0.728   3.581   5.386
    2PC      C2 4609   0.525   3.533   5.353
    2PC      HX 4610   0.492   3.622   5.299
    2PC      C3 4611   0.505   3.543   5.504
    2PC      HA 4612   0.556   3.634   5.538
    2PC      HB 4613   0.398   3.544   5.526
    2PC     O31 4614   0.563   3.432   5.575
    2PC     P31 4615   0.522   3.409   5.728
    2PC     O32 4616   0.663   3.358   5.786
    2PC     C31 4617   0.669   3.303   5.919
    2PC     H1A 4618   0.647   3.385   5.988
    2PC     H1B 4619   0.591   3.227   5.932
    2PC     C32 4620   0.809   3.245   5.944
    2PC     H2A 4621   0.828   3.192   5.851
    2PC     H2B 4622   0.872   3.334   5.952
    2PC     N31 4623   0.841   3.168   6.068
    2PC     C33 4624   0.759   3.043   6.061
    2PC     H3A 4625   0.784   2.985   6.150
    2PC     H3B 4626   0.654   3.071   6.073
    2PC     H3C 4627   0.761   2.984   5.969
    2PC     C34 4628   0.988   3.136   6.068
    2PC     H4A 4629   1.019   3.125   6.171
    2PC     H4B 4630   0.998   3.048   6.004
    2PC     H4C 4631   1.047   3.216   6.022
    2PC     C35 4632   0.803   3.238   6.195
    2PC     H5A 4633   0.879   3.316   6.195
    2PC     H5B 4634   0.823   3.165   6.274
    2PC     H5C 4635   0.699   3.270   6.190
    2PC     O33 4636   0.476   3.530   5.799
    2PC     O34 4637   0.411   3.312   5.742
    2PC     O21 4638   0.446   3.423   5.303
    2PC     C21 4639   0.385   3.444   5.185
    2PC     O22 4640   0.418   3.516   5.094
    3OL     C12 4641   0.277   3.340   5.169
    3OL     H2R 4642   0.213   3.328   5.256
    3OL     H2S 4643   0.319   3.241   5.147
    3OL     C13 4644   0.176   3.375   5.059
    3OL     H3R 4645   0.234   3.395   4.969
    3OL     H3S 4646   0.119   3.465   5.082
    3OL     C14 4647   0.072   3.269   5.022
    3OL     H4R 4648   0.002   3.254   5.104
    3OL     H4S 4649   0.123   3.180   4.983
    3OL     C15 4650  -0.010   3.325   4.905
    3OL     H5R 4651   0.049   3.324   4.813
    3OL     H5S 4652  -0.044   3.427   4.926
    3OL     C16 4653  -0.131   3.233   4.886
    3OL     H6R 4654  -0.186   3.219   4.979
    3OL     H6S 4655  -0.102   3.132   4.858
    3OL     C17 4656  -0.223   3.286   4.775
    3OL     H7R 4657  -0.168   3.270   4.682
    3OL     H7S 4658  -0.231   3.395   4.784
    3OL     C18 4659  -0.357   3.211   4.776
    3OL     H8R 4660  -0.330   3.108   4.798
    3OL     H8S 4661  -0.392   3.206   4.673
    3OL     C19 4662  -0.462   3.274   4.865
    3OL     H9R 4663  -0.462   3.382   4.867
    3OL    C110 4664  -0.542   3.213   4.950
    3OL    H10R 4665  -0.604   3.275   5.015
    3OL    C111 4666  -0.536   3.068   4.993
    3OL    H11R 4667  -0.434   3.030   4.978
    3OL    H11S 4668  -0.609   3.013   4.934
    3OL    C112 4669  -0.575   3.048   5.140
    3OL    H12R 4670  -0.672   3.096   5.153
    3OL    H12S 4671  -0.488   3.084   5.196
    3OL    C113 4672  -0.593   2.901   5.180
    3OL    H13R 4673  -0.499   2.847   5.193
    3OL    H13S 4674  -0.663   2.859   5.108
    3OL    C114 4675  -0.655   2.887   5.320
    3OL    H14R 4676  -0.604   2.959   5.385
    3OL    H14S 4677  -0.633   2.792   5.368
    3OL    C115 4678  -0.806   2.917   5.321
    3OL    H15R 4679  -0.865   2.837   5.276
    3OL    H15S 4680  -0.819   3.008   5.262
    3OL    C116 4681  -0.862   2.933   5.462
    3OL    H16R 4682  -0.802   3.008   5.514
    3OL    H16S 4683  -0.841   2.844   5.522
    3OL    C117 4684  -1.013   2.963   5.465
    3OL    H17R 4685  -1.030   3.025   5.377
    3OL    H17S 4686  -1.046   2.996   5.564
    3OL    C118 4687  -1.103   2.842   5.436
    3OL    H18R 4688  -1.076   2.794   5.342
    3OL    H18S 4689  -1.210   2.863   5.426
    3OL    H18T 4690  -1.093   2.765   5.512
    1PA    C116 4691   2.122   0.091   3.906
    1PA    H16R 4692   2.013   0.083   3.904
    1PA    H16S 4693   2.160   0.006   3.963
    1PA    H16T 4694   2.152   0.101   3.801
    1PA    C115 4695   2.155   0.220   3.983
    1PA    H15R 4696   2.260   0.215   4.008
    1PA    H15S 4697   2.144   0.303   3.913
    1PA    C114 4698   2.067   0.242   4.107
    1PA    H14R 4699   1.964   0.244   4.073
    1PA    H14S 4700   2.083   0.158   4.174
    1PA    C113 4701   2.110   0.373   4.174
    1PA    H13R 4702   2.216   0.365   4.201
    1PA    H13S 4703   2.097   0.451   4.098
    1PA    C112 4704   2.017   0.406   4.292
    1PA    H12R 4705   2.008   0.513   4.311
    1PA    H12S 4706   1.920   0.374   4.254
    1PA    C111 4707   2.056   0.327   4.418
    1PA    H11R 4708   2.072   0.221   4.397
    1PA    H11S 4709   2.142   0.379   4.461
    1PA    C110 4710   1.947   0.325   4.527
    1PA    H10R 4711   1.928   0.423   4.572
    1PA    H10S 4712   1.865   0.272   4.479
    1PA     C19 4713   1.992   0.230   4.639
    1PA     H9R 4714   2.011   0.129   4.601
    1PA     H9S 4715   2.088   0.267   4.675
    1PA     C18 4716   1.892   0.224   4.756
    1PA     H8R 4717   1.874   0.325   4.793
    1PA     H8S 4718   1.796   0.176   4.735
    1PA     C17 4719   1.957   0.146   4.871
    1PA     H7R 4720   1.994   0.045   4.851
    1PA     H7S 4721   2.045   0.205   4.898
    1PA     C16 4722   1.857   0.128   4.986
    1PA     H6R 4723   1.913   0.124   5.080
    1PA     H6S 4724   1.797   0.218   4.994
    1PA     C15 4725   1.779  -0.004   4.974
    1PA     H5R 4726   1.737  -0.009   4.873
    1PA     H5S 4727   1.842  -0.090   4.999
    1PA     C14 4728   1.653  -0.009   5.061
    1PA     H4R 4729   1.594   0.082   5.046
    1PA     H4S 4730   1.599  -0.099   5.029
    1PA     C13 4731   1.689  -0.009   5.210
    1PA     H3R 4732   1.748  -0.100   5.228
    1PA     H3S 4733   1.747   0.082   5.224
    1PA     C12 4734   1.566   0.008   5.300
    1PA     H2R 4735   1.530   0.111   5.290
    1PA     H2S 4736   1.481  -0.049   5.262
    2PC     C11 4737   1.598  -0.020   5.444
    2PC     O12 4738   1.697  -0.080   5.481
    2PC     O11 4739   1.508   0.033   5.529
    2PC      C1 4740   1.536   0.026   5.670
    2PC      HR 4741   1.522  -0.073   5.713
    2PC      HS 4742   1.640   0.057   5.683
    2PC      C2 4743   1.434   0.116   5.742
    2PC      HX 4744   1.423   0.210   5.688
    2PC      C3 4745   1.470   0.148   5.887
    2PC      HA 4746   1.566   0.201   5.876
    2PC      HB 4747   1.395   0.211   5.935
    2PC     O31 4748   1.491   0.026   5.961
    2PC     P31 4749   1.506   0.036   6.120
    2PC     O32 4750   1.638   0.124   6.138
    2PC     C31 4751   1.757   0.048   6.109
    2PC     H1A 4752   1.759  -0.034   6.182
    2PC     H1B 4753   1.740   0.017   6.006
    2PC     C32 4754   1.876   0.144   6.120
    2PC     H2A 4755   1.948   0.103   6.049
    2PC     H2B 4756   1.837   0.244   6.099
    2PC     N31 4757   1.947   0.140   6.251
    2PC     C33 4758   2.049   0.250   6.245
    2PC     H3A 4759   2.018   0.342   6.194
    2PC     H3B 4760   2.103   0.263   6.338
    2PC     H3C 4761   2.121   0.214   6.172
    2PC     C34 4762   1.856   0.167   6.367
    2PC     H4A 4763   1.773   0.097   6.353
    2PC     H4B 4764   1.908   0.152   6.461
    2PC     H4C 4765   1.807   0.264   6.367
    2PC     C35 4766   2.008   0.006   6.282
    2PC     H5A 4767   2.034  -0.024   6.181
    2PC     H5B 4768   1.924  -0.055   6.316
    2PC     H5C 4769   2.091   0.010   6.352
    2PC     O33 4770   1.381   0.096   6.173
    2PC     O34 4771   1.501  -0.107   6.159
    2PC     O21 4772   1.305   0.052   5.741
    2PC     C21 4773   1.193   0.123   5.760
    2PC     O22 4774   1.192   0.241   5.788
    3OL     C12 4775   1.067   0.042   5.742
    3OL     H2R 4776   0.983   0.089   5.793
    3OL     H2S 4777   1.087  -0.056   5.788
    3OL     C13 4778   1.037   0.037   5.592
    3OL     H3R 4779   1.010   0.137   5.557
    3OL     H3S 4780   0.943  -0.017   5.591
    3OL     C14 4781   1.150  -0.036   5.517
    3OL     H4R 4782   1.167  -0.134   5.562
    3OL     H4S 4783   1.245   0.012   5.496
    3OL     C15 4784   1.089  -0.061   5.378
    3OL     H5R 4785   0.982  -0.079   5.380
    3OL     H5S 4786   1.125  -0.162   5.356
    3OL     C16 4787   1.139   0.042   5.276
    3OL     H6R 4788   1.248   0.042   5.289
    3OL     H6S 4789   1.093   0.139   5.295
    3OL     C17 4790   1.099  -0.011   5.137
    3OL     H7R 4791   0.997  -0.049   5.140
    3OL     H7S 4792   1.163  -0.094   5.105
    3OL     C18 4793   1.104   0.090   5.022
    3OL     H8R 4794   1.025   0.163   5.040
    3OL     H8S 4795   1.090   0.035   4.928
    3OL     C19 4796   1.239   0.155   5.020
    3OL     H9R 4797   1.255   0.214   5.110
    3OL    C110 4798   1.336   0.155   4.929
    3OL    H10R 4799   1.432   0.200   4.952
    3OL    C111 4800   1.328   0.086   4.795
    3OL    H11R 4801   1.381   0.147   4.722
    3OL    H11S 4802   1.224   0.070   4.766
    3OL    C112 4803   1.403  -0.047   4.804
    3OL    H12R 4804   1.364  -0.112   4.882
    3OL    H12S 4805   1.504  -0.031   4.842
    3OL    C113 4806   1.405  -0.117   4.667
    3OL    H13R 4807   1.450  -0.056   4.588
    3OL    H13S 4808   1.301  -0.131   4.638
    3OL    C114 4809   1.472  -0.255   4.668
    3OL    H14R 4810   1.429  -0.308   4.753
    3OL    H14S 4811   1.578  -0.244   4.689
    3OL    C115 4812   1.453  -0.325   4.532
    3OL    H15R 4813   1.534  -0.392   4.503
    3OL    H15S 4814   1.450  -0.244   4.460
    3OL    C116 4815   1.318  -0.398   4.529
    3OL    H16R 4816   1.240  -0.327   4.560
    3OL    H16S 4817   1.323  -0.472   4.610
    3OL    C117 4818   1.287  -0.450   4.388
    3OL    H17R 4819   1.297  -0.363   4.323
    3OL    H17S 4820   1.180  -0.474   4.382
    3OL    C118 4821   1.379  -0.567   4.350
    3OL    H18R 4822   1.361  -0.648   4.421
    3OL    H18S 4823   1.482  -0.532   4.345
    3OL    H18T 4824   1.362  -0.617   4.255
    1PA    C116 4825   5.385   3.475   4.143
    1PA    H16R 4826   5.402   3.582   4.125
    1PA    H16S 4827   5.282   3.464   4.177
    1PA    H16T 4828   5.396   3.434   4.042
    1PA    C115 4829   5.489   3.415   4.238
    1PA    H15R 4830   5.587   3.465   4.239
    1PA    H15S 4831   5.453   3.428   4.340
    1PA    C114 4832   5.516   3.267   4.208
    1PA    H14R 4833   5.417   3.222   4.219
    1PA    H14S 4834   5.562   3.247   4.111
    1PA    C113 4835   5.594   3.193   4.318
    1PA    H13R 4836   5.567   3.209   4.422
    1PA    H13S 4837   5.569   3.087   4.303
    1PA    C112 4838   5.744   3.216   4.296
    1PA    H12R 4839   5.773   3.193   4.193
    1PA    H12S 4840   5.768   3.322   4.310
    1PA    C111 4841   5.816   3.132   4.403
    1PA    H11R 4842   5.920   3.165   4.405
    1PA    H11S 4843   5.774   3.157   4.501
    1PA    C110 4844   5.817   2.980   4.385
    1PA    H10R 4845   5.713   2.945   4.390
    1PA    H10S 4846   5.858   2.956   4.286
    1PA     C19 4847   5.897   2.919   4.501
    1PA     H9R 4848   5.991   2.974   4.494
    1PA     H9S 4849   5.850   2.946   4.596
    1PA     C18 4850   5.895   2.766   4.488
    1PA     H8R 4851   5.791   2.735   4.497
    1PA     H8S 4852   5.927   2.731   4.390
    1PA     C17 4853   5.974   2.712   4.608
    1PA     H7R 4854   5.928   2.754   4.697
    1PA     H7S 4855   5.958   2.604   4.618
    1PA     C16 4856   6.123   2.751   4.606
    1PA     H6R 4857   6.167   2.715   4.513
    1PA     H6S 4858   6.139   2.859   4.603
    1PA     C15 4859   6.189   2.691   4.731
    1PA     H5R 4860   6.135   2.602   4.766
    1PA     H5S 4861   6.291   2.666   4.703
    1PA     C14 4862   6.200   2.799   4.838
    1PA     H4R 4863   6.259   2.882   4.798
    1PA     H4S 4864   6.098   2.836   4.852
    1PA     C13 4865   6.256   2.757   4.974
    1PA     H3R 4866   6.205   2.668   5.013
    1PA     H3S 4867   6.361   2.732   4.954
    1PA     C12 4868   6.242   2.869   5.078
    1PA     H2R 4869   6.310   2.950   5.049
    1PA     H2S 4870   6.140   2.907   5.088
    2PC     C11 4871   6.277   2.826   5.219
    2PC     O12 4872   6.365   2.749   5.248
    2PC     O11 4873   6.197   2.888   5.308
    2PC      C1 4874   6.200   2.841   5.444
    2PC      HR 4875   6.107   2.869   5.494
    2PC      HS 4876   6.216   2.734   5.455
    2PC      C2 4877   6.306   2.918   5.523
    2PC      HX 4878   6.400   2.902   5.469
    2PC      C3 4879   6.313   2.870   5.668
    2PC      HA 4880   6.354   2.768   5.673
    2PC      HB 4881   6.381   2.936   5.722
    2PC     O31 4882   6.183   2.869   5.729
    2PC     P31 4883   6.167   2.834   5.885
    2PC     O32 4884   6.139   2.979   5.947
    2PC     C31 4885   6.225   3.040   6.046
    2PC     H1A 4886   6.239   2.982   6.137
    2PC     H1B 4887   6.324   3.045   6.000
    2PC     C32 4888   6.177   3.180   6.086
    2PC     H2A 4889   6.253   3.222   6.152
    2PC     H2B 4890   6.169   3.245   5.999
    2PC     N31 4891   6.040   3.190   6.145
    2PC     C33 4892   6.016   3.083   6.247
    2PC     H3A 4893   6.103   3.064   6.310
    2PC     H3B 4894   5.924   3.104   6.301
    2PC     H3C 4895   5.995   2.994   6.188
    2PC     C34 4896   6.026   3.324   6.213
    2PC     H4A 4897   6.103   3.339   6.289
    2PC     H4B 4898   6.045   3.402   6.140
    2PC     H4C 4899   5.927   3.329   6.257
    2PC     C35 4900   5.944   3.181   6.030
    2PC     H5A 4901   5.967   3.263   5.963
    2PC     H5B 4902   5.845   3.187   6.075
    2PC     H5C 4903   5.958   3.088   5.976
    2PC     O33 4904   6.063   2.732   5.908
    2PC     O34 4905   6.292   2.784   5.947
    2PC     O21 4906   6.277   3.059   5.512
    2PC     C21 4907   6.320   3.129   5.405
    2PC     O22 4908   6.390   3.080   5.318
    3OL     C12 4909   6.266   3.269   5.394
    3OL     H2R 4910   6.341   3.335   5.350
    3OL     H2S 4911   6.239   3.301   5.495
    3OL     C13 4912   6.147   3.270   5.297
    3OL     H3R 4913   6.072   3.194   5.319
    3OL     H3S 4914   6.186   3.247   5.198
    3OL     C14 4915   6.070   3.402   5.305
    3OL     H4R 4916   6.069   3.436   5.409
    3OL     H4S 4917   5.975   3.386   5.253
    3OL     C15 4918   6.149   3.502   5.219
    3OL     H5R 4919   6.154   3.464   5.117
    3OL     H5S 4920   6.249   3.508   5.261
    3OL     C16 4921   6.080   3.639   5.221
    3OL     H6R 4922   6.045   3.669   5.321
    3OL     H6S 4923   5.989   3.627   5.161
    3OL     C17 4924   6.174   3.740   5.154
    3OL     H7R 4925   6.252   3.777   5.221
    3OL     H7S 4926   6.117   3.830   5.131
    3OL     C18 4927   6.228   3.706   5.014
    3OL     H8R 4928   6.270   3.605   5.018
    3OL     H8S 4929   6.305   3.781   4.996
    3OL     C19 4930   6.120   3.710   4.908
    3OL     H9R 4931   6.055   3.624   4.918
    3OL    C110 4932   6.100   3.811   4.825
    3OL    H10R 4933   6.011   3.810   4.761
    3OL    C111 4934   6.197   3.925   4.805
    3OL    H11R 4935   6.251   3.958   4.893
    3OL    H11S 4936   6.129   4.006   4.777
    3OL    C112 4937   6.301   3.903   4.694
    3OL    H12R 4938   6.363   3.992   4.698
    3OL    H12S 4939   6.257   3.899   4.594
    3OL    C113 4940   6.377   3.771   4.719
    3OL    H13R 4941   6.308   3.687   4.712
    3OL    H13S 4942   6.422   3.769   4.818
    3OL    C114 4943   6.488   3.739   4.618
    3OL    H14R 4944   6.548   3.826   4.591
    3OL    H14S 4945   6.439   3.703   4.527
    3OL    C115 4946   6.570   3.619   4.667
    3OL    H15R 4947   6.504   3.533   4.684
    3OL    H15S 4948   6.609   3.640   4.766
    3OL    C116 4949   6.678   3.573   4.568
    3OL    H16R 4950   6.739   3.660   4.546
    3OL    H16S 4951   6.620   3.554   4.477
    3OL    C117 4952   6.757   3.454   4.623
    3OL    H17R 4953   6.797   3.472   4.723
    3OL    H17S 4954   6.843   3.457   4.555
    3OL    C118 4955   6.692   3.315   4.616
    3OL    H18R 4956   6.747   3.239   4.671
    3OL    H18S 4957   6.696   3.287   4.511
    3OL    H18T 4958   6.588   3.318   4.650
    1PA    C116 4959   1.911   4.314   4.389
    1PA    H16R 4960   1.944   4.326   4.285
    1PA    H16S 4961   1.805   4.292   4.405
    1PA    H16T 4962   1.947   4.220   4.431
    1PA    C115 4963   1.956   4.433   4.474
    1PA    H15R 4964   1.955   4.429   4.584
    1PA    H15S 4965   2.064   4.424   4.459
    1PA    C114 4966   1.904   4.570   4.427
    1PA    H14R 4967   1.946   4.635   4.504
    1PA    H14S 4968   1.950   4.581   4.329
    1PA    C113 4969   1.753   4.588   4.413
    1PA    H13R 4970   1.736   4.518   4.332
    1PA    H13S 4971   1.687   4.553   4.493
    1PA    C112 4972   1.716   4.734   4.382
    1PA    H12R 4973   1.773   4.765   4.293
    1PA    H12S 4974   1.611   4.734   4.352
    1PA    C111 4975   1.742   4.829   4.500
    1PA    H11R 4976   1.689   4.790   4.587
    1PA    H11S 4977   1.849   4.835   4.522
    1PA    C110 4978   1.696   4.972   4.471
    1PA    H10R 4979   1.729   5.001   4.371
    1PA    H10S 4980   1.587   4.969   4.464
    1PA     C19 4981   1.740   5.075   4.577
    1PA     H9R 4982   1.847   5.062   4.598
    1PA     H9S 4983   1.728   5.174   4.533
    1PA     C18 4984   1.648   5.069   4.699
    1PA     H8R 4985   1.547   5.105   4.678
    1PA     H8S 4986   1.650   4.964   4.732
    1PA     C17 4987   1.706   5.165   4.804
    1PA     H7R 4988   1.806   5.129   4.826
    1PA     H7S 4989   1.720   5.264   4.760
    1PA     C16 4990   1.623   5.187   4.932
    1PA     H6R 4991   1.544   5.261   4.915
    1PA     H6S 4992   1.575   5.091   4.951
    1PA     C15 4993   1.711   5.209   5.055
    1PA     H5R 4994   1.653   5.182   5.144
    1PA     H5S 4995   1.797   5.141   5.052
    1PA     C14 4996   1.744   5.358   5.063
    1PA     H4R 4997   1.799   5.379   4.971
    1PA     H4S 4998   1.650   5.413   5.067
    1PA     C13 4999   1.811   5.392   5.198
    1PA     H3R 5000   1.827   5.500   5.199
    1PA     H3S 5001   1.738   5.391   5.279
    1PA     C12 5002   1.942   5.315   5.216
    1PA     H2R 5003   1.928   5.212   5.250
    1PA     H2S 5004   1.998   5.320   5.122
    2PC     C11 5005   2.023   5.387   5.321
    2PC     O12 5006   1.984   5.482   5.385
    2PC     O11 5007   2.145   5.336   5.344
    2PC      C1 5008   2.224   5.404   5.444
    2PC      HR 5009   2.207   5.512   5.444
    2PC      HS 5010   2.202   5.364   5.544
    2PC      C2 5011   2.369   5.358   5.425
    2PC      HX 5012   2.382   5.253   5.397
    2PC      C3 5013   2.458   5.398   5.544
    2PC      HA 5014   2.428   5.329   5.623
    2PC      HB 5015   2.563   5.393   5.514
    2PC     O31 5016   2.425   5.537   5.562
    2PC     P31 5017   2.520   5.633   5.649
    2PC     O32 5018   2.592   5.691   5.518
    2PC     C31 5019   2.618   5.831   5.498
    2PC     H1A 5020   2.641   5.862   5.395
    2PC     H1B 5021   2.533   5.889   5.535
    2PC     C32 5022   2.732   5.875   5.591
    2PC     H2A 5023   2.745   5.982   5.574
    2PC     H2B 5024   2.708   5.851   5.695
    2PC     N31 5025   2.872   5.827   5.563
    2PC     C33 5026   2.959   5.887   5.668
    2PC     H3A 5027   2.935   5.992   5.683
    2PC     H3B 5028   2.933   5.839   5.762
    2PC     H3C 5029   3.064   5.868   5.643
    2PC     C34 5030   2.890   5.678   5.568
    2PC     H4A 5031   2.863   5.642   5.668
    2PC     H4B 5032   2.836   5.632   5.486
    2PC     H4C 5033   2.997   5.662   5.561
    2PC     C35 5034   2.922   5.886   5.435
    2PC     H5A 5035   2.904   5.994   5.428
    2PC     H5B 5036   2.856   5.842   5.361
    2PC     H5C 5037   3.023   5.849   5.423
    2PC     O33 5038   2.451   5.737   5.728
    2PC     O34 5039   2.624   5.563   5.728
    2PC     O21 5040   2.422   5.436   5.317
    2PC     C21 5041   2.535   5.398   5.254
    2PC     O22 5042   2.610   5.310   5.290
    3OL     C12 5043   2.576   5.489   5.141
    3OL     H2R 5044   2.496   5.487   5.066
    3OL     H2S 5045   2.665   5.444   5.096
    3OL     C13 5046   2.606   5.631   5.190
    3OL     H3R 5047   2.696   5.617   5.250
    3OL     H3S 5048   2.525   5.675   5.249
    3OL     C14 5049   2.631   5.711   5.062
    3OL     H4R 5050   2.541   5.699   5.002
    3OL     H4S 5051   2.714   5.668   5.006
    3OL     C15 5052   2.651   5.861   5.091
    3OL     H5R 5053   2.735   5.868   5.161
    3OL     H5S 5054   2.559   5.905   5.128
    3OL     C16 5055   2.694   5.942   4.968
    3OL     H6R 5056   2.619   5.925   4.891
    3OL     H6S 5057   2.794   5.919   4.930
    3OL     C17 5058   2.688   6.090   5.008
    3OL     H7R 5059   2.750   6.109   5.096
    3OL     H7S 5060   2.585   6.117   5.030
    3OL     C18 5061   2.726   6.186   4.894
    3OL     H8R 5062   2.729   6.284   4.941
    3OL     H8S 5063   2.641   6.176   4.825
    3OL     C19 5064   2.856   6.153   4.826
    3OL     H9R 5065   2.940   6.131   4.891
    3OL    C110 5066   2.876   6.143   4.695
    3OL    H10R 5067   2.970   6.103   4.660
    3OL    C111 5068   2.765   6.181   4.600
    3OL    H11R 5069   2.760   6.288   4.582
    3OL    H11S 5070   2.663   6.160   4.632
    3OL    C112 5071   2.785   6.118   4.462
    3OL    H12R 5072   2.765   6.011   4.462
    3OL    H12S 5073   2.891   6.121   4.434
    3OL    C113 5074   2.701   6.175   4.346
    3OL    H13R 5075   2.731   6.121   4.256
    3OL    H13S 5076   2.729   6.279   4.326
    3OL    C114 5077   2.551   6.174   4.376
    3OL    H14R 5078   2.533   6.250   4.452
    3OL    H14S 5079   2.520   6.076   4.413
    3OL    C115 5080   2.467   6.205   4.251
    3OL    H15R 5081   2.503   6.142   4.170
    3OL    H15S 5082   2.486   6.311   4.231
    3OL    C116 5083   2.322   6.163   4.278
    3OL    H16R 5084   2.279   6.211   4.367
    3OL    H16S 5085   2.311   6.056   4.294
    3OL    C117 5086   2.231   6.208   4.163
    3OL    H17R 5087   2.280   6.294   4.117
    3OL    H17S 5088   2.129   6.230   4.192
    3OL    C118 5089   2.220   6.105   4.049
    3OL    H18R 5090   2.147   6.136   3.974
    3OL    H18S 5091   2.171   6.015   4.088
    3OL    H18T 5092   2.322   6.087   4.015
    1PA    C116 5093   1.884   1.397   4.121
    1PA    H16R 5094   1.851   1.301   4.080
    1PA    H16S 5095   1.940   1.373   4.212
    1PA    H16T 5096   1.954   1.434   4.047
    1PA    C115 5097   1.763   1.488   4.147
    1PA    H15R 5098   1.794   1.590   4.172
    1PA    H15S 5099   1.718   1.503   4.048
    1PA    C114 5100   1.665   1.426   4.247
    1PA    H14R 5101   1.644   1.320   4.230
    1PA    H14S 5102   1.708   1.437   4.346
    1PA    C113 5103   1.532   1.503   4.251
    1PA    H13R 5104   1.548   1.608   4.228
    1PA    H13S 5105   1.463   1.460   4.179
    1PA    C112 5106   1.464   1.495   4.389
    1PA    H12R 5107   1.452   1.393   4.424
    1PA    H12S 5108   1.517   1.559   4.460
    1PA    C111 5109   1.323   1.556   4.378
    1PA    H11R 5110   1.305   1.651   4.328
    1PA    H11S 5111   1.261   1.485   4.323
    1PA    C110 5112   1.256   1.576   4.515
    1PA    H10R 5113   1.255   1.479   4.565
    1PA    H10S 5114   1.315   1.645   4.576
    1PA     C19 5115   1.123   1.653   4.516
    1PA     H9R 5116   1.138   1.750   4.470
    1PA     H9S 5117   1.047   1.599   4.459
    1PA     C18 5118   1.067   1.659   4.659
    1PA     H8R 5119   0.969   1.707   4.651
    1PA     H8S 5120   1.060   1.556   4.694
    1PA     C17 5121   1.149   1.740   4.760
    1PA     H7R 5122   1.248   1.695   4.776
    1PA     H7S 5123   1.167   1.834   4.708
    1PA     C16 5124   1.074   1.755   4.893
    1PA     H6R 5125   0.988   1.816   4.864
    1PA     H6S 5126   1.044   1.661   4.939
    1PA     C15 5127   1.156   1.837   4.993
    1PA     H5R 5128   1.227   1.766   5.037
    1PA     H5S 5129   1.215   1.925   4.968
    1PA     C14 5130   1.068   1.880   5.111
    1PA     H4R 5131   1.019   1.973   5.082
    1PA     H4S 5132   0.987   1.812   5.136
    1PA     C13 5133   1.141   1.920   5.241
    1PA     H3R 5134   1.239   1.956   5.211
    1PA     H3S 5135   1.083   2.000   5.287
    1PA     C12 5136   1.151   1.811   5.349
    1PA     H2R 5137   1.049   1.786   5.381
    1PA     H2S 5138   1.197   1.722   5.306
    2PC     C11 5139   1.235   1.853   5.466
    2PC     O12 5140   1.272   1.967   5.485
    2PC     O11 5141   1.256   1.753   5.553
    2PC      C1 5142   1.340   1.774   5.668
    2PC      HR 5143   1.406   1.862   5.662
    2PC      HS 5144   1.264   1.785   5.746
    2PC      C2 5145   1.421   1.645   5.686
    2PC      HX 5146   1.346   1.572   5.718
    2PC      C3 5147   1.527   1.660   5.796
    2PC      HA 5148   1.610   1.721   5.761
    2PC      HB 5149   1.491   1.704   5.889
    2PC     O31 5150   1.576   1.530   5.834
    2PC     P31 5151   1.678   1.529   5.958
    2PC     O32 5152   1.580   1.454   6.059
    2PC     C31 5153   1.531   1.322   6.027
    2PC     H1A 5154   1.458   1.333   5.946
    2PC     H1B 5155   1.612   1.254   5.999
    2PC     C32 5156   1.470   1.266   6.157
    2PC     H2A 5157   1.439   1.162   6.150
    2PC     H2B 5158   1.538   1.276   6.241
    2PC     N31 5159   1.362   1.357   6.209
    2PC     C33 5160   1.413   1.479   6.280
    2PC     H3A 5161   1.468   1.537   6.206
    2PC     H3B 5162   1.332   1.529   6.332
    2PC     H3C 5163   1.483   1.435   6.351
    2PC     C34 5164   1.260   1.396   6.107
    2PC     H4A 5165   1.237   1.309   6.045
    2PC     H4B 5166   1.174   1.428   6.165
    2PC     H4C 5167   1.302   1.475   6.045
    2PC     C35 5168   1.295   1.277   6.318
    2PC     H5A 5169   1.374   1.244   6.386
    2PC     H5B 5170   1.247   1.186   6.283
    2PC     H5C 5171   1.225   1.345   6.367
    2PC     O33 5172   1.802   1.458   5.920
    2PC     O34 5173   1.713   1.667   6.000
    2PC     O21 5174   1.488   1.598   5.568
    2PC     C21 5175   1.571   1.687   5.508
    2PC     O22 5176   1.595   1.797   5.552
    3OL     C12 5177   1.627   1.627   5.382
    3OL     H2R 5178   1.643   1.522   5.407
    3OL     H2S 5179   1.728   1.661   5.358
    3OL     C13 5180   1.525   1.634   5.268
    3OL     H3R 5181   1.427   1.620   5.314
    3OL     H3S 5182   1.536   1.563   5.185
    3OL     C14 5183   1.515   1.778   5.214
    3OL     H4R 5184   1.501   1.848   5.297
    3OL     H4S 5185   1.424   1.793   5.155
    3OL     C15 5186   1.638   1.832   5.140
    3OL     H5R 5187   1.728   1.774   5.161
    3OL     H5S 5188   1.665   1.927   5.186
    3OL     C16 5189   1.614   1.846   4.989
    3OL     H6R 5190   1.654   1.938   4.947
    3OL     H6S 5191   1.509   1.868   4.967
    3OL     C17 5192   1.673   1.725   4.914
    3OL     H7R 5193   1.640   1.630   4.955
    3OL     H7S 5194   1.780   1.734   4.930
    3OL     C18 5195   1.662   1.738   4.761
    3OL     H8R 5196   1.688   1.643   4.716
    3OL     H8S 5197   1.738   1.806   4.721
    3OL     C19 5198   1.522   1.763   4.709
    3OL     H9R 5199   1.451   1.697   4.758
    3OL    C110 5200   1.487   1.849   4.615
    3OL    H10R 5201   1.384   1.863   4.585
    3OL    C111 5202   1.590   1.915   4.526
    3OL    H11R 5203   1.648   1.835   4.481
    3OL    H11S 5204   1.657   1.975   4.588
    3OL    C112 5205   1.531   2.000   4.412
    3OL    H12R 5206   1.612   2.033   4.348
    3OL    H12S 5207   1.478   2.085   4.455
    3OL    C113 5208   1.437   1.915   4.325
    3OL    H13R 5209   1.350   1.885   4.385
    3OL    H13S 5210   1.495   1.829   4.291
    3OL    C114 5211   1.391   2.001   4.207
    3OL    H14R 5212   1.481   2.041   4.160
    3OL    H14S 5213   1.325   2.079   4.247
    3OL    C115 5214   1.316   1.913   4.106
    3OL    H15R 5215   1.278   1.964   4.017
    3OL    H15S 5216   1.220   1.878   4.146
    3OL    C116 5217   1.396   1.802   4.038
    3OL    H16R 5218   1.422   1.727   4.113
    3OL    H16S 5219   1.500   1.832   4.022
    3OL    C117 5220   1.334   1.751   3.906
    3OL    H17R 5221   1.404   1.683   3.857
    3OL    H17S 5222   1.304   1.832   3.840
    3OL    C118 5223   1.209   1.669   3.940
    3OL    H18R 5224   1.189   1.614   3.847
    3OL    H18S 5225   1.122   1.734   3.955
    3OL    H18T 5226   1.223   1.596   4.020
    1PA    C116 5227   5.089   3.934   3.993
    1PA    H16R 5228   5.018   3.929   4.076
    1PA    H16S 5229   5.095   3.833   3.951
    1PA    H16T 5230   5.055   3.997   3.911
    1PA    C115 5231   5.229   3.970   4.046
    1PA    H15R 5232   5.299   3.978   3.963
    1PA    H15S 5233   5.210   4.068   4.092
    1PA    C114 5234   5.266   3.865   4.152
    1PA    H14R 5235   5.180   3.832   4.211
    1PA    H14S 5236   5.299   3.777   4.097
    1PA    C113 5237   5.375   3.910   4.250
    1PA    H13R 5238   5.385   3.824   4.317
    1PA    H13S 5239   5.461   3.934   4.187
    1PA    C112 5240   5.334   4.032   4.333
    1PA    H12R 5241   5.330   4.121   4.270
    1PA    H12S 5242   5.236   4.023   4.380
    1PA    C111 5243   5.439   4.073   4.436
    1PA    H11R 5244   5.453   3.993   4.509
    1PA    H11S 5245   5.540   4.093   4.398
    1PA    C110 5246   5.382   4.193   4.514
    1PA    H10R 5247   5.359   4.273   4.443
    1PA    H10S 5248   5.289   4.177   4.569
    1PA     C19 5249   5.488   4.239   4.614
    1PA     H9R 5250   5.539   4.156   4.664
    1PA     H9S 5251   5.571   4.287   4.561
    1PA     C18 5252   5.426   4.334   4.718
    1PA     H8R 5253   5.414   4.432   4.673
    1PA     H8S 5254   5.325   4.303   4.747
    1PA     C17 5255   5.520   4.365   4.835
    1PA     H7R 5256   5.624   4.366   4.800
    1PA     H7S 5257   5.504   4.468   4.868
    1PA     C16 5258   5.481   4.265   4.945
    1PA     H6R 5259   5.376   4.238   4.953
    1PA     H6S 5260   5.537   4.178   4.909
    1PA     C15 5261   5.545   4.299   5.080
    1PA     H5R 5262   5.653   4.283   5.075
    1PA     H5S 5263   5.535   4.406   5.101
    1PA     C14 5264   5.480   4.216   5.191
    1PA     H4R 5265   5.373   4.241   5.195
    1PA     H4S 5266   5.499   4.110   5.171
    1PA     C13 5267   5.546   4.239   5.327
    1PA     H3R 5268   5.655   4.236   5.315
    1PA     H3S 5269   5.525   4.344   5.349
    1PA     C12 5270   5.491   4.151   5.440
    1PA     H2R 5271   5.383   4.163   5.451
    1PA     H2S 5272   5.510   4.048   5.412
    2PC     C11 5273   5.566   4.165   5.570
    2PC     O12 5274   5.529   4.131   5.680
    2PC     O11 5275   5.687   4.220   5.550
    2PC      C1 5276   5.776   4.241   5.661
    2PC      HR 5277   5.725   4.306   5.733
    2PC      HS 5278   5.802   4.144   5.704
    2PC      C2 5279   5.906   4.314   5.626
    2PC      HX 5280   5.967   4.264   5.551
    2PC      C3 5281   5.985   4.325   5.757
    2PC      HA 5282   5.992   4.221   5.788
    2PC      HB 5283   6.084   4.366   5.735
    2PC     O31 5284   5.906   4.398   5.854
    2PC     P31 5285   5.961   4.440   5.999
    2PC     O32 5286   6.065   4.552   5.951
    2PC     C31 5287   6.184   4.578   6.028
    2PC     H1A 5288   6.164   4.621   6.127
    2PC     H1B 5289   6.239   4.484   6.029
    2PC     C32 5290   6.276   4.682   5.963
    2PC     H2A 5291   6.372   4.670   6.012
    2PC     H2B 5292   6.281   4.662   5.856
    2PC     N31 5293   6.257   4.827   5.996
    2PC     C33 5294   6.120   4.866   5.950
    2PC     H3A 5295   6.049   4.787   5.975
    2PC     H3B 5296   6.094   4.962   5.994
    2PC     H3C 5297   6.129   4.887   5.844
    2PC     C34 5298   6.273   4.858   6.142
    2PC     H4A 5299   6.266   4.966   6.155
    2PC     H4B 5300   6.197   4.814   6.207
    2PC     H4C 5301   6.370   4.814   6.163
    2PC     C35 5302   6.370   4.904   5.935
    2PC     H5A 5303   6.347   4.891   5.829
    2PC     H5B 5304   6.461   4.851   5.964
    2PC     H5C 5305   6.371   5.005   5.975
    2PC     O33 5306   5.839   4.489   6.066
    2PC     O34 5307   6.018   4.325   6.073
    2PC     O21 5308   5.862   4.440   5.573
    2PC     C21 5309   5.952   4.532   5.532
    2PC     O22 5310   6.073   4.520   5.528
    3OL     C12 5311   5.878   4.660   5.504
    3OL     H2R 5312   5.937   4.747   5.536
    3OL     H2S 5313   5.786   4.654   5.562
    3OL     C13 5314   5.836   4.662   5.357
    3OL     H3R 5315   5.772   4.575   5.340
    3OL     H3S 5316   5.934   4.661   5.308
    3OL     C14 5317   5.762   4.794   5.328
    3OL     H4R 5318   5.824   4.880   5.355
    3OL     H4S 5319   5.667   4.795   5.382
    3OL     C15 5320   5.712   4.795   5.184
    3OL     H5R 5321   5.639   4.876   5.171
    3OL     H5S 5322   5.648   4.707   5.178
    3OL     C16 5323   5.824   4.803   5.079
    3OL     H6R 5324   5.791   4.756   4.986
    3OL     H6S 5325   5.910   4.751   5.120
    3OL     C17 5326   5.876   4.946   5.062
    3OL     H7R 5327   5.933   4.969   5.152
    3OL     H7S 5328   5.788   5.009   5.050
    3OL     C18 5329   5.976   4.967   4.947
    3OL     H8R 5330   6.071   4.916   4.959
    3OL     H8S 5331   5.990   5.076   4.942
    3OL     C19 5332   5.913   4.922   4.817
    3OL     H9R 5333   5.805   4.925   4.820
    3OL    C110 5334   5.987   4.876   4.718
    3OL    H10R 5335   5.937   4.837   4.629
    3OL    C111 5336   6.138   4.878   4.714
    3OL    H11R 5337   6.178   4.799   4.778
    3OL    H11S 5338   6.179   4.971   4.755
    3OL    C112 5339   6.192   4.872   4.570
    3OL    H12R 5340   6.301   4.864   4.569
    3OL    H12S 5341   6.163   4.969   4.528
    3OL    C113 5342   6.137   4.757   4.486
    3OL    H13R 5343   6.029   4.768   4.474
    3OL    H13S 5344   6.172   4.666   4.535
    3OL    C114 5345   6.207   4.743   4.350
    3OL    H14R 5346   6.181   4.657   4.288
    3OL    H14S 5347   6.314   4.736   4.365
    3OL    C115 5348   6.166   4.866   4.267
    3OL    H15R 5349   6.191   4.956   4.323
    3OL    H15S 5350   6.060   4.865   4.239
    3OL    C116 5351   6.261   4.866   4.147
    3OL    H16R 5352   6.239   4.768   4.104
    3OL    H16S 5353   6.366   4.884   4.173
    3OL    C117 5354   6.220   4.966   4.038
    3OL    H17R 5355   6.113   4.984   4.036
    3OL    H17S 5356   6.251   4.922   3.943
    3OL    C118 5357   6.297   5.098   4.057
    3OL    H18R 5358   6.404   5.079   4.042
    3OL    H18S 5359   6.275   5.132   4.158
    3OL    H18T 5360   6.253   5.164   3.982
    1PA    C116 5361   6.185   1.218   3.683
    1PA    H16R 5362   6.139   1.221   3.781
    1PA    H16S 5363   6.264   1.145   3.699
    1PA    H16T 5364   6.114   1.180   3.609
    1PA    C115 5365   6.261   1.346   3.643
    1PA    H15R 5366   6.341   1.322   3.572
    1PA    H15S 5367   6.196   1.417   3.593
    1PA    C114 5368   6.309   1.427   3.764
    1PA    H14R 5369   6.358   1.356   3.831
    1PA    H14S 5370   6.372   1.509   3.729
    1PA    C113 5371   6.193   1.495   3.838
    1PA    H13R 5372   6.124   1.543   3.768
    1PA    H13S 5373   6.124   1.423   3.883
    1PA    C112 5374   6.232   1.583   3.957
    1PA    H12R 5375   6.272   1.514   4.032
    1PA    H12S 5376   6.317   1.644   3.927
    1PA    C111 5377   6.121   1.665   4.023
    1PA    H11R 5378   6.091   1.748   3.958
    1PA    H11S 5379   6.030   1.605   4.032
    1PA    C110 5380   6.155   1.736   4.155
    1PA    H10R 5381   6.247   1.794   4.147
    1PA    H10S 5382   6.069   1.802   4.166
    1PA     C19 5383   6.173   1.640   4.273
    1PA     H9R 5384   6.080   1.590   4.303
    1PA     H9S 5385   6.248   1.567   4.241
    1PA     C18 5386   6.220   1.715   4.398
    1PA     H8R 5387   6.251   1.642   4.473
    1PA     H8S 5388   6.311   1.770   4.375
    1PA     C17 5389   6.111   1.807   4.456
    1PA     H7R 5390   6.149   1.887   4.519
    1PA     H7S 5391   6.057   1.862   4.379
    1PA     C16 5392   6.025   1.723   4.552
    1PA     H6R 5393   5.928   1.772   4.565
    1PA     H6S 5394   6.005   1.627   4.506
    1PA     C15 5395   6.079   1.695   4.693
    1PA     H5R 5396   6.171   1.637   4.677
    1PA     H5S 5397   6.109   1.785   4.747
    1PA     C14 5398   5.972   1.621   4.773
    1PA     H4R 5399   6.004   1.614   4.877
    1PA     H4S 5400   5.886   1.688   4.765
    1PA     C13 5401   5.927   1.482   4.723
    1PA     H3R 5402   5.833   1.466   4.776
    1PA     H3S 5403   5.915   1.475   4.615
    1PA     C12 5404   6.032   1.380   4.767
    1PA     H2R 5405   6.050   1.312   4.683
    1PA     H2S 5406   6.129   1.429   4.780
    2PC     C11 5407   5.992   1.298   4.887
    2PC     O12 5408   6.058   1.281   4.987
    2PC     O11 5409   5.878   1.230   4.864
    2PC      C1 5410   5.853   1.120   4.953
    2PC      HR 5411   5.789   1.043   4.908
    2PC      HS 5412   5.949   1.071   4.974
    2PC      C2 5413   5.794   1.187   5.078
    2PC      HX 5414   5.817   1.294   5.074
    2PC      C3 5415   5.845   1.136   5.213
    2PC      HA 5416   5.947   1.174   5.221
    2PC      HB 5417   5.785   1.176   5.296
    2PC     O31 5418   5.860   0.993   5.205
    2PC     P31 5419   5.912   0.927   5.341
    2PC     O32 5420   5.777   0.949   5.425
    2PC     C31 5421   5.688   0.836   5.428
    2PC     H1A 5422   5.666   0.796   5.329
    2PC     H1B 5423   5.726   0.755   5.490
    2PC     C32 5424   5.562   0.890   5.498
    2PC     H2A 5425   5.588   0.940   5.591
    2PC     H2B 5426   5.507   0.964   5.440
    2PC     N31 5427   5.457   0.790   5.538
    2PC     C33 5428   5.392   0.726   5.419
    2PC     H3A 5429   5.301   0.672   5.443
    2PC     H3B 5430   5.383   0.810   5.349
    2PC     H3C 5431   5.467   0.664   5.370
    2PC     C34 5432   5.505   0.688   5.637
    2PC     H4A 5433   5.430   0.624   5.684
    2PC     H4B 5434   5.590   0.634   5.595
    2PC     H4C 5435   5.544   0.746   5.721
    2PC     C35 5436   5.339   0.862   5.596
    2PC     H5A 5437   5.293   0.929   5.525
    2PC     H5B 5438   5.377   0.920   5.680
    2PC     H5C 5439   5.272   0.783   5.630
    2PC     O33 5440   5.956   0.787   5.324
    2PC     O34 5441   6.035   0.988   5.396
    2PC     O21 5442   5.652   1.171   5.064
    2PC     C21 5443   5.587   1.269   4.998
    2PC     O22 5444   5.622   1.382   4.974
    3OL     C12 5445   5.445   1.226   4.974
    3OL     H2R 5446   5.411   1.324   4.940
    3OL     H2S 5447   5.386   1.201   5.063
    3OL     C13 5448   5.423   1.122   4.863
    3OL     H3R 5449   5.316   1.118   4.846
    3OL     H3S 5450   5.445   1.020   4.898
    3OL     C14 5451   5.497   1.150   4.732
    3OL     H4R 5452   5.604   1.168   4.746
    3OL     H4S 5453   5.462   1.242   4.685
    3OL     C15 5454   5.488   1.036   4.629
    3OL     H5R 5455   5.382   1.018   4.611
    3OL     H5S 5456   5.533   0.943   4.662
    3OL     C16 5457   5.557   1.070   4.496
    3OL     H6R 5458   5.511   1.159   4.451
    3OL     H6S 5459   5.534   0.991   4.425
    3OL     C17 5460   5.705   1.110   4.503
    3OL     H7R 5461   5.731   1.179   4.583
    3OL     H7S 5462   5.727   1.175   4.418
    3OL     C18 5463   5.799   0.988   4.509
    3OL     H8R 5464   5.758   0.927   4.590
    3OL     H8S 5465   5.893   1.027   4.548
    3OL     C19 5466   5.826   0.909   4.384
    3OL     H9R 5467   5.849   0.970   4.297
    3OL    C110 5468   5.833   0.777   4.376
    3OL    H10R 5469   5.855   0.738   4.277
    3OL    C111 5470   5.835   0.686   4.496
    3OL    H11R 5471   5.830   0.744   4.588
    3OL    H11S 5472   5.929   0.632   4.489
    3OL    C112 5473   5.714   0.592   4.479
    3OL    H12R 5474   5.702   0.531   4.569
    3OL    H12S 5475   5.739   0.529   4.393
    3OL    C113 5476   5.587   0.669   4.442
    3OL    H13R 5477   5.598   0.721   4.346
    3OL    H13S 5478   5.575   0.749   4.515
    3OL    C114 5479   5.468   0.574   4.424
    3OL    H14R 5480   5.470   0.498   4.502
    3OL    H14S 5481   5.482   0.515   4.333
    3OL    C115 5482   5.332   0.644   4.432
    3OL    H15R 5483   5.251   0.570   4.427
    3OL    H15S 5484   5.329   0.722   4.356
    3OL    C116 5485   5.295   0.711   4.565
    3OL    H16R 5486   5.379   0.776   4.592
    3OL    H16S 5487   5.284   0.638   4.645
    3OL    C117 5488   5.172   0.801   4.570
    3OL    H17R 5489   5.163   0.880   4.494
    3OL    H17S 5490   5.160   0.843   4.670
    3OL    C118 5491   5.053   0.706   4.554
    3OL    H18R 5492   5.046   0.618   4.618
    3OL    H18S 5493   5.041   0.678   4.449
    3OL    H18T 5494   4.959   0.761   4.566
    1PA    C116 5495   1.928   1.073   3.848
    1PA    H16R 5496   1.820   1.084   3.835
    1PA    H16S 5497   1.976   1.043   3.755
    1PA    H16T 5498   1.964   1.171   3.881
    1PA    C115 5499   1.968   0.989   3.970
    1PA    H15R 5500   1.892   0.999   4.048
    1PA    H15S 5501   1.967   0.882   3.949
    1PA    C114 5502   2.107   1.028   4.022
    1PA    H14R 5503   2.188   0.991   3.958
    1PA    H14S 5504   2.116   1.136   4.036
    1PA    C113 5505   2.133   0.962   4.158
    1PA    H13R 5506   2.046   0.974   4.223
    1PA    H13S 5507   2.145   0.854   4.151
    1PA    C112 5508   2.255   1.022   4.230
    1PA    H12R 5509   2.247   1.130   4.225
    1PA    H12S 5510   2.265   0.989   4.334
    1PA    C111 5511   2.386   0.968   4.171
    1PA    H11R 5512   2.377   0.860   4.181
    1PA    H11S 5513   2.412   0.986   4.066
    1PA    C110 5514   2.508   1.027   4.243
    1PA    H10R 5515   2.525   1.128   4.206
    1PA    H10S 5516   2.490   1.024   4.351
    1PA     C19 5517   2.633   0.940   4.225
    1PA     H9R 5518   2.615   0.837   4.256
    1PA     H9S 5519   2.664   0.939   4.120
    1PA     C18 5520   2.746   0.986   4.318
    1PA     H8R 5521   2.766   1.093   4.313
    1PA     H8S 5522   2.711   0.968   4.420
    1PA     C17 5523   2.868   0.898   4.287
    1PA     H7R 5524   2.833   0.795   4.285
    1PA     H7S 5525   2.907   0.919   4.187
    1PA     C16 5526   2.986   0.916   4.382
    1PA     H6R 5527   3.031   1.016   4.380
    1PA     H6S 5528   2.964   0.905   4.489
    1PA     C15 5529   3.099   0.820   4.345
    1PA     H5R 5530   3.057   0.719   4.343
    1PA     H5S 5531   3.133   0.838   4.243
    1PA     C14 5532   3.216   0.827   4.445
    1PA     H4R 5533   3.290   0.754   4.412
    1PA     H4S 5534   3.265   0.925   4.438
    1PA     C13 5535   3.159   0.791   4.583
    1PA     H3R 5536   3.094   0.866   4.627
    1PA     H3S 5537   3.096   0.704   4.561
    1PA     C12 5538   3.274   0.767   4.682
    1PA     H2R 5539   3.360   0.719   4.636
    1PA     H2S 5540   3.312   0.866   4.710
    2PC     C11 5541   3.229   0.687   4.802
    2PC     O12 5542   3.118   0.638   4.809
    2PC     O11 5543   3.309   0.710   4.907
    2PC      C1 5544   3.279   0.660   5.038
    2PC      HR 5545   3.338   0.716   5.112
    2PC      HS 5546   3.173   0.672   5.061
    2PC      C2 5547   3.342   0.520   5.047
    2PC      HX 5548   3.298   0.466   4.963
    2PC      C3 5549   3.303   0.445   5.175
    2PC      HA 5550   3.205   0.399   5.161
    2PC      HB 5551   3.374   0.366   5.200
    2PC     O31 5552   3.318   0.536   5.286
    2PC     P31 5553   3.287   0.487   5.435
    2PC     O32 5554   3.194   0.606   5.489
    2PC     C31 5555   3.056   0.620   5.449
    2PC     H1A 5556   3.071   0.667   5.351
    2PC     H1B 5557   3.004   0.524   5.451
    2PC     C32 5558   2.987   0.715   5.548
    2PC     H2A 5559   3.051   0.802   5.558
    2PC     H2B 5560   2.892   0.759   5.520
    2PC     N31 5561   2.963   0.667   5.688
    2PC     C33 5562   3.076   0.601   5.762
    2PC     H3A 5563   3.167   0.660   5.749
    2PC     H3B 5564   3.044   0.585   5.865
    2PC     H3C 5565   3.108   0.509   5.713
    2PC     C34 5566   2.903   0.781   5.765
    2PC     H4A 5567   2.970   0.866   5.766
    2PC     H4B 5568   2.811   0.803   5.711
    2PC     H4C 5569   2.891   0.744   5.867
    2PC     C35 5570   2.859   0.560   5.680
    2PC     H5A 5571   2.825   0.539   5.782
    2PC     H5B 5572   2.906   0.472   5.636
    2PC     H5C 5573   2.768   0.591   5.628
    2PC     O33 5574   3.263   0.342   5.451
    2PC     O34 5575   3.418   0.493   5.505
    2PC     O21 5576   3.485   0.534   5.036
    2PC     C21 5577   3.575   0.434   5.039
    2PC     O22 5578   3.540   0.317   5.041
    3OL     C12 5579   3.715   0.487   5.024
    3OL     H2R 5580   3.765   0.482   5.121
    3OL     H2S 5581   3.714   0.590   4.989
    3OL     C13 5582   3.799   0.420   4.915
    3OL     H3R 5583   3.797   0.313   4.938
    3OL     H3S 5584   3.904   0.448   4.932
    3OL     C14 5585   3.744   0.432   4.772
    3OL     H4R 5586   3.695   0.528   4.759
    3OL     H4S 5587   3.686   0.342   4.752
    3OL     C15 5588   3.865   0.425   4.678
    3OL     H5R 5589   3.903   0.324   4.695
    3OL     H5S 5590   3.945   0.494   4.708
    3OL     C16 5591   3.830   0.438   4.530
    3OL     H6R 5592   3.759   0.520   4.514
    3OL     H6S 5593   3.767   0.355   4.496
    3OL     C17 5594   3.952   0.453   4.438
    3OL     H7R 5595   4.024   0.374   4.459
    3OL     H7S 5596   4.004   0.546   4.462
    3OL     C18 5597   3.909   0.439   4.291
    3OL     H8R 5598   3.883   0.540   4.259
    3OL     H8S 5599   3.813   0.386   4.291
    3OL     C19 5600   4.005   0.365   4.201
    3OL     H9R 5601   4.084   0.316   4.257
    3OL    C110 5602   4.005   0.366   4.069
    3OL    H10R 5603   4.087   0.319   4.015
    3OL    C111 5604   3.894   0.421   3.982
    3OL    H11R 5605   3.798   0.439   4.030
    3OL    H11S 5606   3.865   0.343   3.910
    3OL    C112 5607   3.922   0.560   3.923
    3OL    H12R 5608   3.847   0.583   3.848
    3OL    H12S 5609   4.019   0.557   3.872
    3OL    C113 5610   3.917   0.676   4.023
    3OL    H13R 5611   3.984   0.645   4.104
    3OL    H13S 5612   3.815   0.697   4.055
    3OL    C114 5613   3.990   0.800   3.970
    3OL    H14R 5614   4.085   0.763   3.930
    3OL    H14S 5615   4.001   0.869   4.055
    3OL    C115 5616   3.908   0.862   3.856
    3OL    H15R 5617   3.803   0.876   3.882
    3OL    H15S 5618   3.911   0.800   3.766
    3OL    C116 5619   3.966   1.003   3.842
    3OL    H16R 5620   4.062   0.996   3.791
    3OL    H16S 5621   3.980   1.060   3.934
    3OL    C117 5622   3.864   1.080   3.756
    3OL    H17R 5623   3.771   1.104   3.808
    3OL    H17S 5624   3.832   1.021   3.670
    3OL    C118 5625   3.917   1.215   3.705
    3OL    H18R 5626   4.006   1.198   3.644
    3OL    H18S 5627   3.947   1.267   3.796
    3OL    H18T 5628   3.838   1.265   3.650
    1PA    C116 5629   4.233   6.222   3.719
    1PA    H16R 5630   4.240   6.121   3.678
    1PA    H16S 5631   4.256   6.223   3.825
    1PA    H16T 5632   4.312   6.276   3.667
    1PA    C115 5633   4.093   6.282   3.697
    1PA    H15R 5634   4.076   6.373   3.755
    1PA    H15S 5635   4.085   6.329   3.599
    1PA    C114 5636   3.983   6.184   3.739
    1PA    H14R 5637   3.889   6.237   3.721
    1PA    H14S 5638   3.987   6.097   3.674
    1PA    C113 5639   3.972   6.154   3.889
    1PA    H13R 5640   4.050   6.080   3.909
    1PA    H13S 5641   3.981   6.235   3.961
    1PA    C112 5642   3.841   6.080   3.920
    1PA    H12R 5643   3.755   6.139   3.887
    1PA    H12S 5644   3.827   5.981   3.877
    1PA    C111 5645   3.828   6.064   4.072
    1PA    H11R 5646   3.924   6.026   4.108
    1PA    H11S 5647   3.811   6.158   4.125
    1PA    C110 5648   3.718   5.962   4.102
    1PA    H10R 5649   3.621   6.001   4.071
    1PA    H10S 5650   3.728   5.867   4.048
    1PA     C19 5651   3.714   5.934   4.253
    1PA     H9R 5652   3.815   5.908   4.286
    1PA     H9S 5653   3.694   6.029   4.304
    1PA     C18 5654   3.608   5.830   4.291
    1PA     H8R 5655   3.618   5.746   4.223
    1PA     H8S 5656   3.635   5.805   4.394
    1PA     C17 5657   3.470   5.898   4.291
    1PA     H7R 5658   3.462   5.984   4.225
    1PA     H7S 5659   3.408   5.818   4.251
    1PA     C16 5660   3.421   5.934   4.432
    1PA     H6R 5661   3.404   5.849   4.498
    1PA     H6S 5662   3.488   5.998   4.491
    1PA     C15 5663   3.287   6.009   4.434
    1PA     H5R 5664   3.289   6.108   4.388
    1PA     H5S 5665   3.211   5.957   4.375
    1PA     C14 5666   3.225   6.045   4.570
    1PA     H4R 5667   3.129   6.094   4.550
    1PA     H4S 5668   3.214   5.956   4.632
    1PA     C13 5669   3.316   6.147   4.640
    1PA     H3R 5670   3.415   6.106   4.664
    1PA     H3S 5671   3.334   6.229   4.570
    1PA     C12 5672   3.260   6.192   4.776
    1PA     H2R 5673   3.183   6.269   4.768
    1PA     H2S 5674   3.203   6.103   4.804
    2PC     C11 5675   3.365   6.227   4.878
    2PC     O12 5676   3.407   6.339   4.900
    2PC     O11 5677   3.418   6.117   4.933
    2PC      C1 5678   3.485   6.112   5.061
    2PC      HR 5679   3.508   6.010   5.091
    2PC      HS 5680   3.581   6.164   5.063
    2PC      C2 5681   3.389   6.161   5.169
    2PC      HX 5682   3.363   6.263   5.141
    2PC      C3 5683   3.459   6.149   5.305
    2PC      HA 5684   3.480   6.045   5.331
    2PC      HB 5685   3.555   6.200   5.297
    2PC     O31 5686   3.382   6.216   5.407
    2PC     P31 5687   3.444   6.281   5.540
    2PC     O32 5688   3.320   6.286   5.641
    2PC     C31 5689   3.285   6.389   5.735
    2PC     H1A 5690   3.368   6.388   5.806
    2PC     H1B 5691   3.278   6.489   5.690
    2PC     C32 5692   3.147   6.343   5.784
    2PC     H2A 5693   3.112   6.423   5.850
    2PC     H2B 5694   3.068   6.328   5.711
    2PC     N31 5695   3.142   6.225   5.877
    2PC     C33 5696   3.171   6.099   5.800
    2PC     H3A 5697   3.157   6.021   5.875
    2PC     H3B 5698   3.092   6.106   5.725
    2PC     H3C 5699   3.269   6.096   5.751
    2PC     C34 5700   3.242   6.221   5.988
    2PC     H4A 5701   3.245   6.322   6.029
    2PC     H4B 5702   3.229   6.138   6.058
    2PC     H4C 5703   3.331   6.200   5.929
    2PC     C35 5704   3.002   6.226   5.930
    2PC     H5A 5705   2.931   6.259   5.855
    2PC     H5B 5706   2.995   6.295   6.015
    2PC     H5C 5707   2.963   6.130   5.963
    2PC     O33 5708   3.553   6.206   5.606
    2PC     O34 5709   3.500   6.418   5.527
    2PC     O21 5710   3.275   6.073   5.179
    2PC     C21 5711   3.157   6.100   5.121
    2PC     O22 5712   3.133   6.208   5.070
    3OL     C12 5713   3.055   5.991   5.142
    3OL     H2R 5714   2.987   5.995   5.056
    3OL     H2S 5715   3.005   6.022   5.234
    3OL     C13 5716   3.120   5.854   5.164
    3OL     H3R 5717   3.128   5.826   5.269
    3OL     H3S 5718   3.220   5.853   5.121
    3OL     C14 5719   3.032   5.744   5.103
    3OL     H4R 5720   3.029   5.769   4.997
    3OL     H4S 5721   2.935   5.750   5.151
    3OL     C15 5722   3.089   5.603   5.127
    3OL     H5R 5723   3.035   5.529   5.068
    3OL     H5S 5724   3.072   5.576   5.232
    3OL     C16 5725   3.235   5.589   5.081
    3OL     H6R 5726   3.277   5.496   5.122
    3OL     H6S 5727   3.295   5.663   5.135
    3OL     C17 5728   3.246   5.594   4.928
    3OL     H7R 5729   3.181   5.676   4.896
    3OL     H7S 5730   3.208   5.502   4.884
    3OL     C18 5731   3.384   5.625   4.869
    3OL     H8R 5732   3.411   5.724   4.907
    3OL     H8S 5733   3.375   5.640   4.761
    3OL     C19 5734   3.482   5.515   4.903
    3OL     H9R 5735   3.534   5.526   4.998
    3OL    C110 5736   3.530   5.415   4.831
    3OL    H10R 5737   3.611   5.361   4.879
    3OL    C111 5738   3.485   5.376   4.692
    3OL    H11R 5739   3.380   5.404   4.680
    3OL    H11S 5740   3.473   5.268   4.677
    3OL    C112 5741   3.571   5.444   4.585
    3OL    H12R 5742   3.674   5.407   4.590
    3OL    H12S 5743   3.574   5.553   4.598
    3OL    C113 5744   3.511   5.428   4.445
    3OL    H13R 5745   3.494   5.323   4.420
    3OL    H13S 5746   3.587   5.477   4.383
    3OL    C114 5747   3.386   5.516   4.432
    3OL    H14R 5748   3.407   5.616   4.470
    3OL    H14S 5749   3.305   5.479   4.495
    3OL    C115 5750   3.358   5.523   4.281
    3OL    H15R 5751   3.360   5.422   4.239
    3OL    H15S 5752   3.448   5.571   4.243
    3OL    C116 5753   3.226   5.595   4.249
    3OL    H16R 5754   3.217   5.677   4.320
    3OL    H16S 5755   3.139   5.528   4.253
    3OL    C117 5756   3.227   5.650   4.105
    3OL    H17R 5757   3.270   5.578   4.035
    3OL    H17S 5758   3.293   5.737   4.100
    3OL    C118 5759   3.085   5.701   4.079
    3OL    H18R 5760   3.081   5.729   3.973
    3OL    H18S 5761   3.059   5.783   4.145
    3OL    H18T 5762   3.013   5.620   4.092
    1PA    C116 5763   1.336   4.216   3.558
    1PA    H16R 5764   1.429   4.179   3.600
    1PA    H16S 5765   1.363   4.257   3.460
    1PA    H16T 5766   1.259   4.142   3.533
    1PA    C115 5767   1.275   4.334   3.636
    1PA    H15R 5768   1.349   4.404   3.675
    1PA    H15S 5769   1.211   4.388   3.567
    1PA    C114 5770   1.193   4.285   3.756
    1PA    H14R 5771   1.111   4.356   3.765
    1PA    H14S 5772   1.150   4.189   3.727
    1PA    C113 5773   1.264   4.276   3.892
    1PA    H13R 5774   1.198   4.219   3.958
    1PA    H13S 5775   1.349   4.209   3.885
    1PA    C112 5776   1.312   4.415   3.938
    1PA    H12R 5777   1.385   4.444   3.862
    1PA    H12S 5778   1.230   4.486   3.948
    1PA    C111 5779   1.393   4.404   4.068
    1PA    H11R 5780   1.474   4.331   4.060
    1PA    H11S 5781   1.434   4.503   4.090
    1PA    C110 5782   1.308   4.372   4.191
    1PA    H10R 5783   1.240   4.456   4.204
    1PA    H10S 5784   1.242   4.287   4.170
    1PA     C19 5785   1.386   4.356   4.322
    1PA     H9R 5786   1.477   4.417   4.319
    1PA     H9S 5787   1.311   4.388   4.395
    1PA     C18 5788   1.434   4.211   4.336
    1PA     H8R 5789   1.361   4.139   4.298
    1PA     H8S 5790   1.527   4.200   4.281
    1PA     C17 5791   1.444   4.196   4.488
    1PA     H7R 5792   1.354   4.222   4.543
    1PA     H7S 5793   1.453   4.089   4.504
    1PA     C16 5794   1.564   4.262   4.557
    1PA     H6R 5795   1.648   4.208   4.513
    1PA     H6S 5796   1.575   4.368   4.533
    1PA     C15 5797   1.563   4.249   4.710
    1PA     H5R 5798   1.476   4.293   4.760
    1PA     H5S 5799   1.551   4.141   4.714
    1PA     C14 5800   1.701   4.291   4.764
    1PA     H4R 5801   1.784   4.239   4.717
    1PA     H4S 5802   1.726   4.394   4.737
    1PA     C13 5803   1.701   4.260   4.914
    1PA     H3R 5804   1.612   4.300   4.963
    1PA     H3S 5805   1.702   4.151   4.925
    1PA     C12 5806   1.816   4.326   4.991
    1PA     H2R 5807   1.908   4.272   4.970
    1PA     H2S 5808   1.816   4.430   4.956
    2PC     C11 5809   1.784   4.316   5.138
    2PC     O12 5810   1.736   4.409   5.199
    2PC     O11 5811   1.806   4.194   5.188
    2PC      C1 5812   1.775   4.155   5.323
    2PC      HR 5813   1.837   4.068   5.350
    2PC      HS 5814   1.795   4.234   5.396
    2PC      C2 5815   1.624   4.132   5.338
    2PC      HX 5816   1.577   4.231   5.335
    2PC      C3 5817   1.599   4.067   5.474
    2PC      HA 5818   1.596   3.958   5.464
    2PC      HB 5819   1.681   4.101   5.538
    2PC     O31 5820   1.476   4.119   5.527
    2PC     P31 5821   1.424   4.075   5.672
    2PC     O32 5822   1.267   4.075   5.643
    2PC     C31 5823   1.186   4.000   5.735
    2PC     H1A 5824   1.212   3.894   5.740
    2PC     H1B 5825   1.193   4.051   5.831
    2PC     C32 5826   1.043   3.999   5.680
    2PC     H2A 5827   1.026   4.001   5.572
    2PC     H2B 5828   0.986   3.915   5.720
    2PC     N31 5829   0.956   4.109   5.733
    2PC     C33 5830   0.816   4.090   5.682
    2PC     H3A 5831   0.806   4.109   5.575
    2PC     H3B 5832   0.777   3.992   5.710
    2PC     H3C 5833   0.761   4.167   5.736
    2PC     C34 5834   0.946   4.108   5.883
    2PC     H4A 5835   0.924   4.005   5.909
    2PC     H4B 5836   1.039   4.135   5.934
    2PC     H4C 5837   0.859   4.167   5.914
    2PC     C35 5838   1.008   4.241   5.685
    2PC     H5A 5839   0.927   4.310   5.662
    2PC     H5B 5840   1.062   4.225   5.592
    2PC     H5C 5841   1.075   4.291   5.755
    2PC     O33 5842   1.462   3.938   5.714
    2PC     O34 5843   1.439   4.166   5.787
    2PC     O21 5844   1.582   4.032   5.243
    2PC     C21 5845   1.497   4.067   5.146
    2PC     O22 5846   1.448   4.177   5.136
    3OL     C12 5847   1.463   3.961   5.044
    3OL     H2R 5848   1.435   3.876   5.106
    3OL     H2S 5849   1.555   3.927   4.996
    3OL     C13 5850   1.342   3.998   4.957
    3OL     H3R 5851   1.367   4.079   4.887
    3OL     H3S 5852   1.257   4.024   5.021
    3OL     C14 5853   1.316   3.875   4.869
    3OL     H4R 5854   1.208   3.869   4.857
    3OL     H4S 5855   1.342   3.784   4.923
    3OL     C15 5856   1.395   3.875   4.737
    3OL     H5R 5857   1.500   3.890   4.761
    3OL     H5S 5858   1.355   3.959   4.680
    3OL     C16 5859   1.368   3.744   4.661
    3OL     H6R 5860   1.353   3.762   4.555
    3OL     H6S 5861   1.274   3.699   4.696
    3OL     C17 5862   1.482   3.644   4.681
    3OL     H7R 5863   1.502   3.640   4.789
    3OL     H7S 5864   1.580   3.677   4.643
    3OL     C18 5865   1.450   3.515   4.605
    3OL     H8R 5866   1.457   3.531   4.498
    3OL     H8S 5867   1.347   3.492   4.634
    3OL     C19 5868   1.532   3.399   4.655
    3OL     H9R 5869   1.508   3.366   4.756
    3OL    C110 5870   1.598   3.318   4.574
    3OL    H10R 5871   1.638   3.225   4.612
    3OL    C111 5872   1.622   3.335   4.426
    3OL    H11R 5873   1.552   3.400   4.372
    3OL    H11S 5874   1.593   3.238   4.385
    3OL    C112 5875   1.769   3.356   4.386
    3OL    H12R 5876   1.831   3.273   4.420
    3OL    H12S 5877   1.800   3.449   4.434
    3OL    C113 5878   1.779   3.374   4.234
    3OL    H13R 5879   1.708   3.453   4.210
    3OL    H13S 5880   1.748   3.279   4.189
    3OL    C114 5881   1.918   3.413   4.183
    3OL    H14R 5882   1.953   3.504   4.232
    3OL    H14S 5883   1.907   3.436   4.077
    3OL    C115 5884   2.025   3.304   4.202
    3OL    H15R 5885   2.010   3.262   4.301
    3OL    H15S 5886   2.125   3.348   4.198
    3OL    C116 5887   2.023   3.188   4.102
    3OL    H16R 5888   1.923   3.144   4.094
    3OL    H16S 5889   2.087   3.106   4.135
    3OL    C117 5890   2.064   3.228   3.960
    3OL    H17R 5891   2.163   3.275   3.959
    3OL    H17S 5892   1.993   3.297   3.915
    3OL    C118 5893   2.073   3.097   3.881
    3OL    H18R 5894   2.106   3.119   3.779
    3OL    H18S 5895   1.975   3.051   3.871
    3OL    H18T 5896   2.137   3.026   3.934
    1PA    C116 5897   4.846  -0.053   3.680
    1PA    H16R 5898   4.757  -0.053   3.617
    1PA    H16S 5899   4.855  -0.153   3.722
    1PA    H16T 5900   4.928  -0.043   3.610
    1PA    C115 5901   4.854   0.046   3.797
    1PA    H15R 5902   4.936   0.018   3.864
    1PA    H15S 5903   4.871   0.144   3.750
    1PA    C114 5904   4.719   0.031   3.868
    1PA    H14R 5905   4.636   0.036   3.797
    1PA    H14S 5906   4.717  -0.066   3.918
    1PA    C113 5907   4.683   0.133   3.977
    1PA    H13R 5908   4.766   0.149   4.047
    1PA    H13S 5909   4.671   0.234   3.938
    1PA    C112 5910   4.551   0.087   4.039
    1PA    H12R 5911   4.470   0.072   3.967
    1PA    H12S 5912   4.555  -0.005   4.097
    1PA    C111 5913   4.504   0.194   4.139
    1PA    H11R 5914   4.579   0.216   4.215
    1PA    H11S 5915   4.477   0.283   4.082
    1PA    C110 5916   4.369   0.151   4.198
    1PA    H10R 5917   4.319   0.241   4.234
    1PA    H10S 5918   4.296   0.116   4.125
    1PA     C19 5919   4.385   0.042   4.305
    1PA     H9R 5920   4.425  -0.050   4.263
    1PA     H9S 5921   4.459   0.073   4.379
    1PA     C18 5922   4.249   0.017   4.371
    1PA     H8R 5923   4.170   0.018   4.296
    1PA     H8S 5924   4.253  -0.082   4.419
    1PA     C17 5925   4.203   0.118   4.477
    1PA     H7R 5926   4.192   0.213   4.426
    1PA     H7S 5927   4.109   0.078   4.517
    1PA     C16 5928   4.308   0.131   4.588
    1PA     H6R 5929   4.328   0.028   4.618
    1PA     H6S 5930   4.396   0.172   4.537
    1PA     C15 5931   4.268   0.225   4.703
    1PA     H5R 5932   4.353   0.256   4.764
    1PA     H5S 5933   4.235   0.317   4.654
    1PA     C14 5934   4.147   0.180   4.786
    1PA     H4R 5935   4.144   0.238   4.878
    1PA     H4S 5936   4.057   0.197   4.727
    1PA     C13 5937   4.153   0.032   4.829
    1PA     H3R 5938   4.145  -0.021   4.734
    1PA     H3S 5939   4.244   0.013   4.886
    1PA     C12 5940   4.020   0.006   4.901
    1PA     H2R 5941   3.939   0.034   4.834
    1PA     H2S 5942   4.017  -0.102   4.912
    2PC     C11 5943   4.014   0.073   5.036
    2PC     O12 5944   3.906   0.113   5.075
    2PC     O11 5945   4.134   0.098   5.091
    2PC      C1 5946   4.138   0.182   5.208
    2PC      HR 5947   4.082   0.274   5.191
    2PC      HS 5948   4.086   0.125   5.286
    2PC      C2 5949   4.286   0.211   5.235
    2PC      HX 5950   4.345   0.121   5.217
    2PC      C3 5951   4.296   0.276   5.374
    2PC      HA 5952   4.263   0.201   5.446
    2PC      HB 5953   4.397   0.307   5.403
    2PC     O31 5954   4.213   0.393   5.383
    2PC     P31 5955   4.216   0.481   5.517
    2PC     O32 5956   4.113   0.592   5.465
    2PC     C31 5957   3.989   0.546   5.409
    2PC     H1A 5958   4.016   0.508   5.310
    2PC     H1B 5959   3.962   0.462   5.473
    2PC     C32 5960   3.891   0.664   5.420
    2PC     H2A 5961   3.926   0.739   5.490
    2PC     H2B 5962   3.880   0.716   5.325
    2PC     N31 5963   3.752   0.632   5.466
    2PC     C33 5964   3.670   0.757   5.481
    2PC     H3A 5965   3.563   0.737   5.472
    2PC     H3B 5966   3.682   0.795   5.583
    2PC     H3C 5967   3.690   0.832   5.405
    2PC     C34 5968   3.687   0.545   5.362
    2PC     H4A 5969   3.653   0.609   5.281
    2PC     H4B 5970   3.760   0.470   5.331
    2PC     H4C 5971   3.606   0.497   5.416
    2PC     C35 5972   3.754   0.559   5.597
    2PC     H5A 5973   3.651   0.533   5.623
    2PC     H5B 5974   3.789   0.633   5.669
    2PC     H5C 5975   3.820   0.473   5.601
    2PC     O33 5976   4.163   0.434   5.646
    2PC     O34 5977   4.347   0.525   5.571
    2PC     O21 5978   4.333   0.314   5.147
    2PC     C21 5979   4.462   0.352   5.139
    2PC     O22 5980   4.558   0.300   5.192
    3OL     C12 5981   4.472   0.482   5.063
    3OL     H2R 5982   4.426   0.558   5.127
    3OL     H2S 5983   4.413   0.482   4.972
    3OL     C13 5984   4.616   0.516   5.024
    3OL     H3R 5985   4.649   0.449   4.944
    3OL     H3S 5986   4.674   0.498   5.115
    3OL     C14 5987   4.639   0.658   4.971
    3OL     H4R 5988   4.651   0.727   5.056
    3OL     H4S 5989   4.543   0.686   4.927
    3OL     C15 5990   4.746   0.666   4.861
    3OL     H5R 5991   4.712   0.604   4.777
    3OL     H5S 5992   4.844   0.635   4.898
    3OL     C16 5993   4.771   0.806   4.805
    3OL     H6R 5994   4.863   0.796   4.747
    3OL     H6S 5995   4.781   0.878   4.886
    3OL     C17 5996   4.653   0.842   4.713
    3OL     H7R 5997   4.564   0.858   4.774
    3OL     H7S 5998   4.628   0.763   4.643
    3OL     C18 5999   4.683   0.967   4.628
    3OL     H8R 6000   4.773   0.926   4.583
    3OL     H8S 6001   4.710   1.042   4.703
    3OL     C19 6002   4.584   1.015   4.525
    3OL     H9R 6003   4.511   1.081   4.572
    3OL    C110 6004   4.585   1.007   4.393
    3OL    H10R 6005   4.511   1.056   4.331
    3OL    C111 6006   4.697   0.934   4.323
    3OL    H11R 6007   4.728   0.842   4.373
    3OL    H11S 6008   4.789   0.994   4.324
    3OL    C112 6009   4.669   0.912   4.174
    3OL    H12R 6010   4.760   0.887   4.119
    3OL    H12S 6011   4.636   1.003   4.122
    3OL    C113 6012   4.564   0.802   4.154
    3OL    H13R 6013   4.477   0.859   4.186
    3OL    H13S 6014   4.584   0.729   4.233
    3OL    C114 6015   4.547   0.738   4.016
    3OL    H14R 6016   4.644   0.709   3.975
    3OL    H14S 6017   4.518   0.807   3.937
    3OL    C115 6018   4.447   0.622   4.015
    3OL    H15R 6019   4.353   0.675   3.995
    3OL    H15S 6020   4.436   0.565   4.107
    3OL    C116 6021   4.477   0.533   3.893
    3OL    H16R 6022   4.569   0.476   3.903
    3OL    H16S 6023   4.478   0.594   3.803
    3OL    C117 6024   4.363   0.431   3.885
    3OL    H17R 6025   4.271   0.482   3.855
    3OL    H17S 6026   4.349   0.373   3.977
    3OL    C118 6027   4.390   0.330   3.773
    3OL    H18R 6028   4.301   0.267   3.774
    3OL    H18S 6029   4.478   0.271   3.802
    3OL    H18T 6030   4.395   0.381   3.677
    1PA    C116 6031   4.894   2.425   4.141
    1PA    H16R 6032   4.982   2.471   4.186
    1PA    H16S 6033   4.831   2.512   4.122
    1PA    H16T 6034   4.931   2.377   4.050
    1PA    C115 6035   4.837   2.313   4.230
    1PA    H15R 6036   4.743   2.276   4.188
    1PA    H15S 6037   4.899   2.224   4.241
    1PA    C114 6038   4.806   2.372   4.368
    1PA    H14R 6039   4.884   2.423   4.424
    1PA    H14S 6040   4.732   2.449   4.348
    1PA    C113 6041   4.736   2.270   4.458
    1PA    H13R 6042   4.679   2.320   4.537
    1PA    H13S 6043   4.654   2.225   4.401
    1PA    C112 6044   4.822   2.158   4.518
    1PA    H12R 6045   4.743   2.085   4.535
    1PA    H12S 6046   4.897   2.126   4.445
    1PA    C111 6047   4.865   2.199   4.659
    1PA    H11R 6048   4.826   2.291   4.702
    1PA    H11S 6049   4.832   2.110   4.714
    1PA    C110 6050   5.018   2.214   4.656
    1PA    H10R 6051   5.075   2.134   4.608
    1PA    H10S 6052   5.031   2.304   4.597
    1PA     C19 6053   5.066   2.250   4.797
    1PA     H9R 6054   5.164   2.293   4.777
    1PA     H9S 6055   5.011   2.327   4.853
    1PA     C18 6056   5.075   2.119   4.876
    1PA     H8R 6057   4.981   2.067   4.859
    1PA     H8S 6058   5.155   2.054   4.839
    1PA     C17 6059   5.101   2.141   5.026
    1PA     H7R 6060   5.149   2.049   5.059
    1PA     H7S 6061   5.173   2.222   5.029
    1PA     C16 6062   4.965   2.161   5.095
    1PA     H6R 6063   4.908   2.246   5.054
    1PA     H6S 6064   4.902   2.076   5.070
    1PA     C15 6065   4.974   2.181   5.247
    1PA     H5R 6066   5.061   2.238   5.279
    1PA     H5S 6067   4.888   2.243   5.272
    1PA     C14 6068   4.970   2.049   5.327
    1PA     H4R 6069   4.874   2.001   5.306
    1PA     H4S 6070   5.050   1.985   5.289
    1PA     C13 6071   4.989   2.080   5.476
    1PA     H3R 6072   5.031   1.995   5.529
    1PA     H3S 6073   5.062   2.162   5.481
    1PA     C12 6074   4.860   2.133   5.538
    1PA     H2R 6075   4.844   2.229   5.488
    1PA     H2S 6076   4.772   2.070   5.526
    2PC     C11 6077   4.887   2.159   5.685
    2PC     O12 6078   4.925   2.073   5.762
    2PC     O11 6079   4.838   2.275   5.729
    2PC      C1 6080   4.857   2.345   5.853
    2PC      HR 6081   4.796   2.435   5.864
    2PC      HS 6082   4.816   2.285   5.935
    2PC      C2 6083   5.006   2.374   5.875
    2PC      HX 6084   5.069   2.292   5.840
    2PC      C3 6085   5.047   2.400   6.021
    2PC      HA 6086   5.028   2.309   6.079
    2PC      HB 6087   5.151   2.431   6.033
    2PC     O31 6088   4.958   2.499   6.075
    2PC     P31 6089   4.987   2.584   6.207
    2PC     O32 6090   5.121   2.661   6.165
    2PC     C31 6091   5.157   2.783   6.232
    2PC     H1A 6092   5.068   2.844   6.253
    2PC     H1B 6093   5.207   2.759   6.326
    2PC     C32 6094   5.252   2.870   6.149
    2PC     H2A 6095   5.274   2.960   6.206
    2PC     H2B 6096   5.351   2.826   6.138
    2PC     N31 6097   5.210   2.907   6.009
    2PC     C33 6098   5.305   3.014   5.964
    2PC     H3A 6099   5.256   3.102   6.006
    2PC     H3B 6100   5.406   3.000   6.002
    2PC     H3C 6101   5.296   3.030   5.857
    2PC     C34 6102   5.208   2.792   5.913
    2PC     H4A 6103   5.166   2.817   5.816
    2PC     H4B 6104   5.311   2.758   5.903
    2PC     H4C 6105   5.147   2.715   5.962
    2PC     C35 6106   5.069   2.956   6.009
    2PC     H5A 6107   5.004   2.891   6.067
    2PC     H5B 6108   5.034   2.954   5.905
    2PC     H5C 6109   5.055   3.057   6.048
    2PC     O33 6110   4.870   2.674   6.227
    2PC     O34 6111   4.991   2.500   6.329
    2PC     O21 6112   5.025   2.494   5.798
    2PC     C21 6113   5.075   2.489   5.674
    2PC     O22 6114   5.114   2.387   5.622
    3OL     C12 6115   5.055   2.617   5.597
    3OL     H2R 6116   5.144   2.629   5.534
    3OL     H2S 6117   5.049   2.697   5.671
    3OL     C13 6118   4.936   2.612   5.501
    3OL     H3R 6119   4.843   2.612   5.558
    3OL     H3S 6120   4.922   2.524   5.437
    3OL     C14 6121   4.931   2.742   5.419
    3OL     H4R 6122   5.021   2.742   5.357
    3OL     H4S 6123   4.925   2.835   5.475
    3OL     C15 6124   4.805   2.739   5.330
    3OL     H5R 6125   4.797   2.636   5.293
    3OL     H5S 6126   4.828   2.798   5.242
    3OL     C16 6127   4.679   2.794   5.398
    3OL     H6R 6128   4.686   2.903   5.396
    3OL     H6S 6129   4.669   2.765   5.502
    3OL     C17 6130   4.549   2.752   5.329
    3OL     H7R 6131   4.465   2.770   5.397
    3OL     H7S 6132   4.554   2.646   5.303
    3OL     C18 6133   4.533   2.836   5.201
    3OL     H8R 6134   4.474   2.775   5.132
    3OL     H8S 6135   4.628   2.830   5.147
    3OL     C19 6136   4.484   2.977   5.219
    3OL     H9R 6137   4.385   2.990   5.262
    3OL    C110 6138   4.551   3.084   5.177
    3OL    H10R 6139   4.502   3.181   5.185
    3OL    C111 6140   4.692   3.089   5.125
    3OL    H11R 6141   4.754   3.013   5.174
    3OL    H11S 6142   4.740   3.183   5.150
    3OL    C112 6143   4.711   3.064   4.975
    3OL    H12R 6144   4.630   3.116   4.924
    3OL    H12S 6145   4.696   2.957   4.953
    3OL    C113 6146   4.853   3.103   4.931
    3OL    H13R 6147   4.920   3.031   4.980
    3OL    H13S 6148   4.877   3.198   4.979
    3OL    C114 6149   4.860   3.101   4.778
    3OL    H14R 6150   4.782   3.168   4.741
    3OL    H14S 6151   4.842   2.998   4.747
    3OL    C115 6152   5.002   3.141   4.733
    3OL    H15R 6153   5.078   3.079   4.782
    3OL    H15S 6154   5.013   3.243   4.769
    3OL    C116 6155   5.008   3.130   4.580
    3OL    H16R 6156   4.922   3.181   4.538
    3OL    H16S 6157   4.996   3.028   4.543
    3OL    C117 6158   5.142   3.187   4.531
    3OL    H17R 6159   5.224   3.123   4.565
    3OL    H17S 6160   5.152   3.281   4.586
    3OL    C118 6161   5.139   3.222   4.382
    3OL    H18R 6162   5.089   3.144   4.324
    3OL    H18S 6163   5.237   3.246   4.340
    3OL    H18T 6164   5.073   3.308   4.367
    1PA    C116 6165  -0.629   6.693   4.174
    1PA    H16R 6166  -0.562   6.648   4.100
    1PA    H16S 6167  -0.568   6.762   4.232
    1PA    H16T 6168  -0.707   6.751   4.123
    1PA    C115 6169  -0.694   6.596   4.273
    1PA    H15R 6170  -0.746   6.645   4.355
    1PA    H15S 6171  -0.765   6.542   4.210
    1PA    C114 6172  -0.580   6.499   4.307
    1PA    H14R 6173  -0.513   6.487   4.221
    1PA    H14S 6174  -0.516   6.543   4.384
    1PA    C113 6175  -0.638   6.365   4.354
    1PA    H13R 6176  -0.707   6.374   4.438
    1PA    H13S 6177  -0.694   6.329   4.267
    1PA    C112 6178  -0.527   6.262   4.377
    1PA    H12R 6179  -0.572   6.164   4.391
    1PA    H12S 6180  -0.447   6.257   4.303
    1PA    C111 6181  -0.457   6.294   4.509
    1PA    H11R 6182  -0.398   6.386   4.503
    1PA    H11S 6183  -0.529   6.297   4.592
    1PA    C110 6184  -0.364   6.184   4.561
    1PA    H10R 6185  -0.406   6.084   4.544
    1PA    H10S 6186  -0.273   6.203   4.504
    1PA     C19 6187  -0.333   6.209   4.709
    1PA     H9R 6188  -0.277   6.302   4.715
    1PA     H9S 6189  -0.427   6.198   4.765
    1PA     C18 6190  -0.237   6.102   4.763
    1PA     H8R 6191  -0.264   6.001   4.732
    1PA     H8S 6192  -0.139   6.124   4.720
    1PA     C17 6193  -0.218   6.113   4.915
    1PA     H7R 6194  -0.198   6.215   4.948
    1PA     H7S 6195  -0.312   6.082   4.962
    1PA     C16 6196  -0.118   6.006   4.962
    1PA     H6R 6197  -0.155   5.908   4.931
    1PA     H6S 6198  -0.023   6.014   4.908
    1PA     C15 6199  -0.092   6.023   5.112
    1PA     H5R 6200  -0.039   6.117   5.129
    1PA     H5S 6201  -0.186   6.043   5.165
    1PA     C14 6202  -0.026   5.900   5.176
    1PA     H4R 6203  -0.081   5.808   5.155
    1PA     H4S 6204   0.076   5.888   5.138
    1PA     C13 6205  -0.004   5.921   5.327
    1PA     H3R 6206   0.055   6.009   5.352
    1PA     H3S 6207  -0.101   5.939   5.375
    1PA     C12 6208   0.057   5.797   5.394
    1PA     H2R 6209  -0.008   5.711   5.378
    1PA     H2S 6210   0.158   5.772   5.359
    2PC     C11 6211   0.080   5.819   5.542
    2PC     O12 6212   0.060   5.917   5.610
    2PC     O11 6213   0.134   5.705   5.587
    2PC      C1 6214   0.150   5.696   5.730
    2PC      HR 6215   0.216   5.772   5.773
    2PC      HS 6216   0.051   5.713   5.773
    2PC      C2 6217   0.182   5.548   5.756
    2PC      HX 6218   0.110   5.479   5.712
    2PC      C3 6219   0.183   5.514   5.905
    2PC      HA 6220   0.081   5.493   5.939
    2PC      HB 6221   0.246   5.426   5.917
    2PC     O31 6222   0.240   5.619   5.985
    2PC     P31 6223   0.255   5.596   6.143
    2PC     O32 6224   0.110   5.629   6.202
    2PC     C31 6225   0.043   5.756   6.191
    2PC     H1A 6226   0.113   5.827   6.235
    2PC     H1B 6227   0.028   5.775   6.084
    2PC     C32 6228  -0.087   5.734   6.269
    2PC     H2A 6229  -0.169   5.795   6.233
    2PC     H2B 6230  -0.127   5.632   6.269
    2PC     N31 6231  -0.073   5.766   6.415
    2PC     C33 6232  -0.208   5.747   6.479
    2PC     H3A 6233  -0.202   5.778   6.583
    2PC     H3B 6234  -0.279   5.797   6.414
    2PC     H3C 6235  -0.216   5.639   6.462
    2PC     C34 6236   0.015   5.664   6.482
    2PC     H4A 6237   0.122   5.677   6.464
    2PC     H4B 6238   0.000   5.682   6.589
    2PC     H4C 6239  -0.021   5.563   6.465
    2PC     C35 6240  -0.018   5.900   6.451
    2PC     H5A 6241   0.087   5.896   6.421
    2PC     H5B 6242  -0.027   5.921   6.557
    2PC     H5C 6243  -0.078   5.966   6.388
    2PC     O33 6244   0.291   5.456   6.175
    2PC     O34 6245   0.356   5.691   6.195
    2PC     O21 6246   0.311   5.517   5.699
    2PC     C21 6247   0.370   5.397   5.684
    2PC     O22 6248   0.322   5.299   5.736
    3OL     C12 6249   0.505   5.394   5.618
    3OL     H2R 6250   0.505   5.304   5.556
    3OL     H2S 6251   0.583   5.381   5.694
    3OL     C13 6252   0.539   5.525   5.545
    3OL     H3R 6253   0.591   5.581   5.623
    3OL     H3S 6254   0.454   5.588   5.521
    3OL     C14 6255   0.619   5.481   5.422
    3OL     H4R 6256   0.551   5.413   5.371
    3OL     H4S 6257   0.706   5.423   5.453
    3OL     C15 6258   0.660   5.602   5.337
    3OL     H5R 6259   0.750   5.644   5.380
    3OL     H5S 6260   0.575   5.672   5.338
    3OL     C16 6261   0.679   5.567   5.189
    3OL     H6R 6262   0.733   5.649   5.141
    3OL     H6S 6263   0.584   5.562   5.136
    3OL     C17 6264   0.762   5.441   5.160
    3OL     H7R 6265   0.710   5.350   5.193
    3OL     H7S 6266   0.851   5.448   5.222
    3OL     C18 6267   0.793   5.431   5.010
    3OL     H8R 6268   0.717   5.492   4.961
    3OL     H8S 6269   0.793   5.327   4.978
    3OL     C19 6270   0.930   5.483   4.972
    3OL     H9R 6271   1.010   5.452   5.038
    3OL    C110 6272   0.956   5.559   4.867
    3OL    H10R 6273   1.055   5.601   4.851
    3OL    C111 6274   0.866   5.574   4.747
    3OL    H11R 6275   0.786   5.643   4.776
    3OL    H11S 6276   0.817   5.481   4.718
    3OL    C112 6277   0.952   5.629   4.632
    3OL    H12R 6278   1.033   5.561   4.606
    3OL    H12S 6279   0.997   5.724   4.662
    3OL    C113 6280   0.859   5.653   4.512
    3OL    H13R 6281   0.769   5.706   4.543
    3OL    H13S 6282   0.840   5.554   4.470
    3OL    C114 6283   0.922   5.738   4.400
    3OL    H14R 6284   1.015   5.697   4.361
    3OL    H14S 6285   0.948   5.838   4.437
    3OL    C115 6286   0.826   5.753   4.282
    3OL    H15R 6287   0.738   5.804   4.323
    3OL    H15S 6288   0.781   5.659   4.248
    3OL    C116 6289   0.876   5.839   4.165
    3OL    H16R 6290   0.965   5.786   4.131
    3OL    H16S 6291   0.905   5.933   4.213
    3OL    C117 6292   0.756   5.854   4.070
    3OL    H17R 6293   0.672   5.899   4.122
    3OL    H17S 6294   0.721   5.758   4.030
    3OL    C118 6295   0.798   5.946   3.955
    3OL    H18R 6296   0.902   5.923   3.931
    3OL    H18S 6297   0.781   6.049   3.988
    3OL    H18T 6298   0.729   5.926   3.873
    1PA    C116 6299   2.448   4.925   3.858
    1PA    H16R 6300   2.353   4.886   3.821
    1PA    H16S 6301   2.474   4.856   3.938
    1PA    H16T 6302   2.520   4.920   3.777
    1PA    C115 6303   2.418   5.063   3.920
    1PA    H15R 6304   2.406   5.139   3.842
    1PA    H15S 6305   2.323   5.059   3.975
    1PA    C114 6306   2.515   5.121   4.023
    1PA    H14R 6307   2.609   5.119   3.968
    1PA    H14S 6308   2.480   5.224   4.032
    1PA    C113 6309   2.521   5.040   4.154
    1PA    H13R 6310   2.532   4.933   4.140
    1PA    H13S 6311   2.610   5.074   4.208
    1PA    C112 6312   2.395   5.056   4.241
    1PA    H12R 6313   2.363   5.161   4.236
    1PA    H12S 6314   2.323   4.990   4.191
    1PA    C111 6315   2.407   5.003   4.384
    1PA    H11R 6316   2.391   4.895   4.381
    1PA    H11S 6317   2.503   5.029   4.430
    1PA    C110 6318   2.289   5.060   4.465
    1PA    H10R 6319   2.308   5.166   4.487
    1PA    H10S 6320   2.194   5.057   4.412
    1PA     C19 6321   2.280   4.971   4.590
    1PA     H9R 6322   2.380   4.952   4.628
    1PA     H9S 6323   2.224   5.025   4.667
    1PA     C18 6324   2.191   4.847   4.571
    1PA     H8R 6325   2.105   4.876   4.510
    1PA     H8S 6326   2.253   4.767   4.529
    1PA     C17 6327   2.146   4.784   4.703
    1PA     H7R 6328   2.104   4.692   4.660
    1PA     H7S 6329   2.229   4.759   4.769
    1PA     C16 6330   2.034   4.856   4.780
    1PA     H6R 6331   2.057   4.962   4.788
    1PA     H6S 6332   1.942   4.864   4.723
    1PA     C15 6333   1.991   4.787   4.910
    1PA     H5R 6334   1.961   4.688   4.876
    1PA     H5S 6335   2.079   4.778   4.974
    1PA     C14 6336   1.880   4.862   4.986
    1PA     H4R 6337   1.904   4.963   5.019
    1PA     H4S 6338   1.793   4.860   4.920
    1PA     C13 6339   1.841   4.779   5.108
    1PA     H3R 6340   1.785   4.690   5.079
    1PA     H3S 6341   1.932   4.746   5.159
    1PA     C12 6342   1.759   4.862   5.208
    1PA     H2R 6343   1.811   4.954   5.236
    1PA     H2S 6344   1.660   4.876   5.164
    2PC     C11 6345   1.742   4.778   5.332
    2PC     O12 6346   1.828   4.710   5.382
    2PC     O11 6347   1.617   4.782   5.381
    2PC      C1 6348   1.581   4.707   5.498
    2PC      HR 6349   1.472   4.703   5.491
    2PC      HS 6350   1.622   4.608   5.475
    2PC      C2 6351   1.631   4.761   5.633
    2PC      HX 6352   1.740   4.770   5.622
    2PC      C3 6353   1.598   4.653   5.737
    2PC      HA 6354   1.494   4.650   5.770
    2PC      HB 6355   1.631   4.553   5.707
    2PC     O31 6356   1.667   4.693   5.857
    2PC     P31 6357   1.695   4.579   5.965
    2PC     O32 6358   1.543   4.559   6.012
    2PC     C31 6359   1.491   4.607   6.138
    2PC     H1A 6360   1.569   4.613   6.214
    2PC     H1B 6361   1.456   4.710   6.123
    2PC     C32 6362   1.376   4.513   6.175
    2PC     H2A 6363   1.343   4.467   6.082
    2PC     H2B 6364   1.407   4.434   6.243
    2PC     N31 6365   1.260   4.586   6.236
    2PC     C33 6366   1.196   4.666   6.126
    2PC     H3A 6367   1.204   4.595   6.044
    2PC     H3B 6368   1.093   4.693   6.150
    2PC     H3C 6369   1.254   4.756   6.109
    2PC     C34 6370   1.171   4.480   6.296
    2PC     H4A 6371   1.163   4.404   6.219
    2PC     H4B 6372   1.222   4.438   6.382
    2PC     H4C 6373   1.073   4.527   6.304
    2PC     C35 6374   1.295   4.686   6.341
    2PC     H5A 6375   1.334   4.636   6.430
    2PC     H5B 6376   1.204   4.740   6.368
    2PC     H5C 6377   1.371   4.758   6.309
    2PC     O33 6378   1.764   4.453   5.930
    2PC     O34 6379   1.792   4.647   6.054
    2PC     O21 6380   1.571   4.890   5.654
    2PC     C21 6381   1.440   4.913   5.672
    2PC     O22 6382   1.355   4.827   5.687
    3OL     C12 6383   1.410   5.057   5.640
    3OL     H2R 6384   1.478   5.124   5.694
    3OL     H2S 6385   1.315   5.092   5.681
    3OL     C13 6386   1.419   5.084   5.489
    3OL     H3R 6387   1.364   5.012   5.428
    3OL     H3S 6388   1.525   5.063   5.477
    3OL     C14 6389   1.382   5.231   5.464
    3OL     H4R 6390   1.450   5.301   5.513
    3OL     H4S 6391   1.284   5.247   5.508
    3OL     C15 6392   1.368   5.257   5.313
    3OL     H5R 6393   1.283   5.199   5.276
    3OL     H5S 6394   1.453   5.214   5.260
    3OL     C16 6395   1.347   5.406   5.282
    3OL     H6R 6396   1.443   5.457   5.296
    3OL     H6S 6397   1.271   5.445   5.349
    3OL     C17 6398   1.313   5.425   5.134
    3OL     H7R 6399   1.211   5.384   5.127
    3OL     H7S 6400   1.369   5.367   5.061
    3OL     C18 6401   1.315   5.574   5.097
    3OL     H8R 6402   1.284   5.635   5.182
    3OL     H8S 6403   1.239   5.581   5.018
    3OL     C19 6404   1.449   5.608   5.036
    3OL     H9R 6405   1.535   5.576   5.094
    3OL    C110 6406   1.473   5.656   4.915
    3OL    H10R 6407   1.578   5.664   4.887
    3OL    C111 6408   1.370   5.687   4.810
    3OL    H11R 6409   1.402   5.773   4.750
    3OL    H11S 6410   1.277   5.716   4.860
    3OL    C112 6411   1.356   5.564   4.720
    3OL    H12R 6412   1.287   5.567   4.636
    3OL    H12S 6413   1.310   5.484   4.779
    3OL    C113 6414   1.495   5.532   4.663
    3OL    H13R 6415   1.557   5.503   4.749
    3OL    H13S 6416   1.542   5.619   4.617
    3OL    C114 6417   1.492   5.408   4.572
    3OL    H14R 6418   1.432   5.325   4.611
    3OL    H14S 6419   1.594   5.370   4.575
    3OL    C115 6420   1.449   5.434   4.427
    3OL    H15R 6421   1.522   5.497   4.376
    3OL    H15S 6422   1.343   5.457   4.423
    3OL    C116 6423   1.465   5.300   4.352
    3OL    H16R 6424   1.392   5.226   4.385
    3OL    H16S 6425   1.557   5.244   4.368
    3OL    C117 6426   1.436   5.318   4.203
    3OL    H17R 6427   1.358   5.392   4.185
    3OL    H17S 6428   1.402   5.220   4.166
    3OL    C118 6429   1.563   5.346   4.121
    3OL    H18R 6430   1.592   5.450   4.140
    3OL    H18S 6431   1.538   5.339   4.015
    3OL    H18T 6432   1.644   5.275   4.141
    1PA    C116 6433   4.675   3.790   3.895
    1PA    H16R 6434   4.698   3.823   3.793
    1PA    H16S 6435   4.570   3.764   3.912
    1PA    H16T 6436   4.735   3.700   3.911
    1PA    C115 6437   4.755   3.881   3.989
    1PA    H15R 6438   4.735   3.852   4.092
    1PA    H15S 6439   4.862   3.873   3.971
    1PA    C114 6440   4.706   4.026   3.977
    1PA    H14R 6441   4.694   4.064   3.875
    1PA    H14S 6442   4.605   4.042   4.014
    1PA    C113 6443   4.780   4.137   4.053
    1PA    H13R 6444   4.882   4.145   4.017
    1PA    H13S 6445   4.736   4.236   4.037
    1PA    C112 6446   4.789   4.110   4.204
    1PA    H12R 6447   4.692   4.077   4.243
    1PA    H12S 6448   4.861   4.030   4.218
    1PA    C111 6449   4.829   4.239   4.278
    1PA    H11R 6450   4.927   4.274   4.247
    1PA    H11S 6451   4.751   4.312   4.259
    1PA    C110 6452   4.845   4.210   4.428
    1PA    H10R 6453   4.846   4.311   4.471
    1PA    H10S 6454   4.756   4.162   4.469
    1PA     C19 6455   4.969   4.131   4.473
    1PA     H9R 6456   4.971   4.036   4.419
    1PA     H9S 6457   5.058   4.181   4.437
    1PA     C18 6458   4.969   4.118   4.626
    1PA     H8R 6459   4.869   4.086   4.656
    1PA     H8S 6460   5.036   4.033   4.640
    1PA     C17 6461   4.996   4.248   4.703
    1PA     H7R 6462   5.092   4.291   4.674
    1PA     H7S 6463   4.928   4.326   4.669
    1PA     C16 6464   4.991   4.225   4.855
    1PA     H6R 6465   4.887   4.231   4.887
    1PA     H6S 6466   5.036   4.129   4.881
    1PA     C15 6467   5.074   4.323   4.939
    1PA     H5R 6468   5.172   4.347   4.898
    1PA     H5S 6469   5.017   4.416   4.945
    1PA     C14 6470   5.085   4.284   5.087
    1PA     H4R 6471   4.991   4.245   5.127
    1PA     H4S 6472   5.158   4.203   5.096
    1PA     C13 6473   5.125   4.408   5.168
    1PA     H3R 6474   5.219   4.454   5.135
    1PA     H3S 6475   5.049   4.485   5.156
    1PA     C12 6476   5.126   4.368   5.316
    1PA     H2R 6477   5.052   4.298   5.354
    1PA     H2S 6478   5.224   4.325   5.335
    2PC     C11 6479   5.135   4.490   5.406
    2PC     O12 6480   5.084   4.596   5.378
    2PC     O11 6481   5.210   4.470   5.515
    2PC      C1 6482   5.261   4.579   5.593
    2PC      HR 6483   5.198   4.668   5.596
    2PC      HS 6484   5.290   4.542   5.692
    2PC      C2 6485   5.394   4.624   5.531
    2PC      HX 6486   5.442   4.539   5.484
    2PC      C3 6487   5.501   4.657   5.637
    2PC      HA 6488   5.541   4.575   5.696
    2PC      HB 6489   5.584   4.696   5.577
    2PC     O31 6490   5.438   4.759   5.717
    2PC     P31 6491   5.502   4.803   5.857
    2PC     O32 6492   5.377   4.776   5.954
    2PC     C31 6493   5.260   4.859   5.944
    2PC     H1A 6494   5.284   4.957   5.986
    2PC     H1B 6495   5.238   4.879   5.839
    2PC     C32 6496   5.146   4.786   6.017
    2PC     H2A 6497   5.057   4.837   5.980
    2PC     H2B 6498   5.134   4.686   5.977
    2PC     N31 6499   5.156   4.773   6.166
    2PC     C33 6500   5.149   4.905   6.236
    2PC     H3A 6501   5.248   4.945   6.255
    2PC     H3B 6502   5.083   4.979   6.190
    2PC     H3C 6503   5.107   4.882   6.334
    2PC     C34 6504   5.048   4.680   6.213
    2PC     H4A 6505   5.077   4.576   6.193
    2PC     H4B 6506   5.039   4.688   6.322
    2PC     H4C 6507   4.958   4.701   6.156
    2PC     C35 6508   5.275   4.697   6.216
    2PC     H5A 6509   5.271   4.595   6.177
    2PC     H5B 6510   5.274   4.687   6.324
    2PC     H5C 6511   5.367   4.743   6.181
    2PC     O33 6512   5.622   4.724   5.893
    2PC     O34 6513   5.548   4.943   5.870
    2PC     O21 6514   5.372   4.740   5.448
    2PC     C21 6515   5.358   4.715   5.317
    2PC     O22 6516   5.384   4.610   5.263
    3OL     C12 6517   5.305   4.837   5.245
    3OL     H2R 6518   5.385   4.902   5.211
    3OL     H2S 6519   5.241   4.888   5.317
    3OL     C13 6520   5.217   4.800   5.124
    3OL     H3R 6521   5.146   4.878   5.094
    3OL     H3S 6522   5.168   4.709   5.158
    3OL     C14 6523   5.299   4.761   5.001
    3OL     H4R 6524   5.238   4.705   4.930
    3OL     H4S 6525   5.386   4.699   5.025
    3OL     C15 6526   5.352   4.882   4.923
    3OL     H5R 6527   5.426   4.937   4.981
    3OL     H5S 6528   5.268   4.949   4.900
    3OL     C16 6529   5.405   4.851   4.782
    3OL     H6R 6530   5.393   4.937   4.715
    3OL     H6S 6531   5.343   4.770   4.744
    3OL     C17 6532   5.552   4.807   4.794
    3OL     H7R 6533   5.573   4.727   4.864
    3OL     H7S 6534   5.601   4.891   4.844
    3OL     C18 6535   5.611   4.764   4.659
    3OL     H8R 6536   5.720   4.761   4.659
    3OL     H8S 6537   5.584   4.845   4.590
    3OL     C19 6538   5.545   4.647   4.592
    3OL     H9R 6539   5.447   4.628   4.635
    3OL    C110 6540   5.590   4.579   4.487
    3OL    H10R 6541   5.517   4.509   4.448
    3OL    C111 6542   5.720   4.607   4.415
    3OL    H11R 6543   5.771   4.511   4.419
    3OL    H11S 6544   5.785   4.671   4.475
    3OL    C112 6545   5.703   4.666   4.275
    3OL    H12R 6546   5.625   4.616   4.216
    3OL    H12S 6547   5.798   4.672   4.221
    3OL    C113 6548   5.654   4.809   4.299
    3OL    H13R 6549   5.736   4.869   4.337
    3OL    H13S 6550   5.568   4.819   4.365
    3OL    C114 6551   5.610   4.884   4.172
    3OL    H14R 6552   5.687   4.889   4.094
    3OL    H14S 6553   5.577   4.983   4.206
    3OL    C115 6554   5.489   4.818   4.105
    3OL    H15R 6555   5.407   4.811   4.177
    3OL    H15S 6556   5.508   4.715   4.076
    3OL    C116 6557   5.441   4.893   3.980
    3OL    H16R 6558   5.515   4.872   3.902
    3OL    H16S 6559   5.447   4.999   4.006
    3OL    C117 6560   5.307   4.835   3.934
    3OL    H17R 6561   5.241   4.843   4.021
    3OL    H17S 6562   5.313   4.728   3.914
    3OL    C118 6563   5.240   4.915   3.821
    3OL    H18R 6564   5.228   5.019   3.850
    3OL    H18S 6565   5.136   4.886   3.803
    3OL    H18T 6566   5.293   4.918   3.725
    1PA    C116 6567   0.710   2.394   3.481
    1PA    H16R 6568   0.697   2.380   3.374
    1PA    H16S 6569   0.627   2.340   3.528
    1PA    H16T 6570   0.811   2.355   3.495
    1PA    C115 6571   0.700   2.539   3.530
    1PA    H15R 6572   0.774   2.601   3.479
    1PA    H15S 6573   0.607   2.592   3.507
    1PA    C114 6574   0.716   2.541   3.683
    1PA    H14R 6575   0.706   2.643   3.721
    1PA    H14S 6576   0.638   2.487   3.737
    1PA    C113 6577   0.855   2.490   3.724
    1PA    H13R 6578   0.877   2.392   3.683
    1PA    H13S 6579   0.929   2.566   3.698
    1PA    C112 6580   0.864   2.483   3.877
    1PA    H12R 6581   0.930   2.565   3.908
    1PA    H12S 6582   0.768   2.503   3.926
    1PA    C111 6583   0.925   2.348   3.919
    1PA    H11R 6584   0.847   2.275   3.895
    1PA    H11S 6585   1.018   2.326   3.867
    1PA    C110 6586   0.946   2.346   4.071
    1PA    H10R 6587   1.000   2.435   4.105
    1PA    H10S 6588   0.855   2.343   4.130
    1PA     C19 6589   1.027   2.223   4.113
    1PA     H9R 6590   1.096   2.188   4.035
    1PA     H9S 6591   1.085   2.237   4.204
    1PA     C18 6592   0.944   2.097   4.143
    1PA     H8R 6593   0.861   2.094   4.072
    1PA     H8S 6594   1.001   2.009   4.115
    1PA     C17 6595   0.893   2.096   4.288
    1PA     H7R 6596   0.970   2.144   4.349
    1PA     H7S 6597   0.808   2.163   4.292
    1PA     C16 6598   0.839   1.960   4.335
    1PA     H6R 6599   0.761   1.923   4.268
    1PA     H6S 6600   0.919   1.887   4.344
    1PA     C15 6601   0.771   1.969   4.473
    1PA     H5R 6602   0.682   2.034   4.472
    1PA     H5S 6603   0.725   1.874   4.499
    1PA     C14 6604   0.872   2.002   4.583
    1PA     H4R 6605   0.956   1.932   4.583
    1PA     H4S 6606   0.914   2.100   4.562
    1PA     C13 6607   0.804   2.000   4.721
    1PA     H3R 6608   0.756   1.904   4.740
    1PA     H3S 6609   0.871   2.016   4.806
    1PA     C12 6610   0.696   2.107   4.738
    1PA     H2R 6611   0.713   2.189   4.669
    1PA     H2S 6612   0.608   2.059   4.694
    2PC     C11 6613   0.677   2.156   4.879
    2PC     O12 6614   0.699   2.272   4.906
    2PC     O11 6615   0.663   2.059   4.972
    2PC      C1 6616   0.618   2.103   5.101
    2PC      HR 6617   0.616   2.018   5.169
    2PC      HS 6618   0.678   2.186   5.139
    2PC      C2 6619   0.473   2.150   5.085
    2PC      HX 6620   0.460   2.236   5.018
    2PC      C3 6621   0.410   2.179   5.222
    2PC      HA 6622   0.303   2.157   5.211
    2PC      HB 6623   0.448   2.107   5.295
    2PC     O31 6624   0.445   2.313   5.262
    2PC     P31 6625   0.377   2.380   5.390
    2PC     O32 6626   0.370   2.251   5.486
    2PC     C31 6627   0.287   2.264   5.603
    2PC     H1A 6628   0.327   2.352   5.652
    2PC     H1B 6629   0.184   2.282   5.569
    2PC     C32 6630   0.281   2.137   5.689
    2PC     H2A 6631   0.233   2.165   5.783
    2PC     H2B 6632   0.219   2.058   5.648
    2PC     N31 6633   0.409   2.072   5.732
    2PC     C33 6634   0.366   1.979   5.841
    2PC     H3A 6635   0.313   2.036   5.917
    2PC     H3B 6636   0.295   1.907   5.799
    2PC     H3C 6637   0.452   1.934   5.892
    2PC     C34 6638   0.492   2.012   5.623
    2PC     H4A 6639   0.439   1.936   5.564
    2PC     H4B 6640   0.515   2.094   5.554
    2PC     H4C 6641   0.579   1.964   5.668
    2PC     C35 6642   0.497   2.172   5.801
    2PC     H5A 6643   0.547   2.227   5.722
    2PC     H5B 6644   0.573   2.116   5.857
    2PC     H5C 6645   0.449   2.230   5.879
    2PC     O33 6646   0.479   2.458   5.463
    2PC     O34 6647   0.261   2.466   5.359
    2PC     O21 6648   0.397   2.052   5.011
    2PC     C21 6649   0.272   2.070   4.967
    2PC     O22 6650   0.213   2.176   4.976
    3OL     C12 6651   0.237   1.945   4.890
    3OL     H2R 6652   0.173   1.896   4.964
    3OL     H2S 6653   0.321   1.877   4.873
    3OL     C13 6654   0.160   1.954   4.758
    3OL     H3R 6655   0.153   1.858   4.707
    3OL     H3S 6656   0.211   2.027   4.695
    3OL     C14 6657   0.014   1.993   4.785
    3OL     H4R 6658  -0.004   2.079   4.851
    3OL     H4S 6659  -0.027   1.903   4.831
    3OL     C15 6660  -0.060   2.014   4.652
    3OL     H5R 6661  -0.169   2.014   4.659
    3OL     H5S 6662  -0.036   1.932   4.584
    3OL     C16 6663  -0.027   2.149   4.587
    3OL     H6R 6664   0.079   2.151   4.563
    3OL     H6S 6665  -0.061   2.226   4.656
    3OL     C17 6666  -0.117   2.178   4.466
    3OL     H7R 6667  -0.212   2.208   4.512
    3OL     H7S 6668  -0.143   2.088   4.411
    3OL     C18 6669  -0.078   2.299   4.381
    3OL     H8R 6670  -0.034   2.373   4.448
    3OL     H8S 6671  -0.172   2.342   4.347
    3OL     C19 6672   0.020   2.283   4.267
    3OL     H9R 6673   0.092   2.203   4.288
    3OL    C110 6674   0.010   2.349   4.153
    3OL    H10R 6675   0.088   2.330   4.080
    3OL    C111 6676  -0.094   2.452   4.118
    3OL    H11R 6677  -0.183   2.441   4.181
    3OL    H11S 6678  -0.130   2.427   4.018
    3OL    C112 6679  -0.049   2.599   4.129
    3OL    H12R 6680   0.044   2.617   4.076
    3OL    H12S 6681  -0.022   2.622   4.232
    3OL    C113 6682  -0.162   2.686   4.072
    3OL    H13R 6683  -0.244   2.681   4.144
    3OL    H13S 6684  -0.194   2.652   3.974
    3OL    C114 6685  -0.109   2.829   4.056
    3OL    H14R 6686  -0.019   2.829   3.994
    3OL    H14S 6687  -0.071   2.872   4.149
    3OL    C115 6688  -0.210   2.910   3.975
    3OL    H15R 6689  -0.237   2.853   3.886
    3OL    H15S 6690  -0.170   3.008   3.946
    3OL    C116 6691  -0.338   2.942   4.054
    3OL    H16R 6692  -0.317   2.996   4.147
    3OL    H16S 6693  -0.392   2.852   4.083
    3OL    C117 6694  -0.430   3.026   3.965
    3OL    H17R 6695  -0.371   3.095   3.903
    3OL    H17S 6696  -0.484   3.093   4.032
    3OL    C118 6697  -0.521   2.939   3.878
    3OL    H18R 6698  -0.600   2.894   3.938
    3OL    H18S 6699  -0.450   2.877   3.823
    3OL    H18T 6700  -0.571   2.993   3.797
    1PA    C116 6701   4.409   3.874   4.261
    1PA    H16R 6702   4.301   3.864   4.277
    1PA    H16S 6703   4.430   3.808   4.177
    1PA    H16T 6704   4.422   3.971   4.212
    1PA    C115 6705   4.484   3.842   4.390
    1PA    H15R 6706   4.458   3.745   4.432
    1PA    H15S 6707   4.590   3.830   4.366
    1PA    C114 6708   4.469   3.941   4.507
    1PA    H14R 6709   4.501   4.040   4.472
    1PA    H14S 6710   4.369   3.946   4.550
    1PA    C113 6711   4.583   3.919   4.608
    1PA    H13R 6712   4.589   3.812   4.629
    1PA    H13S 6713   4.680   3.947   4.567
    1PA    C112 6714   4.558   3.992   4.740
    1PA    H12R 6715   4.562   4.099   4.719
    1PA    H12S 6716   4.455   3.972   4.771
    1PA    C111 6717   4.661   3.957   4.849
    1PA    H11R 6718   4.651   3.852   4.878
    1PA    H11S 6719   4.761   3.973   4.808
    1PA    C110 6720   4.646   4.040   4.978
    1PA    H10R 6721   4.685   4.140   4.958
    1PA    H10S 6722   4.543   4.045   5.013
    1PA     C19 6723   4.737   3.983   5.087
    1PA     H9R 6724   4.708   3.882   5.116
    1PA     H9S 6725   4.838   3.978   5.046
    1PA     C18 6726   4.732   4.077   5.208
    1PA     H8R 6727   4.765   4.172   5.165
    1PA     H8S 6728   4.631   4.095   5.247
    1PA     C17 6729   4.818   4.028   5.325
    1PA     H7R 6730   4.781   3.929   5.352
    1PA     H7S 6731   4.917   4.032   5.281
    1PA     C16 6732   4.807   4.130   5.440
    1PA     H6R 6733   4.850   4.229   5.423
    1PA     H6S 6734   4.701   4.154   5.451
    1PA     C15 6735   4.856   4.076   5.575
    1PA     H5R 6736   4.832   4.147   5.655
    1PA     H5S 6737   4.792   3.988   5.587
    1PA     C14 6738   5.003   4.034   5.574
    1PA     H4R 6739   5.000   3.932   5.614
    1PA     H4S 6740   5.033   4.027   5.469
    1PA     C13 6741   5.089   4.134   5.653
    1PA     H3R 6742   5.190   4.097   5.638
    1PA     H3S 6743   5.091   4.237   5.618
    1PA     C12 6744   5.044   4.125   5.800
    1PA     H2R 6745   5.000   4.223   5.822
    1PA     H2S 6746   4.966   4.050   5.815
    2PC     C11 6747   5.152   4.089   5.900
    2PC     O12 6748   5.272   4.087   5.885
    2PC     O11 6749   5.089   4.067   6.016
    2PC      C1 6750   5.158   4.009   6.128
    2PC      HR 6751   5.253   4.058   6.149
    2PC      HS 6752   5.104   4.038   6.219
    2PC      C2 6753   5.175   3.857   6.114
    2PC      HX 6754   5.074   3.824   6.091
    2PC      C3 6755   5.214   3.794   6.249
    2PC      HA 6756   5.154   3.822   6.336
    2PC      HB 6757   5.220   3.685   6.248
    2PC     O31 6758   5.346   3.841   6.280
    2PC     P31 6759   5.393   3.809   6.430
    2PC     O32 6760   5.300   3.917   6.502
    2PC     C31 6761   5.334   4.056   6.485
    2PC     H1A 6762   5.428   4.082   6.534
    2PC     H1B 6763   5.337   4.088   6.381
    2PC     C32 6764   5.235   4.141   6.565
    2PC     H2A 6765   5.242   4.241   6.522
    2PC     H2B 6766   5.135   4.100   6.548
    2PC     N31 6767   5.251   4.157   6.713
    2PC     C33 6768   5.147   4.252   6.764
    2PC     H3A 6769   5.051   4.214   6.729
    2PC     H3B 6770   5.153   4.267   6.872
    2PC     H3C 6771   5.164   4.351   6.723
    2PC     C34 6772   5.233   4.024   6.780
    2PC     H4A 6773   5.193   4.030   6.881
    2PC     H4B 6774   5.153   3.976   6.722
    2PC     H4C 6775   5.329   3.973   6.786
    2PC     C35 6776   5.386   4.213   6.749
    2PC     H5A 6777   5.407   4.297   6.684
    2PC     H5B 6778   5.463   4.139   6.727
    2PC     H5C 6779   5.372   4.244   6.853
    2PC     O33 6780   5.360   3.673   6.478
    2PC     O34 6781   5.536   3.830   6.463
    2PC     O21 6782   5.273   3.823   6.014
    2PC     C21 6783   5.284   3.702   5.956
    2PC     O22 6784   5.212   3.612   5.994
    3OL     C12 6785   5.399   3.679   5.862
    3OL     H2R 6786   5.390   3.585   5.809
    3OL     H2S 6787   5.491   3.666   5.921
    3OL     C13 6788   5.426   3.797   5.767
    3OL     H3R 6789   5.523   3.770   5.723
    3OL     H3S 6790   5.432   3.885   5.830
    3OL     C14 6791   5.318   3.815   5.660
    3OL     H4R 6792   5.329   3.911   5.610
    3OL     H4S 6793   5.227   3.835   5.717
    3OL     C15 6794   5.305   3.705   5.553
    3OL     H5R 6795   5.270   3.611   5.596
    3OL     H5S 6796   5.399   3.667   5.511
    3OL     C16 6797   5.211   3.737   5.437
    3OL     H6R 6798   5.123   3.792   5.470
    3OL     H6S 6799   5.183   3.647   5.381
    3OL     C17 6800   5.275   3.827   5.331
    3OL     H7R 6801   5.369   3.783   5.297
    3OL     H7S 6802   5.312   3.920   5.375
    3OL     C18 6803   5.188   3.851   5.207
    3OL     H8R 6804   5.092   3.896   5.233
    3OL     H8S 6805   5.170   3.750   5.169
    3OL     C19 6806   5.252   3.940   5.104
    3OL     H9R 6807   5.264   4.035   5.157
    3OL    C110 6808   5.295   3.910   4.983
    3OL    H10R 6809   5.360   3.976   4.925
    3OL    C111 6810   5.288   3.772   4.923
    3OL    H11R 6811   5.202   3.712   4.950
    3OL    H11S 6812   5.386   3.738   4.959
    3OL    C112 6813   5.285   3.762   4.770
    3OL    H12R 6814   5.333   3.669   4.737
    3OL    H12S 6815   5.334   3.846   4.720
    3OL    C113 6816   5.141   3.754   4.719
    3OL    H13R 6817   5.089   3.844   4.754
    3OL    H13S 6818   5.087   3.678   4.775
    3OL    C114 6819   5.119   3.743   4.567
    3OL    H14R 6820   5.177   3.662   4.524
    3OL    H14S 6821   5.151   3.840   4.528
    3OL    C115 6822   4.974   3.715   4.528
    3OL    H15R 6823   4.911   3.785   4.582
    3OL    H15S 6824   4.944   3.621   4.575
    3OL    C116 6825   4.944   3.726   4.377
    3OL    H16R 6826   5.006   3.799   4.326
    3OL    H16S 6827   4.845   3.770   4.363
    3OL    C117 6828   4.950   3.587   4.311
    3OL    H17R 6829   4.868   3.525   4.347
    3OL    H17S 6830   5.038   3.539   4.352
    3OL    C118 6831   4.952   3.599   4.158
    3OL    H18R 6832   5.053   3.636   4.141
    3OL    H18S 6833   4.881   3.671   4.116
    3OL    H18T 6834   4.939   3.502   4.109
    1PA    C116 6835   3.715   6.523   3.822
    1PA    H16R 6836   3.643   6.475   3.755
    1PA    H16S 6837   3.817   6.518   3.783
    1PA    H16T 6838   3.687   6.628   3.835
    1PA    C115 6839   3.727   6.446   3.954
    1PA    H15R 6840   3.740   6.339   3.936
    1PA    H15S 6841   3.812   6.486   4.011
    1PA    C114 6842   3.598   6.473   4.033
    1PA    H14R 6843   3.599   6.575   4.073
    1PA    H14S 6844   3.505   6.458   3.979
    1PA    C113 6845   3.596   6.380   4.155
    1PA    H13R 6846   3.495   6.389   4.197
    1PA    H13S 6847   3.612   6.277   4.120
    1PA    C112 6848   3.700   6.422   4.259
    1PA    H12R 6849   3.799   6.413   4.214
    1PA    H12S 6850   3.677   6.529   4.266
    1PA    C111 6851   3.686   6.347   4.392
    1PA    H11R 6852   3.580   6.348   4.419
    1PA    H11S 6853   3.699   6.239   4.378
    1PA    C110 6854   3.771   6.397   4.509
    1PA    H10R 6855   3.878   6.389   4.487
    1PA    H10S 6856   3.741   6.502   4.513
    1PA     C19 6857   3.734   6.322   4.637
    1PA     H9R 6858   3.752   6.386   4.724
    1PA     H9S 6859   3.627   6.302   4.627
    1PA     C18 6860   3.800   6.185   4.652
    1PA     H8R 6861   3.758   6.114   4.580
    1PA     H8S 6862   3.908   6.193   4.636
    1PA     C17 6863   3.772   6.122   4.789
    1PA     H7R 6864   3.836   6.172   4.861
    1PA     H7S 6865   3.665   6.126   4.809
    1PA     C16 6866   3.809   5.973   4.796
    1PA     H6R 6867   3.751   5.911   4.728
    1PA     H6S 6868   3.916   5.962   4.777
    1PA     C15 6869   3.784   5.913   4.935
    1PA     H5R 6870   3.842   5.967   5.010
    1PA     H5S 6871   3.677   5.906   4.958
    1PA     C14 6872   3.828   5.767   4.926
    1PA     H4R 6873   3.787   5.724   4.834
    1PA     H4S 6874   3.937   5.768   4.919
    1PA     C13 6875   3.789   5.685   5.050
    1PA     H3R 6876   3.857   5.718   5.129
    1PA     H3S 6877   3.692   5.703   5.096
    1PA     C12 6878   3.815   5.538   5.016
    1PA     H2R 6879   3.758   5.504   4.929
    1PA     H2S 6880   3.917   5.528   4.978
    2PC     C11 6881   3.789   5.450   5.136
    2PC     O12 6882   3.879   5.396   5.197
    2PC     O11 6883   3.664   5.456   5.184
    2PC      C1 6884   3.629   5.401   5.312
    2PC      HR 6885   3.644   5.292   5.311
    2PC      HS 6886   3.678   5.451   5.395
    2PC      C2 6887   3.480   5.406   5.348
    2PC      HX 6888   3.451   5.510   5.327
    2PC      C3 6889   3.451   5.380   5.497
    2PC      HA 6890   3.345   5.354   5.499
    2PC      HB 6891   3.507   5.291   5.525
    2PC     O31 6892   3.479   5.497   5.575
    2PC     P31 6893   3.452   5.494   5.733
    2PC     O32 6894   3.559   5.386   5.781
    2PC     C31 6895   3.698   5.398   5.743
    2PC     H1A 6896   3.701   5.383   5.635
    2PC     H1B 6897   3.735   5.492   5.785
    2PC     C32 6898   3.778   5.282   5.803
    2PC     H2A 6899   3.734   5.193   5.757
    2PC     H2B 6900   3.878   5.285   5.761
    2PC     N31 6901   3.786   5.265   5.952
    2PC     C33 6902   3.728   5.128   5.972
    2PC     H3A 6903   3.800   5.046   5.959
    2PC     H3B 6904   3.702   5.124   6.078
    2PC     H3C 6905   3.643   5.122   5.903
    2PC     C34 6906   3.927   5.269   6.000
    2PC     H4A 6907   3.969   5.363   5.964
    2PC     H4B 6908   3.922   5.252   6.108
    2PC     H4C 6909   3.977   5.184   5.952
    2PC     C35 6910   3.712   5.367   6.033
    2PC     H5A 6911   3.739   5.356   6.138
    2PC     H5B 6912   3.604   5.356   6.020
    2PC     H5C 6913   3.752   5.465   6.008
    2PC     O33 6914   3.475   5.617   5.812
    2PC     O34 6915   3.311   5.453   5.753
    2PC     O21 6916   3.402   5.313   5.271
    2PC     C21 6917   3.426   5.181   5.265
    2PC     O22 6918   3.509   5.115   5.324
    3OL     C12 6919   3.350   5.106   5.158
    3OL     H2R 6920   3.282   5.174   5.106
    3OL     H2S 6921   3.296   5.026   5.210
    3OL     C13 6922   3.453   5.061   5.053
    3OL     H3R 6923   3.518   4.985   5.095
    3OL     H3S 6924   3.515   5.146   5.021
    3OL     C14 6925   3.397   5.003   4.922
    3OL     H4R 6926   3.348   4.905   4.926
    3OL     H4S 6927   3.481   4.985   4.854
    3OL     C15 6928   3.293   5.086   4.846
    3OL     H5R 6929   3.341   5.183   4.832
    3OL     H5S 6930   3.198   5.090   4.899
    3OL     C16 6931   3.269   5.022   4.708
    3OL     H6R 6932   3.230   4.922   4.726
    3OL     H6S 6933   3.365   5.019   4.656
    3OL     C17 6934   3.173   5.103   4.619
    3OL     H7R 6935   3.224   5.189   4.574
    3OL     H7S 6936   3.087   5.124   4.682
    3OL     C18 6937   3.128   5.015   4.501
    3OL     H8R 6938   3.090   4.921   4.540
    3OL     H8S 6939   3.222   4.982   4.457
    3OL     C19 6940   3.019   5.066   4.409
    3OL     H9R 6941   2.922   5.088   4.453
    3OL    C110 6942   3.020   5.088   4.279
    3OL    H10R 6943   2.932   5.122   4.226
    3OL    C111 6944   3.135   5.048   4.190
    3OL    H11R 6945   3.095   5.002   4.099
    3OL    H11S 6946   3.198   4.980   4.248
    3OL    C112 6947   3.211   5.171   4.138
    3OL    H12R 6948   3.224   5.240   4.221
    3OL    H12S 6949   3.158   5.205   4.048
    3OL    C113 6950   3.342   5.115   4.083
    3OL    H13R 6951   3.324   5.044   4.001
    3OL    H13S 6952   3.399   5.073   4.166
    3OL    C114 6953   3.425   5.233   4.031
    3OL    H14R 6954   3.451   5.282   4.125
    3OL    H14S 6955   3.358   5.293   3.969
    3OL    C115 6956   3.551   5.202   3.950
    3OL    H15R 6957   3.527   5.135   3.867
    3OL    H15S 6958   3.624   5.155   4.015
    3OL    C116 6959   3.612   5.334   3.901
    3OL    H16R 6960   3.534   5.401   3.864
    3OL    H16S 6961   3.670   5.314   3.811
    3OL    C117 6962   3.691   5.408   4.010
    3OL    H17R 6963   3.634   5.409   4.103
    3OL    H17S 6964   3.697   5.510   3.970
    3OL    C118 6965   3.830   5.358   4.052
    3OL    H18R 6966   3.902   5.353   3.970
    3OL    H18S 6967   3.823   5.259   4.098
    3OL    H18T 6968   3.868   5.426   4.128
    1PA    C116 6969   4.887   5.228   4.047
    1PA    H16R 6970   4.979   5.171   4.031
    1PA    H16S 6971   4.887   5.294   3.959
    1PA    H16T 6972   4.803   5.159   4.042
    1PA    C115 6973   4.881   5.309   4.177
    1PA    H15R 6974   4.966   5.376   4.188
    1PA    H15S 6975   4.790   5.369   4.177
    1PA    C114 6976   4.869   5.211   4.295
    1PA    H14R 6977   4.850   5.264   4.389
    1PA    H14S 6978   4.789   5.138   4.288
    1PA    C113 6979   4.991   5.119   4.309
    1PA    H13R 6980   4.994   5.064   4.215
    1PA    H13S 6981   5.086   5.171   4.324
    1PA    C112 6982   4.976   5.029   4.433
    1PA    H12R 6983   4.880   4.979   4.438
    1PA    H12S 6984   5.057   4.955   4.431
    1PA    C111 6985   4.982   5.104   4.567
    1PA    H11R 6986   4.907   5.182   4.583
    1PA    H11S 6987   4.963   5.027   4.643
    1PA    C110 6988   5.120   5.160   4.605
    1PA    H10R 6989   5.192   5.085   4.639
    1PA    H10S 6990   5.162   5.205   4.514
    1PA     C19 6991   5.105   5.267   4.713
    1PA     H9R 6992   5.197   5.326   4.722
    1PA     H9S 6993   5.027   5.340   4.689
    1PA     C18 6994   5.065   5.199   4.845
    1PA     H8R 6995   4.975   5.138   4.841
    1PA     H8S 6996   5.142   5.129   4.878
    1PA     C17 6997   5.043   5.300   4.959
    1PA     H7R 6998   5.128   5.368   4.967
    1PA     H7S 6999   4.958   5.362   4.932
    1PA     C16 7000   5.025   5.220   5.089
    1PA     H6R 7001   4.963   5.133   5.067
    1PA     H6S 7002   5.123   5.182   5.118
    1PA     C15 7003   4.959   5.301   5.201
    1PA     H5R 7004   4.983   5.249   5.294
    1PA     H5S 7005   5.006   5.399   5.209
    1PA     C14 7006   4.806   5.306   5.193
    1PA     H4R 7007   4.774   5.368   5.109
    1PA     H4S 7008   4.761   5.207   5.178
    1PA     C13 7009   4.739   5.375   5.313
    1PA     H3R 7010   4.630   5.373   5.307
    1PA     H3S 7011   4.763   5.326   5.408
    1PA     C12 7012   4.788   5.520   5.313
    1PA     H2R 7013   4.895   5.516   5.332
    1PA     H2S 7014   4.783   5.562   5.212
    2PC     C11 7015   4.714   5.611   5.409
    2PC     O12 7016   4.747   5.630   5.524
    2PC     O11 7017   4.596   5.656   5.363
    2PC      C1 7018   4.510   5.735   5.447
    2PC      HR 7019   4.409   5.736   5.406
    2PC      HS 7020   4.510   5.687   5.545
    2PC      C2 7021   4.569   5.877   5.457
    2PC      HX 7022   4.676   5.876   5.478
    2PC      C3 7023   4.484   5.948   5.564
    2PC      HA 7024   4.383   5.957   5.523
    2PC      HB 7025   4.488   5.890   5.656
    2PC     O31 7026   4.538   6.073   5.610
    2PC     P31 7027   4.468   6.153   5.729
    2PC     O32 7028   4.559   6.285   5.728
    2PC     C31 7029   4.691   6.290   5.784
    2PC     H1A 7030   4.688   6.260   5.889
    2PC     H1B 7031   4.753   6.211   5.741
    2PC     C32 7032   4.756   6.428   5.763
    2PC     H2A 7033   4.719   6.502   5.834
    2PC     H2B 7034   4.861   6.408   5.781
    2PC     N31 7035   4.747   6.500   5.631
    2PC     C33 7036   4.801   6.423   5.514
    2PC     H3A 7037   4.789   6.491   5.430
    2PC     H3B 7038   4.908   6.407   5.524
    2PC     H3C 7039   4.738   6.334   5.505
    2PC     C34 7040   4.608   6.539   5.593
    2PC     H4A 7041   4.608   6.600   5.502
    2PC     H4B 7042   4.545   6.450   5.586
    2PC     H4C 7043   4.572   6.594   5.680
    2PC     C35 7044   4.833   6.621   5.651
    2PC     H5A 7045   4.844   6.659   5.549
    2PC     H5B 7046   4.927   6.580   5.688
    2PC     H5C 7047   4.789   6.681   5.730
    2PC     O33 7048   4.325   6.184   5.707
    2PC     O34 7049   4.483   6.095   5.864
    2PC     O21 7050   4.536   5.937   5.330
    2PC     C21 7051   4.597   6.049   5.289
    2PC     O22 7052   4.698   6.096   5.338
    3OL     C12 7053   4.528   6.112   5.171
    3OL     H2R 7054   4.424   6.137   5.196
    3OL     H2S 7055   4.530   6.046   5.084
    3OL     C13 7056   4.594   6.245   5.133
    3OL     H3R 7057   4.700   6.225   5.113
    3OL     H3S 7058   4.590   6.317   5.215
    3OL     C14 7059   4.521   6.311   5.015
    3OL     H4R 7060   4.506   6.419   5.022
    3OL     H4S 7061   4.417   6.279   5.027
    3OL     C15 7062   4.589   6.283   4.880
    3OL     H5R 7063   4.518   6.281   4.797
    3OL     H5S 7064   4.637   6.186   4.888
    3OL     C16 7065   4.708   6.377   4.855
    3OL     H6R 7066   4.783   6.319   4.799
    3OL     H6S 7067   4.766   6.404   4.943
    3OL     C17 7068   4.679   6.506   4.777
    3OL     H7R 7069   4.621   6.573   4.841
    3OL     H7S 7070   4.611   6.478   4.696
    3OL     C18 7071   4.810   6.570   4.730
    3OL     H8R 7072   4.804   6.650   4.656
    3OL     H8S 7073   4.856   6.487   4.676
    3OL     C19 7074   4.895   6.618   4.846
    3OL     H9R 7075   4.832   6.646   4.930
    3OL    C110 7076   5.026   6.631   4.854
    3OL    H10R 7077   5.079   6.676   4.938
    3OL    C111 7078   5.121   6.568   4.755
    3OL    H11R 7079   5.072   6.486   4.702
    3OL    H11S 7080   5.209   6.526   4.805
    3OL    C112 7081   5.177   6.681   4.667
    3OL    H12R 7082   5.170   6.776   4.721
    3OL    H12S 7083   5.113   6.679   4.578
    3OL    C113 7084   5.318   6.656   4.612
    3OL    H13R 7085   5.342   6.729   4.534
    3OL    H13S 7086   5.318   6.560   4.560
    3OL    C114 7087   5.427   6.670   4.719
    3OL    H14R 7088   5.403   6.616   4.811
    3OL    H14S 7089   5.431   6.773   4.754
    3OL    C115 7090   5.562   6.628   4.658
    3OL    H15R 7091   5.581   6.667   4.557
    3OL    H15S 7092   5.564   6.520   4.647
    3OL    C116 7093   5.683   6.664   4.744
    3OL    H16R 7094   5.663   6.643   4.850
    3OL    H16S 7095   5.687   6.774   4.745
    3OL    C117 7096   5.817   6.596   4.712
    3OL    H17R 7097   5.798   6.514   4.642
    3OL    H17S 7098   5.873   6.550   4.793
    3OL    C118 7099   5.918   6.697   4.654
    3OL    H18R 7100   6.011   6.641   4.654
    3OL    H18S 7101   5.934   6.776   4.728
    3OL    H18T 7102   5.888   6.743   4.560
    1PA    C116 7103   3.980   4.307   3.985
    1PA    H16R 7104   3.959   4.240   4.069
    1PA    H16S 7105   3.993   4.244   3.897
    1PA    H16T 7106   3.891   4.369   3.971
    1PA    C115 7107   4.096   4.400   4.023
    1PA    H15R 7108   4.125   4.465   3.941
    1PA    H15S 7109   4.060   4.461   4.106
    1PA    C114 7110   4.221   4.323   4.067
    1PA    H14R 7111   4.184   4.249   4.139
    1PA    H14S 7112   4.271   4.291   3.975
    1PA    C113 7113   4.323   4.421   4.127
    1PA    H13R 7114   4.345   4.486   4.041
    1PA    H13S 7115   4.284   4.485   4.206
    1PA    C112 7116   4.458   4.362   4.169
    1PA    H12R 7117   4.496   4.297   4.089
    1PA    H12S 7118   4.526   4.447   4.169
    1PA    C111 7119   4.448   4.289   4.304
    1PA    H11R 7120   4.345   4.269   4.334
    1PA    H11S 7121   4.511   4.201   4.312
    1PA    C110 7122   4.493   4.393   4.408
    1PA    H10R 7123   4.589   4.439   4.384
    1PA    H10S 7124   4.420   4.474   4.408
    1PA     C19 7125   4.501   4.347   4.554
    1PA     H9R 7126   4.398   4.335   4.589
    1PA     H9S 7127   4.550   4.250   4.558
    1PA     C18 7128   4.574   4.440   4.652
    1PA     H8R 7129   4.679   4.427   4.627
    1PA     H8S 7130   4.555   4.547   4.639
    1PA     C17 7131   4.566   4.398   4.799
    1PA     H7R 7132   4.458   4.406   4.814
    1PA     H7S 7133   4.603   4.295   4.802
    1PA     C16 7134   4.645   4.485   4.898
    1PA     H6R 7135   4.751   4.472   4.872
    1PA     H6S 7136   4.609   4.587   4.879
    1PA     C15 7137   4.620   4.448   5.045
    1PA     H5R 7138   4.517   4.480   5.061
    1PA     H5S 7139   4.638   4.341   5.059
    1PA     C14 7140   4.720   4.512   5.143
    1PA     H4R 7141   4.817   4.467   5.123
    1PA     H4S 7142   4.706   4.619   5.131
    1PA     C13 7143   4.679   4.475   5.286
    1PA     H3R 7144   4.574   4.500   5.301
    1PA     H3S 7145   4.696   4.369   5.307
    1PA     C12 7146   4.763   4.530   5.403
    1PA     H2R 7147   4.864   4.489   5.401
    1PA     H2S 7148   4.772   4.637   5.383
    2PC     C11 7149   4.695   4.512   5.536
    2PC     O12 7150   4.714   4.410   5.599
    2PC     O11 7151   4.616   4.617   5.566
    2PC      C1 7152   4.555   4.629   5.696
    2PC      HR 7153   4.521   4.533   5.735
    2PC      HS 7154   4.634   4.677   5.755
    2PC      C2 7155   4.438   4.728   5.694
    2PC      HX 7156   4.461   4.830   5.660
    2PC      C3 7157   4.374   4.738   5.833
    2PC      HA 7158   4.453   4.757   5.907
    2PC      HB 7159   4.307   4.821   5.858
    2PC     O31 7160   4.315   4.613   5.871
    2PC     P31 7161   4.251   4.606   6.017
    2PC     O32 7162   4.123   4.509   6.008
    2PC     C31 7163   4.156   4.369   6.004
    2PC     H1A 7164   4.244   4.348   5.943
    2PC     H1B 7165   4.165   4.334   6.107
    2PC     C32 7166   4.032   4.307   5.938
    2PC     H2A 7167   3.980   4.378   5.874
    2PC     H2B 7168   4.041   4.213   5.884
    2PC     N31 7169   3.920   4.275   6.033
    2PC     C33 7170   3.879   4.401   6.104
    2PC     H3A 7171   3.793   4.388   6.169
    2PC     H3B 7172   3.955   4.434   6.174
    2PC     H3C 7173   3.854   4.485   6.040
    2PC     C34 7174   3.798   4.231   5.958
    2PC     H4A 7175   3.725   4.211   6.036
    2PC     H4B 7176   3.768   4.315   5.895
    2PC     H4C 7177   3.819   4.141   5.900
    2PC     C35 7178   3.947   4.158   6.122
    2PC     H5A 7179   3.961   4.071   6.059
    2PC     H5B 7180   3.856   4.146   6.182
    2PC     H5C 7181   4.028   4.186   6.190
    2PC     O33 7182   4.344   4.562   6.123
    2PC     O34 7183   4.196   4.735   6.065
    2PC     O21 7184   4.341   4.674   5.603
    2PC     C21 7185   4.248   4.760   5.557
    2PC     O22 7186   4.228   4.874   5.595
    3OL     C12 7187   4.169   4.701   5.443
    3OL     H2R 7188   4.071   4.748   5.432
    3OL     H2S 7189   4.138   4.602   5.477
    3OL     C13 7190   4.232   4.687   5.304
    3OL     H3R 7191   4.159   4.638   5.240
    3OL     H3S 7192   4.325   4.629   5.302
    3OL     C14 7193   4.265   4.826   5.248
    3OL     H4R 7194   4.340   4.876   5.311
    3OL     H4S 7195   4.179   4.893   5.254
    3OL     C15 7196   4.326   4.819   5.107
    3OL     H5R 7197   4.421   4.766   5.105
    3OL     H5S 7198   4.352   4.918   5.069
    3OL     C16 7199   4.238   4.739   5.010
    3OL     H6R 7200   4.133   4.768   5.017
    3OL     H6S 7201   4.234   4.633   5.036
    3OL     C17 7202   4.305   4.724   4.873
    3OL     H7R 7203   4.293   4.628   4.822
    3OL     H7S 7204   4.411   4.741   4.892
    3OL     C18 7205   4.238   4.823   4.776
    3OL     H8R 7206   4.229   4.927   4.809
    3OL     H8S 7207   4.131   4.805   4.766
    3OL     C19 7208   4.294   4.822   4.636
    3OL     H9R 7209   4.267   4.731   4.583
    3OL    C110 7210   4.374   4.917   4.590
    3OL    H10R 7211   4.431   4.903   4.498
    3OL    C111 7212   4.410   5.049   4.652
    3OL    H11R 7213   4.318   5.091   4.694
    3OL    H11S 7214   4.426   5.119   4.569
    3OL    C112 7215   4.521   5.053   4.757
    3OL    H12R 7216   4.617   5.023   4.713
    3OL    H12S 7217   4.490   4.978   4.830
    3OL    C113 7218   4.548   5.182   4.838
    3OL    H13R 7219   4.582   5.151   4.936
    3OL    H13S 7220   4.452   5.234   4.843
    3OL    C114 7221   4.660   5.264   4.773
    3OL    H14R 7222   4.750   5.202   4.782
    3OL    H14S 7223   4.695   5.353   4.825
    3OL    C115 7224   4.630   5.301   4.627
    3OL    H15R 7225   4.633   5.216   4.559
    3OL    H15S 7226   4.724   5.350   4.600
    3OL    C116 7227   4.506   5.388   4.600
    3OL    H16R 7228   4.495   5.456   4.684
    3OL    H16S 7229   4.414   5.330   4.588
    3OL    C117 7230   4.533   5.466   4.470
    3OL    H17R 7231   4.536   5.406   4.379
    3OL    H17S 7232   4.631   5.512   4.486
    3OL    C118 7233   4.435   5.577   4.432
    3OL    H18R 7234   4.488   5.634   4.355
    3OL    H18S 7235   4.419   5.647   4.515
    3OL    H18T 7236   4.343   5.537   4.390
    1PA    C116 7237   5.365   6.804   3.945
    1PA    H16R 7238   5.379   6.709   3.893
    1PA    H16S 7239   5.456   6.849   3.984
    1PA    H16T 7240   5.325   6.878   3.876
    1PA    C115 7241   5.278   6.800   4.071
    1PA    H15R 7242   5.305   6.894   4.120
    1PA    H15S 7243   5.173   6.789   4.042
    1PA    C114 7244   5.303   6.682   4.167
    1PA    H14R 7245   5.311   6.595   4.103
    1PA    H14S 7246   5.400   6.691   4.217
    1PA    C113 7247   5.194   6.650   4.270
    1PA    H13R 7248   5.257   6.610   4.350
    1PA    H13S 7249   5.145   6.738   4.312
    1PA    C112 7250   5.100   6.539   4.218
    1PA    H12R 7251   5.033   6.574   4.139
    1PA    H12S 7252   5.152   6.455   4.171
    1PA    C111 7253   5.023   6.485   4.339
    1PA    H11R 7254   5.086   6.451   4.421
    1PA    H11S 7255   4.959   6.564   4.380
    1PA    C110 7256   4.934   6.369   4.293
    1PA    H10R 7257   4.860   6.404   4.221
    1PA    H10S 7258   5.002   6.293   4.253
    1PA     C19 7259   4.857   6.313   4.413
    1PA     H9R 7260   4.919   6.271   4.493
    1PA     H9S 7261   4.803   6.396   4.459
    1PA     C18 7262   4.762   6.200   4.371
    1PA     H8R 7263   4.688   6.253   4.311
    1PA     H8S 7264   4.817   6.126   4.313
    1PA     C17 7265   4.696   6.134   4.493
    1PA     H7R 7266   4.778   6.106   4.559
    1PA     H7S 7267   4.654   6.223   4.541
    1PA     C16 7268   4.593   6.025   4.458
    1PA     H6R 7269   4.525   6.067   4.383
    1PA     H6S 7270   4.653   5.954   4.401
    1PA     C15 7271   4.520   5.961   4.577
    1PA     H5R 7272   4.483   5.869   4.531
    1PA     H5S 7273   4.589   5.933   4.656
    1PA     C14 7274   4.404   6.049   4.626
    1PA     H4R 7275   4.436   6.151   4.651
    1PA     H4S 7276   4.337   6.060   4.541
    1PA     C13 7277   4.340   5.983   4.749
    1PA     H3R 7278   4.299   5.889   4.712
    1PA     H3S 7279   4.413   5.959   4.827
    1PA     C12 7280   4.236   6.076   4.813
    1PA     H2R 7281   4.273   6.179   4.818
    1PA     H2S 7282   4.141   6.075   4.760
    2PC     C11 7283   4.199   6.038   4.954
    2PC     O12 7284   4.153   6.121   5.029
    2PC     O11 7285   4.218   5.908   4.984
    2PC      C1 7286   4.173   5.860   5.112
    2PC      HR 7287   4.211   5.922   5.194
    2PC      HS 7288   4.065   5.863   5.103
    2PC      C2 7289   4.221   5.715   5.130
    2PC      HX 7290   4.170   5.648   5.061
    2PC      C3 7291   4.166   5.661   5.263
    2PC      HA 7292   4.062   5.628   5.260
    2PC      HB 7293   4.225   5.575   5.294
    2PC     O31 7294   4.171   5.765   5.362
    2PC     P31 7295   4.141   5.725   5.514
    2PC     O32 7296   4.140   5.877   5.566
    2PC     C31 7297   4.033   5.960   5.516
    2PC     H1A 7298   4.051   5.990   5.412
    2PC     H1B 7299   3.941   5.902   5.515
    2PC     C32 7300   4.023   6.083   5.607
    2PC     H2A 7301   4.120   6.133   5.611
    2PC     H2B 7302   3.959   6.153   5.554
    2PC     N31 7303   3.976   6.061   5.747
    2PC     C33 7304   3.832   6.019   5.745
    2PC     H3A 7305   3.812   5.983   5.846
    2PC     H3B 7306   3.776   6.098   5.693
    2PC     H3C 7307   3.816   5.934   5.679
    2PC     C34 7308   4.060   5.958   5.815
    2PC     H4A 7309   4.159   6.000   5.794
    2PC     H4B 7310   4.035   5.958   5.921
    2PC     H4C 7311   4.043   5.865   5.760
    2PC     C35 7312   3.988   6.185   5.830
    2PC     H5A 7313   3.920   6.263   5.793
    2PC     H5B 7314   4.093   6.214   5.835
    2PC     H5C 7315   3.943   6.169   5.928
    2PC     O33 7316   4.014   5.653   5.535
    2PC     O34 7317   4.245   5.654   5.592
    2PC     O21 7318   4.365   5.707   5.127
    2PC     C21 7319   4.425   5.681   5.009
    2PC     O22 7320   4.366   5.662   4.905
    3OL     C12 7321   4.574   5.697   5.022
    3OL     H2R 7322   4.611   5.597   5.047
    3OL     H2S 7323   4.588   5.761   5.109
    3OL     C13 7324   4.648   5.756   4.901
    3OL     H3R 7325   4.618   5.861   4.890
    3OL     H3S 7326   4.620   5.702   4.810
    3OL     C14 7327   4.800   5.771   4.919
    3OL     H4R 7328   4.845   5.675   4.945
    3OL     H4S 7329   4.818   5.852   4.990
    3OL     C15 7330   4.871   5.829   4.796
    3OL     H5R 7331   4.973   5.854   4.824
    3OL     H5S 7332   4.826   5.927   4.777
    3OL     C16 7333   4.874   5.728   4.680
    3OL     H6R 7334   4.779   5.677   4.669
    3OL     H6S 7335   4.939   5.642   4.700
    3OL     C17 7336   4.922   5.788   4.547
    3OL     H7R 7337   5.027   5.819   4.549
    3OL     H7S 7338   4.868   5.881   4.529
    3OL     C18 7339   4.897   5.707   4.419
    3OL     H8R 7340   4.926   5.764   4.331
    3OL     H8S 7341   4.790   5.688   4.413
    3OL     C19 7342   4.976   5.579   4.413
    3OL     H9R 7343   4.939   5.506   4.486
    3OL    C110 7344   5.085   5.551   4.343
    3OL    H10R 7345   5.138   5.457   4.355
    3OL    C111 7346   5.157   5.660   4.268
    3OL    H11R 7347   5.262   5.665   4.296
    3OL    H11S 7348   5.130   5.762   4.296
    3OL    C112 7349   5.165   5.639   4.116
    3OL    H12R 7350   5.192   5.536   4.095
    3OL    H12S 7351   5.252   5.696   4.080
    3OL    C113 7352   5.029   5.677   4.056
    3OL    H13R 7353   4.948   5.654   4.126
    3OL    H13S 7354   5.020   5.619   3.965
    3OL    C114 7355   5.016   5.821   4.005
    3OL    H14R 7356   5.060   5.881   4.085
    3OL    H14S 7357   4.907   5.831   4.006
    3OL    C115 7358   5.079   5.827   3.865
    3OL    H15R 7359   5.049   5.741   3.805
    3OL    H15S 7360   5.186   5.811   3.872
    3OL    C116 7361   5.057   5.955   3.783
    3OL    H16R 7362   5.114   6.036   3.828
    3OL    H16S 7363   4.951   5.978   3.772
    3OL    C117 7364   5.129   5.942   3.648
    3OL    H17R 7365   5.076   5.871   3.584
    3OL    H17S 7366   5.236   5.921   3.657
    3OL    C118 7367   5.125   6.079   3.579
    3OL    H18R 7368   5.025   6.113   3.554
    3OL    H18S 7369   5.172   6.088   3.481
    3OL    H18T 7370   5.174   6.155   3.640
    1PA    C116 7371   0.784   4.501   3.996
    1PA    H16R 7372   0.876   4.557   4.016
    1PA    H16S 7373   0.754   4.451   4.089
    1PA    H16T 7374   0.709   4.574   3.966
    1PA    C115 7375   0.816   4.396   3.889
    1PA    H15R 7376   0.864   4.441   3.802
    1PA    H15S 7377   0.886   4.323   3.929
    1PA    C114 7378   0.690   4.324   3.839
    1PA    H14R 7379   0.628   4.403   3.796
    1PA    H14S 7380   0.712   4.247   3.765
    1PA    C113 7381   0.609   4.269   3.957
    1PA    H13R 7382   0.578   4.355   4.017
    1PA    H13S 7383   0.518   4.234   3.907
    1PA    C112 7384   0.685   4.163   4.037
    1PA    H12R 7385   0.719   4.087   3.966
    1PA    H12S 7386   0.771   4.211   4.084
    1PA    C111 7387   0.586   4.119   4.145
    1PA    H11R 7388   0.566   4.201   4.215
    1PA    H11S 7389   0.493   4.082   4.100
    1PA    C110 7390   0.666   4.020   4.232
    1PA    H10R 7391   0.693   3.938   4.166
    1PA    H10S 7392   0.761   4.064   4.264
    1PA     C19 7393   0.589   3.968   4.354
    1PA     H9R 7394   0.486   3.945   4.329
    1PA     H9S 7395   0.648   3.879   4.380
    1PA     C18 7396   0.584   4.062   4.475
    1PA     H8R 7397   0.687   4.098   4.483
    1PA     H8S 7398   0.511   4.141   4.459
    1PA     C17 7399   0.547   3.985   4.603
    1PA     H7R 7400   0.470   3.912   4.580
    1PA     H7S 7401   0.638   3.930   4.627
    1PA     C16 7402   0.511   4.083   4.716
    1PA     H6R 7403   0.583   4.165   4.714
    1PA     H6S 7404   0.424   4.144   4.691
    1PA     C15 7405   0.499   4.038   4.862
    1PA     H5R 7406   0.589   3.985   4.894
    1PA     H5S 7407   0.496   4.118   4.936
    1PA     C14 7408   0.368   3.959   4.873
    1PA     H4R 7409   0.283   4.010   4.829
    1PA     H4S 7410   0.395   3.869   4.818
    1PA     C13 7411   0.330   3.924   5.018
    1PA     H3R 7412   0.411   3.902   5.087
    1PA     H3S 7413   0.289   4.014   5.065
    1PA     C12 7414   0.236   3.805   5.038
    1PA     H2R 7415   0.149   3.813   4.972
    1PA     H2S 7416   0.283   3.711   5.005
    2PC     C11 7417   0.198   3.795   5.183
    2PC     O12 7418   0.243   3.715   5.263
    2PC     O11 7419   0.109   3.889   5.221
    2PC      C1 7420   0.084   3.928   5.357
    2PC      HR 7421  -0.022   3.957   5.361
    2PC      HS 7422   0.107   3.855   5.434
    2PC      C2 7423   0.170   4.054   5.377
    2PC      HX 7424   0.275   4.032   5.357
    2PC      C3 7425   0.149   4.110   5.518
    2PC      HA 7426   0.209   4.053   5.591
    2PC      HB 7427   0.183   4.212   5.534
    2PC     O31 7428   0.014   4.085   5.561
    2PC     P31 7429  -0.019   4.133   5.710
    2PC     O32 7430  -0.089   3.999   5.761
    2PC     C31 7431  -0.018   3.882   5.806
    2PC     H1A 7432   0.036   3.840   5.720
    2PC     H1B 7433   0.051   3.911   5.886
    2PC     C32 7434  -0.130   3.786   5.848
    2PC     H2A 7435  -0.175   3.817   5.942
    2PC     H2B 7436  -0.207   3.792   5.771
    2PC     N31 7437  -0.091   3.643   5.870
    2PC     C33 7438  -0.062   3.576   5.739
    2PC     H3A 7439  -0.136   3.598   5.662
    2PC     H3B 7440   0.039   3.602   5.706
    2PC     H3C 7441  -0.069   3.471   5.765
    2PC     C34 7442   0.029   3.643   5.959
    2PC     H4A 7443   0.002   3.677   6.059
    2PC     H4B 7444   0.061   3.539   5.971
    2PC     H4C 7445   0.104   3.710   5.917
    2PC     C35 7446  -0.199   3.566   5.940
    2PC     H5A 7447  -0.219   3.602   6.042
    2PC     H5B 7448  -0.170   3.462   5.931
    2PC     H5C 7449  -0.291   3.588   5.886
    2PC     O33 7450   0.084   4.163   5.812
    2PC     O34 7451  -0.099   4.257   5.717
    2PC     O21 7452   0.124   4.144   5.275
    2PC     C21 7453   0.199   4.248   5.235
    2PC     O22 7454   0.312   4.264   5.277
    3OL     C12 7455   0.141   4.332   5.124
    3OL     H2R 7456   0.228   4.359   5.063
    3OL     H2S 7457   0.105   4.431   5.154
    3OL     C13 7458   0.041   4.245   5.047
    3OL     H3R 7459  -0.049   4.219   5.103
    3OL     H3S 7460   0.097   4.155   5.019
    3OL     C14 7461   0.009   4.318   4.916
    3OL     H4R 7462   0.011   4.426   4.930
    3OL     H4S 7463  -0.094   4.301   4.885
    3OL     C15 7464   0.109   4.295   4.802
    3OL     H5R 7465   0.101   4.189   4.776
    3OL     H5S 7466   0.214   4.308   4.832
    3OL     C16 7467   0.077   4.384   4.682
    3OL     H6R 7468   0.085   4.490   4.704
    3OL     H6S 7469  -0.025   4.368   4.644
    3OL     C17 7470   0.177   4.338   4.575
    3OL     H7R 7471   0.158   4.234   4.549
    3OL     H7S 7472   0.280   4.340   4.611
    3OL     C18 7473   0.168   4.421   4.446
    3OL     H8R 7474   0.231   4.359   4.382
    3OL     H8S 7475   0.209   4.521   4.462
    3OL     C19 7476   0.029   4.431   4.387
    3OL     H9R 7477  -0.048   4.398   4.455
    3OL    C110 7478  -0.005   4.454   4.261
    3OL    H10R 7479  -0.107   4.429   4.232
    3OL    C111 7480   0.083   4.500   4.147
    3OL    H11R 7481   0.175   4.522   4.202
    3OL    H11S 7482   0.054   4.593   4.098
    3OL    C112 7483   0.089   4.394   4.036
    3OL    H12R 7484  -0.004   4.378   3.982
    3OL    H12S 7485   0.111   4.297   4.082
    3OL    C113 7486   0.203   4.419   3.937
    3OL    H13R 7487   0.207   4.337   3.866
    3OL    H13S 7488   0.294   4.422   3.997
    3OL    C114 7489   0.189   4.542   3.846
    3OL    H14R 7490   0.273   4.555   3.778
    3OL    H14S 7491   0.187   4.634   3.904
    3OL    C115 7492   0.063   4.531   3.758
    3OL    H15R 7493  -0.020   4.538   3.828
    3OL    H15S 7494   0.052   4.435   3.707
    3OL    C116 7495   0.057   4.647   3.658
    3OL    H16R 7496  -0.041   4.638   3.611
    3OL    H16S 7497   0.136   4.646   3.582
    3OL    C117 7498   0.049   4.787   3.720
    3OL    H17R 7499   0.122   4.811   3.797
    3OL    H17S 7500  -0.045   4.793   3.774
    3OL    C118 7501   0.040   4.900   3.616
    3OL    H18R 7502  -0.014   4.988   3.651
    3OL    H18S 7503  -0.019   4.873   3.528
    3OL    H18T 7504   0.140   4.932   3.584
    1PA    C116 7505   0.670   0.300   3.913
    1PA    H16R 7506   0.696   0.404   3.933
    1PA    H16S 7507   0.570   0.299   3.871
    1PA    H16T 7508   0.742   0.260   3.841
    1PA    C115 7509   0.677   0.224   4.047
    1PA    H15R 7510   0.644   0.121   4.031
    1PA    H15S 7511   0.782   0.232   4.074
    1PA    C114 7512   0.590   0.310   4.140
    1PA    H14R 7513   0.613   0.417   4.129
    1PA    H14S 7514   0.488   0.307   4.102
    1PA    C113 7515   0.604   0.272   4.288
    1PA    H13R 7516   0.571   0.169   4.307
    1PA    H13S 7517   0.707   0.272   4.324
    1PA    C112 7518   0.517   0.363   4.375
    1PA    H12R 7519   0.556   0.464   4.358
    1PA    H12S 7520   0.412   0.365   4.346
    1PA    C111 7521   0.531   0.328   4.524
    1PA    H11R 7522   0.625   0.367   4.563
    1PA    H11S 7523   0.450   0.377   4.578
    1PA    C110 7524   0.526   0.181   4.569
    1PA    H10R 7525   0.436   0.141   4.522
    1PA    H10S 7526   0.609   0.121   4.532
    1PA     C19 7527   0.500   0.163   4.719
    1PA     H9R 7528   0.445   0.254   4.747
    1PA     H9S 7529   0.435   0.077   4.732
    1PA     C18 7530   0.627   0.142   4.801
    1PA     H8R 7531   0.671   0.051   4.760
    1PA     H8S 7532   0.703   0.220   4.793
    1PA     C17 7533   0.594   0.124   4.950
    1PA     H7R 7534   0.555   0.220   4.983
    1PA     H7S 7535   0.513   0.052   4.963
    1PA     C16 7536   0.720   0.082   5.026
    1PA     H6R 7537   0.759  -0.005   4.971
    1PA     H6S 7538   0.793   0.163   5.023
    1PA     C15 7539   0.681   0.044   5.170
    1PA     H5R 7540   0.629  -0.052   5.171
    1PA     H5S 7541   0.774   0.003   5.210
    1PA     C14 7542   0.633   0.157   5.262
    1PA     H4R 7543   0.706   0.233   5.290
    1PA     H4S 7544   0.558   0.219   5.213
    1PA     C13 7545   0.572   0.087   5.384
    1PA     H3R 7546   0.491   0.020   5.354
    1PA     H3S 7547   0.649   0.025   5.431
    1PA     C12 7548   0.517   0.198   5.476
    1PA     H2R 7549   0.442   0.255   5.421
    1PA     H2S 7550   0.467   0.161   5.566
    2PC     C11 7551   0.616   0.293   5.537
    2PC     O12 7552   0.730   0.267   5.569
    2PC     O11 7553   0.563   0.416   5.548
    2PC      C1 7554   0.647   0.522   5.596
    2PC      HR 7555   0.685   0.486   5.692
    2PC      HS 7556   0.726   0.536   5.521
    2PC      C2 7557   0.558   0.645   5.613
    2PC      HX 7558   0.626   0.717   5.659
    2PC      C3 7559   0.444   0.598   5.705
    2PC      HA 7560   0.376   0.525   5.660
    2PC      HB 7561   0.490   0.545   5.789
    2PC     O31 7562   0.371   0.709   5.762
    2PC     P31 7563   0.254   0.676   5.866
    2PC     O32 7564   0.137   0.614   5.775
    2PC     C31 7565   0.051   0.711   5.713
    2PC     H1A 7566  -0.037   0.653   5.683
    2PC     H1B 7567   0.017   0.782   5.789
    2PC     C32 7568   0.111   0.780   5.590
    2PC     H2A 7569   0.207   0.827   5.610
    2PC     H2B 7570   0.121   0.699   5.518
    2PC     N31 7571   0.032   0.890   5.525
    2PC     C33 7572   0.019   1.004   5.622
    2PC     H3A 7573   0.119   1.020   5.662
    2PC     H3B 7574  -0.021   1.088   5.566
    2PC     H3C 7575  -0.033   0.963   5.708
    2PC     C34 7576   0.105   0.930   5.401
    2PC     H4A 7577   0.193   0.988   5.430
    2PC     H4B 7578   0.135   0.851   5.332
    2PC     H4C 7579   0.042   1.004   5.351
    2PC     C35 7580  -0.109   0.852   5.491
    2PC     H5A 7581  -0.162   0.938   5.449
    2PC     H5B 7582  -0.159   0.822   5.583
    2PC     H5C 7583  -0.115   0.771   5.417
    2PC     O33 7584   0.291   0.582   5.975
    2PC     O34 7585   0.208   0.793   5.943
    2PC     O21 7586   0.510   0.684   5.483
    2PC     C21 7587   0.486   0.815   5.471
    2PC     O22 7588   0.478   0.894   5.563
    3OL     C12 7589   0.471   0.853   5.326
    3OL     H2R 7590   0.387   0.922   5.311
    3OL     H2S 7591   0.449   0.761   5.271
    3OL     C13 7592   0.605   0.914   5.284
    3OL     H3R 7593   0.681   0.837   5.301
    3OL     H3S 7594   0.626   0.999   5.350
    3OL     C14 7595   0.627   0.950   5.137
    3OL     H4R 7596   0.582   1.048   5.121
    3OL     H4S 7597   0.595   0.869   5.070
    3OL     C15 7598   0.773   0.983   5.102
    3OL     H5R 7599   0.829   0.892   5.121
    3OL     H5S 7600   0.805   1.055   5.178
    3OL     C16 7601   0.789   1.038   4.960
    3OL     H6R 7602   0.745   1.137   4.953
    3OL     H6S 7603   0.741   0.969   4.890
    3OL     C17 7604   0.937   1.041   4.921
    3OL     H7R 7605   0.951   1.064   4.815
    3OL     H7S 7606   0.977   0.939   4.929
    3OL     C18 7607   1.022   1.139   5.003
    3OL     H8R 7608   1.125   1.104   4.989
    3OL     H8S 7609   1.007   1.135   5.111
    3OL     C19 7610   1.006   1.286   4.972
    3OL     H9R 7611   0.918   1.330   5.017
    3OL    C110 7612   1.083   1.355   4.889
    3OL    H10R 7613   1.055   1.459   4.874
    3OL    C111 7614   1.202   1.301   4.814
    3OL    H11R 7615   1.187   1.328   4.709
    3OL    H11S 7616   1.196   1.193   4.803
    3OL    C112 7617   1.342   1.340   4.863
    3OL    H12R 7618   1.362   1.305   4.965
    3OL    H12S 7619   1.343   1.449   4.856
    3OL    C113 7620   1.452   1.275   4.778
    3OL    H13R 7621   1.428   1.298   4.674
    3OL    H13S 7622   1.460   1.168   4.797
    3OL    C114 7623   1.590   1.332   4.813
    3OL    H14R 7624   1.602   1.319   4.921
    3OL    H14S 7625   1.597   1.439   4.792
    3OL    C115 7626   1.699   1.263   4.730
    3OL    H15R 7627   1.709   1.155   4.745
    3OL    H15S 7628   1.793   1.298   4.774
    3OL    C116 7629   1.701   1.294   4.580
    3OL    H16R 7630   1.703   1.403   4.572
    3OL    H16S 7631   1.615   1.255   4.526
    3OL    C117 7632   1.826   1.231   4.515
    3OL    H17R 7633   1.808   1.246   4.408
    3OL    H17S 7634   1.827   1.123   4.528
    3OL    C118 7635   1.960   1.295   4.554
    3OL    H18R 7636   2.041   1.265   4.488
    3OL    H18S 7637   1.990   1.274   4.657
    3OL    H18T 7638   1.947   1.402   4.533
    1PA    C116 7639   1.021   6.270   3.946
    1PA    H16R 7640   0.970   6.193   3.887
    1PA    H16S 7641   1.122   6.230   3.965
    1PA    H16T 7642   1.024   6.356   3.879
    1PA    C115 7643   0.948   6.310   4.074
    1PA    H15R 7644   0.857   6.367   4.055
    1PA    H15S 7645   0.914   6.219   4.124
    1PA    C114 7646   1.040   6.385   4.172
    1PA    H14R 7647   1.120   6.316   4.199
    1PA    H14S 7648   1.083   6.476   4.132
    1PA    C113 7649   0.968   6.410   4.305
    1PA    H13R 7650   1.030   6.491   4.346
    1PA    H13S 7651   0.868   6.446   4.283
    1PA    C112 7652   0.958   6.289   4.399
    1PA    H12R 7653   0.867   6.233   4.377
    1PA    H12S 7654   1.038   6.214   4.395
    1PA    C111 7655   0.943   6.329   4.546
    1PA    H11R 7656   1.029   6.388   4.579
    1PA    H11S 7657   0.855   6.392   4.561
    1PA    C110 7658   0.941   6.205   4.637
    1PA    H10R 7659   0.879   6.124   4.596
    1PA    H10S 7660   1.043   6.168   4.636
    1PA     C19 7661   0.905   6.245   4.780
    1PA     H9R 7662   0.991   6.300   4.818
    1PA     H9S 7663   0.810   6.299   4.773
    1PA     C18 7664   0.898   6.112   4.856
    1PA     H8R 7665   0.823   6.128   4.933
    1PA     H8S 7666   0.853   6.035   4.792
    1PA     C17 7667   1.040   6.069   4.894
    1PA     H7R 7668   1.103   6.068   4.804
    1PA     H7S 7669   1.089   6.149   4.949
    1PA     C16 7670   1.063   5.930   4.957
    1PA     H6R 7671   1.012   5.850   4.902
    1PA     H6S 7672   1.172   5.924   4.953
    1PA     C15 7673   1.013   5.927   5.102
    1PA     H5R 7674   1.039   6.021   5.152
    1PA     H5S 7675   0.904   5.919   5.093
    1PA     C14 7676   1.073   5.810   5.181
    1PA     H4R 7677   1.054   5.719   5.124
    1PA     H4S 7678   1.180   5.813   5.204
    1PA     C13 7679   0.997   5.780   5.311
    1PA     H3R 7680   0.998   5.862   5.383
    1PA     H3S 7681   0.891   5.770   5.286
    1PA     C12 7682   1.063   5.655   5.372
    1PA     H2R 7683   1.065   5.569   5.305
    1PA     H2S 7684   1.164   5.687   5.399
    2PC     C11 7685   1.002   5.619   5.504
    2PC     O12 7686   0.898   5.661   5.552
    2PC     O11 7687   1.078   5.531   5.572
    2PC      C1 7688   1.038   5.500   5.707
    2PC      HR 7689   1.045   5.590   5.768
    2PC      HS 7690   0.939   5.454   5.707
    2PC      C2 7691   1.130   5.386   5.754
    2PC      HX 7692   1.117   5.366   5.861
    2PC      C3 7693   1.278   5.427   5.755
    2PC      HA 7694   1.311   5.434   5.651
    2PC      HB 7695   1.296   5.528   5.793
    2PC     O31 7696   1.349   5.332   5.837
    2PC     P31 7697   1.502   5.361   5.874
    2PC     O32 7698   1.541   5.212   5.919
    2PC     C31 7699   1.614   5.202   6.043
    2PC     H1A 7700   1.677   5.289   6.063
    2PC     H1B 7701   1.540   5.198   6.124
    2PC     C32 7702   1.682   5.064   6.046
    2PC     H2A 7703   1.718   5.041   6.146
    2PC     H2B 7704   1.610   4.986   6.018
    2PC     N31 7705   1.801   5.055   5.955
    2PC     C33 7706   1.903   5.164   5.968
    2PC     H3A 7707   1.972   5.145   5.886
    2PC     H3B 7708   1.870   5.267   5.950
    2PC     H3C 7709   1.949   5.148   6.066
    2PC     C34 7710   1.862   4.923   5.989
    2PC     H4A 7711   1.789   4.847   5.960
    2PC     H4B 7712   1.954   4.906   5.933
    2PC     H4C 7713   1.881   4.923   6.096
    2PC     C35 7714   1.765   5.040   5.810
    2PC     H5A 7715   1.797   4.945   5.767
    2PC     H5B 7716   1.803   5.132   5.765
    2PC     H5C 7717   1.656   5.034   5.800
    2PC     O33 7718   1.584   5.422   5.766
    2PC     O34 7719   1.506   5.457   5.986
    2PC     O21 7720   1.102   5.266   5.680
    2PC     C21 7721   0.983   5.204   5.685
    2PC     O22 7722   0.899   5.211   5.772
    3OL     C12 7723   0.964   5.116   5.563
    3OL     H2R 7724   0.906   5.029   5.595
    3OL     H2S 7725   1.063   5.079   5.537
    3OL     C13 7726   0.876   5.183   5.457
    3OL     H3R 7727   0.916   5.282   5.434
    3OL     H3S 7728   0.776   5.195   5.499
    3OL     C14 7729   0.856   5.108   5.325
    3OL     H4R 7730   0.794   5.176   5.266
    3OL     H4S 7731   0.796   5.020   5.352
    3OL     C15 7732   0.988   5.067   5.259
    3OL     H5R 7733   1.043   4.988   5.310
    3OL     H5S 7734   1.054   5.155   5.256
    3OL     C16 7735   0.960   5.016   5.117
    3OL     H6R 7736   0.898   5.088   5.063
    3OL     H6S 7737   0.902   4.925   5.134
    3OL     C17 7738   1.093   4.999   5.042
    3OL     H7R 7739   1.092   4.911   4.977
    3OL     H7S 7740   1.169   4.974   5.117
    3OL     C18 7741   1.115   5.133   4.969
    3OL     H8R 7742   1.125   5.219   5.035
    3OL     H8S 7743   1.028   5.162   4.909
    3OL     C19 7744   1.240   5.123   4.886
    3OL     H9R 7745   1.330   5.120   4.948
    3OL    C110 7746   1.255   5.115   4.755
    3OL    H10R 7747   1.353   5.102   4.710
    3OL    C111 7748   1.140   5.118   4.658
    3OL    H11R 7749   1.049   5.133   4.717
    3OL    H11S 7750   1.141   5.031   4.592
    3OL    C112 7751   1.150   5.247   4.575
    3OL    H12R 7752   1.247   5.263   4.527
    3OL    H12S 7753   1.141   5.333   4.641
    3OL    C113 7754   1.048   5.242   4.461
    3OL    H13R 7755   0.953   5.267   4.510
    3OL    H13S 7756   1.039   5.141   4.422
    3OL    C114 7757   1.069   5.342   4.347
    3OL    H14R 7758   1.159   5.313   4.292
    3OL    H14S 7759   1.095   5.440   4.388
    3OL    C115 7760   0.946   5.347   4.255
    3OL    H15R 7761   0.854   5.363   4.311
    3OL    H15S 7762   0.930   5.253   4.202
    3OL    C116 7763   0.962   5.458   4.151
    3OL    H16R 7764   1.006   5.544   4.201
    3OL    H16S 7765   0.860   5.485   4.123
    3OL    C117 7766   1.040   5.421   4.024
    3OL    H17R 7767   0.973   5.374   3.951
    3OL    H17S 7768   1.129   5.362   4.047
    3OL    C118 7769   1.079   5.555   3.961
    3OL    H18R 7770   0.983   5.604   3.945
    3OL    H18S 7771   1.128   5.544   3.864
    3OL    H18T 7772   1.153   5.618   4.012
    1PA    C116 7773   1.045   0.832   4.027
    1PA    H16R 7774   1.152   0.809   4.022
    1PA    H16S 7775   1.021   0.929   4.069
    1PA    H16T 7776   1.008   0.818   3.925
    1PA    C115 7777   0.982   0.720   4.111
    1PA    H15R 7778   0.873   0.720   4.101
    1PA    H15S 7779   1.013   0.623   4.072
    1PA    C114 7780   1.019   0.737   4.259
    1PA    H14R 7781   1.125   0.716   4.270
    1PA    H14S 7782   1.023   0.838   4.301
    1PA    C113 7783   0.946   0.633   4.344
    1PA    H13R 7784   0.952   0.544   4.280
    1PA    H13S 7785   0.999   0.618   4.438
    1PA    C112 7786   0.797   0.668   4.356
    1PA    H12R 7787   0.774   0.731   4.270
    1PA    H12S 7788   0.741   0.574   4.351
    1PA    C111 7789   0.774   0.754   4.482
    1PA    H11R 7790   0.790   0.683   4.563
    1PA    H11S 7791   0.850   0.832   4.474
    1PA    C110 7792   0.631   0.810   4.475
    1PA    H10R 7793   0.619   0.861   4.380
    1PA    H10S 7794   0.561   0.728   4.493
    1PA     C19 7795   0.613   0.912   4.588
    1PA     H9R 7796   0.629   0.864   4.685
    1PA     H9S 7797   0.689   0.989   4.572
    1PA     C18 7798   0.476   0.978   4.570
    1PA     H8R 7799   0.475   1.074   4.623
    1PA     H8S 7800   0.459   0.997   4.464
    1PA     C17 7801   0.362   0.887   4.617
    1PA     H7R 7802   0.356   0.804   4.546
    1PA     H7S 7803   0.376   0.847   4.718
    1PA     C16 7804   0.230   0.963   4.605
    1PA     H6R 7805   0.228   1.037   4.524
    1PA     H6S 7806   0.151   0.891   4.579
    1PA     C15 7807   0.209   1.043   4.734
    1PA     H5R 7808   0.294   1.109   4.754
    1PA     H5S 7809   0.125   1.108   4.712
    1PA     C14 7810   0.181   0.954   4.856
    1PA     H4R 7811   0.104   0.884   4.823
    1PA     H4S 7812   0.265   0.888   4.878
    1PA     C13 7813   0.146   1.041   4.978
    1PA     H3R 7814   0.076   1.117   4.940
    1PA     H3S 7815   0.099   0.987   5.060
    1PA     C12 7816   0.266   1.117   5.035
    1PA     H2R 7817   0.361   1.064   5.024
    1PA     H2S 7818   0.292   1.210   4.984
    2PC     C11 7819   0.247   1.159   5.178
    2PC     O12 7820   0.144   1.187   5.237
    2PC     O11 7821   0.363   1.165   5.245
    2PC      C1 7822   0.364   1.193   5.386
    2PC      HR 7823   0.278   1.141   5.430
    2PC      HS 7824   0.458   1.152   5.425
    2PC      C2 7825   0.371   1.343   5.417
    2PC      HX 7826   0.463   1.390   5.381
    2PC      C3 7827   0.372   1.358   5.570
    2PC      HA 7828   0.477   1.349   5.598
    2PC      HB 7829   0.328   1.453   5.601
    2PC     O31 7830   0.306   1.251   5.640
    2PC     P31 7831   0.253   1.270   5.791
    2PC     O32 7832   0.389   1.225   5.862
    2PC     C31 7833   0.417   1.086   5.885
    2PC     H1A 7834   0.329   1.045   5.935
    2PC     H1B 7835   0.427   1.031   5.791
    2PC     C32 7836   0.538   1.085   5.980
    2PC     H2A 7837   0.629   1.114   5.927
    2PC     H2B 7838   0.520   1.158   6.059
    2PC     N31 7839   0.586   0.957   6.041
    2PC     C33 7840   0.654   0.871   5.939
    2PC     H3A 7841   0.717   0.801   5.993
    2PC     H3B 7842   0.572   0.814   5.895
    2PC     H3C 7843   0.698   0.931   5.859
    2PC     C34 7844   0.683   0.994   6.149
    2PC     H4A 7845   0.725   0.900   6.184
    2PC     H4B 7846   0.754   1.069   6.114
    2PC     H4C 7847   0.620   1.029   6.231
    2PC     C35 7848   0.474   0.874   6.096
    2PC     H5A 7849   0.524   0.788   6.142
    2PC     H5B 7850   0.415   0.843   6.010
    2PC     H5C 7851   0.417   0.930   6.170
    2PC     O33 7852   0.196   1.401   5.830
    2PC     O34 7853   0.143   1.175   5.817
    2PC     O21 7854   0.256   1.400   5.352
    2PC     C21 7855   0.245   1.534   5.351
    2PC     O22 7856   0.329   1.611   5.395
    3OL     C12 7857   0.114   1.580   5.293
    3OL     H2R 7858   0.124   1.689   5.291
    3OL     H2S 7859   0.034   1.561   5.365
    3OL     C13 7860   0.082   1.533   5.151
    3OL     H3R 7861  -0.008   1.588   5.121
    3OL     H3S 7862   0.063   1.426   5.143
    3OL     C14 7863   0.199   1.565   5.056
    3OL     H4R 7864   0.281   1.506   5.098
    3OL     H4S 7865   0.211   1.673   5.057
    3OL     C15 7866   0.156   1.516   4.917
    3OL     H5R 7867   0.061   1.564   4.893
    3OL     H5S 7868   0.162   1.407   4.908
    3OL     C16 7869   0.261   1.567   4.817
    3OL     H6R 7870   0.361   1.527   4.837
    3OL     H6S 7871   0.261   1.676   4.825
    3OL     C17 7872   0.230   1.527   4.672
    3OL     H7R 7873   0.297   1.584   4.607
    3OL     H7S 7874   0.127   1.545   4.640
    3OL     C18 7875   0.270   1.384   4.633
    3OL     H8R 7876   0.205   1.315   4.688
    3OL     H8S 7877   0.370   1.366   4.671
    3OL     C19 7878   0.259   1.352   4.486
    3OL     H9R 7879   0.359   1.343   4.444
    3OL    C110 7880   0.156   1.327   4.408
    3OL    H10R 7881   0.181   1.307   4.304
    3OL    C111 7882   0.011   1.331   4.449
    3OL    H11R 7883  -0.043   1.400   4.384
    3OL    H11S 7884  -0.001   1.343   4.557
    3OL    C112 7885  -0.057   1.195   4.426
    3OL    H12R 7886  -0.161   1.205   4.456
    3OL    H12S 7887  -0.014   1.115   4.486
    3OL    C113 7888  -0.041   1.145   4.282
    3OL    H13R 7889  -0.077   1.043   4.270
    3OL    H13S 7890   0.066   1.131   4.261
    3OL    C114 7891  -0.113   1.237   4.183
    3OL    H14R 7892  -0.106   1.205   4.079
    3OL    H14S 7893  -0.071   1.338   4.189
    3OL    C115 7894  -0.264   1.256   4.206
    3OL    H15R 7895  -0.312   1.335   4.147
    3OL    H15S 7896  -0.279   1.291   4.308
    3OL    C116 7897  -0.347   1.129   4.182
    3OL    H16R 7898  -0.453   1.150   4.195
    3OL    H16S 7899  -0.321   1.046   4.246
    3OL    C117 7900  -0.344   1.077   4.037
    3OL    H17R 7901  -0.246   1.037   4.013
    3OL    H17S 7902  -0.371   1.160   3.972
    3OL    C118 7903  -0.457   0.974   4.018
    3OL    H18R 7904  -0.558   1.015   4.026
    3OL    H18S 7905  -0.447   0.892   4.089
    3OL    H18T 7906  -0.439   0.933   3.919
    1PA    C116 7907   5.672   5.463   4.039
    1PA    H16R 7908   5.650   5.412   3.945
    1PA    H16S 7909   5.620   5.559   4.042
    1PA    H16T 7910   5.622   5.409   4.120
    1PA    C115 7911   5.822   5.466   4.071
    1PA    H15R 7912   5.877   5.524   3.998
    1PA    H15S 7913   5.837   5.513   4.169
    1PA    C114 7914   5.874   5.322   4.062
    1PA    H14R 7915   5.829   5.279   3.972
    1PA    H14S 7916   5.982   5.326   4.054
    1PA    C113 7917   5.830   5.234   4.180
    1PA    H13R 7918   5.732   5.269   4.214
    1PA    H13S 7919   5.806   5.131   4.152
    1PA    C112 7920   5.934   5.237   4.293
    1PA    H12R 7921   6.027   5.190   4.262
    1PA    H12S 7922   5.957   5.343   4.307
    1PA    C111 7923   5.887   5.163   4.419
    1PA    H11R 7924   5.854   5.060   4.401
    1PA    H11S 7925   5.974   5.169   4.486
    1PA    C110 7926   5.770   5.230   4.491
    1PA    H10R 7927   5.805   5.333   4.500
    1PA    H10S 7928   5.678   5.223   4.433
    1PA     C19 7929   5.743   5.177   4.633
    1PA     H9R 7930   5.694   5.080   4.632
    1PA     H9S 7931   5.833   5.168   4.694
    1PA     C18 7932   5.649   5.283   4.693
    1PA     H8R 7933   5.696   5.381   4.698
    1PA     H8S 7934   5.563   5.290   4.626
    1PA     C17 7935   5.602   5.232   4.831
    1PA     H7R 7936   5.582   5.125   4.828
    1PA     H7S 7937   5.679   5.238   4.907
    1PA     C16 7938   5.478   5.309   4.881
    1PA     H6R 7939   5.503   5.414   4.893
    1PA     H6S 7940   5.398   5.303   4.807
    1PA     C15 7941   5.417   5.264   5.014
    1PA     H5R 7942   5.341   5.337   5.045
    1PA     H5S 7943   5.371   5.168   4.990
    1PA     C14 7944   5.507   5.248   5.138
    1PA     H4R 7945   5.446   5.213   5.221
    1PA     H4S 7946   5.581   5.168   5.124
    1PA     C13 7947   5.573   5.374   5.195
    1PA     H3R 7948   5.625   5.351   5.289
    1PA     H3S 7949   5.644   5.408   5.119
    1PA     C12 7950   5.475   5.489   5.223
    1PA     H2R 7951   5.461   5.536   5.126
    1PA     H2S 7952   5.380   5.452   5.261
    2PC     C11 7953   5.523   5.597   5.316
    2PC     O12 7954   5.454   5.665   5.391
    2PC     O11 7955   5.654   5.615   5.294
    2PC      C1 7956   5.713   5.712   5.382
    2PC      HR 7957   5.819   5.716   5.355
    2PC      HS 7958   5.666   5.809   5.366
    2PC      C2 7959   5.713   5.662   5.527
    2PC      HX 7960   5.612   5.641   5.562
    2PC      C3 7961   5.779   5.759   5.626
    2PC      HA 7962   5.886   5.739   5.641
    2PC      HB 7963   5.758   5.861   5.591
    2PC     O31 7964   5.727   5.734   5.758
    2PC     P31 7965   5.792   5.821   5.875
    2PC     O32 7966   5.702   5.951   5.848
    2PC     C31 7967   5.575   5.956   5.915
    2PC     H1A 7968   5.525   5.865   5.880
    2PC     H1B 7969   5.586   5.948   6.023
    2PC     C32 7970   5.499   6.077   5.857
    2PC     H2A 7971   5.511   6.081   5.749
    2PC     H2B 7972   5.394   6.085   5.883
    2PC     N31 7973   5.561   6.205   5.903
    2PC     C33 7974   5.690   6.234   5.832
    2PC     H3A 7975   5.685   6.223   5.723
    2PC     H3B 7976   5.730   6.325   5.877
    2PC     H3C 7977   5.770   6.165   5.858
    2PC     C34 7978   5.474   6.318   5.857
    2PC     H4A 7979   5.482   6.329   5.749
    2PC     H4B 7980   5.369   6.310   5.884
    2PC     H4C 7981   5.514   6.407   5.906
    2PC     C35 7982   5.585   6.215   6.050
    2PC     H5A 7983   5.668   6.148   6.074
    2PC     H5B 7984   5.495   6.187   6.106
    2PC     H5C 7985   5.627   6.309   6.084
    2PC     O33 7986   5.784   5.758   6.009
    2PC     O34 7987   5.935   5.856   5.863
    2PC     O21 7988   5.794   5.544   5.545
    2PC     C21 7989   5.738   5.422   5.532
    2PC     O22 7990   5.622   5.404   5.562
    3OL     C12 7991   5.843   5.319   5.498
    3OL     H2R 7992   5.805   5.226   5.453
    3OL     H2S 7993   5.878   5.282   5.595
    3OL     C13 7994   5.959   5.378   5.418
    3OL     H3R 7995   6.033   5.418   5.488
    3OL     H3S 7996   5.918   5.457   5.354
    3OL     C14 7997   6.040   5.280   5.332
    3OL     H4R 7998   5.984   5.245   5.245
    3OL     H4S 7999   6.070   5.193   5.391
    3OL     C15 8000   6.157   5.348   5.261
    3OL     H5R 8001   6.232   5.372   5.337
    3OL     H5S 8002   6.131   5.437   5.203
    3OL     C16 8003   6.227   5.243   5.173
    3OL     H6R 8004   6.213   5.139   5.203
    3OL     H6S 8005   6.334   5.259   5.193
    3OL     C17 8006   6.206   5.255   5.022
    3OL     H7R 8007   6.219   5.358   4.987
    3OL     H7S 8008   6.100   5.237   5.002
    3OL     C18 8009   6.289   5.150   4.946
    3OL     H8R 8010   6.253   5.141   4.843
    3OL     H8S 8011   6.262   5.050   4.981
    3OL     C19 8012   6.438   5.168   4.949
    3OL     H9R 8013   6.481   5.155   5.048
    3OL    C110 8014   6.516   5.194   4.845
    3OL    H10R 8015   6.624   5.197   4.854
    3OL    C111 8016   6.461   5.228   4.709
    3OL    H11R 8017   6.512   5.314   4.666
    3OL    H11S 8018   6.354   5.251   4.711
    3OL    C112 8019   6.485   5.107   4.618
    3OL    H12R 8020   6.441   5.010   4.646
    3OL    H12S 8021   6.592   5.094   4.604
    3OL    C113 8022   6.436   5.128   4.474
    3OL    H13R 8023   6.427   5.234   4.448
    3OL    H13S 8024   6.335   5.087   4.467
    3OL    C114 8025   6.511   5.058   4.359
    3OL    H14R 8026   6.453   5.064   4.266
    3OL    H14S 8027   6.525   4.952   4.382
    3OL    C115 8028   6.645   5.129   4.335
    3OL    H15R 8029   6.721   5.118   4.413
    3OL    H15S 8030   6.632   5.237   4.335
    3OL    C116 8031   6.696   5.086   4.197
    3OL    H16R 8032   6.745   5.179   4.167
    3OL    H16S 8033   6.614   5.067   4.127
    3OL    C117 8034   6.796   4.970   4.209
    3OL    H17R 8035   6.750   4.876   4.238
    3OL    H17S 8036   6.865   4.996   4.290
    3OL    C118 8037   6.875   4.949   4.078
    3OL    H18R 8038   6.819   4.896   4.001
    3OL    H18S 8039   6.967   4.893   4.093
    3OL    H18T 8040   6.911   5.042   4.033
    1PA    C116 8041   4.787   4.374   3.618
    1PA    H16R 8042   4.832   4.447   3.551
    1PA    H16S 8043   4.692   4.366   3.564
    1PA    H16T 8044   4.836   4.276   3.625
    1PA    C115 8045   4.779   4.427   3.761
    1PA    H15R 8046   4.717   4.517   3.758
    1PA    H15S 8047   4.733   4.354   3.828
    1PA    C114 8048   4.911   4.467   3.829
    1PA    H14R 8049   4.980   4.383   3.826
    1PA    H14S 8050   4.950   4.536   3.755
    1PA    C113 8051   4.894   4.523   3.971
    1PA    H13R 8052   4.842   4.618   3.976
    1PA    H13S 8053   4.847   4.457   4.044
    1PA    C112 8054   5.040   4.525   4.019
    1PA    H12R 8055   5.092   4.430   4.015
    1PA    H12S 8056   5.102   4.593   3.960
    1PA    C111 8057   5.044   4.574   4.165
    1PA    H11R 8058   4.991   4.670   4.161
    1PA    H11S 8059   4.980   4.513   4.229
    1PA    C110 8060   5.187   4.589   4.219
    1PA    H10R 8061   5.236   4.492   4.231
    1PA    H10S 8062   5.254   4.640   4.149
    1PA     C19 8063   5.192   4.644   4.362
    1PA     H9R 8064   5.296   4.666   4.386
    1PA     H9S 8065   5.126   4.731   4.362
    1PA     C18 8066   5.131   4.549   4.467
    1PA     H8R 8067   5.029   4.520   4.442
    1PA     H8S 8068   5.188   4.456   4.475
    1PA     C17 8069   5.123   4.625   4.600
    1PA     H7R 8070   5.166   4.560   4.677
    1PA     H7S 8071   5.203   4.699   4.595
    1PA     C16 8072   4.983   4.675   4.636
    1PA     H6R 8073   4.948   4.752   4.566
    1PA     H6S 8074   4.900   4.604   4.627
    1PA     C15 8075   4.986   4.740   4.775
    1PA     H5R 8076   5.023   4.668   4.848
    1PA     H5S 8077   5.052   4.827   4.779
    1PA     C14 8078   4.852   4.791   4.832
    1PA     H4R 8079   4.822   4.881   4.777
    1PA     H4S 8080   4.776   4.719   4.802
    1PA     C13 8081   4.869   4.816   4.982
    1PA     H3R 8082   4.907   4.735   5.044
    1PA     H3S 8083   4.938   4.900   4.994
    1PA     C12 8084   4.732   4.849   5.044
    1PA     H2R 8085   4.685   4.938   5.002
    1PA     H2S 8086   4.657   4.775   5.016
    2PC     C11 8087   4.741   4.892   5.188
    2PC     O12 8088   4.844   4.929   5.242
    2PC     O11 8089   4.627   4.866   5.254
    2PC      C1 8090   4.613   4.897   5.394
    2PC      HR 8091   4.512   4.865   5.421
    2PC      HS 8092   4.680   4.837   5.456
    2PC      C2 8093   4.632   5.049   5.406
    2PC      HX 8094   4.685   5.094   5.322
    2PC      C3 8095   4.697   5.085   5.541
    2PC      HA 8096   4.803   5.061   5.534
    2PC      HB 8097   4.682   5.192   5.562
    2PC     O31 8098   4.631   5.014   5.648
    2PC     P31 8099   4.709   5.004   5.787
    2PC     O32 8100   4.583   5.038   5.880
    2PC     C31 8101   4.524   5.167   5.852
    2PC     H1A 8102   4.607   5.238   5.854
    2PC     H1B 8103   4.462   5.164   5.763
    2PC     C32 8104   4.425   5.194   5.967
    2PC     H2A 8105   4.344   5.252   5.923
    2PC     H2B 8106   4.394   5.098   6.009
    2PC     N31 8107   4.469   5.257   6.095
    2PC     C33 8108   4.344   5.274   6.176
    2PC     H3A 8109   4.313   5.174   6.207
    2PC     H3B 8110   4.365   5.334   6.265
    2PC     H3C 8111   4.258   5.299   6.114
    2PC     C34 8112   4.564   5.170   6.172
    2PC     H4A 8113   4.644   5.125   6.112
    2PC     H4B 8114   4.594   5.243   6.247
    2PC     H4C 8115   4.502   5.094   6.221
    2PC     C35 8116   4.537   5.388   6.071
    2PC     H5A 8117   4.547   5.420   6.174
    2PC     H5B 8118   4.470   5.454   6.016
    2PC     H5C 8119   4.626   5.377   6.008
    2PC     O33 8120   4.765   4.871   5.822
    2PC     O34 8121   4.827   5.093   5.800
    2PC     O21 8122   4.503   5.113   5.408
    2PC     C21 8123   4.445   5.150   5.292
    2PC     O22 8124   4.491   5.118   5.185
    3OL     C12 8125   4.309   5.214   5.309
    3OL     H2R 8126   4.320   5.316   5.346
    3OL     H2S 8127   4.264   5.166   5.396
    3OL     C13 8128   4.214   5.196   5.191
    3OL     H3R 8129   4.112   5.221   5.221
    3OL     H3S 8130   4.224   5.092   5.158
    3OL     C14 8131   4.245   5.295   5.078
    3OL     H4R 8132   4.350   5.293   5.047
    3OL     H4S 8133   4.237   5.395   5.121
    3OL     C15 8134   4.141   5.281   4.966
    3OL     H5R 8135   4.042   5.272   5.012
    3OL     H5S 8136   4.174   5.188   4.919
    3OL     C16 8137   4.166   5.389   4.860
    3OL     H6R 8138   4.266   5.386   4.815
    3OL     H6S 8139   4.154   5.485   4.910
    3OL     C17 8140   4.061   5.389   4.748
    3OL     H7R 8141   3.964   5.402   4.796
    3OL     H7S 8142   4.061   5.292   4.698
    3OL     C18 8143   4.087   5.485   4.631
    3OL     H8R 8144   4.181   5.459   4.582
    3OL     H8S 8145   4.100   5.587   4.669
    3OL     C19 8146   3.980   5.492   4.525
    3OL     H9R 8147   3.931   5.397   4.503
    3OL    C110 8148   3.919   5.601   4.482
    3OL    H10R 8149   3.824   5.586   4.432
    3OL    C111 8150   3.950   5.748   4.500
    3OL    H11R 8151   4.000   5.765   4.595
    3OL    H11S 8152   3.853   5.798   4.506
    3OL    C112 8153   4.038   5.790   4.381
    3OL    H12R 8154   3.981   5.781   4.288
    3OL    H12S 8155   4.121   5.720   4.375
    3OL    C113 8156   4.094   5.932   4.398
    3OL    H13R 8157   4.148   5.941   4.493
    3OL    H13S 8158   4.010   6.001   4.404
    3OL    C114 8159   4.171   5.988   4.277
    3OL    H14R 8160   4.209   6.085   4.307
    3OL    H14S 8161   4.099   6.004   4.196
    3OL    C115 8162   4.293   5.902   4.243
    3OL    H15R 8163   4.264   5.808   4.196
    3OL    H15S 8164   4.355   5.893   4.333
    3OL    C116 8165   4.377   5.960   4.128
    3OL    H16R 8166   4.399   6.053   4.180
    3OL    H16S 8167   4.312   5.974   4.042
    3OL    C117 8168   4.510   5.887   4.101
    3OL    H17R 8169   4.477   5.794   4.054
    3OL    H17S 8170   4.550   5.855   4.197
    3OL    C118 8171   4.613   5.965   4.019
    3OL    H18R 8172   4.566   5.996   3.925
    3OL    H18S 8173   4.697   5.897   4.001
    3OL    H18T 8174   4.640   6.060   4.065
    1PA    C116 8175   1.598   0.438   5.424
    1PA    H16R 8176   1.645   0.495   5.344
    1PA    H16S 8177   1.563   0.340   5.392
    1PA    H16T 8178   1.660   0.431   5.514
    1PA    C115 8179   1.479   0.514   5.484
    1PA    H15R 8180   1.435   0.445   5.556
    1PA    H15S 8181   1.510   0.603   5.539
    1PA    C114 8182   1.378   0.532   5.370
    1PA    H14R 8183   1.416   0.594   5.288
    1PA    H14S 8184   1.358   0.431   5.334
    1PA    C113 8185   1.240   0.590   5.405
    1PA    H13R 8186   1.194   0.539   5.490
    1PA    H13S 8187   1.253   0.694   5.437
    1PA    C112 8188   1.144   0.570   5.288
    1PA    H12R 8189   1.080   0.659   5.291
    1PA    H12S 8190   1.201   0.568   5.195
    1PA    C111 8191   1.060   0.443   5.310
    1PA    H11R 8192   1.123   0.358   5.335
    1PA    H11S 8193   0.985   0.460   5.388
    1PA    C110 8194   0.998   0.405   5.175
    1PA    H10R 8195   1.073   0.393   5.097
    1PA    H10S 8196   0.947   0.309   5.189
    1PA     C19 8197   0.890   0.502   5.125
    1PA     H9R 8198   0.812   0.525   5.199
    1PA     H9S 8199   0.945   0.597   5.125
    1PA     C18 8200   0.820   0.477   4.991
    1PA     H8R 8201   0.893   0.496   4.912
    1PA     H8S 8202   0.785   0.375   4.977
    1PA     C17 8203   0.702   0.574   4.975
    1PA     H7R 8204   0.632   0.576   5.059
    1PA     H7S 8205   0.732   0.679   4.964
    1PA     C16 8206   0.625   0.538   4.847
    1PA     H6R 8207   0.684   0.558   4.758
    1PA     H6S 8208   0.601   0.432   4.845
    1PA     C15 8209   0.496   0.613   4.812
    1PA     H5R 8210   0.511   0.713   4.855
    1PA     H5S 8211   0.492   0.624   4.703
    1PA     C14 8212   0.363   0.550   4.854
    1PA     H4R 8213   0.285   0.604   4.801
    1PA     H4S 8214   0.353   0.448   4.815
    1PA     C13 8215   0.327   0.553   5.003
    1PA     H3R 8216   0.392   0.488   5.062
    1PA     H3S 8217   0.336   0.649   5.053
    1PA     C12 8218   0.185   0.503   5.037
    1PA     H2R 8219   0.110   0.565   4.987
    1PA     H2S 8220   0.172   0.401   5.001
    2PC     C11 8221   0.152   0.515   5.183
    2PC     O12 8222   0.187   0.602   5.261
    2PC     O11 8223   0.075   0.411   5.221
    2PC      C1 8224   0.079   0.382   5.362
    2PC      HR 8225   0.183   0.380   5.392
    2PC      HS 8226   0.021   0.452   5.423
    2PC      C2 8227   0.017   0.242   5.372
    2PC      HX 8228  -0.075   0.228   5.315
    2PC      C3 8229  -0.028   0.201   5.513
    2PC      HA 8230  -0.087   0.280   5.561
    2PC      HB 8231  -0.091   0.113   5.496
    2PC     O31 8232   0.083   0.174   5.600
    2PC     P31 8233   0.048   0.116   5.745
    2PC     O32 8234   0.191   0.127   5.816
    2PC     C31 8235   0.251   0.257   5.832
    2PC     H1A 8236   0.281   0.295   5.734
    2PC     H1B 8237   0.185   0.325   5.886
    2PC     C32 8238   0.382   0.237   5.910
    2PC     H2A 8239   0.444   0.159   5.863
    2PC     H2B 8240   0.431   0.334   5.904
    2PC     N31 8241   0.373   0.196   6.054
    2PC     C33 8242   0.511   0.166   6.105
    2PC     H3A 8243   0.498   0.159   6.213
    2PC     H3B 8244   0.541   0.069   6.064
    2PC     H3C 8245   0.572   0.246   6.064
    2PC     C34 8246   0.318   0.311   6.132
    2PC     H4A 8247   0.342   0.285   6.235
    2PC     H4B 8248   0.377   0.395   6.096
    2PC     H4C 8249   0.210   0.322   6.122
    2PC     C35 8250   0.289   0.075   6.081
    2PC     H5A 8251   0.325   0.000   6.010
    2PC     H5B 8252   0.182   0.096   6.073
    2PC     H5C 8253   0.303   0.047   6.185
    2PC     O33 8254  -0.064   0.190   5.808
    2PC     O34 8255   0.015  -0.028   5.736
    2PC     O21 8256   0.116   0.148   5.324
    2PC     C21 8257   0.077   0.036   5.261
    2PC     O22 8258  -0.036   0.019   5.223
    3OL     C12 8259   0.198  -0.052   5.244
    3OL     H2R 8260   0.175  -0.153   5.280
    3OL     H2S 8261   0.271  -0.011   5.314
    3OL     C13 8262   0.251  -0.060   5.100
    3OL     H3R 8263   0.355  -0.090   5.114
    3OL     H3S 8264   0.269   0.033   5.046
    3OL     C14 8265   0.173  -0.158   5.010
    3OL     H4R 8266   0.070  -0.124   4.999
    3OL     H4S 8267   0.161  -0.256   5.056
    3OL     C15 8268   0.208  -0.186   4.863
    3OL     H5R 8269   0.160  -0.278   4.829
    3OL     H5S 8270   0.317  -0.194   4.856
    3OL     C16 8271   0.168  -0.075   4.765
    3OL     H6R 8272   0.229   0.016   4.775
    3OL     H6S 8273   0.064  -0.051   4.787
    3OL     C17 8274   0.173  -0.121   4.619
    3OL     H7R 8275   0.137  -0.221   4.595
    3OL     H7S 8276   0.280  -0.134   4.602
    3OL     C18 8277   0.117  -0.016   4.522
    3OL     H8R 8278   0.159  -0.037   4.424
    3OL     H8S 8279   0.161   0.079   4.553
    3OL     C19 8280  -0.033  -0.005   4.509
    3OL     H9R 8281  -0.089  -0.052   4.589
    3OL    C110 8282  -0.091   0.034   4.396
    3OL    H10R 8283  -0.200   0.031   4.398
    3OL    C111 8284  -0.022   0.088   4.274
    3OL    H11R 8285  -0.025   0.009   4.199
    3OL    H11S 8286   0.083   0.104   4.301
    3OL    C112 8287  -0.081   0.225   4.236
    3OL    H12R 8288  -0.102   0.280   4.328
    3OL    H12S 8289  -0.181   0.212   4.194
    3OL    C113 8290   0.026   0.298   4.153
    3OL    H13R 8291   0.120   0.291   4.208
    3OL    H13S 8292  -0.002   0.403   4.142
    3OL    C114 8293   0.039   0.230   4.016
    3OL    H14R 8294  -0.045   0.263   3.955
    3OL    H14S 8295   0.023   0.122   4.020
    3OL    C115 8296   0.174   0.270   3.954
    3OL    H15R 8297   0.256   0.227   4.011
    3OL    H15S 8298   0.173   0.379   3.947
    3OL    C116 8299   0.180   0.223   3.808
    3OL    H16R 8300   0.124   0.129   3.803
    3OL    H16S 8301   0.282   0.205   3.776
    3OL    C117 8302   0.111   0.323   3.714
    3OL    H17R 8303   0.155   0.422   3.725
    3OL    H17S 8304   0.006   0.344   3.735
    3OL    C118 8305   0.128   0.261   3.575
    3OL    H18R 8306   0.235   0.249   3.556
    3OL    H18S 8307   0.092   0.335   3.503
    3OL    H18T 8308   0.061   0.179   3.551
    1PA    C116 8309   5.832   6.280   3.874
    1PA    H16R 8310   5.788   6.307   3.970
    1PA    H16S 8311   5.810   6.347   3.790
    1PA    H16T 8312   5.941   6.281   3.870
    1PA    C115 8313   5.794   6.136   3.837
    1PA    H15R 8314   5.758   6.120   3.735
    1PA    H15S 8315   5.884   6.077   3.850
    1PA    C114 8316   5.684   6.079   3.928
    1PA    H14R 8317   5.662   5.974   3.907
    1PA    H14S 8318   5.717   6.077   4.033
    1PA    C113 8319   5.548   6.146   3.910
    1PA    H13R 8320   5.553   6.242   3.964
    1PA    H13S 8321   5.519   6.161   3.806
    1PA    C112 8322   5.435   6.060   3.967
    1PA    H12R 8323   5.342   6.099   3.925
    1PA    H12S 8324   5.454   5.961   3.924
    1PA    C111 8325   5.446   6.058   4.120
    1PA    H11R 8326   5.530   5.996   4.152
    1PA    H11S 8327   5.472   6.161   4.148
    1PA    C110 8328   5.315   6.017   4.189
    1PA    H10R 8329   5.232   6.082   4.162
    1PA    H10S 8330   5.292   5.914   4.160
    1PA     C19 8331   5.324   6.014   4.342
    1PA     H9R 8332   5.237   5.959   4.379
    1PA     H9S 8333   5.404   5.943   4.365
    1PA     C18 8334   5.348   6.156   4.393
    1PA     H8R 8335   5.451   6.183   4.366
    1PA     H8S 8336   5.288   6.228   4.337
    1PA     C17 8337   5.327   6.157   4.545
    1PA     H7R 8338   5.377   6.068   4.585
    1PA     H7S 8339   5.380   6.244   4.585
    1PA     C16 8340   5.179   6.169   4.584
    1PA     H6R 8341   5.150   6.272   4.563
    1PA     H6S 8342   5.112   6.112   4.519
    1PA     C15 8343   5.160   6.142   4.733
    1PA     H5R 8344   5.173   6.036   4.756
    1PA     H5S 8345   5.242   6.193   4.784
    1PA     C14 8346   5.023   6.190   4.783
    1PA     H4R 8347   5.018   6.299   4.781
    1PA     H4S 8348   4.937   6.152   4.727
    1PA     C13 8349   5.017   6.149   4.931
    1PA     H3R 8350   4.920   6.168   4.979
    1PA     H3S 8351   5.025   6.041   4.937
    1PA     C12 8352   5.127   6.215   5.015
    1PA     H2R 8353   5.222   6.164   4.997
    1PA     H2S 8354   5.145   6.320   4.990
    2PC     C11 8355   5.079   6.213   5.158
    2PC     O12 8356   4.981   6.274   5.196
    2PC     O11 8357   5.151   6.138   5.243
    2PC      C1 8358   5.100   6.126   5.376
    2PC      HR 8359   5.186   6.094   5.436
    2PC      HS 8360   5.056   6.221   5.408
    2PC      C2 8361   5.007   6.004   5.386
    2PC      HX 8362   4.932   6.027   5.310
    2PC      C3 8363   4.936   5.998   5.522
    2PC      HA 8364   4.869   6.081   5.546
    2PC      HB 8365   4.873   5.909   5.522
    2PC     O31 8366   5.040   5.992   5.621
    2PC     P31 8367   5.003   5.964   5.774
    2PC     O32 8368   4.973   5.807   5.768
    2PC     C31 8369   5.066   5.718   5.703
    2PC     H1A 8370   5.080   5.763   5.604
    2PC     H1B 8371   5.159   5.736   5.758
    2PC     C32 8372   5.021   5.571   5.706
    2PC     H2A 8373   4.929   5.563   5.648
    2PC     H2B 8374   5.101   5.513   5.662
    2PC     N31 8375   5.009   5.501   5.838
    2PC     C33 8376   4.899   5.554   5.924
    2PC     H3A 8377   4.916   5.659   5.946
    2PC     H3B 8378   4.805   5.535   5.873
    2PC     H3C 8379   4.905   5.510   6.024
    2PC     C34 8380   4.972   5.359   5.809
    2PC     H4A 8381   5.052   5.310   5.753
    2PC     H4B 8382   4.952   5.300   5.899
    2PC     H4C 8383   4.884   5.357   5.744
    2PC     C35 8384   5.139   5.504   5.913
    2PC     H5A 8385   5.146   5.427   5.990
    2PC     H5B 8386   5.149   5.605   5.955
    2PC     H5C 8387   5.218   5.486   5.840
    2PC     O33 8388   5.129   5.982   5.850
    2PC     O34 8389   4.913   6.060   5.842
    2PC     O21 8390   5.071   5.878   5.360
    2PC     C21 8391   5.075   5.838   5.232
    2PC     O22 8392   4.997   5.883   5.151
    3OL     C12 8393   5.182   5.732   5.218
    3OL     H2R 8394   5.158   5.653   5.289
    3OL     H2S 8395   5.282   5.773   5.233
    3OL     C13 8396   5.184   5.663   5.081
    3OL     H3R 8397   5.079   5.642   5.060
    3OL     H3S 8398   5.234   5.566   5.082
    3OL     C14 8399   5.259   5.745   4.975
    3OL     H4R 8400   5.363   5.764   4.999
    3OL     H4S 8401   5.211   5.842   4.957
    3OL     C15 8402   5.255   5.671   4.840
    3OL     H5R 8403   5.150   5.670   4.811
    3OL     H5S 8404   5.311   5.578   4.851
    3OL     C16 8405   5.348   5.747   4.744
    3OL     H6R 8406   5.450   5.733   4.781
    3OL     H6S 8407   5.332   5.854   4.739
    3OL     C17 8408   5.338   5.678   4.607
    3OL     H7R 8409   5.387   5.739   4.530
    3OL     H7S 8410   5.236   5.665   4.571
    3OL     C18 8411   5.413   5.544   4.597
    3OL     H8R 8412   5.362   5.469   4.656
    3OL     H8S 8413   5.510   5.552   4.646
    3OL     C19 8414   5.422   5.506   4.451
    3OL     H9R 8415   5.332   5.465   4.405
    3OL    C110 8416   5.517   5.545   4.367
    3OL    H10R 8417   5.514   5.519   4.262
    3OL    C111 8418   5.637   5.623   4.415
    3OL    H11R 8419   5.724   5.560   4.400
    3OL    H11S 8420   5.637   5.657   4.519
    3OL    C112 8421   5.648   5.749   4.327
    3OL    H12R 8422   5.558   5.810   4.335
    3OL    H12S 8423   5.643   5.734   4.219
    3OL    C113 8424   5.772   5.834   4.360
    3OL    H13R 8425   5.798   5.833   4.466
    3OL    H13S 8426   5.754   5.939   4.337
    3OL    C114 8427   5.891   5.775   4.284
    3OL    H14R 8428   5.902   5.668   4.298
    3OL    H14S 8429   5.975   5.822   4.336
    3OL    C115 8430   5.906   5.813   4.136
    3OL    H15R 8431   5.896   5.922   4.129
    3OL    H15S 8432   5.821   5.769   4.084
    3OL    C116 8433   6.036   5.760   4.074
    3OL    H16R 8434   6.033   5.651   4.073
    3OL    H16S 8435   6.116   5.801   4.136
    3OL    C117 8436   6.064   5.800   3.928
    3OL    H17R 8437   6.027   5.901   3.913
    3OL    H17S 8438   6.004   5.743   3.856
    3OL    C118 8439   6.215   5.783   3.903
    3OL    H18R 8440   6.244   5.681   3.925
    3OL    H18S 8441   6.287   5.849   3.952
    3OL    H18T 8442   6.232   5.789   3.795
    1PA    C116 8443   6.478   5.408   4.146
    1PA    H16R 8444   6.556   5.435   4.074
    1PA    H16S 8445   6.466   5.301   4.132
    1PA    H16T 8446   6.508   5.425   4.249
    1PA    C115 8447   6.355   5.495   4.117
    1PA    H15R 8448   6.370   5.603   4.122
    1PA    H15S 8449   6.310   5.474   4.019
    1PA    C114 8450   6.251   5.467   4.226
    1PA    H14R 8451   6.154   5.503   4.190
    1PA    H14S 8452   6.256   5.358   4.235
    1PA    C113 8453   6.278   5.531   4.363
    1PA    H13R 8454   6.384   5.538   4.387
    1PA    H13S 8455   6.247   5.635   4.371
    1PA    C112 8456   6.199   5.453   4.470
    1PA    H12R 8457   6.093   5.464   4.446
    1PA    H12S 8458   6.221   5.347   4.468
    1PA    C111 8459   6.207   5.516   4.610
    1PA    H11R 8460   6.303   5.477   4.644
    1PA    H11S 8461   6.220   5.624   4.601
    1PA    C110 8462   6.094   5.468   4.702
    1PA    H10R 8463   5.998   5.482   4.651
    1PA    H10S 8464   6.090   5.359   4.709
    1PA     C19 8465   6.095   5.537   4.839
    1PA     H9R 8466   6.035   5.480   4.911
    1PA     H9S 8467   6.196   5.541   4.880
    1PA     C18 8468   6.042   5.681   4.839
    1PA     H8R 8469   6.076   5.738   4.925
    1PA     H8S 8470   6.094   5.736   4.761
    1PA     C17 8471   5.889   5.686   4.823
    1PA     H7R 8472   5.857   5.664   4.721
    1PA     H7S 8473   5.851   5.611   4.894
    1PA     C16 8474   5.831   5.822   4.864
    1PA     H6R 8475   5.852   5.842   4.969
    1PA     H6S 8476   5.880   5.905   4.811
    1PA     C15 8477   5.683   5.836   4.827
    1PA     H5R 8478   5.677   5.835   4.718
    1PA     H5S 8479   5.629   5.751   4.869
    1PA     C14 8480   5.615   5.964   4.879
    1PA     H4R 8481   5.510   5.965   4.849
    1PA     H4S 8482   5.621   5.962   4.988
    1PA     C13 8483   5.688   6.090   4.832
    1PA     H3R 8484   5.763   6.121   4.905
    1PA     H3S 8485   5.744   6.071   4.740
    1PA     C12 8486   5.583   6.201   4.816
    1PA     H2R 8487   5.625   6.283   4.758
    1PA     H2S 8488   5.489   6.176   4.765
    2PC     C11 8489   5.541   6.263   4.947
    2PC     O12 8490   5.487   6.203   5.038
    2PC     O11 8491   5.571   6.394   4.946
    2PC      C1 8492   5.540   6.474   5.062
    2PC      HR 8493   5.539   6.582   5.045
    2PC      HS 8494   5.444   6.437   5.098
    2PC      C2 8495   5.655   6.434   5.157
    2PC      HX 8496   5.644   6.328   5.182
    2PC      C3 8497   5.634   6.512   5.287
    2PC      HA 8498   5.653   6.620   5.280
    2PC      HB 8499   5.535   6.494   5.328
    2PC     O31 8500   5.736   6.457   5.373
    2PC     P31 8501   5.715   6.430   5.530
    2PC     O32 8502   5.835   6.334   5.576
    2PC     C31 8503   5.949   6.396   5.637
    2PC     H1A 8504   5.974   6.492   5.591
    2PC     H1B 8505   5.938   6.406   5.745
    2PC     C32 8506   6.066   6.303   5.604
    2PC     H2A 8507   6.149   6.336   5.667
    2PC     H2B 8508   6.041   6.207   5.650
    2PC     N31 8509   6.108   6.273   5.463
    2PC     C33 8510   6.080   6.391   5.376
    2PC     H3A 8511   5.973   6.393   5.355
    2PC     H3B 8512   6.109   6.486   5.421
    2PC     H3C 8513   6.132   6.383   5.281
    2PC     C34 8514   6.256   6.249   5.464
    2PC     H4A 8515   6.290   6.224   5.363
    2PC     H4B 8516   6.311   6.331   5.509
    2PC     H4C 8517   6.280   6.157   5.519
    2PC     C35 8518   6.049   6.150   5.401
    2PC     H5A 8519   5.940   6.152   5.390
    2PC     H5B 8520   6.073   6.064   5.464
    2PC     H5C 8521   6.099   6.138   5.305
    2PC     O33 8522   5.720   6.554   5.610
    2PC     O34 8523   5.592   6.352   5.558
    2PC     O21 8524   5.780   6.460   5.091
    2PC     C21 8525   5.882   6.372   5.094
    2PC     O22 8526   5.878   6.260   5.138
    3OL     C12 8527   6.006   6.429   5.028
    3OL     H2R 8528   6.010   6.414   4.920
    3OL     H2S 8529   6.097   6.381   5.063
    3OL     C13 8530   6.009   6.580   5.052
    3OL     H3R 8531   5.990   6.599   5.158
    3OL     H3S 8532   5.929   6.634   5.000
    3OL     C14 8533   6.146   6.647   5.032
    3OL     H4R 8534   6.207   6.613   5.115
    3OL     H4S 8535   6.125   6.753   5.044
    3OL     C15 8536   6.214   6.625   4.896
    3OL     H5R 8537   6.145   6.654   4.817
    3OL     H5S 8538   6.232   6.517   4.895
    3OL     C16 8539   6.351   6.693   4.883
    3OL     H6R 8540   6.417   6.669   4.967
    3OL     H6S 8541   6.327   6.800   4.883
    3OL     C17 8542   6.412   6.670   4.745
    3OL     H7R 8543   6.403   6.565   4.715
    3OL     H7S 8544   6.520   6.687   4.755
    3OL     C18 8545   6.353   6.756   4.633
    3OL     H8R 8546   6.245   6.741   4.624
    3OL     H8S 8547   6.385   6.717   4.536
    3OL     C19 8548   6.391   6.900   4.659
    3OL     H9R 8549   6.331   6.941   4.740
    3OL    C110 8550   6.491   6.964   4.600
    3OL    H10R 8551   6.505   7.065   4.636
    3OL    C111 8552   6.575   6.916   4.484
    3OL    H11R 8553   6.564   6.809   4.469
    3OL    H11S 8554   6.679   6.942   4.502
    3OL    C112 8555   6.533   6.985   4.354
    3OL    H12R 8556   6.506   7.088   4.378
    3OL    H12S 8557   6.444   6.938   4.311
    3OL    C113 8558   6.642   7.003   4.247
    3OL    H13R 8559   6.673   6.903   4.218
    3OL    H13S 8560   6.723   7.061   4.291
    3OL    C114 8561   6.589   7.084   4.128
    3OL    H14R 8562   6.569   7.185   4.164
    3OL    H14S 8563   6.492   7.052   4.091
    3OL    C115 8564   6.687   7.094   4.009
    3OL    H15R 8565   6.640   7.160   3.935
    3OL    H15S 8566   6.707   6.994   3.970
    3OL    C116 8567   6.817   7.171   4.036
    3OL    H16R 8568   6.861   7.127   4.126
    3OL    H16S 8569   6.793   7.276   4.053
    3OL    C117 8570   6.921   7.172   3.924
    3OL    H17R 8571   6.868   7.216   3.840
    3OL    H17S 8572   6.951   7.073   3.888
    3OL    C118 8573   7.041   7.251   3.979
    3OL    H18R 8574   7.111   7.274   3.899
    3OL    H18S 8575   7.080   7.199   4.066
    3OL    H18T 8576   7.003   7.347   4.015
    1PA    C116 8577   1.963   2.237   3.772
    1PA    H16R 8578   1.909   2.176   3.699
    1PA    H16S 8579   1.893   2.277   3.845
    1PA    H16T 8580   2.028   2.166   3.823
    1PA    C115 8581   2.036   2.347   3.693
    1PA    H15R 8582   1.956   2.409   3.654
    1PA    H15S 8583   2.081   2.417   3.764
    1PA    C114 8584   2.127   2.296   3.580
    1PA    H14R 8585   2.175   2.381   3.532
    1PA    H14S 8586   2.190   2.220   3.626
    1PA    C113 8587   2.044   2.227   3.471
    1PA    H13R 8588   2.101   2.204   3.380
    1PA    H13S 8589   2.012   2.128   3.503
    1PA    C112 8590   1.911   2.291   3.431
    1PA    H12R 8591   1.845   2.275   3.516
    1PA    H12S 8592   1.923   2.400   3.424
    1PA    C111 8593   1.837   2.224   3.314
    1PA    H11R 8594   1.836   2.115   3.305
    1PA    H11S 8595   1.732   2.253   3.320
    1PA    C110 8596   1.894   2.295   3.191
    1PA    H10R 8597   1.890   2.404   3.200
    1PA    H10S 8598   1.999   2.273   3.171
    1PA     C19 8599   1.811   2.259   3.068
    1PA     H9R 8600   1.802   2.150   3.061
    1PA     H9S 8601   1.706   2.285   3.075
    1PA     C18 8602   1.876   2.320   2.943
    1PA     H8R 8603   1.896   2.423   2.973
    1PA     H8S 8604   1.970   2.271   2.917
    1PA     C17 8605   1.787   2.321   2.818
    1PA     H7R 8606   1.761   2.223   2.778
    1PA     H7S 8607   1.690   2.362   2.846
    1PA     C16 8608   1.846   2.408   2.706
    1PA     H6R 8609   1.887   2.501   2.745
    1PA     H6S 8610   1.932   2.350   2.671
    1PA     C15 8611   1.759   2.434   2.582
    1PA     H5R 8612   1.806   2.504   2.512
    1PA     H5S 8613   1.741   2.338   2.535
    1PA     C14 8614   1.624   2.489   2.631
    1PA     H4R 8615   1.562   2.502   2.542
    1PA     H4S 8616   1.575   2.413   2.693
    1PA     C13 8617   1.636   2.623   2.705
    1PA     H3R 8618   1.656   2.601   2.810
    1PA     H3S 8619   1.717   2.687   2.670
    1PA     C12 8620   1.502   2.696   2.686
    1PA     H2R 8621   1.421   2.623   2.686
    1PA     H2S 8622   1.479   2.754   2.776
    2PC     C11 8623   1.511   2.788   2.567
    2PC     O12 8624   1.438   2.783   2.470
    2PC     O11 8625   1.612   2.877   2.570
    2PC      C1 8626   1.638   2.960   2.456
    2PC      HR 8627   1.733   3.007   2.482
    2PC      HS 8628   1.654   2.893   2.372
    2PC      C2 8629   1.524   3.061   2.429
    2PC      HX 8630   1.430   3.006   2.438
    2PC      C3 8631   1.523   3.111   2.284
    2PC      HA 8632   1.436   3.175   2.265
    2PC      HB 8633   1.519   3.024   2.219
    2PC     O31 8634   1.651   3.172   2.260
    2PC     P31 8635   1.692   3.194   2.107
    2PC     O32 8636   1.813   3.294   2.142
    2PC     C31 8637   1.788   3.431   2.177
    2PC     H1A 8638   1.882   3.480   2.149
    2PC     H1B 8639   1.703   3.468   2.119
    2PC     C32 8640   1.774   3.435   2.329
    2PC     H2A 8641   1.745   3.538   2.350
    2PC     H2B 8642   1.688   3.374   2.361
    2PC     N31 8643   1.889   3.409   2.421
    2PC     C33 8644   1.929   3.265   2.424
    2PC     H3A 8645   1.970   3.227   2.330
    2PC     H3B 8646   2.000   3.245   2.505
    2PC     H3C 8647   1.837   3.206   2.428
    2PC     C34 8648   2.003   3.502   2.391
    2PC     H4A 8649   2.019   3.513   2.284
    2PC     H4B 8650   1.974   3.601   2.427
    2PC     H4C 8651   2.089   3.469   2.449
    2PC     C35 8652   1.839   3.436   2.560
    2PC     H5A 8653   1.850   3.542   2.579
    2PC     H5B 8654   1.898   3.375   2.629
    2PC     H5C 8655   1.735   3.404   2.568
    2PC     O33 8656   1.760   3.072   2.057
    2PC     O34 8657   1.598   3.246   2.005
    2PC     O21 8658   1.522   3.173   2.519
    2PC     C21 8659   1.421   3.260   2.531
    2PC     O22 8660   1.319   3.242   2.466
    3OL     C12 8661   1.429   3.369   2.636
    3OL     H2R 8662   1.369   3.456   2.608
    3OL     H2S 8663   1.534   3.392   2.649
    3OL     C13 8664   1.381   3.321   2.773
    3OL     H3R 8665   1.413   3.393   2.849
    3OL     H3S 8666   1.425   3.223   2.793
    3OL     C14 8667   1.229   3.303   2.789
    3OL     H4R 8668   1.194   3.228   2.717
    3OL     H4S 8669   1.190   3.402   2.764
    3OL     C15 8670   1.195   3.259   2.932
    3OL     H5R 8671   1.270   3.196   2.980
    3OL     H5S 8672   1.099   3.208   2.917
    3OL     C16 8673   1.157   3.382   3.016
    3OL     H6R 8674   1.057   3.413   2.987
    3OL     H6S 8675   1.224   3.468   3.005
    3OL     C17 8676   1.137   3.337   3.161
    3OL     H7R 8677   1.238   3.310   3.194
    3OL     H7S 8678   1.088   3.241   3.180
    3OL     C18 8679   1.095   3.444   3.262
    3OL     H8R 8680   0.991   3.473   3.245
    3OL     H8S 8681   1.148   3.536   3.236
    3OL     C19 8682   1.118   3.409   3.407
    3OL     H9R 8683   1.052   3.335   3.451
    3OL    C110 8684   1.205   3.469   3.488
    3OL    H10R 8685   1.209   3.436   3.591
    3OL    C111 8686   1.296   3.585   3.457
    3OL    H11R 8687   1.329   3.580   3.353
    3OL    H11S 8688   1.382   3.590   3.524
    3OL    C112 8689   1.222   3.720   3.457
    3OL    H12R 8690   1.143   3.717   3.382
    3OL    H12S 8691   1.296   3.795   3.429
    3OL    C113 8692   1.164   3.757   3.595
    3OL    H13R 8693   1.230   3.724   3.675
    3OL    H13S 8694   1.073   3.700   3.610
    3OL    C114 8695   1.121   3.904   3.605
    3OL    H14R 8696   1.062   3.927   3.517
    3OL    H14S 8697   1.203   3.976   3.598
    3OL    C115 8698   1.029   3.939   3.723
    3OL    H15R 8699   0.948   3.866   3.725
    3OL    H15S 8700   0.993   4.040   3.706
    3OL    C116 8701   1.097   3.933   3.860
    3OL    H16R 8702   1.166   4.018   3.860
    3OL    H16S 8703   1.152   3.839   3.863
    3OL    C117 8704   0.998   3.959   3.974
    3OL    H17R 8705   0.913   3.890   3.975
    3OL    H17S 8706   0.954   4.055   3.945
    3OL    C118 8707   1.068   3.948   4.111
    3OL    H18R 8708   1.099   3.844   4.120
    3OL    H18S 8709   1.010   3.955   4.203
    3OL    H18T 8710   1.161   4.004   4.121
    1PA    C116 8711   2.602   2.380   3.847
    1PA    H16R 8712   2.548   2.285   3.840
    1PA    H16S 8713   2.575   2.423   3.943
    1PA    H16T 8714   2.709   2.360   3.836
    1PA    C115 8715   2.566   2.474   3.731
    1PA    H15R 8716   2.458   2.489   3.729
    1PA    H15S 8717   2.607   2.574   3.745
    1PA    C114 8718   2.621   2.436   3.593
    1PA    H14R 8719   2.728   2.418   3.597
    1PA    H14S 8720   2.579   2.336   3.575
    1PA    C113 8721   2.597   2.535   3.478
    1PA    H13R 8722   2.489   2.543   3.464
    1PA    H13S 8723   2.628   2.635   3.508
    1PA    C112 8724   2.677   2.490   3.355
    1PA    H12R 8725   2.784   2.495   3.378
    1PA    H12S 8726   2.649   2.386   3.342
    1PA    C111 8727   2.650   2.560   3.221
    1PA    H11R 8728   2.542   2.543   3.216
    1PA    H11S 8729   2.663   2.667   3.237
    1PA    C110 8730   2.718   2.498   3.098
    1PA    H10R 8731   2.826   2.487   3.107
    1PA    H10S 8732   2.680   2.396   3.100
    1PA     C19 8733   2.682   2.562   2.963
    1PA     H9R 8734   2.578   2.546   2.936
    1PA     H9S 8735   2.698   2.670   2.966
    1PA     C18 8736   2.769   2.494   2.857
    1PA     H8R 8737   2.874   2.520   2.871
    1PA     H8S 8738   2.769   2.386   2.873
    1PA     C17 8739   2.722   2.537   2.717
    1PA     H7R 8740   2.614   2.531   2.710
    1PA     H7S 8741   2.755   2.641   2.713
    1PA     C16 8742   2.804   2.462   2.611
    1PA     H6R 8743   2.813   2.515   2.515
    1PA     H6S 8744   2.910   2.461   2.636
    1PA     C15 8745   2.744   2.324   2.580
    1PA     H5R 8746   2.760   2.253   2.662
    1PA     H5S 8747   2.636   2.336   2.568
    1PA     C14 8748   2.800   2.253   2.456
    1PA     H4R 8749   2.908   2.243   2.467
    1PA     H4S 8750   2.769   2.148   2.466
    1PA     C13 8751   2.764   2.312   2.320
    1PA     H3R 8752   2.759   2.223   2.256
    1PA     H3S 8753   2.665   2.356   2.331
    1PA     C12 8754   2.863   2.412   2.258
    1PA     H2R 8755   2.887   2.488   2.332
    1PA     H2S 8756   2.960   2.378   2.221
    2PC     C11 8757   2.807   2.487   2.140
    2PC     O12 8758   2.754   2.422   2.052
    2PC     O11 8759   2.817   2.621   2.136
    2PC      C1 8760   2.772   2.687   2.017
    2PC      HR 8761   2.829   2.780   2.008
    2PC      HS 8762   2.776   2.632   1.922
    2PC      C2 8763   2.625   2.718   2.050
    2PC      HX 8764   2.577   2.627   2.085
    2PC      C3 8765   2.563   2.770   1.919
    2PC      HA 8766   2.555   2.684   1.851
    2PC      HB 8767   2.464   2.814   1.932
    2PC     O31 8768   2.644   2.880   1.874
    2PC     P31 8769   2.634   2.924   1.720
    2PC     O32 8770   2.766   3.010   1.689
    2PC     C31 8771   2.790   3.071   1.561
    2PC     H1A 8772   2.890   3.113   1.551
    2PC     H1B 8773   2.789   2.986   1.492
    2PC     C32 8774   2.689   3.183   1.532
    2PC     H2A 8775   2.588   3.142   1.542
    2PC     H2B 8776   2.689   3.265   1.604
    2PC     N31 8777   2.691   3.239   1.393
    2PC     C33 8778   2.604   3.361   1.386
    2PC     H3A 8779   2.641   3.445   1.445
    2PC     H3B 8780   2.620   3.397   1.284
    2PC     H3C 8781   2.498   3.338   1.399
    2PC     C34 8782   2.828   3.280   1.348
    2PC     H4A 8783   2.883   3.186   1.347
    2PC     H4B 8784   2.827   3.341   1.258
    2PC     H4C 8785   2.868   3.336   1.433
    2PC     C35 8786   2.631   3.133   1.306
    2PC     H5A 8787   2.527   3.116   1.337
    2PC     H5B 8788   2.685   3.039   1.319
    2PC     H5C 8789   2.634   3.174   1.205
    2PC     O33 8790   2.633   2.811   1.625
    2PC     O34 8791   2.515   3.008   1.692
    2PC     O21 8792   2.605   2.823   2.146
    2PC     C21 8793   2.634   2.813   2.276
    2PC     O22 8794   2.654   2.712   2.340
    3OL     C12 8795   2.637   2.949   2.341
    3OL     H2R 8796   2.565   3.022   2.302
    3OL     H2S 8797   2.734   2.996   2.324
    3OL     C13 8798   2.626   2.932   2.493
    3OL     H3R 8799   2.711   2.866   2.513
    3OL     H3S 8800   2.537   2.883   2.534
    3OL     C14 8801   2.628   3.066   2.567
    3OL     H4R 8802   2.557   3.140   2.529
    3OL     H4S 8803   2.716   3.118   2.530
    3OL     C15 8804   2.615   3.065   2.720
    3OL     H5R 8805   2.522   3.015   2.746
    3OL     H5S 8806   2.601   3.170   2.748
    3OL     C16 8807   2.729   2.993   2.794
    3OL     H6R 8808   2.756   2.899   2.747
    3OL     H6S 8809   2.686   2.972   2.892
    3OL     C17 8810   2.851   3.083   2.815
    3OL     H7R 8811   2.820   3.130   2.909
    3OL     H7S 8812   2.861   3.158   2.737
    3OL     C18 8813   2.978   3.004   2.848
    3OL     H8R 8814   3.053   3.077   2.880
    3OL     H8S 8815   3.017   2.971   2.751
    3OL     C19 8816   2.973   2.885   2.940
    3OL     H9R 8817   2.935   2.792   2.898
    3OL    C110 8818   3.039   2.875   3.054
    3OL    H10R 8819   3.039   2.776   3.098
    3OL    C111 8820   3.093   2.984   3.143
    3OL    H11R 8821   3.058   2.979   3.246
    3OL    H11S 8822   3.066   3.086   3.114
    3OL    C112 8823   3.247   2.989   3.138
    3OL    H12R 8824   3.286   3.031   3.045
    3OL    H12S 8825   3.284   2.887   3.149
    3OL    C113 8826   3.302   3.069   3.257
    3OL    H13R 8827   3.410   3.062   3.271
    3OL    H13S 8828   3.256   3.032   3.349
    3OL    C114 8829   3.273   3.218   3.232
    3OL    H14R 8830   3.169   3.242   3.211
    3OL    H14S 8831   3.327   3.249   3.143
    3OL    C115 8832   3.342   3.302   3.341
    3OL    H15R 8833   3.342   3.405   3.304
    3OL    H15S 8834   3.445   3.267   3.342
    3OL    C116 8835   3.288   3.276   3.482
    3OL    H16R 8836   3.352   3.311   3.563
    3OL    H16S 8837   3.279   3.169   3.502
    3OL    C117 8838   3.156   3.352   3.498
    3OL    H17R 8839   3.092   3.317   3.417
    3OL    H17S 8840   3.163   3.459   3.477
    3OL    C118 8841   3.098   3.323   3.637
    3OL    H18R 8842   3.002   3.373   3.630
    3OL    H18S 8843   3.154   3.364   3.721
    3OL    H18T 8844   3.068   3.220   3.660
    1PA    C116 8845   2.913   4.011   3.338
    1PA    H16R 8846   2.878   4.076   3.257
    1PA    H16S 8847   3.013   4.042   3.369
    1PA    H16T 8848   2.843   4.023   3.421
    1PA    C115 8849   2.911   3.863   3.297
    1PA    H15R 8850   2.808   3.832   3.279
    1PA    H15S 8851   2.961   3.862   3.200
    1PA    C114 8852   2.957   3.777   3.415
    1PA    H14R 8853   2.911   3.813   3.507
    1PA    H14S 8854   2.931   3.671   3.408
    1PA    C113 8855   3.110   3.770   3.422
    1PA    H13R 8856   3.148   3.872   3.429
    1PA    H13S 8857   3.143   3.705   3.504
    1PA    C112 8858   3.181   3.716   3.297
    1PA    H12R 8859   3.150   3.613   3.280
    1PA    H12S 8860   3.158   3.770   3.205
    1PA    C111 8861   3.334   3.700   3.306
    1PA    H11R 8862   3.350   3.662   3.407
    1PA    H11S 8863   3.369   3.620   3.241
    1PA    C110 8864   3.411   3.829   3.275
    1PA    H10R 8865   3.382   3.865   3.175
    1PA    H10S 8866   3.377   3.898   3.353
    1PA     C19 8867   3.564   3.818   3.281
    1PA     H9R 8868   3.594   3.814   3.385
    1PA     H9S 8869   3.604   3.734   3.223
    1PA     C18 8870   3.621   3.943   3.212
    1PA     H8R 8871   3.566   4.030   3.247
    1PA     H8S 8872   3.723   3.952   3.250
    1PA     C17 8873   3.622   3.939   3.059
    1PA     H7R 8874   3.693   3.864   3.024
    1PA     H7S 8875   3.527   3.910   3.013
    1PA     C16 8876   3.663   4.075   3.002
    1PA     H6R 8877   3.567   4.126   3.006
    1PA     H6S 8878   3.731   4.134   3.065
    1PA     C15 8879   3.708   4.064   2.855
    1PA     H5R 8880   3.793   4.132   2.842
    1PA     H5S 8881   3.740   3.962   2.835
    1PA     C14 8882   3.601   4.112   2.757
    1PA     H4R 8883   3.511   4.050   2.763
    1PA     H4S 8884   3.578   4.218   2.770
    1PA     C13 8885   3.663   4.092   2.618
    1PA     H3R 8886   3.760   4.136   2.599
    1PA     H3S 8887   3.686   3.985   2.612
    1PA     C12 8888   3.567   4.145   2.511
    1PA     H2R 8889   3.471   4.095   2.526
    1PA     H2S 8890   3.536   4.245   2.541
    2PC     C11 8891   3.618   4.139   2.369
    2PC     O12 8892   3.728   4.169   2.329
    2PC     O11 8893   3.518   4.105   2.285
    2PC      C1 8894   3.526   4.101   2.142
    2PC      HR 8895   3.427   4.086   2.098
    2PC      HS 8896   3.580   4.192   2.114
    2PC      C2 8897   3.626   3.993   2.099
    2PC      HX 8898   3.723   4.014   2.145
    2PC      C3 8899   3.629   3.989   1.946
    2PC      HA 8900   3.665   4.088   1.916
    2PC      HB 8901   3.691   3.911   1.900
    2PC     O31 8902   3.494   3.955   1.909
    2PC     P31 8903   3.446   3.963   1.757
    2PC     O32 8904   3.569   3.893   1.681
    2PC     C31 8905   3.577   3.750   1.676
    2PC     H1A 8906   3.579   3.716   1.780
    2PC     H1B 8907   3.495   3.705   1.620
    2PC     C32 8908   3.714   3.726   1.610
    2PC     H2A 8909   3.790   3.803   1.627
    2PC     H2B 8910   3.753   3.634   1.651
    2PC     N31 8911   3.713   3.708   1.461
    2PC     C33 8912   3.857   3.696   1.423
    2PC     H3A 8913   3.910   3.786   1.453
    2PC     H3B 8914   3.894   3.609   1.477
    2PC     H3C 8915   3.860   3.675   1.316
    2PC     C34 8916   3.651   3.574   1.438
    2PC     H4A 8917   3.542   3.583   1.448
    2PC     H4B 8918   3.672   3.544   1.335
    2PC     H4C 8919   3.693   3.494   1.499
    2PC     C35 8920   3.642   3.811   1.378
    2PC     H5A 8921   3.707   3.898   1.386
    2PC     H5B 8922   3.544   3.828   1.423
    2PC     H5C 8923   3.631   3.771   1.277
    2PC     O33 8924   3.334   3.868   1.768
    2PC     O34 8925   3.401   4.093   1.702
    2PC     O21 8926   3.576   3.863   2.134
    2PC     C21 8927   3.625   3.808   2.246
    2PC     O22 8928   3.710   3.862   2.315
    3OL     C12 8929   3.555   3.678   2.278
    3OL     H2R 8930   3.623   3.619   2.340
    3OL     H2S 8931   3.539   3.639   2.177
    3OL     C13 8932   3.414   3.696   2.334
    3OL     H3R 8933   3.367   3.597   2.334
    3OL     H3S 8934   3.355   3.771   2.281
    3OL     C14 8935   3.418   3.728   2.484
    3OL     H4R 8936   3.497   3.798   2.512
    3OL     H4S 8937   3.443   3.633   2.531
    3OL     C15 8938   3.280   3.770   2.535
    3OL     H5R 8939   3.199   3.707   2.497
    3OL     H5S 8940   3.260   3.871   2.498
    3OL     C16 8941   3.275   3.768   2.688
    3OL     H6R 8942   3.359   3.823   2.732
    3OL     H6S 8943   3.274   3.665   2.725
    3OL     C17 8944   3.139   3.819   2.739
    3OL     H7R 8945   3.061   3.743   2.729
    3OL     H7S 8946   3.114   3.902   2.672
    3OL     C18 8947   3.157   3.866   2.884
    3OL     H8R 8948   3.242   3.933   2.892
    3OL     H8S 8949   3.201   3.785   2.942
    3OL     C19 8950   3.034   3.911   2.958
    3OL     H9R 8951   2.955   3.842   2.988
    3OL    C110 8952   3.004   4.038   2.979
    3OL    H10R 8953   2.908   4.064   3.023
    3OL    C111 8954   3.087   4.159   2.943
    3OL    H11R 8955   3.026   4.235   2.892
    3OL    H11S 8956   3.168   4.141   2.873
    3OL    C112 8957   3.138   4.227   3.070
    3OL    H12R 8958   3.053   4.245   3.135
    3OL    H12S 8959   3.192   4.316   3.034
    3OL    C113 8960   3.243   4.139   3.140
    3OL    H13R 8961   3.327   4.137   3.071
    3OL    H13S 8962   3.198   4.040   3.147
    3OL    C114 8963   3.283   4.195   3.277
    3OL    H14R 8964   3.331   4.118   3.337
    3OL    H14S 8965   3.201   4.254   3.318
    3OL    C115 8966   3.396   4.298   3.260
    3OL    H15R 8967   3.374   4.357   3.170
    3OL    H15S 8968   3.493   4.255   3.237
    3OL    C116 8969   3.409   4.400   3.374
    3OL    H16R 8970   3.309   4.438   3.394
    3OL    H16S 8971   3.463   4.487   3.339
    3OL    C117 8972   3.465   4.346   3.507
    3OL    H17R 8973   3.407   4.264   3.549
    3OL    H17S 8974   3.473   4.431   3.575
    3OL    C118 8975   3.608   4.293   3.491
    3OL    H18R 8976   3.622   4.202   3.432
    3OL    H18S 8977   3.644   4.277   3.593
    3OL    H18T 8978   3.662   4.375   3.443
    1PA    C116 8979   2.697   2.920   4.419
    1PA    H16R 8980   2.599   2.875   4.400
    1PA    H16S 8981   2.688   3.025   4.448
    1PA    H16T 8982   2.736   2.863   4.504
    1PA    C115 8983   2.791   2.920   4.298
    1PA    H15R 8984   2.894   2.954   4.312
    1PA    H15S 8985   2.807   2.815   4.271
    1PA    C114 8986   2.728   3.001   4.184
    1PA    H14R 8987   2.708   3.099   4.230
    1PA    H14S 8988   2.790   3.000   4.095
    1PA    C113 8989   2.599   2.937   4.131
    1PA    H13R 8990   2.631   2.838   4.100
    1PA    H13S 8991   2.525   2.925   4.211
    1PA    C112 8992   2.541   3.019   4.014
    1PA    H12R 8993   2.497   3.104   4.066
    1PA    H12S 8994   2.617   3.073   3.958
    1PA    C111 8995   2.429   2.952   3.933
    1PA    H11R 8996   2.358   2.897   3.994
    1PA    H11S 8997   2.379   3.041   3.894
    1PA    C110 8998   2.501   2.870   3.825
    1PA    H10R 8999   2.598   2.843   3.867
    1PA    H10S 9000   2.447   2.778   3.802
    1PA     C19 9001   2.514   2.943   3.691
    1PA     H9R 9002   2.517   3.051   3.711
    1PA     H9S 9003   2.608   2.915   3.643
    1PA     C18 9004   2.388   2.916   3.607
    1PA     H8R 9005   2.386   2.809   3.590
    1PA     H8S 9006   2.305   2.951   3.668
    1PA     C17 9007   2.381   2.991   3.473
    1PA     H7R 9008   2.289   2.959   3.424
    1PA     H7S 9009   2.372   3.099   3.482
    1PA     C16 9010   2.494   2.944   3.381
    1PA     H6R 9011   2.596   2.974   3.408
    1PA     H6S 9012   2.498   2.835   3.378
    1PA     C15 9013   2.481   2.992   3.235
    1PA     H5R 9014   2.491   3.100   3.223
    1PA     H5S 9015   2.569   2.949   3.188
    1PA     C14 9016   2.353   2.940   3.168
    1PA     H4R 9017   2.349   2.831   3.175
    1PA     H4S 9018   2.262   2.972   3.218
    1PA     C13 9019   2.354   2.973   3.018
    1PA     H3R 9020   2.370   3.081   3.010
    1PA     H3S 9021   2.434   2.916   2.970
    1PA     C12 9022   2.217   2.935   2.961
    1PA     H2R 9023   2.193   2.829   2.975
    1PA     H2S 9024   2.137   2.985   3.016
    2PC     C11 9025   2.209   2.972   2.815
    2PC     O12 9026   2.176   3.086   2.787
    2PC     O11 9027   2.222   2.861   2.741
    2PC      C1 9028   2.173   2.870   2.606
    2PC      HR 9029   2.184   2.973   2.572
    2PC      HS 9030   2.234   2.804   2.543
    2PC      C2 9031   2.027   2.825   2.591
    2PC      HX 9032   2.014   2.723   2.628
    2PC      C3 9033   2.004   2.832   2.439
    2PC      HA 9034   1.917   2.892   2.412
    2PC      HB 9035   2.089   2.865   2.380
    2PC     O31 9036   1.962   2.702   2.392
    2PC     P31 9037   1.914   2.679   2.241
    2PC     O32 9038   1.930   2.525   2.202
    2PC     C31 9039   1.840   2.424   2.249
    2PC     H1A 9040   1.863   2.389   2.350
    2PC     H1B 9041   1.741   2.470   2.252
    2PC     C32 9042   1.843   2.306   2.151
    2PC     H2A 9043   1.928   2.239   2.162
    2PC     H2B 9044   1.751   2.250   2.169
    2PC     N31 9045   1.851   2.324   2.002
    2PC     C33 9046   1.753   2.429   1.960
    2PC     H3A 9047   1.762   2.447   1.852
    2PC     H3B 9048   1.653   2.396   1.987
    2PC     H3C 9049   1.776   2.516   2.021
    2PC     C34 9050   1.990   2.363   1.962
    2PC     H4A 9051   1.998   2.465   2.000
    2PC     H4B 9052   2.063   2.309   2.022
    2PC     H4C 9053   2.004   2.348   1.855
    2PC     C35 9054   1.812   2.195   1.937
    2PC     H5A 9055   1.705   2.179   1.950
    2PC     H5B 9056   1.877   2.113   1.972
    2PC     H5C 9057   1.843   2.213   1.834
    2PC     O33 9058   1.770   2.707   2.224
    2PC     O34 9059   1.989   2.768   2.149
    2PC     O21 9060   1.934   2.913   2.656
    2PC     C21 9061   1.884   2.880   2.777
    2PC     O22 9062   1.909   2.776   2.833
    3OL     C12 9063   1.789   2.979   2.838
    3OL     H2R 9064   1.759   2.934   2.932
    3OL     H2S 9065   1.696   2.971   2.780
    3OL     C13 9066   1.854   3.118   2.852
    3OL     H3R 9067   1.893   3.154   2.756
    3OL     H3S 9068   1.941   3.102   2.916
    3OL     C14 9069   1.749   3.216   2.905
    3OL     H4R 9070   1.680   3.160   2.969
    3OL     H4S 9071   1.689   3.249   2.821
    3OL     C15 9072   1.820   3.331   2.978
    3OL     H5R 9073   1.878   3.390   2.907
    3OL     H5S 9074   1.889   3.289   3.052
    3OL     C16 9075   1.722   3.425   3.049
    3OL     H6R 9076   1.759   3.489   3.130
    3OL     H6S 9077   1.649   3.353   3.088
    3OL     C17 9078   1.669   3.524   2.945
    3OL     H7R 9079   1.635   3.465   2.859
    3OL     H7S 9080   1.747   3.581   2.893
    3OL     C18 9081   1.553   3.610   2.995
    3OL     H8R 9082   1.582   3.658   3.088
    3OL     H8S 9083   1.463   3.555   3.024
    3OL     C19 9084   1.494   3.703   2.891
    3OL     H9R 9085   1.565   3.725   2.812
    3OL    C110 9086   1.371   3.747   2.872
    3OL    H10R 9087   1.353   3.802   2.780
    3OL    C111 9088   1.254   3.735   2.967
    3OL    H11R 9089   1.262   3.660   3.046
    3OL    H11S 9090   1.163   3.714   2.911
    3OL    C112 9091   1.230   3.871   3.035
    3OL    H12R 9092   1.247   3.950   2.961
    3OL    H12S 9093   1.307   3.888   3.110
    3OL    C113 9094   1.090   3.886   3.095
    3OL    H13R 9095   1.073   3.803   3.164
    3OL    H13S 9096   1.011   3.877   3.020
    3OL    C114 9097   1.081   4.018   3.174
    3OL    H14R 9098   1.089   4.103   3.106
    3OL    H14S 9099   1.165   4.026   3.244
    3OL    C115 9100   0.953   4.027   3.257
    3OL    H15R 9101   0.951   3.948   3.332
    3OL    H15S 9102   0.867   4.013   3.191
    3OL    C116 9103   0.938   4.165   3.323
    3OL    H16R 9104   0.910   4.244   3.252
    3OL    H16S 9105   1.031   4.197   3.371
    3OL    C117 9106   0.839   4.162   3.440
    3OL    H17R 9107   0.885   4.115   3.527
    3OL    H17S 9108   0.753   4.103   3.408
    3OL    C118 9109   0.783   4.301   3.471
    3OL    H18R 9110   0.714   4.297   3.556
    3OL    H18S 9111   0.737   4.341   3.381
    3OL    H18T 9112   0.860   4.363   3.516
    1PA    C116 9113   2.669   1.682   3.837
    1PA    H16R 9114   2.777   1.689   3.847
    1PA    H16S 9115   2.633   1.651   3.738
    1PA    H16T 9116   2.625   1.608   3.904
    1PA    C115 9117   2.604   1.820   3.855
    1PA    H15R 9118   2.625   1.860   3.955
    1PA    H15S 9119   2.653   1.892   3.790
    1PA    C114 9120   2.454   1.797   3.835
    1PA    H14R 9121   2.432   1.736   3.747
    1PA    H14S 9122   2.430   1.727   3.915
    1PA    C113 9123   2.375   1.928   3.823
    1PA    H13R 9124   2.271   1.907   3.797
    1PA    H13S 9125   2.371   1.968   3.925
    1PA    C112 9126   2.433   2.031   3.726
    1PA    H12R 9127   2.367   2.117   3.735
    1PA    H12S 9128   2.533   2.074   3.737
    1PA    C111 9129   2.408   1.984   3.582
    1PA    H11R 9130   2.457   1.887   3.566
    1PA    H11S 9131   2.303   1.982   3.551
    1PA    C110 9132   2.472   2.090   3.492
    1PA    H10R 9133   2.404   2.174   3.478
    1PA    H10S 9134   2.569   2.124   3.528
    1PA     C19 9135   2.508   2.024   3.359
    1PA     H9R 9136   2.576   2.092   3.306
    1PA     H9S 9137   2.570   1.937   3.384
    1PA     C18 9138   2.390   2.000   3.264
    1PA     H8R 9139   2.419   1.927   3.189
    1PA     H8S 9140   2.309   1.952   3.319
    1PA     C17 9141   2.340   2.125   3.189
    1PA     H7R 9142   2.304   2.206   3.253
    1PA     H7S 9143   2.433   2.162   3.145
    1PA     C16 9144   2.225   2.086   3.095
    1PA     H6R 9145   2.158   2.014   3.141
    1PA     H6S 9146   2.172   2.180   3.077
    1PA     C15 9147   2.277   2.043   2.957
    1PA     H5R 9148   2.382   2.014   2.966
    1PA     H5S 9149   2.215   1.956   2.934
    1PA     C14 9150   2.258   2.150   2.849
    1PA     H4R 9151   2.150   2.167   2.844
    1PA     H4S 9152   2.325   2.229   2.883
    1PA     C13 9153   2.298   2.100   2.710
    1PA     H3R 9154   2.271   1.997   2.686
    1PA     H3S 9155   2.239   2.154   2.636
    1PA     C12 9156   2.448   2.117   2.681
    1PA     H2R 9157   2.473   2.222   2.667
    1PA     H2S 9158   2.505   2.078   2.765
    2PC     C11 9159   2.496   2.058   2.550
    2PC     O12 9160   2.574   1.967   2.537
    2PC     O11 9161   2.427   2.123   2.454
    2PC      C1 9162   2.468   2.109   2.317
    2PC      HR 9163   2.575   2.129   2.317
    2PC      HS 9164   2.457   2.005   2.286
    2PC      C2 9165   2.392   2.208   2.226
    2PC      HX 9166   2.285   2.186   2.218
    2PC      C3 9167   2.444   2.211   2.082
    2PC      HA 9168   2.528   2.280   2.070
    2PC      HB 9169   2.481   2.108   2.073
    2PC     O31 9170   2.330   2.232   1.998
    2PC     P31 9171   2.299   2.145   1.867
    2PC     O32 9172   2.208   2.252   1.790
    2PC     C31 9173   2.274   2.345   1.702
    2PC     H1A 9174   2.353   2.387   1.765
    2PC     H1B 9175   2.314   2.297   1.613
    2PC     C32 9176   2.176   2.453   1.654
    2PC     H2A 9177   2.109   2.404   1.583
    2PC     H2B 9178   2.124   2.482   1.745
    2PC     N31 9179   2.224   2.574   1.581
    2PC     C33 9180   2.114   2.672   1.553
    2PC     H3A 9181   2.156   2.752   1.491
    2PC     H3B 9182   2.035   2.616   1.503
    2PC     H3C 9183   2.080   2.716   1.646
    2PC     C34 9184   2.323   2.647   1.667
    2PC     H4A 9185   2.346   2.738   1.611
    2PC     H4B 9186   2.264   2.669   1.757
    2PC     H4C 9187   2.404   2.575   1.670
    2PC     C35 9188   2.281   2.531   1.449
    2PC     H5A 9189   2.346   2.606   1.405
    2PC     H5B 9190   2.197   2.514   1.381
    2PC     H5C 9191   2.344   2.443   1.464
    2PC     O33 9192   2.408   2.105   1.776
    2PC     O34 9193   2.228   2.022   1.911
    2PC     O21 9194   2.415   2.330   2.298
    2PC     C21 9195   2.311   2.413   2.315
    2PC     O22 9196   2.198   2.374   2.294
    3OL     C12 9197   2.358   2.548   2.365
    3OL     H2R 9198   2.284   2.625   2.342
    3OL     H2S 9199   2.452   2.565   2.313
    3OL     C13 9200   2.400   2.534   2.512
    3OL     H3R 9201   2.474   2.453   2.514
    3OL     H3S 9202   2.459   2.622   2.541
    3OL     C14 9203   2.284   2.510   2.609
    3OL     H4R 9204   2.253   2.408   2.587
    3OL     H4S 9205   2.205   2.585   2.601
    3OL     C15 9206   2.328   2.511   2.756
    3OL     H5R 9207   2.376   2.607   2.775
    3OL     H5S 9208   2.397   2.431   2.782
    3OL     C16 9209   2.215   2.510   2.860
    3OL     H6R 9210   2.162   2.415   2.861
    3OL     H6S 9211   2.139   2.584   2.832
    3OL     C17 9212   2.278   2.550   2.994
    3OL     H7R 9213   2.318   2.651   2.981
    3OL     H7S 9214   2.362   2.480   3.007
    3OL     C18 9215   2.187   2.544   3.117
    3OL     H8R 9216   2.183   2.437   3.137
    3OL     H8S 9217   2.084   2.580   3.111
    3OL     C19 9218   2.242   2.619   3.236
    3OL     H9R 9219   2.349   2.603   3.250
    3OL    C110 9220   2.181   2.692   3.328
    3OL    H10R 9221   2.242   2.737   3.406
    3OL    C111 9222   2.036   2.733   3.325
    3OL    H11R 9223   1.992   2.670   3.248
    3OL    H11S 9224   2.027   2.839   3.301
    3OL    C112 9225   1.972   2.700   3.460
    3OL    H12R 9226   1.990   2.786   3.526
    3OL    H12S 9227   2.010   2.607   3.502
    3OL    C113 9228   1.819   2.682   3.454
    3OL    H13R 9229   1.798   2.597   3.389
    3OL    H13S 9230   1.773   2.765   3.399
    3OL    C114 9231   1.763   2.664   3.595
    3OL    H14R 9232   1.772   2.751   3.661
    3OL    H14S 9233   1.813   2.574   3.633
    3OL    C115 9234   1.612   2.641   3.590
    3OL    H15R 9235   1.572   2.705   3.511
    3OL    H15S 9236   1.568   2.660   3.688
    3OL    C116 9237   1.573   2.496   3.555
    3OL    H16R 9238   1.644   2.454   3.483
    3OL    H16S 9239   1.471   2.492   3.518
    3OL    C117 9240   1.587   2.399   3.673
    3OL    H17R 9241   1.692   2.396   3.703
    3OL    H17S 9242   1.551   2.301   3.640
    3OL    C118 9243   1.503   2.436   3.796
    3OL    H18R 9244   1.402   2.398   3.779
    3OL    H18S 9245   1.496   2.541   3.826
    3OL    H18T 9246   1.542   2.380   3.882
    1PA    C116 9247   1.278   2.209   3.526
    1PA    H16R 9248   1.294   2.309   3.566
    1PA    H16S 9249   1.309   2.139   3.604
    1PA    H16T 9250   1.173   2.189   3.503
    1PA    C115 9251   1.362   2.191   3.399
    1PA    H15R 9252   1.311   2.245   3.318
    1PA    H15S 9253   1.464   2.224   3.419
    1PA    C114 9254   1.372   2.042   3.363
    1PA    H14R 9255   1.424   1.990   3.443
    1PA    H14S 9256   1.272   2.001   3.344
    1PA    C113 9257   1.450   2.031   3.231
    1PA    H13R 9258   1.402   2.070   3.142
    1PA    H13S 9259   1.553   2.067   3.235
    1PA    C112 9260   1.447   1.882   3.196
    1PA    H12R 9261   1.478   1.812   3.275
    1PA    H12S 9262   1.342   1.864   3.173
    1PA    C111 9263   1.532   1.851   3.072
    1PA    H11R 9264   1.513   1.751   3.034
    1PA    H11S 9265   1.495   1.923   2.999
    1PA    C110 9266   1.683   1.869   3.098
    1PA    H10R 9267   1.715   1.973   3.105
    1PA    H10S 9268   1.709   1.818   3.191
    1PA     C19 9269   1.766   1.808   2.985
    1PA     H9R 9270   1.873   1.816   3.006
    1PA     H9S 9271   1.740   1.702   2.983
    1PA     C18 9272   1.734   1.863   2.845
    1PA     H8R 9273   1.630   1.854   2.811
    1PA     H8S 9274   1.742   1.970   2.864
    1PA     C17 9275   1.828   1.814   2.734
    1PA     H7R 9276   1.870   1.717   2.761
    1PA     H7S 9277   1.773   1.792   2.642
    1PA     C16 9278   1.928   1.927   2.709
    1PA     H6R 9279   1.872   2.020   2.704
    1PA     H6S 9280   2.004   1.932   2.788
    1PA     C15 9281   2.005   1.916   2.577
    1PA     H5R 9282   1.931   1.926   2.497
    1PA     H5S 9283   2.068   2.005   2.568
    1PA     C14 9284   2.089   1.789   2.557
    1PA     H4R 9285   2.156   1.792   2.643
    1PA     H4S 9286   2.022   1.706   2.582
    1PA     C13 9287   2.156   1.778   2.419
    1PA     H3R 9288   2.075   1.786   2.345
    1PA     H3S 9289   2.234   1.853   2.403
    1PA     C12 9290   2.213   1.636   2.414
    1PA     H2R 9291   2.291   1.628   2.489
    1PA     H2S 9292   2.144   1.558   2.445
    2PC     C11 9293   2.275   1.602   2.281
    2PC     O12 9294   2.283   1.683   2.190
    2PC     O11 9295   2.293   1.470   2.272
    2PC      C1 9296   2.343   1.409   2.151
    2PC      HR 9297   2.350   1.302   2.172
    2PC      HS 9298   2.278   1.420   2.064
    2PC      C2 9299   2.483   1.462   2.118
    2PC      HX 9300   2.494   1.571   2.124
    2PC      C3 9301   2.525   1.450   1.971
    2PC      HA 9302   2.477   1.540   1.931
    2PC      HB 9303   2.631   1.467   1.953
    2PC     O31 9304   2.468   1.333   1.910
    2PC     P31 9305   2.474   1.307   1.752
    2PC     O32 9306   2.482   1.147   1.747
    2PC     C31 9307   2.470   1.092   1.614
    2PC     H1A 9308   2.379   1.136   1.572
    2PC     H1B 9309   2.561   1.125   1.563
    2PC     C32 9310   2.451   0.940   1.621
    2PC     H2A 9311   2.480   0.884   1.532
    2PC     H2B 9312   2.524   0.904   1.694
    2PC     N31 9313   2.325   0.882   1.678
    2PC     C33 9314   2.336   0.733   1.682
    2PC     H3A 9315   2.372   0.696   1.586
    2PC     H3B 9316   2.399   0.714   1.769
    2PC     H3C 9317   2.234   0.698   1.696
    2PC     C34 9318   2.294   0.927   1.818
    2PC     H4A 9319   2.279   1.035   1.821
    2PC     H4B 9320   2.205   0.875   1.853
    2PC     H4C 9321   2.374   0.891   1.882
    2PC     C35 9322   2.210   0.913   1.588
    2PC     H5A 9323   2.121   0.892   1.647
    2PC     H5B 9324   2.207   0.859   1.493
    2PC     H5C 9325   2.208   1.020   1.564
    2PC     O33 9326   2.354   1.354   1.679
    2PC     O34 9327   2.596   1.364   1.689
    2PC     O21 9328   2.586   1.403   2.199
    2PC     C21 9329   2.615   1.460   2.317
    2PC     O22 9330   2.580   1.573   2.345
    3OL     C12 9331   2.683   1.366   2.413
    3OL     H2R 9332   2.779   1.366   2.362
    3OL     H2S 9333   2.630   1.270   2.405
    3OL     C13 9334   2.691   1.426   2.554
    3OL     H3R 9335   2.745   1.521   2.546
    3OL     H3S 9336   2.759   1.368   2.616
    3OL     C14 9337   2.559   1.438   2.631
    3OL     H4R 9338   2.515   1.346   2.669
    3OL     H4S 9339   2.486   1.470   2.557
    3OL     C15 9340   2.578   1.543   2.742
    3OL     H5R 9341   2.604   1.634   2.689
    3OL     H5S 9342   2.669   1.529   2.802
    3OL     C16 9343   2.446   1.557   2.818
    3OL     H6R 9344   2.421   1.462   2.866
    3OL     H6S 9345   2.365   1.578   2.748
    3OL     C17 9346   2.450   1.669   2.923
    3OL     H7R 9347   2.471   1.760   2.866
    3OL     H7S 9348   2.533   1.657   2.994
    3OL     C18 9349   2.315   1.691   2.992
    3OL     H8R 9350   2.239   1.706   2.915
    3OL     H8S 9351   2.312   1.783   3.051
    3OL     C19 9352   2.280   1.568   3.071
    3OL     H9R 9353   2.303   1.474   3.022
    3OL    C110 9354   2.225   1.567   3.192
    3OL    H10R 9355   2.211   1.472   3.242
    3OL    C111 9356   2.188   1.687   3.276
    3OL    H11R 9357   2.147   1.767   3.214
    3OL    H11S 9358   2.274   1.715   3.337
    3OL    C112 9359   2.071   1.654   3.370
    3OL    H12R 9360   2.109   1.570   3.429
    3OL    H12S 9361   1.980   1.624   3.319
    3OL    C113 9362   2.023   1.770   3.458
    3OL    H13R 9363   1.990   1.847   3.388
    3OL    H13S 9364   2.106   1.810   3.517
    3OL    C114 9365   1.902   1.728   3.541
    3OL    H14R 9366   1.943   1.644   3.598
    3OL    H14S 9367   1.822   1.684   3.481
    3OL    C115 9368   1.863   1.847   3.629
    3OL    H15R 9369   1.839   1.926   3.558
    3OL    H15S 9370   1.937   1.887   3.699
    3OL    C116 9371   1.735   1.814   3.708
    3OL    H16R 9372   1.763   1.740   3.783
    3OL    H16S 9373   1.659   1.767   3.645
    3OL    C117 9374   1.678   1.927   3.793
    3OL    H17R 9375   1.747   1.965   3.869
    3OL    H17S 9376   1.601   1.869   3.845
    3OL    C118 9377   1.609   2.037   3.711
    3OL    H18R 9378   1.679   2.105   3.662
    3OL    H18S 9379   1.533   2.092   3.765
    3OL    H18T 9380   1.552   1.992   3.629
    1PA    C116 9381   3.994   2.223   3.791
    1PA    H16R 9382   3.901   2.188   3.746
    1PA    H16S 9383   4.030   2.147   3.860
    1PA    H16T 9384   4.079   2.235   3.723
    1PA    C115 9385   3.969   2.353   3.869
    1PA    H15R 9386   3.899   2.339   3.952
    1PA    H15S 9387   4.065   2.377   3.915
    1PA    C114 9388   3.923   2.455   3.765
    1PA    H14R 9389   3.939   2.553   3.811
    1PA    H14S 9390   4.001   2.453   3.688
    1PA    C113 9391   3.784   2.436   3.703
    1PA    H13R 9392   3.784   2.338   3.656
    1PA    H13S 9393   3.707   2.434   3.780
    1PA    C112 9394   3.749   2.528   3.585
    1PA    H12R 9395   3.816   2.502   3.503
    1PA    H12S 9396   3.649   2.509   3.545
    1PA    C111 9397   3.755   2.678   3.620
    1PA    H11R 9398   3.684   2.704   3.699
    1PA    H11S 9399   3.851   2.716   3.656
    1PA    C110 9400   3.714   2.764   3.501
    1PA    H10R 9401   3.625   2.721   3.455
    1PA    H10S 9402   3.673   2.855   3.546
    1PA     C19 9403   3.812   2.804   3.390
    1PA     H9R 9404   3.901   2.846   3.436
    1PA     H9S 9405   3.842   2.713   3.336
    1PA     C18 9406   3.751   2.912   3.300
    1PA     H8R 9407   3.654   2.887   3.256
    1PA     H8S 9408   3.735   2.999   3.364
    1PA     C17 9409   3.846   2.970   3.195
    1PA     H7R 9410   3.944   2.982   3.243
    1PA     H7S 9411   3.856   2.898   3.113
    1PA     C16 9412   3.797   3.109   3.153
    1PA     H6R 9413   3.752   3.167   3.234
    1PA     H6S 9414   3.887   3.158   3.116
    1PA     C15 9415   3.702   3.097   3.033
    1PA     H5R 9416   3.618   3.029   3.046
    1PA     H5S 9417   3.648   3.189   3.010
    1PA     C14 9418   3.780   3.062   2.906
    1PA     H4R 9419   3.860   3.136   2.899
    1PA     H4S 9420   3.826   2.963   2.908
    1PA     C13 9421   3.693   3.058   2.780
    1PA     H3R 9422   3.641   2.962   2.769
    1PA     H3S 9423   3.626   3.144   2.777
    1PA     C12 9424   3.792   3.087   2.666
    1PA     H2R 9425   3.845   3.175   2.700
    1PA     H2S 9426   3.863   3.004   2.657
    2PC     C11 9427   3.722   3.114   2.535
    2PC     O12 9428   3.738   3.045   2.436
    2PC     O11 9429   3.638   3.218   2.541
    2PC      C1 9430   3.586   3.279   2.422
    2PC      HR 9431   3.537   3.374   2.449
    2PC      HS 9432   3.670   3.293   2.354
    2PC      C2 9433   3.474   3.188   2.369
    2PC      HX 9434   3.521   3.090   2.358
    2PC      C3 9435   3.425   3.228   2.229
    2PC      HA 9436   3.407   3.336   2.227
    2PC      HB 9437   3.495   3.215   2.147
    2PC     O31 9438   3.302   3.160   2.199
    2PC     P31 9439   3.250   3.176   2.048
    2PC     O32 9440   3.090   3.166   2.063
    2PC     C31 9441   3.026   3.070   1.977
    2PC     H1A 9442   3.038   3.105   1.875
    2PC     H1B 9443   3.072   2.971   1.989
    2PC     C32 9444   2.882   3.052   2.024
    2PC     H2A 9445   2.832   2.984   1.954
    2PC     H2B 9446   2.892   3.015   2.126
    2PC     N31 9447   2.791   3.171   2.029
    2PC     C33 9448   2.648   3.130   2.043
    2PC     H3A 9449   2.599   3.213   2.095
    2PC     H3B 9450   2.620   3.109   1.940
    2PC     H3C 9451   2.638   3.043   2.107
    2PC     C34 9452   2.835   3.260   2.141
    2PC     H4A 9453   2.775   3.352   2.133
    2PC     H4B 9454   2.794   3.230   2.238
    2PC     H4C 9455   2.943   3.274   2.141
    2PC     C35 9456   2.807   3.240   1.897
    2PC     H5A 9457   2.745   3.331   1.893
    2PC     H5B 9458   2.765   3.162   1.834
    2PC     H5C 9459   2.907   3.266   1.862
    2PC     O33 9460   3.280   3.314   2.002
    2PC     O34 9461   3.323   3.082   1.961
    2PC     O21 9462   3.371   3.185   2.470
    2PC     C21 9463   3.298   3.292   2.508
    2PC     O22 9464   3.297   3.399   2.451
    3OL     C12 9465   3.235   3.259   2.640
    3OL     H2R 9466   3.293   3.179   2.686
    3OL     H2S 9467   3.138   3.209   2.629
    3OL     C13 9468   3.227   3.387   2.725
    3OL     H3R 9469   3.153   3.453   2.679
    3OL     H3S 9470   3.327   3.420   2.695
    3OL     C14 9471   3.204   3.373   2.876
    3OL     H4R 9472   3.282   3.432   2.926
    3OL     H4S 9473   3.213   3.271   2.914
    3OL     C15 9474   3.064   3.428   2.904
    3OL     H5R 9475   2.983   3.381   2.848
    3OL     H5S 9476   3.058   3.532   2.874
    3OL     C16 9477   3.014   3.391   3.045
    3OL     H6R 9478   3.087   3.430   3.117
    3OL     H6S 9479   3.014   3.282   3.039
    3OL     C17 9480   2.875   3.445   3.079
    3OL     H7R 9481   2.808   3.409   3.001
    3OL     H7S 9482   2.873   3.553   3.068
    3OL     C18 9483   2.842   3.400   3.222
    3OL     H8R 9484   2.908   3.451   3.293
    3OL     H8S 9485   2.872   3.295   3.225
    3OL     C19 9486   2.701   3.425   3.268
    3OL     H9R 9487   2.655   3.495   3.198
    3OL    C110 9488   2.638   3.392   3.380
    3OL    H10R 9489   2.537   3.429   3.396
    3OL    C111 9490   2.686   3.306   3.494
    3OL    H11R 9491   2.793   3.284   3.492
    3OL    H11S 9492   2.629   3.213   3.497
    3OL    C112 9493   2.658   3.379   3.626
    3OL    H12R 9494   2.558   3.422   3.638
    3OL    H12S 9495   2.722   3.468   3.630
    3OL    C113 9496   2.702   3.298   3.748
    3OL    H13R 9497   2.797   3.246   3.730
    3OL    H13S 9498   2.634   3.213   3.755
    3OL    C114 9499   2.710   3.366   3.886
    3OL    H14R 9500   2.784   3.446   3.893
    3OL    H14S 9501   2.750   3.294   3.957
    3OL    C115 9502   2.579   3.430   3.933
    3OL    H15R 9503   2.493   3.363   3.941
    3OL    H15S 9504   2.542   3.491   3.850
    3OL    C116 9505   2.600   3.499   4.069
    3OL    H16R 9506   2.683   3.570   4.075
    3OL    H16S 9507   2.635   3.421   4.137
    3OL    C117 9508   2.469   3.549   4.130
    3OL    H17R 9509   2.384   3.526   4.067
    3OL    H17S 9510   2.467   3.658   4.126
    3OL    C118 9511   2.458   3.496   4.274
    3OL    H18R 9512   2.454   3.387   4.276
    3OL    H18S 9513   2.360   3.523   4.313
    3OL    H18T 9514   2.543   3.526   4.336
    1PA    C116 9515   4.711   1.513   3.459
    1PA    H16R 9516   4.680   1.486   3.358
    1PA    H16S 9517   4.621   1.522   3.522
    1PA    H16T 9518   4.778   1.432   3.487
    1PA    C115 9519   4.790   1.645   3.450
    1PA    H15R 9520   4.831   1.660   3.550
    1PA    H15S 9521   4.876   1.631   3.384
    1PA    C114 9522   4.697   1.757   3.402
    1PA    H14R 9523   4.625   1.770   3.483
    1PA    H14S 9524   4.748   1.854   3.398
    1PA    C113 9525   4.636   1.730   3.264
    1PA    H13R 9526   4.719   1.700   3.200
    1PA    H13S 9527   4.573   1.641   3.273
    1PA    C112 9528   4.565   1.854   3.209
    1PA    H12R 9529   4.491   1.887   3.282
    1PA    H12S 9530   4.641   1.932   3.197
    1PA    C111 9531   4.498   1.838   3.072
    1PA    H11R 9532   4.510   1.930   3.015
    1PA    H11S 9533   4.550   1.764   3.011
    1PA    C110 9534   4.347   1.815   3.082
    1PA    H10R 9535   4.324   1.723   3.135
    1PA    H10S 9536   4.301   1.895   3.142
    1PA     C19 9537   4.288   1.804   2.940
    1PA     H9R 9538   4.333   1.889   2.888
    1PA     H9S 9539   4.324   1.715   2.888
    1PA     C18 9540   4.135   1.812   2.934
    1PA     H8R 9541   4.095   1.722   2.980
    1PA     H8S 9542   4.091   1.878   3.009
    1PA     C17 9543   4.082   1.852   2.796
    1PA     H7R 9544   4.142   1.802   2.720
    1PA     H7S 9545   3.982   1.811   2.786
    1PA     C16 9546   4.081   2.005   2.779
    1PA     H6R 9547   4.004   2.053   2.839
    1PA     H6S 9548   4.176   2.041   2.820
    1PA     C15 9549   4.049   2.046   2.635
    1PA     H5R 9550   3.969   1.980   2.601
    1PA     H5S 9551   4.014   2.150   2.632
    1PA     C14 9552   4.167   2.016   2.541
    1PA     H4R 9553   4.267   2.030   2.581
    1PA     H4S 9554   4.159   1.910   2.514
    1PA     C13 9555   4.150   2.116   2.426
    1PA     H3R 9556   4.042   2.118   2.409
    1PA     H3S 9557   4.181   2.219   2.446
    1PA     C12 9558   4.220   2.072   2.297
    1PA     H2R 9559   4.327   2.060   2.316
    1PA     H2S 9560   4.179   1.982   2.249
    2PC     C11 9561   4.202   2.169   2.183
    2PC     O12 9562   4.121   2.161   2.093
    2PC     O11 9563   4.282   2.276   2.199
    2PC      C1 9564   4.286   2.376   2.096
    2PC      HR 9565   4.380   2.430   2.111
    2PC      HS 9566   4.296   2.325   2.000
    2PC      C2 9567   4.166   2.472   2.094
    2PC      HX 9568   4.071   2.425   2.124
    2PC      C3 9569   4.149   2.531   1.953
    2PC      HA 9570   4.145   2.446   1.885
    2PC      HB 9571   4.055   2.586   1.943
    2PC     O31 9572   4.264   2.609   1.917
    2PC     P31 9573   4.265   2.682   1.774
    2PC     O32 9574   4.271   2.830   1.834
    2PC     C31 9575   4.149   2.888   1.884
    2PC     H1A 9576   4.078   2.897   1.801
    2PC     H1B 9577   4.105   2.821   1.959
    2PC     C32 9578   4.202   3.014   1.953
    2PC     H2A 9579   4.140   3.047   2.036
    2PC     H2B 9580   4.303   2.990   1.989
    2PC     N31 9581   4.221   3.132   1.864
    2PC     C33 9582   4.304   3.084   1.748
    2PC     H3A 9583   4.254   3.009   1.686
    2PC     H3B 9584   4.333   3.169   1.686
    2PC     H3C 9585   4.400   3.047   1.783
    2PC     C34 9586   4.093   3.195   1.816
    2PC     H4A 9587   4.026   3.213   1.900
    2PC     H4B 9588   4.127   3.286   1.768
    2PC     H4C 9589   4.053   3.120   1.748
    2PC     C35 9590   4.301   3.242   1.928
    2PC     H5A 9591   4.336   3.317   1.857
    2PC     H5B 9592   4.392   3.199   1.971
    2PC     H5C 9593   4.238   3.291   2.002
    2PC     O33 9594   4.387   2.649   1.697
    2PC     O34 9595   4.155   2.644   1.683
    2PC     O21 9596   4.200   2.561   2.201
    2PC     C21 9597   4.104   2.646   2.243
    2PC     O22 9598   3.998   2.660   2.185
    3OL     C12 9599   4.134   2.722   2.370
    3OL     H2R 9600   4.241   2.747   2.375
    3OL     H2S 9601   4.120   2.650   2.450
    3OL     C13 9602   4.062   2.853   2.406
    3OL     H3R 9603   4.084   2.886   2.508
    3OL     H3S 9604   3.957   2.852   2.378
    3OL     C14 9605   4.121   2.971   2.328
    3OL     H4R 9606   4.099   2.954   2.222
    3OL     H4S 9607   4.229   2.978   2.343
    3OL     C15 9608   4.063   3.105   2.376
    3OL     H5R 9609   4.079   3.116   2.483
    3OL     H5S 9610   3.959   3.118   2.344
    3OL     C16 9611   4.151   3.225   2.338
    3OL     H6R 9612   4.144   3.228   2.230
    3OL     H6S 9613   4.249   3.199   2.377
    3OL     C17 9614   4.099   3.359   2.394
    3OL     H7R 9615   4.154   3.443   2.351
    3OL     H7S 9616   4.113   3.375   2.501
    3OL     C18 9617   3.948   3.373   2.372
    3OL     H8R 9618   3.884   3.298   2.421
    3OL     H8S 9619   3.926   3.360   2.266
    3OL     C19 9620   3.916   3.513   2.417
    3OL     H9R 9621   3.950   3.584   2.342
    3OL    C110 9622   3.870   3.562   2.531
    3OL    H10R 9623   3.867   3.669   2.547
    3OL    C111 9624   3.834   3.479   2.652
    3OL    H11R 9625   3.911   3.503   2.725
    3OL    H11S 9626   3.853   3.373   2.630
    3OL    C112 9627   3.697   3.520   2.707
    3OL    H12R 9628   3.619   3.470   2.648
    3OL    H12S 9629   3.681   3.627   2.692
    3OL    C113 9630   3.691   3.481   2.855
    3OL    H13R 9631   3.702   3.375   2.878
    3OL    H13S 9632   3.586   3.488   2.881
    3OL    C114 9633   3.780   3.570   2.943
    3OL    H14R 9634   3.747   3.674   2.950
    3OL    H14S 9635   3.880   3.570   2.899
    3OL    C115 9636   3.778   3.503   3.081
    3OL    H15R 9637   3.815   3.401   3.079
    3OL    H15S 9638   3.676   3.502   3.120
    3OL    C116 9639   3.859   3.594   3.175
    3OL    H16R 9640   3.830   3.698   3.165
    3OL    H16S 9641   3.965   3.599   3.146
    3OL    C117 9642   3.846   3.556   3.323
    3OL    H17R 9643   3.745   3.536   3.359
    3OL    H17S 9644   3.867   3.648   3.378
    3OL    C118 9645   3.918   3.430   3.374
    3OL    H18R 9646   3.873   3.336   3.340
    3OL    H18S 9647   3.902   3.423   3.482
    3OL    H18T 9648   4.021   3.435   3.340
    1PA    C116 9649   1.850   4.986   4.138
    1PA    H16R 9650   1.856   5.085   4.091
    1PA    H16S 9651   1.891   4.993   4.239
    1PA    H16T 9652   1.748   4.949   4.147
    1PA    C115 9653   1.916   4.874   4.056
    1PA    H15R 9654   1.893   4.779   4.104
    1PA    H15S 9655   1.881   4.881   3.953
    1PA    C114 9656   2.068   4.894   4.048
    1PA    H14R 9657   2.087   4.976   3.977
    1PA    H14S 9658   2.121   4.918   4.140
    1PA    C113 9659   2.133   4.763   4.001
    1PA    H13R 9660   2.240   4.766   3.980
    1PA    H13S 9661   2.129   4.685   4.076
    1PA    C112 9662   2.075   4.713   3.868
    1PA    H12R 9663   1.967   4.698   3.879
    1PA    H12S 9664   2.100   4.774   3.781
    1PA    C111 9665   2.131   4.574   3.835
    1PA    H11R 9666   2.239   4.577   3.847
    1PA    H11S 9667   2.091   4.505   3.911
    1PA    C110 9668   2.097   4.529   3.692
    1PA    H10R 9669   1.988   4.532   3.682
    1PA    H10S 9670   2.140   4.601   3.622
    1PA     C19 9671   2.158   4.395   3.648
    1PA     H9R 9672   2.268   4.398   3.653
    1PA     H9S 9673   2.134   4.315   3.718
    1PA     C18 9674   2.115   4.357   3.506
    1PA     H8R 9675   2.145   4.255   3.482
    1PA     H8S 9676   2.006   4.358   3.500
    1PA     C17 9677   2.166   4.456   3.401
    1PA     H7R 9678   2.146   4.557   3.438
    1PA     H7S 9679   2.274   4.442   3.391
    1PA     C16 9680   2.101   4.435   3.263
    1PA     H6R 9681   2.000   4.400   3.285
    1PA     H6S 9682   2.103   4.528   3.207
    1PA     C15 9683   2.183   4.329   3.187
    1PA     H5R 9684   2.285   4.368   3.182
    1PA     H5S 9685   2.183   4.231   3.234
    1PA     C14 9686   2.131   4.314   3.043
    1PA     H4R 9687   2.026   4.284   3.040
    1PA     H4S 9688   2.134   4.410   2.992
    1PA     C13 9689   2.217   4.211   2.969
    1PA     H3R 9690   2.319   4.251   2.969
    1PA     H3S 9691   2.214   4.115   3.022
    1PA     C12 9692   2.166   4.204   2.825
    1PA     H2R 9693   2.069   4.155   2.825
    1PA     H2S 9694   2.139   4.298   2.777
    2PC     C11 9695   2.251   4.116   2.736
    2PC     O12 9696   2.364   4.152   2.707
    2PC     O11 9697   2.193   4.010   2.679
    2PC      C1 9698   2.276   3.919   2.604
    2PC      HR 9699   2.345   3.974   2.539
    2PC      HS 9700   2.341   3.870   2.676
    2PC      C2 9701   2.179   3.829   2.525
    2PC      HX 9702   2.234   3.740   2.493
    2PC      C3 9703   2.116   3.903   2.406
    2PC      HA 9704   2.049   3.980   2.445
    2PC      HB 9705   2.199   3.947   2.349
    2PC     O31 9706   2.050   3.803   2.326
    2PC     P31 9707   1.973   3.855   2.196
    2PC     O32 9708   1.891   3.984   2.244
    2PC     C31 9709   1.880   4.092   2.149
    2PC     H1A 9710   1.976   4.124   2.109
    2PC     H1B 9711   1.819   4.059   2.065
    2PC     C32 9712   1.826   4.218   2.219
    2PC     H2A 9713   1.881   4.236   2.311
    2PC     H2B 9714   1.846   4.310   2.163
    2PC     N31 9715   1.684   4.235   2.263
    2PC     C33 9716   1.649   4.137   2.371
    2PC     H3A 9717   1.728   4.149   2.445
    2PC     H3B 9718   1.549   4.158   2.409
    2PC     H3C 9719   1.660   4.039   2.324
    2PC     C34 9720   1.671   4.374   2.319
    2PC     H4A 9721   1.766   4.400   2.365
    2PC     H4B 9722   1.651   4.441   2.236
    2PC     H4C 9723   1.582   4.363   2.382
    2PC     C35 9724   1.591   4.226   2.146
    2PC     H5A 9725   1.593   4.126   2.104
    2PC     H5B 9726   1.624   4.302   2.075
    2PC     H5C 9727   1.491   4.252   2.182
    2PC     O33 9728   2.073   3.879   2.089
    2PC     O34 9729   1.877   3.758   2.138
    2PC     O21 9730   2.067   3.792   2.607
    2PC     C21 9731   2.087   3.720   2.718
    2PC     O22 9732   2.199   3.684   2.748
    3OL     C12 9733   1.967   3.698   2.807
    3OL     H2R 9734   1.980   3.595   2.841
    3OL     H2S 9735   1.875   3.703   2.750
    3OL     C13 9736   1.960   3.799   2.923
    3OL     H3R 9737   1.866   3.783   2.976
    3OL     H3S 9738   1.964   3.895   2.872
    3OL     C14 9739   2.079   3.787   3.020
    3OL     H4R 9740   2.174   3.801   2.968
    3OL     H4S 9741   2.093   3.689   3.065
    3OL     C15 9742   2.068   3.884   3.138
    3OL     H5R 9743   1.982   3.872   3.204
    3OL     H5S 9744   2.052   3.986   3.101
    3OL     C16 9745   2.196   3.875   3.222
    3OL     H6R 9746   2.284   3.898   3.162
    3OL     H6S 9747   2.204   3.771   3.257
    3OL     C17 9748   2.177   3.967   3.344
    3OL     H7R 9749   2.118   4.054   3.315
    3OL     H7S 9750   2.275   4.008   3.367
    3OL     C18 9751   2.113   3.885   3.457
    3OL     H8R 9752   2.190   3.821   3.500
    3OL     H8S 9753   2.036   3.816   3.423
    3OL     C19 9754   2.067   3.985   3.560
    3OL     H9R 9755   2.146   4.037   3.614
    3OL    C110 9756   1.942   3.997   3.601
    3OL    H10R 9757   1.928   4.061   3.688
    3OL    C111 9758   1.819   3.959   3.522
    3OL    H11R 9759   1.852   3.934   3.420
    3OL    H11S 9760   1.740   4.034   3.516
    3OL    C112 9761   1.740   3.840   3.579
    3OL    H12R 9762   1.812   3.757   3.579
    3OL    H12S 9763   1.661   3.815   3.509
    3OL    C113 9764   1.698   3.868   3.724
    3OL    H13R 9765   1.749   3.955   3.766
    3OL    H13S 9766   1.723   3.780   3.784
    3OL    C114 9767   1.549   3.906   3.724
    3OL    H14R 9768   1.497   3.828   3.668
    3OL    H14S 9769   1.531   4.005   3.682
    3OL    C115 9770   1.503   3.928   3.868
    3OL    H15R 9771   1.420   3.997   3.853
    3OL    H15S 9772   1.584   3.978   3.921
    3OL    C116 9773   1.459   3.801   3.943
    3OL    H16R 9774   1.539   3.726   3.945
    3OL    H16S 9775   1.369   3.757   3.900
    3OL    C117 9776   1.426   3.828   4.090
    3OL    H17R 9777   1.334   3.887   4.095
    3OL    H17S 9778   1.499   3.892   4.140
    3OL    C118 9779   1.415   3.700   4.175
    3OL    H18R 9780   1.387   3.730   4.277
    3OL    H18S 9781   1.515   3.655   4.177
    3OL    H18T 9782   1.336   3.639   4.132
    1PA    C116 9783   1.056   5.193   3.596
    1PA    H16R 9784   0.967   5.231   3.645
    1PA    H16S 9785   1.060   5.084   3.602
    1PA    H16T 9786   1.043   5.228   3.493
    1PA    C115 9787   1.175   5.266   3.661
    1PA    H15R 9788   1.158   5.374   3.662
    1PA    H15S 9789   1.185   5.245   3.768
    1PA    C114 9790   1.312   5.245   3.595
    1PA    H14R 9791   1.304   5.292   3.497
    1PA    H14S 9792   1.388   5.300   3.651
    1PA    C113 9793   1.342   5.098   3.566
    1PA    H13R 9794   1.359   5.059   3.667
    1PA    H13S 9795   1.262   5.049   3.509
    1PA    C112 9796   1.474   5.086   3.488
    1PA    H12R 9797   1.553   5.150   3.528
    1PA    H12S 9798   1.512   4.984   3.504
    1PA    C111 9799   1.451   5.097   3.337
    1PA    H11R 9800   1.378   5.022   3.305
    1PA    H11S 9801   1.392   5.184   3.306
    1PA    C110 9802   1.574   5.074   3.248
    1PA    H10R 9803   1.646   5.151   3.274
    1PA    H10S 9804   1.611   4.973   3.267
    1PA     C19 9805   1.539   5.096   3.100
    1PA     H9R 9806   1.466   5.020   3.072
    1PA     H9S 9807   1.494   5.195   3.086
    1PA     C18 9808   1.662   5.091   3.008
    1PA     H8R 9809   1.731   5.170   3.037
    1PA     H8S 9810   1.715   4.996   3.019
    1PA     C17 9811   1.614   5.104   2.862
    1PA     H7R 9812   1.531   5.034   2.845
    1PA     H7S 9813   1.563   5.198   2.840
    1PA     C16 9814   1.724   5.096   2.756
    1PA     H6R 9815   1.800   5.172   2.774
    1PA     H6S 9816   1.766   4.996   2.761
    1PA     C15 9817   1.656   5.132   2.622
    1PA     H5R 9818   1.582   5.056   2.598
    1PA     H5S 9819   1.615   5.233   2.631
    1PA     C14 9820   1.758   5.128   2.508
    1PA     H4R 9821   1.711   5.191   2.432
    1PA     H4S 9822   1.848   5.178   2.547
    1PA     C13 9823   1.797   4.987   2.461
    1PA     H3R 9824   1.836   4.924   2.542
    1PA     H3S 9825   1.706   4.938   2.425
    1PA     C12 9826   1.905   4.997   2.353
    1PA     H2R 9827   1.989   5.064   2.377
    1PA     H2S 9828   1.944   4.897   2.335
    2PC     C11 9829   1.839   5.026   2.221
    2PC     O12 9830   1.858   5.135   2.169
    2PC     O11 9831   1.738   4.943   2.190
    2PC      C1 9832   1.667   4.966   2.067
    2PC      HR 9833   1.623   5.065   2.076
    2PC      HS 9834   1.736   4.972   1.982
    2PC      C2 9835   1.563   4.856   2.043
    2PC      HX 9836   1.614   4.762   2.065
    2PC      C3 9837   1.519   4.859   1.896
    2PC      HA 9838   1.609   4.864   1.835
    2PC      HB 9839   1.479   4.763   1.861
    2PC     O31 9840   1.433   4.972   1.869
    2PC     P31 9841   1.394   5.014   1.720
    2PC     O32 9842   1.269   4.917   1.691
    2PC     C31 9843   1.165   4.961   1.602
    2PC     H1A 9844   1.132   5.057   1.643
    2PC     H1B 9845   1.206   4.971   1.502
    2PC     C32 9846   1.056   4.853   1.605
    2PC     H2A 9847   1.026   4.832   1.708
    2PC     H2B 9848   0.972   4.889   1.545
    2PC     N31 9849   1.090   4.717   1.553
    2PC     C33 9850   1.172   4.644   1.655
    2PC     H3A 9851   1.112   4.629   1.745
    2PC     H3B 9852   1.204   4.544   1.624
    2PC     H3C 9853   1.264   4.693   1.688
    2PC     C34 9854   0.966   4.639   1.523
    2PC     H4A 9855   0.892   4.697   1.466
    2PC     H4B 9856   0.983   4.551   1.460
    2PC     H4C 9857   0.916   4.614   1.617
    2PC     C35 9858   1.176   4.718   1.430
    2PC     H5A 9859   1.129   4.771   1.348
    2PC     H5B 9860   1.195   4.619   1.387
    2PC     H5C 9861   1.269   4.768   1.459
    2PC     O33 9862   1.368   5.158   1.697
    2PC     O34 9863   1.503   4.992   1.623
    2PC     O21 9864   1.452   4.866   2.134
    2PC     C21 9865   1.471   4.852   2.267
    2PC     O22 9866   1.548   4.770   2.312
    3OL     C12 9867   1.382   4.940   2.351
    3OL     H2R 9868   1.294   4.968   2.293
    3OL     H2S 9869   1.441   5.030   2.363
    3OL     C13 9870   1.348   4.877   2.487
    3OL     H3R 9871   1.437   4.874   2.550
    3OL     H3S 9872   1.316   4.772   2.482
    3OL     C14 9873   1.238   4.961   2.553
    3OL     H4R 9874   1.160   4.973   2.478
    3OL     H4S 9875   1.258   5.060   2.593
    3OL     C15 9876   1.184   4.879   2.671
    3OL     H5R 9877   1.135   4.789   2.635
    3OL     H5S 9878   1.110   4.937   2.726
    3OL     C16 9879   1.292   4.832   2.770
    3OL     H6R 9880   1.347   4.916   2.811
    3OL     H6S 9881   1.369   4.771   2.723
    3OL     C17 9882   1.237   4.735   2.876
    3OL     H7R 9883   1.214   4.647   2.817
    3OL     H7S 9884   1.151   4.791   2.914
    3OL     C18 9885   1.340   4.688   2.980
    3OL     H8R 9886   1.395   4.770   3.026
    3OL     H8S 9887   1.416   4.624   2.936
    3OL     C19 9888   1.288   4.599   3.090
    3OL     H9R 9889   1.203   4.538   3.060
    3OL    C110 9890   1.333   4.587   3.214
    3OL    H10R 9891   1.300   4.512   3.286
    3OL    C111 9892   1.454   4.650   3.277
    3OL    H11R 9893   1.419   4.712   3.360
    3OL    H11S 9894   1.507   4.709   3.202
    3OL    C112 9895   1.538   4.535   3.333
    3OL    H12R 9896   1.489   4.485   3.417
    3OL    H12S 9897   1.630   4.577   3.374
    3OL    C113 9898   1.577   4.417   3.242
    3OL    H13R 9899   1.622   4.454   3.150
    3OL    H13S 9900   1.489   4.363   3.207
    3OL    C114 9901   1.684   4.330   3.309
    3OL    H14R 9902   1.644   4.299   3.406
    3OL    H14S 9903   1.774   4.389   3.327
    3OL    C115 9904   1.718   4.206   3.225
    3OL    H15R 9905   1.803   4.164   3.279
    3OL    H15S 9906   1.747   4.241   3.125
    3OL    C116 9907   1.596   4.113   3.212
    3OL    H16R 9908   1.511   4.167   3.170
    3OL    H16S 9909   1.577   4.078   3.314
    3OL    C117 9910   1.633   3.991   3.127
    3OL    H17R 9911   1.560   3.913   3.146
    3OL    H17S 9912   1.728   3.954   3.166
    3OL    C118 9913   1.644   4.031   2.979
    3OL    H18R 9914   1.558   4.084   2.939
    3OL    H18S 9915   1.650   3.941   2.918
    3OL    H18T 9916   1.727   4.100   2.961
    1PA    C116 9917   2.746   5.813   3.609
    1PA    H16R 9918   2.840   5.834   3.556
    1PA    H16S 9919   2.754   5.724   3.671
    1PA    H16T 9920   2.711   5.891   3.676
    1PA    C115 9921   2.640   5.777   3.504
    1PA    H15R 9922   2.556   5.737   3.561
    1PA    H15S 9923   2.606   5.865   3.448
    1PA    C114 9924   2.689   5.671   3.404
    1PA    H14R 9925   2.782   5.703   3.355
    1PA    H14S 9926   2.709   5.576   3.454
    1PA    C113 9927   2.579   5.656   3.298
    1PA    H13R 9928   2.483   5.630   3.342
    1PA    H13S 9929   2.558   5.749   3.245
    1PA    C112 9930   2.628   5.546   3.203
    1PA    H12R 9931   2.723   5.581   3.160
    1PA    H12S 9932   2.647   5.461   3.269
    1PA    C111 9933   2.539   5.499   3.087
    1PA    H11R 9934   2.439   5.482   3.125
    1PA    H11S 9935   2.533   5.576   3.010
    1PA    C110 9936   2.601   5.376   3.020
    1PA    H10R 9937   2.549   5.360   2.925
    1PA    H10S 9938   2.704   5.392   2.986
    1PA     C19 9939   2.594   5.244   3.098
    1PA     H9R 9940   2.665   5.237   3.181
    1PA     H9S 9941   2.495   5.226   3.141
    1PA     C18 9942   2.638   5.132   3.002
    1PA     H8R 9943   2.732   5.158   2.955
    1PA     H8S 9944   2.657   5.040   3.058
    1PA     C17 9945   2.532   5.090   2.899
    1PA     H7R 9946   2.436   5.081   2.949
    1PA     H7S 9947   2.516   5.163   2.819
    1PA     C16 9948   2.565   4.953   2.836
    1PA     H6R 9949   2.588   4.878   2.911
    1PA     H6S 9950   2.472   4.918   2.791
    1PA     C15 9951   2.665   4.957   2.720
    1PA     H5R 9952   2.616   4.990   2.628
    1PA     H5S 9953   2.746   5.028   2.738
    1PA     C14 9954   2.705   4.810   2.697
    1PA     H4R 9955   2.754   4.780   2.789
    1PA     H4S 9956   2.613   4.753   2.685
    1PA     C13 9957   2.807   4.796   2.583
    1PA     H3R 9958   2.891   4.865   2.583
    1PA     H3S 9959   2.848   4.695   2.593
    1PA     C12 9960   2.735   4.792   2.447
    1PA     H2R 9961   2.644   4.732   2.452
    1PA     H2S 9962   2.711   4.895   2.419
    2PC     C11 9963   2.811   4.738   2.328
    2PC     O12 9964   2.779   4.738   2.211
    2PC     O11 9965   2.927   4.686   2.371
    2PC      C1 9966   3.018   4.640   2.270
    2PC      HR 9967   2.971   4.576   2.195
    2PC      HS 9968   3.074   4.716   2.215
    2PC      C2 9969   3.125   4.553   2.337
    2PC      HX 9970   3.174   4.614   2.413
    2PC      C3 9971   3.221   4.490   2.235
    2PC      HA 9972   3.270   4.566   2.175
    2PC      HB 9973   3.303   4.434   2.281
    2PC     O31 9974   3.139   4.413   2.145
    2PC     P31 9975   3.193   4.356   2.005
    2PC     O32 9976   3.194   4.204   2.057
    2PC     C31 9977   3.082   4.147   2.127
    2PC     H1A 9978   3.114   4.058   2.182
    2PC     H1B 9979   3.052   4.220   2.202
    2PC     C32 9980   2.967   4.106   2.034
    2PC     H2A 9981   2.887   4.071   2.099
    2PC     H2B 9982   2.944   4.191   1.970
    2PC     N31 9983   2.996   3.985   1.951
    2PC     C33 9984   3.097   4.019   1.846
    2PC     H3A 9985   3.088   3.947   1.765
    2PC     H3B 9986   3.079   4.119   1.806
    2PC     H3C 9987   3.194   4.004   1.895
    2PC     C34 9988   3.046   3.866   2.026
    2PC     H4A 9989   3.139   3.893   2.075
    2PC     H4B 9990   2.979   3.841   2.109
    2PC     H4C 9991   3.045   3.777   1.964
    2PC     C35 9992   2.868   3.950   1.882
    2PC     H5A 9993   2.887   3.876   1.805
    2PC     H5B 9994   2.828   4.040   1.833
    2PC     H5C 9995   2.789   3.918   1.950
    2PC     O33 9996   3.092   4.359   1.897
    2PC     O34 9997   3.321   4.414   1.960
    2PC     O21 9998   3.059   4.445   2.406
    2PC     C21 9999   3.128   4.368   2.492
    2PC     O2210000   3.245   4.381   2.520
    3OL     C1210001   3.054   4.255   2.559
    3OL     H2R10002   3.103   4.234   2.654
    3OL     H2S10003   3.083   4.174   2.491
    3OL     C1310004   2.902   4.268   2.570
    3OL     H3R10005   2.856   4.169   2.583
    3OL     H3S10006   2.866   4.297   2.471
    3OL     C1410007   2.856   4.373   2.672
    3OL     H4R10008   2.919   4.461   2.673
    3OL     H4S10009   2.869   4.325   2.770
    3OL     C1510010   2.705   4.401   2.668
    3OL     H5R10011   2.661   4.303   2.648
    3OL     H5S10012   2.677   4.456   2.578
    3OL     C1610013   2.673   4.466   2.803
    3OL     H6R10014   2.736   4.552   2.826
    3OL     H6S10015   2.688   4.399   2.888
    3OL     C1710016   2.524   4.506   2.807
    3OL     H7R10017   2.464   4.425   2.765
    3OL     H7S10018   2.509   4.592   2.742
    3OL     C1810019   2.481   4.542   2.950
    3OL     H8R10020   2.478   4.451   3.009
    3OL     H8S10021   2.383   4.588   2.943
    3OL     C1910022   2.571   4.650   3.005
    3OL     H9R10023   2.644   4.690   2.935
    3OL    C11010024   2.576   4.684   3.133
    3OL    H10R10025   2.650   4.755   3.169
    3OL    C11110026   2.466   4.650   3.230
    3OL    H11R10027   2.513   4.594   3.312
    3OL    H11S10028   2.379   4.604   3.182
    3OL    C11210029   2.404   4.772   3.299
    3OL    H12R10030   2.339   4.727   3.374
    3OL    H12S10031   2.333   4.815   3.228
    3OL    C11310032   2.497   4.883   3.351
    3OL    H13R10033   2.533   4.943   3.267
    3OL    H13S10034   2.584   4.846   3.406
    3OL    C11410035   2.419   4.986   3.434
    3OL    H14R10036   2.363   4.936   3.513
    3OL    H14S10037   2.341   5.031   3.372
    3OL    C11510038   2.519   5.091   3.487
    3OL    H15R10039   2.579   5.126   3.403
    3OL    H15S10040   2.583   5.048   3.564
    3OL    C11610041   2.435   5.205   3.547
    3OL    H16R10042   2.368   5.159   3.621
    3OL    H16S10043   2.376   5.249   3.467
    3OL    C11710044   2.512   5.317   3.619
    3OL    H17R10045   2.584   5.360   3.549
    3OL    H17S10046   2.579   5.267   3.689
    3OL    C11810047   2.422   5.425   3.680
    3OL    H18R10048   2.372   5.489   3.607
    3OL    H18S10049   2.354   5.383   3.753
    3OL    H18T10050   2.486   5.499   3.729
    1PA    C11610051   4.050   2.186   3.351
    1PA    H16R10052   4.059   2.140   3.450
    1PA    H16S10053   4.136   2.150   3.294
    1PA    H16T10054   4.055   2.294   3.367
    1PA    C11510055   3.929   2.135   3.271
    1PA    H15R10056   3.964   2.034   3.247
    1PA    H15S10057   3.835   2.128   3.326
    1PA    C11410058   3.907   2.194   3.131
    1PA    H14R10059   4.000   2.183   3.076
    1PA    H14S10060   3.832   2.134   3.079
    1PA    C11310061   3.862   2.341   3.128
    1PA    H13R10062   3.949   2.401   3.155
    1PA    H13S10063   3.841   2.353   3.022
    1PA    C11210064   3.742   2.372   3.218
    1PA    H12R10065   3.657   2.306   3.199
    1PA    H12S10066   3.765   2.374   3.324
    1PA    C11110067   3.701   2.517   3.189
    1PA    H11R10068   3.643   2.562   3.270
    1PA    H11S10069   3.798   2.566   3.176
    1PA    C11010070   3.609   2.524   3.067
    1PA    H10R10071   3.667   2.506   2.976
    1PA    H10S10072   3.513   2.472   3.071
    1PA     C1910073   3.552   2.664   3.040
    1PA     H9R10074   3.512   2.701   3.135
    1PA     H9S10075   3.621   2.743   3.011
    1PA     C1810076   3.438   2.656   2.938
    1PA     H8R10077   3.367   2.578   2.966
    1PA     H8S10078   3.381   2.748   2.949
    1PA     C1710079   3.471   2.640   2.789
    1PA     H7R10080   3.550   2.707   2.753
    1PA     H7S10081   3.519   2.543   2.776
    1PA     C1610082   3.345   2.649   2.702
    1PA     H6R10083   3.370   2.616   2.601
    1PA     H6S10084   3.271   2.578   2.741
    1PA     C1510085   3.292   2.792   2.706
    1PA     H5R10086   3.242   2.812   2.801
    1PA     H5S10087   3.373   2.865   2.711
    1PA     C1410088   3.197   2.831   2.592
    1PA     H4R10089   3.182   2.936   2.620
    1PA     H4S10090   3.250   2.821   2.496
    1PA     C1310091   3.074   2.740   2.589
    1PA     H3R10092   3.108   2.636   2.583
    1PA     H3S10093   3.021   2.747   2.684
    1PA     C1210094   2.979   2.780   2.475
    1PA     H2R10095   2.902   2.704   2.466
    1PA     H2S10096   2.944   2.882   2.493
    2PC     C1110097   3.033   2.778   2.334
    2PC     O1210098   3.014   2.867   2.254
    2PC     O1110099   3.106   2.671   2.298
    2PC      C110100   3.149   2.662   2.161
    2PC      HR10101   3.174   2.557   2.141
    2PC      HS10102   3.070   2.690   2.092
    2PC      C210103   3.280   2.741   2.150
    2PC      HX10104   3.270   2.840   2.194
    2PC      C310105   3.322   2.772   2.005
    2PC      HA10106   3.242   2.816   1.945
    2PC      HB10107   3.413   2.832   2.007
    2PC     O3110108   3.344   2.643   1.945
    2PC     P3110109   3.372   2.634   1.788
    2PC     O3210110   3.510   2.552   1.788
    2PC     C3110111   3.620   2.634   1.830
    2PC     H1A10112   3.602   2.740   1.812
    2PC     H1B10113   3.609   2.625   1.939
    2PC     C3210114   3.746   2.563   1.778
    2PC     H2A10115   3.830   2.595   1.840
    2PC     H2B10116   3.738   2.456   1.800
    2PC     N3110117   3.794   2.570   1.637
    2PC     C3310118   3.852   2.703   1.597
    2PC     H3A10119   3.880   2.697   1.491
    2PC     H3B10120   3.773   2.773   1.624
    2PC     H3C10121   3.940   2.720   1.659
    2PC     C3410122   3.901   2.467   1.627
    2PC     H4A10123   3.933   2.461   1.523
    2PC     H4B10124   3.990   2.495   1.685
    2PC     H4C10125   3.867   2.375   1.677
    2PC     C3510126   3.687   2.526   1.541
    2PC     H5A10127   3.608   2.601   1.531
    2PC     H5B10128   3.657   2.431   1.584
    2PC     H5C10129   3.732   2.507   1.443
    2PC     O3310130   3.273   2.554   1.713
    2PC     O3410131   3.384   2.759   1.709
    2PC     O2110132   3.384   2.661   2.210
    2PC     C2110133   3.501   2.723   2.230
    2PC     O2210134   3.521   2.842   2.214
    3OL     C1210135   3.597   2.637   2.308
    3OL     H2R10136   3.670   2.589   2.242
    3OL     H2S10137   3.544   2.561   2.365
    3OL     C1310138   3.672   2.726   2.408
    3OL     H3R10139   3.589   2.773   2.462
    3OL     H3S10140   3.734   2.803   2.361
    3OL     C1410141   3.759   2.648   2.506
    3OL     H4R10142   3.840   2.608   2.446
    3OL     H4S10143   3.705   2.561   2.546
    3OL     C1510144   3.815   2.723   2.627
    3OL     H5R10145   3.744   2.794   2.671
    3OL     H5S10146   3.902   2.786   2.606
    3OL     C1610147   3.871   2.625   2.730
    3OL     H6R10148   3.804   2.540   2.749
    3OL     H6S10149   3.883   2.682   2.822
    3OL     C1710150   4.004   2.567   2.678
    3OL     H7R10151   4.075   2.645   2.651
    3OL     H7S10152   3.986   2.510   2.587
    3OL     C1810153   4.063   2.469   2.781
    3OL     H8R10154   4.000   2.380   2.780
    3OL     H8S10155   4.074   2.517   2.879
    3OL     C1910156   4.197   2.427   2.726
    3OL     H9R10157   4.201   2.420   2.617
    3OL    C11010158   4.308   2.402   2.793
    3OL    H10R10159   4.400   2.375   2.742
    3OL    C11110160   4.313   2.402   2.944
    3OL    H11R10161   4.220   2.426   2.995
    3OL    H11S10162   4.380   2.487   2.958
    3OL    C11210163   4.379   2.279   3.008
    3OL    H12R10164   4.478   2.254   2.968
    3OL    H12S10165   4.316   2.191   2.995
    3OL    C11310166   4.384   2.301   3.159
    3OL    H13R10167   4.287   2.326   3.203
    3OL    H13S10168   4.440   2.394   3.161
    3OL    C11410169   4.450   2.196   3.250
    3OL    H14R10170   4.555   2.201   3.221
    3OL    H14S10171   4.402   2.102   3.222
    3OL    C11510172   4.445   2.219   3.402
    3OL    H15R10173   4.345   2.251   3.433
    3OL    H15S10174   4.512   2.299   3.433
    3OL    C11610175   4.484   2.094   3.481
    3OL    H16R10176   4.529   2.129   3.574
    3OL    H16S10177   4.566   2.045   3.427
    3OL    C11710178   4.373   1.992   3.511
    3OL    H17R10179   4.420   1.900   3.544
    3OL    H17S10180   4.316   1.970   3.420
    3OL    C11810181   4.257   2.031   3.604
    3OL    H18R10182   4.284   2.007   3.707
    3OL    H18S10183   4.175   1.969   3.567
    3OL    H18T10184   4.235   2.137   3.588
    1PA    C11610185   1.817   3.163   3.586
    1PA    H16R10186   1.917   3.121   3.581
    1PA    H16S10187   1.780   3.153   3.689
    1PA    H16T10188   1.826   3.269   3.565
    1PA    C11510189   1.716   3.089   3.497
    1PA    H15R10190   1.733   2.982   3.511
    1PA    H15S10191   1.616   3.113   3.533
    1PA    C11410192   1.725   3.142   3.353
    1PA    H14R10193   1.719   3.251   3.349
    1PA    H14S10194   1.814   3.115   3.296
    1PA    C11310195   1.598   3.097   3.281
    1PA    H13R10196   1.517   3.090   3.353
    1PA    H13S10197   1.565   3.166   3.203
    1PA    C11210198   1.615   2.961   3.210
    1PA    H12R10199   1.702   2.981   3.147
    1PA    H12S10200   1.643   2.889   3.287
    1PA    C11110201   1.506   2.907   3.118
    1PA    H11R10202   1.409   2.909   3.168
    1PA    H11S10203   1.490   2.959   3.023
    1PA    C11010204   1.534   2.759   3.087
    1PA    H10R10205   1.472   2.741   2.999
    1PA    H10S10206   1.636   2.744   3.051
    1PA     C1910207   1.501   2.658   3.199
    1PA     H9R10208   1.577   2.657   3.277
    1PA     H9S10209   1.404   2.690   3.238
    1PA     C1810210   1.483   2.512   3.156
    1PA     H8R10211   1.580   2.467   3.173
    1PA     H8S10212   1.429   2.463   3.238
    1PA     C1710213   1.418   2.493   3.018
    1PA     H7R10214   1.322   2.542   3.037
    1PA     H7S10215   1.483   2.534   2.940
    1PA     C1610216   1.370   2.351   2.985
    1PA     H6R10217   1.456   2.285   2.978
    1PA     H6S10218   1.301   2.316   3.062
    1PA     C1510219   1.275   2.357   2.865
    1PA     H5R10220   1.193   2.426   2.890
    1PA     H5S10221   1.335   2.395   2.782
    1PA     C1410222   1.224   2.216   2.831
    1PA     H4R10223   1.182   2.167   2.919
    1PA     H4S10224   1.151   2.242   2.755
    1PA     C1310225   1.335   2.133   2.765
    1PA     H3R10226   1.374   2.190   2.680
    1PA     H3S10227   1.422   2.121   2.830
    1PA     C1210228   1.280   1.999   2.716
    1PA     H2R10229   1.256   1.939   2.804
    1PA     H2S10230   1.189   2.018   2.659
    2PC     C1110231   1.374   1.920   2.627
    2PC     O1210232   1.483   1.964   2.599
    2PC     O1110233   1.327   1.800   2.587
    2PC      C110234   1.380   1.720   2.480
    2PC      HR10235   1.306   1.646   2.446
    2PC      HS10236   1.405   1.786   2.397
    2PC      C210237   1.503   1.641   2.527
    2PC      HX10238   1.583   1.710   2.555
    2PC      C310239   1.562   1.549   2.419
    2PC      HA10240   1.588   1.608   2.331
    2PC      HB10241   1.658   1.502   2.442
    2PC     O3110242   1.464   1.449   2.387
    2PC     P3110243   1.436   1.409   2.235
    2PC     O3210244   1.506   1.266   2.218
    2PC     C3110245   1.648   1.253   2.199
    2PC     H1A10246   1.685   1.335   2.137
    2PC     H1B10247   1.686   1.261   2.301
    2PC     C3210248   1.679   1.118   2.133
    2PC     H2A10249   1.785   1.116   2.107
    2PC     H2B10250   1.662   1.040   2.208
    2PC     N3110251   1.609   1.075   2.007
    2PC     C3310252   1.670   0.944   1.968
    2PC     H3A10253   1.778   0.962   1.966
    2PC     H3B10254   1.647   0.866   2.039
    2PC     H3C10255   1.633   0.922   1.868
    2PC     C3410256   1.462   1.057   2.031
    2PC     H4A10257   1.424   1.016   1.937
    2PC     H4B10258   1.436   0.991   2.114
    2PC     H4C10259   1.420   1.157   2.042
    2PC     C3510260   1.624   1.176   1.897
    2PC     H5A10261   1.724   1.164   1.854
    2PC     H5B10262   1.613   1.275   1.941
    2PC     H5C10263   1.552   1.156   1.818
    2PC     O3310264   1.296   1.389   2.188
    2PC     O3410265   1.490   1.496   2.128
    2PC     O2110266   1.463   1.551   2.632
    2PC     C2110267   1.554   1.486   2.706
    2PC     O2210268   1.674   1.496   2.691
    3OL     C1210269   1.486   1.394   2.803
    3OL     H2R10270   1.559   1.320   2.837
    3OL     H2S10271   1.405   1.339   2.754
    3OL     C1310272   1.445   1.457   2.937
    3OL     H3R10273   1.352   1.509   2.910
    3OL     H3S10274   1.517   1.533   2.967
    3OL     C1410275   1.418   1.359   3.052
    3OL     H4R10276   1.397   1.423   3.137
    3OL     H4S10277   1.498   1.288   3.073
    3OL     C1510278   1.295   1.267   3.042
    3OL     H5R10279   1.318   1.204   2.956
    3OL     H5S10280   1.205   1.327   3.025
    3OL     C1610281   1.276   1.173   3.163
    3OL     H6R10282   1.268   1.230   3.256
    3OL     H6S10283   1.365   1.111   3.174
    3OL     C1710284   1.156   1.082   3.136
    3OL     H7R10285   1.168   0.977   3.165
    3OL     H7S10286   1.138   1.066   3.030
    3OL     C1810287   1.035   1.142   3.209
    3OL     H8R10288   0.945   1.098   3.166
    3OL     H8S10289   1.025   1.248   3.183
    3OL     C1910290   1.046   1.126   3.359
    3OL     H9R10291   1.140   1.165   3.398
    3OL    C11010292   0.957   1.063   3.434
    3OL    H10R10293   0.976   1.026   3.534
    3OL    C11110294   0.828   1.008   3.379
    3OL    H11R10295   0.853   0.920   3.319
    3OL    H11S10296   0.789   1.070   3.298
    3OL    C11210297   0.717   0.974   3.479
    3OL    H12R10298   0.641   0.914   3.430
    3OL    H12S10299   0.669   1.066   3.515
    3OL    C11310300   0.762   0.900   3.606
    3OL    H13R10301   0.684   0.904   3.683
    3OL    H13S10302   0.842   0.961   3.648
    3OL    C11410303   0.813   0.758   3.581
    3OL    H14R10304   0.845   0.753   3.477
    3OL    H14S10305   0.737   0.684   3.609
    3OL    C11510306   0.927   0.710   3.671
    3OL    H15R10307   0.902   0.710   3.777
    3OL    H15S10308   1.003   0.788   3.675
    3OL    C11610309   0.986   0.576   3.624
    3OL    H16R10310   1.087   0.557   3.662
    3OL    H16S10311   0.986   0.587   3.516
    3OL    C11710312   0.900   0.460   3.675
    3OL    H17R10313   0.797   0.477   3.642
    3OL    H17S10314   0.888   0.455   3.783
    3OL    C11810315   0.971   0.331   3.632
    3OL    H18R10316   0.922   0.239   3.667
    3OL    H18S10317   1.079   0.337   3.652
    3OL    H18T10318   0.956   0.321   3.524
    1PA    C11610319   2.795   1.760   3.538
    1PA    H16R10320   2.834   1.685   3.607
    1PA    H16S10321   2.701   1.795   3.581
    1PA    H16T10322   2.871   1.837   3.534
    1PA    C11510323   2.752   1.703   3.402
    1PA    H15R10324   2.718   1.774   3.326
    1PA    H15S10325   2.842   1.657   3.361
    1PA    C11410326   2.640   1.598   3.401
    1PA    H14R10327   2.669   1.515   3.466
    1PA    H14S10328   2.553   1.644   3.449
    1PA    C11310329   2.602   1.552   3.260
    1PA    H13R10330   2.498   1.578   3.243
    1PA    H13S10331   2.662   1.603   3.183
    1PA    C11210332   2.616   1.401   3.236
    1PA    H12R10333   2.720   1.373   3.255
    1PA    H12S10334   2.554   1.355   3.313
    1PA    C11110335   2.573   1.346   3.100
    1PA    H11R10336   2.472   1.376   3.070
    1PA    H11S10337   2.645   1.389   3.030
    1PA    C11010338   2.583   1.193   3.096
    1PA    H10R10339   2.683   1.172   3.134
    1PA    H10S10340   2.497   1.161   3.156
    1PA     C1910341   2.571   1.134   2.954
    1PA     H9R10342   2.463   1.142   2.939
    1PA     H9S10343   2.640   1.192   2.892
    1PA     C1810344   2.614   0.988   2.940
    1PA     H8R10345   2.722   0.982   2.952
    1PA     H8S10346   2.562   0.933   3.019
    1PA     C1710347   2.575   0.937   2.800
    1PA     H7R10348   2.467   0.940   2.782
    1PA     H7S10349   2.616   1.003   2.724
    1PA     C1610350   2.621   0.793   2.772
    1PA     H6R10351   2.726   0.779   2.795
    1PA     H6S10352   2.556   0.733   2.836
    1PA     C1510353   2.601   0.750   2.626
    1PA     H5R10354   2.606   0.844   2.572
    1PA     H5S10355   2.671   0.675   2.589
    1PA     C1410356   2.460   0.690   2.614
    1PA     H4R10357   2.438   0.625   2.700
    1PA     H4S10358   2.388   0.772   2.611
    1PA     C1310359   2.449   0.602   2.489
    1PA     H3R10360   2.469   0.658   2.398
    1PA     H3S10361   2.520   0.519   2.496
    1PA     C1210362   2.305   0.549   2.485
    1PA     H2R10363   2.273   0.500   2.577
    1PA     H2S10364   2.238   0.634   2.473
    2PC     C1110365   2.291   0.451   2.371
    2PC     O1210366   2.245   0.483   2.264
    2PC     O1110367   2.329   0.326   2.403
    2PC      C110368   2.326   0.219   2.306
    2PC      HR10369   2.347   0.125   2.358
    2PC      HS10370   2.225   0.204   2.267
    2PC      C210371   2.429   0.239   2.195
    2PC      HX10372   2.406   0.333   2.142
    2PC      C310373   2.433   0.122   2.096
    2PC      HA10374   2.457   0.034   2.157
    2PC      HB10375   2.334   0.124   2.050
    2PC     O3110376   2.528   0.146   1.991
    2PC     P3110377   2.532   0.051   1.862
    2PC     O3210378   2.689   0.020   1.857
    2PC     C3110379   2.749  -0.025   1.735
    2PC     H1A10380   2.681  -0.094   1.684
    2PC     H1B10381   2.756   0.050   1.656
    2PC     C3210382   2.888  -0.084   1.761
    2PC     H2A10383   2.933  -0.115   1.667
    2PC     H2B10384   2.952  -0.013   1.814
    2PC     N3110385   2.892  -0.199   1.858
    2PC     C3310386   2.866  -0.142   1.994
    2PC     H3A10387   2.927  -0.054   2.014
    2PC     H3B10388   2.763  -0.107   2.001
    2PC     H3C10389   2.881  -0.226   2.062
    2PC     C3410390   2.785  -0.298   1.820
    2PC     H4A10391   2.775  -0.362   1.907
    2PC     H4B10392   2.693  -0.240   1.809
    2PC     H4C10393   2.805  -0.356   1.730
    2PC     C3510394   3.023  -0.269   1.848
    2PC     H5A10395   3.021  -0.342   1.929
    2PC     H5B10396   3.097  -0.190   1.865
    2PC     H5C10397   3.038  -0.323   1.754
    2PC     O3310398   2.459  -0.078   1.877
    2PC     O3410399   2.465   0.123   1.751
    2PC     O2110400   2.562   0.234   2.250
    2PC     C2110401   2.623   0.353   2.266
    2PC     O2210402   2.585   0.457   2.217
    3OL     C1210403   2.744   0.333   2.354
    3OL     H2R10404   2.801   0.246   2.319
    3OL     H2S10405   2.707   0.315   2.455
    3OL     C1310406   2.836   0.456   2.357
    3OL     H3R10407   2.777   0.544   2.383
    3OL     H3S10408   2.886   0.466   2.260
    3OL     C1410409   2.949   0.452   2.461
    3OL     H4R10410   3.014   0.538   2.450
    3OL     H4S10411   3.009   0.367   2.431
    3OL     C1510412   2.901   0.431   2.605
    3OL     H5R10413   2.848   0.336   2.605
    3OL     H5S10414   2.816   0.495   2.632
    3OL     C1610415   3.022   0.439   2.698
    3OL     H6R10416   3.068   0.538   2.688
    3OL     H6S10417   3.093   0.362   2.665
    3OL     C1710418   2.985   0.425   2.846
    3OL     H7R10419   3.078   0.421   2.903
    3OL     H7S10420   2.942   0.328   2.871
    3OL     C1810421   2.899   0.541   2.897
    3OL     H8R10422   2.857   0.602   2.816
    3OL     H8S10423   2.953   0.607   2.966
    3OL     C1910424   2.780   0.492   2.975
    3OL     H9R10425   2.714   0.430   2.916
    3OL    C11010426   2.749   0.513   3.102
    3OL    H10R10427   2.674   0.449   3.147
    3OL    C11110428   2.810   0.608   3.202
    3OL    H11R10429   2.916   0.624   3.176
    3OL    H11S10430   2.810   0.565   3.302
    3OL    C11210431   2.744   0.747   3.209
    3OL    H12R10432   2.641   0.738   3.243
    3OL    H12S10433   2.737   0.794   3.111
    3OL    C11310434   2.823   0.839   3.303
    3OL    H13R10435   2.931   0.824   3.290
    3OL    H13S10436   2.811   0.817   3.409
    3OL    C11410437   2.789   0.986   3.274
    3OL    H14R10438   2.685   1.006   3.300
    3OL    H14S10439   2.794   0.993   3.165
    3OL    C11510440   2.882   1.089   3.341
    3OL    H15R10441   2.862   1.187   3.297
    3OL    H15S10442   2.986   1.060   3.324
    3OL    C11610443   2.864   1.098   3.493
    3OL    H16R10444   2.849   0.996   3.529
    3OL    H16S10445   2.772   1.145   3.529
    3OL    C11710446   2.993   1.153   3.555
    3OL    H17R10447   3.084   1.106   3.516
    3OL    H17S10448   2.977   1.142   3.663
    3OL    C11810449   3.000   1.305   3.539
    3OL    H18R10450   3.092   1.329   3.592
    3OL    H18S10451   2.913   1.354   3.582
    3OL    H18T10452   3.008   1.332   3.433
    1PA    C11610453   0.957   2.730   4.184
    1PA    H16R10454   0.951   2.825   4.237
    1PA    H16S10455   0.967   2.646   4.254
    1PA    H16T10456   0.876   2.715   4.113
    1PA    C11510457   1.080   2.738   4.093
    1PA    H15R10458   1.175   2.751   4.146
    1PA    H15S10459   1.084   2.658   4.019
    1PA    C11410460   1.069   2.862   4.003
    1PA    H14R10461   0.971   2.857   3.956
    1PA    H14S10462   1.078   2.953   4.063
    1PA    C11310463   1.172   2.878   3.891
    1PA    H13R10464   1.164   2.982   3.858
    1PA    H13S10465   1.267   2.869   3.945
    1PA    C11210466   1.167   2.769   3.783
    1PA    H12R10467   1.212   2.679   3.826
    1PA    H12S10468   1.064   2.751   3.752
    1PA    C11110469   1.255   2.806   3.662
    1PA    H11R10470   1.210   2.897   3.623
    1PA    H11S10471   1.355   2.833   3.695
    1PA    C11010472   1.254   2.698   3.553
    1PA    H10R10473   1.319   2.743   3.477
    1PA    H10S10474   1.304   2.612   3.595
    1PA     C1910475   1.116   2.666   3.494
    1PA     H9R10476   1.054   2.612   3.566
    1PA     H9S10477   1.069   2.759   3.461
    1PA     C1810478   1.139   2.559   3.386
    1PA     H8R10479   1.200   2.594   3.302
    1PA     H8S10480   1.178   2.475   3.443
    1PA     C1710481   1.020   2.503   3.307
    1PA     H7R10482   1.067   2.444   3.228
    1PA     H7S10483   0.955   2.448   3.375
    1PA     C1610484   0.930   2.607   3.239
    1PA     H6R10485   0.839   2.563   3.198
    1PA     H6S10486   0.909   2.682   3.314
    1PA     C1510487   1.000   2.679   3.123
    1PA     H5R10488   1.066   2.620   3.058
    1PA     H5S10489   0.938   2.706   3.037
    1PA     C1410490   1.076   2.808   3.158
    1PA     H4R10491   1.001   2.876   3.198
    1PA     H4S10492   1.144   2.778   3.239
    1PA     C1310493   1.155   2.856   3.036
    1PA     H3R10494   1.237   2.917   3.077
    1PA     H3S10495   1.197   2.771   2.981
    1PA     C1210496   1.071   2.934   2.934
    1PA     H2R10497   0.973   2.887   2.920
    1PA     H2S10498   1.051   3.033   2.974
    2PC     C1110499   1.143   2.946   2.802
    2PC     O1210500   1.260   2.917   2.793
    2PC     O1110501   1.056   2.974   2.703
    2PC      C110502   1.102   2.963   2.567
    2PC      HR10503   1.025   3.013   2.507
    2PC      HS10504   1.195   3.021   2.565
    2PC      C210505   1.118   2.820   2.514
    2PC      HX10506   1.203   2.772   2.562
    2PC      C310507   1.139   2.811   2.363
    2PC      HA10508   1.245   2.829   2.342
    2PC      HB10509   1.110   2.708   2.339
    2PC     O3110510   1.056   2.896   2.282
    2PC     P3110511   1.057   2.891   2.122
    2PC     O3210512   1.189   2.963   2.068
    2PC     C3110513   1.194   3.097   2.013
    2PC     H1A10514   1.109   3.113   1.946
    2PC     H1B10515   1.171   3.170   2.091
    2PC     C3210516   1.329   3.132   1.951
    2PC     H2A10517   1.348   3.239   1.935
    2PC     H2B10518   1.414   3.100   2.012
    2PC     N3110519   1.354   3.072   1.816
    2PC     C3310520   1.246   3.096   1.714
    2PC     H3A10521   1.151   3.049   1.743
    2PC     H3B10522   1.226   3.201   1.693
    2PC     H3C10523   1.279   3.046   1.623
    2PC     C3410524   1.484   3.119   1.759
    2PC     H4A10525   1.505   3.070   1.663
    2PC     H4B10526   1.458   3.221   1.730
    2PC     H4C10527   1.561   3.123   1.837
    2PC     C3510528   1.370   2.925   1.838
    2PC     H5A10529   1.462   2.918   1.896
    2PC     H5B10530   1.402   2.873   1.747
    2PC     H5C10531   1.288   2.875   1.889
    2PC     O3310532   1.059   2.748   2.083
    2PC     O3410533   0.935   2.958   2.070
    2PC     O2110534   0.993   2.751   2.536
    2PC     C2110535   0.967   2.683   2.649
    2PC     O2210536   1.052   2.652   2.731
    3OL     C1210537   0.832   2.616   2.641
    3OL     H2R10538   0.759   2.681   2.593
    3OL     H2S10539   0.805   2.593   2.744
    3OL     C1310540   0.842   2.479   2.572
    3OL     H3R10541   0.924   2.414   2.602
    3OL     H3S10542   0.868   2.492   2.467
    3OL     C1410543   0.714   2.397   2.595
    3OL     H4R10544   0.737   2.296   2.560
    3OL     H4S10545   0.629   2.447   2.548
    3OL     C1510546   0.676   2.374   2.742
    3OL     H5R10547   0.588   2.311   2.732
    3OL     H5S10548   0.652   2.470   2.789
    3OL     C1610549   0.785   2.297   2.818
    3OL     H6R10550   0.878   2.352   2.802
    3OL     H6S10551   0.808   2.202   2.771
    3OL     C1710552   0.754   2.274   2.966
    3OL     H7R10553   0.664   2.212   2.973
    3OL     H7S10554   0.730   2.374   3.004
    3OL     C1810555   0.870   2.198   3.032
    3OL     H8R10556   0.962   2.255   3.018
    3OL     H8S10557   0.892   2.110   2.971
    3OL     C1910558   0.824   2.159   3.170
    3OL     H9R10559   0.749   2.221   3.219
    3OL    C11010560   0.880   2.058   3.235
    3OL    H10R10561   0.844   2.028   3.333
    3OL    C11110562   0.991   1.973   3.178
    3OL    H11R10563   1.065   1.956   3.257
    3OL    H11S10564   1.037   2.038   3.104
    3OL    C11210565   0.942   1.842   3.115
    3OL    H12R10566   0.883   1.851   3.024
    3OL    H12S10567   0.876   1.781   3.177
    3OL    C11310568   1.071   1.774   3.067
    3OL    H13R10569   1.160   1.837   3.076
    3OL    H13S10570   1.072   1.766   2.958
    3OL    C11410571   1.101   1.639   3.133
    3OL    H14R10572   1.200   1.608   3.099
    3OL    H14S10573   1.030   1.563   3.099
    3OL    C11510574   1.112   1.643   3.286
    3OL    H15R10575   1.020   1.686   3.327
    3OL    H15S10576   1.192   1.712   3.311
    3OL    C11610577   1.149   1.508   3.349
    3OL    H16R10578   1.251   1.484   3.318
    3OL    H16S10579   1.089   1.422   3.317
    3OL    C11710580   1.148   1.502   3.502
    3OL    H17R10581   1.171   1.401   3.537
    3OL    H17S10582   1.050   1.532   3.539
    3OL    C11810583   1.261   1.591   3.555
    3OL    H18R10584   1.345   1.591   3.485
    3OL    H18S10585   1.299   1.551   3.650
    3OL    H18T10586   1.228   1.693   3.574
    1PA    C11610587   3.473   2.513   4.062
    1PA    H16R10588   3.566   2.464   4.093
    1PA    H16S10589   3.378   2.485   4.110
    1PA    H16T10590   3.490   2.618   4.087
    1PA    C11510591   3.472   2.496   3.910
    1PA    H15R10592   3.565   2.543   3.877
    1PA    H15S10593   3.456   2.395   3.873
    1PA    C11410594   3.361   2.586   3.852
    1PA    H14R10595   3.262   2.561   3.890
    1PA    H14S10596   3.383   2.689   3.880
    1PA    C11310597   3.370   2.563   3.700
    1PA    H13R10598   3.463   2.596   3.654
    1PA    H13S10599   3.359   2.459   3.670
    1PA    C11210600   3.259   2.649   3.638
    1PA    H12R10601   3.160   2.612   3.665
    1PA    H12S10602   3.274   2.754   3.664
    1PA    C11110603   3.275   2.647   3.485
    1PA    H11R10604   3.215   2.725   3.438
    1PA    H11S10605   3.375   2.670   3.448
    1PA    C11010606   3.244   2.508   3.427
    1PA    H10R10607   3.310   2.433   3.470
    1PA    H10S10608   3.139   2.486   3.451
    1PA     C1910609   3.264   2.502   3.275
    1PA     H9R10610   3.222   2.596   3.238
    1PA     H9S10611   3.371   2.495   3.256
    1PA     C1810612   3.178   2.393   3.210
    1PA     H8R10613   3.206   2.296   3.253
    1PA     H8S10614   3.075   2.414   3.239
    1PA     C1710615   3.183   2.389   3.057
    1PA     H7R10616   3.152   2.484   3.011
    1PA     H7S10617   3.289   2.378   3.034
    1PA     C1610618   3.101   2.270   3.005
    1PA     H6R10619   3.150   2.173   3.014
    1PA     H6S10620   3.001   2.270   3.047
    1PA     C1510621   3.083   2.287   2.853
    1PA     H5R10622   3.005   2.220   2.816
    1PA     H5S10623   3.042   2.388   2.848
    1PA     C1410624   3.213   2.276   2.773
    1PA     H4R10625   3.285   2.350   2.808
    1PA     H4S10626   3.244   2.179   2.812
    1PA     C1310627   3.188   2.282   2.621
    1PA     H3R10628   3.124   2.198   2.595
    1PA     H3S10629   3.155   2.381   2.590
    1PA     C1210630   3.319   2.266   2.543
    1PA     H2R10631   3.378   2.356   2.559
    1PA     H2S10632   3.380   2.178   2.565
    2PC     C1110633   3.287   2.248   2.397
    2PC     O1210634   3.182   2.203   2.354
    2PC     O1110635   3.378   2.303   2.314
    2PC      C110636   3.345   2.296   2.174
    2PC      HR10637   3.311   2.196   2.147
    2PC      HS10638   3.263   2.364   2.152
    2PC      C210639   3.467   2.335   2.090
    2PC      HX10640   3.494   2.441   2.088
    2PC      C310641   3.455   2.283   1.946
    2PC      HA10642   3.369   2.324   1.891
    2PC      HB10643   3.538   2.318   1.884
    2PC     O3110644   3.447   2.140   1.935
    2PC     P3110645   3.403   2.085   1.791
    2PC     O3210646   3.245   2.111   1.797
    2PC     C3110647   3.172   2.097   1.674
    2PC     H1A10648   3.237   2.104   1.586
    2PC     H1B10649   3.124   2.000   1.663
    2PC     C3210650   3.065   2.207   1.662
    2PC     H2A10651   3.001   2.207   1.750
    2PC     H2B10652   3.121   2.299   1.643
    2PC     N3110653   2.967   2.201   1.549
    2PC     C3310654   2.877   2.318   1.573
    2PC     H3A10655   2.936   2.410   1.568
    2PC     H3B10656   2.787   2.317   1.511
    2PC     H3C10657   2.838   2.313   1.674
    2PC     C3410658   3.017   2.219   1.408
    2PC     H4A10659   2.947   2.179   1.335
    2PC     H4B10660   3.035   2.324   1.386
    2PC     H4C10661   3.109   2.161   1.400
    2PC     C3510662   2.884   2.078   1.560
    2PC     H5A10663   2.816   2.074   1.475
    2PC     H5B10664   2.823   2.091   1.649
    2PC     H5C10665   2.934   1.981   1.570
    2PC     O3310666   3.458   2.165   1.679
    2PC     O3410667   3.408   1.941   1.757
    2PC     O2110668   3.585   2.271   2.144
    2PC     C2110669   3.707   2.319   2.117
    2PC     O2210670   3.729   2.422   2.056
    3OL     C1210671   3.816   2.255   2.199
    3OL     H2R10672   3.914   2.296   2.177
    3OL     H2S10673   3.823   2.149   2.173
    3OL     C1310674   3.807   2.274   2.351
    3OL     H3R10675   3.759   2.372   2.362
    3OL     H3S10676   3.904   2.265   2.401
    3OL     C1410677   3.719   2.168   2.418
    3OL     H4R10678   3.764   2.069   2.413
    3OL     H4S10679   3.618   2.170   2.375
    3OL     C1510680   3.712   2.206   2.566
    3OL     H5R10681   3.649   2.291   2.594
    3OL     H5S10682   3.814   2.235   2.595
    3OL     C1610683   3.664   2.084   2.646
    3OL     H6R10684   3.729   1.997   2.643
    3OL     H6S10685   3.564   2.051   2.615
    3OL     C1710686   3.646   2.126   2.793
    3OL     H7R10687   3.576   2.209   2.801
    3OL     H7S10688   3.741   2.159   2.834
    3OL     C1810689   3.600   2.005   2.876
    3OL     H8R10690   3.516   1.959   2.823
    3OL     H8S10691   3.575   2.052   2.971
    3OL     C1910692   3.704   1.900   2.906
    3OL     H9R10693   3.809   1.920   2.884
    3OL    C11010694   3.679   1.777   2.946
    3OL    H10R10695   3.761   1.704   2.945
    3OL    C11110696   3.543   1.727   2.988
    3OL    H11R10697   3.496   1.663   2.913
    3OL    H11S10698   3.476   1.813   2.991
    3OL    C11210699   3.532   1.654   3.123
    3OL    H12R10700   3.591   1.564   3.140
    3OL    H12S10701   3.432   1.622   3.154
    3OL    C11310702   3.586   1.731   3.245
    3OL    H13R10703   3.522   1.818   3.260
    3OL    H13S10704   3.681   1.777   3.217
    3OL    C11410705   3.597   1.650   3.375
    3OL    H14R10706   3.642   1.556   3.345
    3OL    H14S10707   3.500   1.618   3.414
    3OL    C11510708   3.669   1.721   3.490
    3OL    H15R10709   3.662   1.659   3.580
    3OL    H15S10710   3.630   1.819   3.518
    3OL    C11610711   3.820   1.739   3.467
    3OL    H16R10712   3.823   1.815   3.389
    3OL    H16S10713   3.864   1.648   3.425
    3OL    C11710714   3.903   1.790   3.585
    3OL    H17R10715   3.865   1.890   3.608
    3OL    H17S10716   4.004   1.804   3.545
    3OL    C11810717   3.900   1.703   3.711
    3OL    H18R10718   3.979   1.628   3.705
    3OL    H18S10719   3.803   1.666   3.743
    3OL    H18T10720   3.932   1.777   3.785
    1PA    C11610721   2.208   5.826   3.827
    1PA    H16R10722   2.241   5.726   3.799
    1PA    H16S10723   2.186   5.820   3.934
    1PA    H16T10724   2.287   5.901   3.831
    1PA    C11510725   2.085   5.880   3.752
    1PA    H15R10726   1.999   5.815   3.767
    1PA    H15S10727   2.063   5.975   3.801
    1PA    C11410728   2.112   5.906   3.603
    1PA    H14R10729   2.043   5.981   3.564
    1PA    H14S10730   2.215   5.941   3.603
    1PA    C11310731   2.115   5.780   3.514
    1PA    H13R10732   2.196   5.716   3.550
    1PA    H13S10733   2.020   5.728   3.507
    1PA    C11210734   2.154   5.833   3.376
    1PA    H12R10735   2.108   5.924   3.337
    1PA    H12S10736   2.260   5.861   3.369
    1PA    C11110737   2.131   5.718   3.277
    1PA    H11R10738   2.207   5.647   3.309
    1PA    H11S10739   2.029   5.682   3.281
    1PA    C11010740   2.149   5.740   3.126
    1PA    H10R10741   2.079   5.818   3.093
    1PA    H10S10742   2.253   5.773   3.113
    1PA     C1910743   2.144   5.607   3.050
    1PA     H9R10744   2.212   5.550   3.114
    1PA     H9S10745   2.048   5.553   3.048
    1PA     C1810746   2.200   5.616   2.908
    1PA     H8R10747   2.134   5.681   2.849
    1PA     H8S10748   2.301   5.657   2.901
    1PA     C1710749   2.196   5.473   2.851
    1PA     H7R10750   2.243   5.406   2.923
    1PA     H7S10751   2.092   5.442   2.840
    1PA     C1610752   2.274   5.470   2.719
    1PA     H6R10753   2.220   5.529   2.644
    1PA     H6S10754   2.375   5.507   2.734
    1PA     C1510755   2.275   5.324   2.673
    1PA     H5R10756   2.332   5.259   2.741
    1PA     H5S10757   2.177   5.277   2.670
    1PA     C1410758   2.349   5.313   2.539
    1PA     H4R10759   2.300   5.377   2.465
    1PA     H4S10760   2.444   5.364   2.550
    1PA     C1310761   2.348   5.167   2.490
    1PA     H3R10762   2.405   5.112   2.566
    1PA     H3S10763   2.246   5.128   2.495
    1PA     C1210764   2.412   5.160   2.351
    1PA     H2R10765   2.366   5.238   2.291
    1PA     H2S10766   2.517   5.185   2.368
    2PC     C1110767   2.403   5.023   2.286
    2PC     O1210768   2.498   4.951   2.266
    2PC     O1110769   2.273   4.991   2.272
    2PC      C110770   2.237   4.869   2.206
    2PC      HR10771   2.128   4.854   2.205
    2PC      HS10772   2.281   4.865   2.106
    2PC      C210773   2.293   4.747   2.281
    2PC      HX10774   2.401   4.749   2.295
    2PC      C310775   2.265   4.608   2.222
    2PC      HA10776   2.347   4.596   2.151
    2PC      HB10777   2.260   4.530   2.299
    2PC     O3110778   2.146   4.602   2.141
    2PC     P3110779   2.109   4.468   2.062
    2PC     O3210780   2.226   4.488   1.955
    2PC     C3110781   2.203   4.532   1.820
    2PC     H1A10782   2.140   4.621   1.827
    2PC     H1B10783   2.301   4.551   1.775
    2PC     C3210784   2.119   4.424   1.749
    2PC     H2A10785   2.170   4.328   1.752
    2PC     H2B10786   2.025   4.406   1.802
    2PC     N3110787   2.084   4.445   1.605
    2PC     C3310788   2.009   4.575   1.600
    2PC     H3A10789   1.991   4.593   1.494
    2PC     H3B10790   1.919   4.564   1.660
    2PC     H3C10791   2.072   4.657   1.637
    2PC     C3410792   2.207   4.451   1.520
    2PC     H4A10793   2.277   4.374   1.552
    2PC     H4B10794   2.178   4.422   1.419
    2PC     H4C10795   2.247   4.552   1.525
    2PC     C3510796   1.996   4.329   1.569
    2PC     H5A10797   2.057   4.240   1.554
    2PC     H5B10798   1.961   4.346   1.467
    2PC     H5C10799   1.908   4.319   1.633
    2PC     O3310800   2.118   4.342   2.139
    2PC     O3410801   1.970   4.496   2.017
    2PC     O2110802   2.234   4.754   2.412
    2PC     C2110803   2.283   4.680   2.514
    2PC     O2210804   2.372   4.599   2.498
    3OL     C1210805   2.235   4.732   2.647
    3OL     H2R10806   2.315   4.789   2.695
    3OL     H2S10807   2.225   4.641   2.706
    3OL     C1310808   2.104   4.813   2.636
    3OL     H3R10809   2.034   4.740   2.595
    3OL     H3S10810   2.120   4.895   2.566
    3OL     C1410811   2.058   4.866   2.772
    3OL     H4R10812   2.068   4.801   2.860
    3OL     H4S10813   1.953   4.895   2.765
    3OL     C1510814   2.135   4.993   2.812
    3OL     H5R10815   2.128   5.058   2.725
    3OL     H5S10816   2.242   4.983   2.828
    3OL     C1610817   2.065   5.069   2.926
    3OL     H6R10818   1.956   5.065   2.919
    3OL     H6S10819   2.102   5.172   2.929
    3OL     C1710820   2.087   5.004   3.063
    3OL     H7R10821   2.192   4.981   3.082
    3OL     H7S10822   2.021   4.918   3.074
    3OL     C1810823   2.033   5.098   3.172
    3OL     H8R10824   2.021   5.053   3.271
    3OL     H8S10825   1.934   5.127   3.138
    3OL     C1910826   2.122   5.219   3.180
    3OL     H9R10827   2.209   5.214   3.115
    3OL    C11010828   2.113   5.319   3.267
    3OL    H10R10829   2.182   5.402   3.251
    3OL    C11110830   2.018   5.342   3.381
    3OL    H11R10831   1.955   5.253   3.393
    3OL    H11S10832   1.947   5.419   3.351
    3OL    C11210833   2.076   5.403   3.509
    3OL    H12R10834   2.120   5.499   3.481
    3OL    H12S10835   2.170   5.351   3.529
    3OL    C11310836   1.981   5.395   3.629
    3OL    H13R10837   1.965   5.294   3.668
    3OL    H13S10838   1.887   5.445   3.602
    3OL    C11410839   2.037   5.470   3.751
    3OL    H14R10840   2.029   5.578   3.734
    3OL    H14S10841   2.145   5.458   3.755
    3OL    C11510842   1.954   5.438   3.876
    3OL    H15R10843   1.968   5.333   3.902
    3OL    H15S10844   1.847   5.451   3.856
    3OL    C11610845   1.989   5.525   3.997
    3OL    H16R10846   1.923   5.487   4.075
    3OL    H16S10847   1.973   5.631   3.974
    3OL    C11710848   2.132   5.495   4.046
    3OL    H17R10849   2.154   5.553   4.136
    3OL    H17S10850   2.200   5.539   3.973
    3OL    C11810851   2.153   5.345   4.071
    3OL    H18R10852   2.084   5.302   4.143
    3OL    H18S10853   2.251   5.331   4.116
    3OL    H18T10854   2.143   5.281   3.983
    1PA    C11610855   1.571   1.317   3.687
    1PA    H16R10856   1.549   1.412   3.737
    1PA    H16S10857   1.615   1.260   3.769
    1PA    H16T10858   1.481   1.266   3.651
    1PA    C11510859   1.678   1.334   3.579
    1PA    H15R10860   1.745   1.414   3.611
    1PA    H15S10861   1.735   1.241   3.571
    1PA    C11410862   1.603   1.374   3.451
    1PA    H14R10863   1.544   1.292   3.410
    1PA    H14S10864   1.537   1.457   3.476
    1PA    C11310865   1.700   1.425   3.343
    1PA    H13R10866   1.654   1.497   3.274
    1PA    H13S10867   1.788   1.474   3.385
    1PA    C11210868   1.762   1.306   3.268
    1PA    H12R10869   1.813   1.233   3.331
    1PA    H12S10870   1.676   1.251   3.228
    1PA    C11110871   1.860   1.335   3.154
    1PA    H11R10872   1.799   1.394   3.086
    1PA    H11S10873   1.946   1.395   3.187
    1PA    C11010874   1.900   1.207   3.079
    1PA    H10R10875   1.992   1.165   3.120
    1PA    H10S10876   1.816   1.138   3.075
    1PA     C1910877   1.948   1.254   2.941
    1PA     H9R10878   1.952   1.170   2.872
    1PA     H9S10879   1.878   1.327   2.898
    1PA     C1810880   2.090   1.310   2.941
    1PA     H8R10881   2.086   1.384   3.022
    1PA     H8S10882   2.156   1.225   2.962
    1PA     C1710883   2.120   1.365   2.801
    1PA     H7R10884   2.035   1.406   2.746
    1PA     H7S10885   2.199   1.441   2.813
    1PA     C1610886   2.174   1.247   2.720
    1PA     H6R10887   2.245   1.188   2.779
    1PA     H6S10888   2.094   1.175   2.700
    1PA     C1510889   2.232   1.292   2.585
    1PA     H5R10890   2.154   1.325   2.516
    1PA     H5S10891   2.288   1.384   2.602
    1PA     C1410892   2.323   1.191   2.513
    1PA     H4R10893   2.377   1.242   2.432
    1PA     H4S10894   2.401   1.151   2.577
    1PA     C1310895   2.242   1.079   2.447
    1PA     H3R10896   2.186   1.017   2.518
    1PA     H3S10897   2.166   1.119   2.379
    1PA     C1210898   2.336   0.982   2.375
    1PA     H2R10899   2.427   0.984   2.436
    1PA     H2S10900   2.298   0.880   2.376
    2PC     C1110901   2.373   1.031   2.238
    2PC     O1210902   2.291   1.060   2.153
    2PC     O1110903   2.505   1.028   2.213
    2PC      C110904   2.548   1.014   2.077
    2PC      HR10905   2.529   0.915   2.034
    2PC      HS10906   2.502   1.086   2.009
    2PC      C210907   2.700   1.027   2.093
    2PC      HX10908   2.711   1.119   2.151
    2PC      C310909   2.762   1.030   1.953
    2PC      HA10910   2.719   1.116   1.900
    2PC      HB10911   2.869   1.048   1.962
    2PC     O3110912   2.734   0.910   1.878
    2PC     P3110913   2.814   0.894   1.740
    2PC     O3210914   2.937   0.808   1.796
    2PC     C3110915   3.051   0.800   1.709
    2PC     H1A10916   3.031   0.731   1.627
    2PC     H1B10917   3.065   0.896   1.660
    2PC     C3210918   3.182   0.760   1.780
    2PC     H2A10919   3.156   0.670   1.836
    2PC     H2B10920   3.258   0.724   1.711
    2PC     N3110921   3.251   0.852   1.876
    2PC     C3310922   3.382   0.789   1.915
    2PC     H3A10923   3.360   0.693   1.961
    2PC     H3B10924   3.440   0.788   1.822
    2PC     H3C10925   3.436   0.854   1.984
    2PC     C3410926   3.289   0.985   1.819
    2PC     H4A10927   3.371   0.975   1.748
    2PC     H4B10928   3.198   1.022   1.772
    2PC     H4C10929   3.329   1.037   1.906
    2PC     C3510930   3.162   0.875   1.995
    2PC     H5A10931   3.061   0.879   1.954
    2PC     H5B10932   3.205   0.969   2.030
    2PC     H5C10933   3.167   0.792   2.066
    2PC     O3310934   2.748   0.819   1.631
    2PC     O3410935   2.871   1.019   1.683
    2PC     O2110936   2.739   0.913   2.173
    2PC     C2110937   2.859   0.918   2.234
    2PC     O2210938   2.942   1.003   2.208
    3OL     C1210939   2.881   0.808   2.335
    3OL     H2R10940   2.921   0.726   2.275
    3OL     H2S10941   2.784   0.788   2.381
    3OL     C1310942   2.989   0.854   2.433
    3OL     H3R10943   3.052   0.932   2.389
    3OL     H3S10944   3.053   0.772   2.467
    3OL     C1410945   2.927   0.917   2.558
    3OL     H4R10946   2.866   0.835   2.598
    3OL     H4S10947   2.861   1.001   2.538
    3OL     C1510948   3.042   0.943   2.655
    3OL     H5R10949   3.101   1.028   2.621
    3OL     H5S10950   3.107   0.856   2.668
    3OL     C1610951   2.986   0.967   2.797
    3OL     H6R10952   2.933   0.878   2.831
    3OL     H6S10953   2.903   1.036   2.788
    3OL     C1710954   3.090   1.014   2.900
    3OL     H7R10955   3.036   1.031   2.993
    3OL     H7S10956   3.136   1.109   2.870
    3OL     C1810957   3.200   0.913   2.935
    3OL     H8R10958   3.253   0.897   2.841
    3OL     H8S10959   3.164   0.815   2.966
    3OL     C1910960   3.295   0.968   3.038
    3OL     H9R10961   3.375   1.034   3.007
    3OL    C11010962   3.292   0.941   3.168
    3OL    H10R10963   3.365   0.975   3.241
    3OL    C11110964   3.195   0.838   3.220
    3OL    H11R10965   3.213   0.742   3.171
    3OL    H11S10966   3.092   0.866   3.198
    3OL    C11210967   3.218   0.823   3.371
    3OL    H12R10968   3.139   0.764   3.418
    3OL    H12S10969   3.215   0.927   3.403
    3OL    C11310970   3.348   0.752   3.410
    3OL    H13R10971   3.432   0.799   3.358
    3OL    H13S10972   3.348   0.648   3.377
    3OL    C11410973   3.370   0.761   3.562
    3OL    H14R10974   3.298   0.696   3.612
    3OL    H14S10975   3.351   0.862   3.598
    3OL    C11510976   3.509   0.714   3.605
    3OL    H15R10977   3.513   0.720   3.714
    3OL    H15S10978   3.584   0.774   3.552
    3OL    C11610979   3.536   0.568   3.568
    3OL    H16R10980   3.553   0.551   3.461
    3OL    H16S10981   3.447   0.509   3.592
    3OL    C11710982   3.660   0.525   3.648
    3OL    H17R10983   3.625   0.522   3.751
    3OL    H17S10984   3.735   0.603   3.637
    3OL    C11810985   3.720   0.389   3.608
    3OL    H18R10986   3.639   0.316   3.615
    3OL    H18S10987   3.804   0.373   3.676
    3OL    H18T10988   3.752   0.394   3.503
    1PA    C11610989   2.329   4.017   4.207
    1PA    H16R10990   2.384   4.026   4.301
    1PA    H16S10991   2.241   3.951   4.207
    1PA    H16T10992   2.306   4.119   4.176
    1PA    C11510993   2.426   3.952   4.108
    1PA    H15R10994   2.529   3.980   4.134
    1PA    H15S10995   2.409   3.845   4.120
    1PA    C11410996   2.398   3.992   3.962
    1PA    H14R10997   2.415   4.100   3.956
    1PA    H14S10998   2.474   3.940   3.904
    1PA    C11310999   2.255   3.976   3.910
    1PA    H13R11000   2.190   4.043   3.968
    1PA    H13S11001   2.254   4.012   3.807
    1PA    C11211002   2.195   3.834   3.907
    1PA    H12R11003   2.231   3.776   3.992
    1PA    H12S11004   2.086   3.836   3.902
    1PA    C11111005   2.244   3.748   3.791
    1PA    H11R11006   2.270   3.804   3.701
    1PA    H11S11007   2.342   3.709   3.821
    1PA    C11011008   2.154   3.626   3.762
    1PA    H10R11009   2.160   3.561   3.850
    1PA    H10S11010   2.051   3.659   3.745
    1PA     C1911011   2.212   3.552   3.641
    1PA     H9R11012   2.218   3.618   3.555
    1PA     H9S11013   2.313   3.514   3.659
    1PA     C1811014   2.122   3.429   3.616
    1PA     H8R11015   2.147   3.348   3.685
    1PA     H8S11016   2.017   3.455   3.629
    1PA     C1711017   2.154   3.379   3.474
    1PA     H7R11018   2.261   3.398   3.463
    1PA     H7S11019   2.132   3.272   3.477
    1PA     C1611020   2.073   3.458   3.370
    1PA     H6R11021   1.967   3.435   3.382
    1PA     H6S11022   2.094   3.564   3.380
    1PA     C1511023   2.100   3.417   3.224
    1PA     H5R11024   2.077   3.311   3.216
    1PA     H5S11025   2.032   3.474   3.161
    1PA     C1411026   2.244   3.449   3.182
    1PA     H4R11027   2.269   3.555   3.190
    1PA     H4S11028   2.315   3.405   3.252
    1PA     C1311029   2.274   3.408   3.037
    1PA     H3R11030   2.281   3.299   3.037
    1PA     H3S11031   2.198   3.437   2.964
    1PA     C1211032   2.407   3.469   2.990
    1PA     H2R11033   2.418   3.576   3.008
    1PA     H2S11034   2.481   3.409   3.044
    2PC     C1111035   2.433   3.453   2.843
    2PC     O1211036   2.358   3.415   2.756
    2PC     O1111037   2.562   3.483   2.819
    2PC      C111038   2.610   3.495   2.683
    2PC      HR11039   2.719   3.497   2.684
    2PC      HS11040   2.569   3.408   2.631
    2PC      C211041   2.547   3.619   2.618
    2PC      HX11042   2.438   3.615   2.622
    2PC      C311043   2.563   3.627   2.466
    2PC      HA11044   2.667   3.619   2.436
    2PC      HB11045   2.498   3.547   2.428
    2PC     O3111046   2.508   3.754   2.428
    2PC     P3111047   2.538   3.821   2.285
    2PC     O3211048   2.437   3.945   2.290
    2PC     C3111049   2.487   4.080   2.292
    2PC     H1A11050   2.400   4.146   2.297
    2PC     H1B11051   2.539   4.099   2.386
    2PC     C3211052   2.556   4.123   2.161
    2PC     H2A11053   2.653   4.075   2.158
    2PC     H2B11054   2.492   4.098   2.076
    2PC     N3111055   2.582   4.270   2.145
    2PC     C3311056   2.457   4.352   2.139
    2PC     H3A11057   2.489   4.451   2.107
    2PC     H3B11058   2.406   4.299   2.059
    2PC     H3C11059   2.390   4.334   2.224
    2PC     C3411060   2.666   4.321   2.258
    2PC     H4A11061   2.711   4.417   2.232
    2PC     H4B11062   2.598   4.349   2.339
    2PC     H4C11063   2.743   4.258   2.302
    2PC     C3511064   2.649   4.286   2.011
    2PC     H5A11065   2.576   4.255   1.937
    2PC     H5B11066   2.729   4.213   2.000
    2PC     H5C11067   2.678   4.391   2.004
    2PC     O3311068   2.674   3.874   2.261
    2PC     O3411069   2.516   3.719   2.180
    2PC     O2111070   2.600   3.736   2.682
    2PC     C2111071   2.727   3.780   2.680
    2PC     O2211072   2.810   3.733   2.604
    3OL     C1211073   2.752   3.883   2.787
    3OL     H2R11074   2.843   3.935   2.755
    3OL     H2S11075   2.762   3.841   2.887
    3OL     C1311076   2.628   3.973   2.798
    3OL     H3R11077   2.549   3.908   2.838
    3OL     H3S11078   2.600   4.013   2.700
    3OL     C1411079   2.643   4.096   2.888
    3OL     H4R11080   2.583   4.181   2.855
    3OL     H4S11081   2.741   4.141   2.873
    3OL     C1511082   2.609   4.061   3.034
    3OL     H5R11083   2.685   3.990   3.068
    3OL     H5S11084   2.507   4.021   3.030
    3OL     C1611085   2.598   4.184   3.126
    3OL     H6R11086   2.546   4.265   3.074
    3OL     H6S11087   2.702   4.212   3.145
    3OL     C1711088   2.533   4.151   3.261
    3OL     H7R11089   2.583   4.066   3.308
    3OL     H7S11090   2.429   4.123   3.247
    3OL     C1811091   2.539   4.275   3.351
    3OL     H8R11092   2.519   4.371   3.303
    3OL     H8S11093   2.645   4.282   3.374
    3OL     C1911094   2.453   4.246   3.472
    3OL     H9R11095   2.346   4.245   3.455
    3OL    C11011096   2.501   4.225   3.593
    3OL    H10R11097   2.438   4.207   3.680
    3OL    C11111098   2.641   4.255   3.641
    3OL    H11R11099   2.685   4.324   3.568
    3OL    H11S11100   2.709   4.170   3.646
    3OL    C11211101   2.643   4.314   3.783
    3OL    H12R11102   2.746   4.337   3.810
    3OL    H12S11103   2.610   4.236   3.852
    3OL    C11311104   2.565   4.445   3.798
    3OL    H13R11105   2.456   4.434   3.802
    3OL    H13S11106   2.581   4.518   3.719
    3OL    C11411107   2.605   4.508   3.932
    3OL    H14R11108   2.548   4.601   3.941
    3OL    H14S11109   2.709   4.537   3.920
    3OL    C11511110   2.588   4.419   4.055
    3OL    H15R11111   2.629   4.470   4.143
    3OL    H15S11112   2.655   4.333   4.052
    3OL    C11611113   2.446   4.375   4.093
    3OL    H16R11114   2.453   4.294   4.166
    3OL    H16S11115   2.404   4.323   4.006
    3OL    C11711116   2.363   4.491   4.149
    3OL    H17R11117   2.259   4.460   4.134
    3OL    H17S11118   2.384   4.589   4.106
    3OL    C11811119   2.371   4.502   4.302
    3OL    H18R11120   2.308   4.583   4.338
    3OL    H18S11121   2.472   4.511   4.343
    3OL    H18T11122   2.310   4.419   4.336
    1PA    C11611123   2.752   1.906   3.028
    1PA    H16R11124   2.837   1.905   3.096
    1PA    H16S11125   2.670   1.848   3.073
    1PA    H16T11126   2.720   2.010   3.030
    1PA    C11511127   2.801   1.863   2.890
    1PA    H15R11128   2.856   1.769   2.899
    1PA    H15S11129   2.712   1.831   2.836
    1PA    C11411130   2.866   1.976   2.808
    1PA    H14R11131   2.796   2.058   2.789
    1PA    H14S11132   2.961   2.007   2.851
    1PA    C11311133   2.916   1.940   2.668
    1PA    H13R11134   2.823   1.916   2.616
    1PA    H13S11135   2.952   2.038   2.637
    1PA    C11211136   3.026   1.834   2.656
    1PA    H12R11137   3.004   1.739   2.706
    1PA    H12S11138   3.025   1.806   2.551
    1PA    C11111139   3.165   1.876   2.707
    1PA    H11R11140   3.187   1.951   2.631
    1PA    H11S11141   3.158   1.926   2.804
    1PA    C11011142   3.274   1.768   2.696
    1PA    H10R11143   3.361   1.805   2.751
    1PA    H10S11144   3.247   1.686   2.763
    1PA     C1911145   3.314   1.712   2.559
    1PA     H9R11146   3.225   1.660   2.524
    1PA     H9S11147   3.328   1.786   2.480
    1PA     C1811148   3.444   1.631   2.557
    1PA     H8R11149   3.470   1.586   2.653
    1PA     H8S11150   3.436   1.555   2.480
    1PA     C1711151   3.565   1.717   2.520
    1PA     H7R11152   3.561   1.762   2.420
    1PA     H7S11153   3.579   1.799   2.591
    1PA     C1611154   3.691   1.631   2.534
    1PA     H6R11155   3.708   1.632   2.641
    1PA     H6S11156   3.673   1.532   2.489
    1PA     C1511157   3.813   1.705   2.477
    1PA     H5R11158   3.806   1.812   2.496
    1PA     H5S11159   3.896   1.681   2.543
    1PA     C1411160   3.843   1.672   2.330
    1PA     H4R11161   3.854   1.563   2.323
    1PA     H4S11162   3.760   1.699   2.264
    1PA     C1311163   3.975   1.732   2.278
    1PA     H3R11164   3.971   1.841   2.277
    1PA     H3S11165   4.062   1.699   2.335
    1PA     C1211166   4.011   1.673   2.141
    1PA     H2R11167   4.075   1.586   2.157
    1PA     H2S11168   3.924   1.620   2.102
    2PC     C1111169   4.074   1.766   2.040
    2PC     O1211170   4.029   1.877   2.023
    2PC     O1111171   4.171   1.711   1.965
    2PC      C111172   4.220   1.780   1.848
    2PC      HR11173   4.268   1.705   1.785
    2PC      HS11174   4.133   1.807   1.789
    2PC      C211175   4.310   1.899   1.883
    2PC      HX11176   4.257   1.977   1.938
    2PC      C311177   4.368   1.952   1.751
    2PC      HA11178   4.290   1.995   1.689
    2PC      HB11179   4.430   2.040   1.767
    2PC     O3111180   4.438   1.853   1.673
    2PC     P3111181   4.482   1.889   1.523
    2PC     O3211182   4.635   1.929   1.547
    2PC     C3111183   4.736   1.837   1.502
    2PC     H1A11184   4.734   1.753   1.572
    2PC     H1B11185   4.712   1.811   1.399
    2PC     C3211186   4.873   1.903   1.525
    2PC     H2A11187   4.866   1.972   1.610
    2PC     H2B11188   4.954   1.841   1.562
    2PC     N3111189   4.936   1.977   1.412
    2PC     C3311190   5.001   1.884   1.313
    2PC     H3A11191   4.925   1.810   1.289
    2PC     H3B11192   5.023   1.941   1.222
    2PC     H3C11193   5.092   1.837   1.349
    2PC     C3411194   4.837   2.059   1.335
    2PC     H4A11195   4.756   1.998   1.294
    2PC     H4B11196   4.780   2.134   1.391
    2PC     H4C11197   4.888   2.127   1.267
    2PC     C3511198   5.039   2.070   1.469
    2PC     H5A11199   5.086   2.124   1.386
    2PC     H5B11200   5.114   2.005   1.516
    2PC     H5C11201   4.983   2.123   1.545
    2PC     O3311202   4.472   1.772   1.433
    2PC     O3411203   4.407   2.000   1.460
    2PC     O2111204   4.421   1.850   1.961
    2PC     C2111205   4.491   1.944   2.026
    2PC     O2211206   4.475   2.064   2.021
    3OL     C1211207   4.598   1.890   2.119
    3OL     H2R11208   4.683   1.956   2.102
    3OL     H2S11209   4.615   1.788   2.085
    3OL     C1311210   4.555   1.896   2.266
    3OL     H3R11211   4.450   1.868   2.277
    3OL     H3S11212   4.560   2.003   2.290
    3OL     C1411213   4.641   1.815   2.364
    3OL     H4R11214   4.735   1.871   2.368
    3OL     H4S11215   4.662   1.715   2.325
    3OL     C1511216   4.582   1.815   2.505
    3OL     H5R11217   4.491   1.754   2.498
    3OL     H5S11218   4.539   1.913   2.525
    3OL     C1611219   4.677   1.779   2.620
    3OL     H6R11220   4.715   1.679   2.597
    3OL     H6S11221   4.616   1.769   2.710
    3OL     C1711222   4.779   1.890   2.653
    3OL     H7R11223   4.718   1.953   2.718
    3OL     H7S11224   4.794   1.960   2.571
    3OL     C1811225   4.911   1.843   2.716
    3OL     H8R11226   4.968   1.786   2.642
    3OL     H8S11227   4.891   1.776   2.800
    3OL     C1911228   4.997   1.959   2.759
    3OL     H9R11229   5.051   1.999   2.674
    3OL    C11011230   5.025   1.990   2.885
    3OL    H10R11231   5.111   2.051   2.910
    3OL    C11111232   4.938   1.951   3.002
    3OL    H11R11233   4.866   1.872   2.978
    3OL    H11S11234   4.878   2.034   3.040
    3OL    C11211235   5.019   1.890   3.116
    3OL    H12R11236   4.947   1.855   3.191
    3OL    H12S11237   5.084   1.964   3.164
    3OL    C11311238   5.098   1.769   3.064
    3OL    H13R11239   5.161   1.802   2.982
    3OL    H13S11240   5.028   1.706   3.008
    3OL    C11411241   5.178   1.694   3.171
    3OL    H14R11242   5.199   1.595   3.131
    3OL    H14S11243   5.116   1.671   3.259
    3OL    C11511244   5.311   1.768   3.190
    3OL    H15R11245   5.279   1.863   3.233
    3OL    H15S11246   5.366   1.778   3.096
    3OL    C11611247   5.396   1.708   3.303
    3OL    H16R11248   5.435   1.609   3.277
    3OL    H16S11249   5.330   1.689   3.388
    3OL    C11711250   5.500   1.811   3.348
    3OL    H17R11251   5.449   1.901   3.383
    3OL    H17S11252   5.574   1.846   3.276
    3OL    C11811253   5.579   1.749   3.464
    3OL    H18R11254   5.514   1.693   3.532
    3OL    H18S11255   5.625   1.829   3.521
    3OL    H18T11256   5.658   1.681   3.431
    1PA    C11611257   4.914   0.294   2.800
    1PA    H16R11258   4.944   0.326   2.900
    1PA    H16S11259   5.000   0.274   2.735
    1PA    H16T11260   4.858   0.200   2.806
    1PA    C11511261   4.825   0.402   2.737
    1PA    H15R11262   4.790   0.356   2.645
    1PA    H15S11263   4.742   0.413   2.807
    1PA    C11411264   4.902   0.534   2.725
    1PA    H14R11265   4.937   0.575   2.819
    1PA    H14S11266   4.996   0.526   2.670
    1PA    C11311267   4.804   0.634   2.663
    1PA    H13R11268   4.754   0.581   2.582
    1PA    H13S11269   4.729   0.657   2.739
    1PA    C11211270   4.869   0.761   2.605
    1PA    H12R11271   4.947   0.729   2.536
    1PA    H12S11272   4.792   0.807   2.543
    1PA    C11111273   4.946   0.850   2.703
    1PA    H11R11274   4.872   0.880   2.778
    1PA    H11S11275   5.024   0.796   2.756
    1PA    C11011276   5.015   0.965   2.628
    1PA    H10R11277   5.107   0.926   2.584
    1PA    H10S11278   4.965   1.000   2.538
    1PA     C1911279   5.030   1.088   2.719
    1PA     H9R11280   4.932   1.125   2.751
    1PA     H9S11281   5.078   1.058   2.812
    1PA     C1811282   5.119   1.191   2.648
    1PA     H8R11283   5.223   1.163   2.632
    1PA     H8S11284   5.081   1.194   2.545
    1PA     C1711285   5.118   1.330   2.713
    1PA     H7R11286   5.018   1.357   2.747
    1PA     H7S11287   5.174   1.317   2.805
    1PA     C1611288   5.179   1.436   2.619
    1PA     H6R11289   5.281   1.401   2.603
    1PA     H6S11290   5.141   1.436   2.517
    1PA     C1511291   5.158   1.576   2.680
    1PA     H5R11292   5.052   1.603   2.671
    1PA     H5S11293   5.185   1.574   2.785
    1PA     C1411294   5.243   1.677   2.602
    1PA     H4R11295   5.244   1.775   2.651
    1PA     H4S11296   5.344   1.634   2.600
    1PA     C1311297   5.184   1.701   2.462
    1PA     H3R11298   5.183   1.613   2.397
    1PA     H3S11299   5.079   1.729   2.467
    1PA     C1211300   5.277   1.799   2.389
    1PA     H2R11301   5.291   1.883   2.458
    1PA     H2S11302   5.374   1.755   2.367
    2PC     C1111303   5.225   1.850   2.257
    2PC     O1211304   5.159   1.786   2.177
    2PC     O1111305   5.270   1.975   2.235
    2PC      C111306   5.231   2.058   2.124
    2PC      HR11307   5.299   2.143   2.124
    2PC      HS11308   5.242   1.998   2.033
    2PC      C211309   5.083   2.092   2.147
    2PC      HX11310   5.020   2.014   2.191
    2PC      C311311   5.016   2.134   2.016
    2PC      HA11312   4.981   2.051   1.955
    2PC      HB11313   4.932   2.202   2.033
    2PC     O3111314   5.109   2.198   1.926
    2PC     P3111315   5.059   2.271   1.792
    2PC     O3211316   5.035   2.423   1.836
    2PC     C3111317   4.993   2.452   1.971
    2PC     H1A11318   4.889   2.420   1.965
    2PC     H1B11319   5.054   2.395   2.040
    2PC     C3211320   5.019   2.601   1.997
    2PC     H2A11321   4.981   2.668   1.919
    2PC     H2B11322   4.981   2.627   2.096
    2PC     N3111323   5.160   2.648   2.020
    2PC     C3311324   5.250   2.677   1.903
    2PC     H3A11325   5.237   2.587   1.843
    2PC     H3B11326   5.215   2.767   1.852
    2PC     H3C11327   5.352   2.683   1.941
    2PC     C3411328   5.152   2.770   2.105
    2PC     H4A11329   5.103   2.750   2.201
    2PC     H4B11330   5.256   2.804   2.113
    2PC     H4C11331   5.101   2.850   2.052
    2PC     C3511332   5.250   2.551   2.090
    2PC     H5A11333   5.343   2.595   2.126
    2PC     H5B11334   5.267   2.467   2.023
    2PC     H5C11335   5.191   2.520   2.177
    2PC     O3311336   5.174   2.263   1.698
    2PC     O3411337   4.935   2.235   1.720
    2PC     O2111338   5.083   2.203   2.238
    2PC     C2111339   5.058   2.187   2.369
    2PC     O2211340   5.015   2.087   2.422
    3OL     C1211341   5.121   2.299   2.448
    3OL     H2R11342   5.038   2.344   2.504
    3OL     H2S11343   5.169   2.367   2.378
    3OL     C1311344   5.236   2.259   2.541
    3OL     H3R11345   5.310   2.208   2.478
    3OL     H3S11346   5.196   2.188   2.614
    3OL     C1411347   5.307   2.376   2.611
    3OL     H4R11348   5.365   2.430   2.536
    3OL     H4S11349   5.386   2.333   2.674
    3OL     C1511350   5.212   2.465   2.691
    3OL     H5R11351   5.141   2.406   2.748
    3OL     H5S11352   5.154   2.533   2.627
    3OL     C1611353   5.290   2.557   2.786
    3OL     H6R11354   5.344   2.635   2.732
    3OL     H6S11355   5.363   2.495   2.839
    3OL     C1711356   5.192   2.615   2.889
    3OL     H7R11357   5.234   2.646   2.986
    3OL     H7S11358   5.113   2.543   2.906
    3OL     C1811359   5.130   2.741   2.828
    3OL     H8R11360   5.079   2.715   2.735
    3OL     H8S11361   5.198   2.817   2.789
    3OL     C1911362   5.023   2.801   2.917
    3OL     H9R11363   4.919   2.790   2.888
    3OL    C11011364   5.046   2.862   3.032
    3OL    H10R11365   4.959   2.892   3.089
    3OL    C11111366   5.183   2.899   3.084
    3OL    H11R11367   5.193   3.007   3.076
    3OL    H11S11368   5.271   2.866   3.028
    3OL    C11211369   5.201   2.869   3.234
    3OL    H12R11370   5.301   2.892   3.270
    3OL    H12S11371   5.174   2.765   3.252
    3OL    C11311372   5.105   2.949   3.323
    3OL    H13R11373   5.082   2.891   3.412
    3OL    H13S11374   5.011   2.966   3.269
    3OL    C11411375   5.170   3.084   3.354
    3OL    H14R11376   5.216   3.134   3.268
    3OL    H14S11377   5.242   3.060   3.433
    3OL    C11511378   5.077   3.189   3.416
    3OL    H15R11379   5.056   3.152   3.516
    3OL    H15S11380   4.987   3.218   3.360
    3OL    C11611381   5.154   3.322   3.419
    3OL    H16R11382   5.164   3.363   3.319
    3OL    H16S11383   5.258   3.305   3.449
    3OL    C11711384   5.096   3.419   3.523
    3OL    H17R11385   5.100   3.370   3.621
    3OL    H17S11386   4.991   3.442   3.502
    3OL    C11811387   5.171   3.552   3.531
    3OL    H18R11388   5.140   3.615   3.447
    3OL    H18S11389   5.279   3.535   3.531
    3OL    H18T11390   5.131   3.602   3.619
    1PA    C11611391   5.870   4.087   3.832
    1PA    H16R11392   5.800   4.116   3.754
    1PA    H16S11393   5.877   4.181   3.885
    1PA    H16T11394   5.815   4.024   3.902
    1PA    C11511395   6.008   4.037   3.784
    1PA    H15R11396   6.065   4.040   3.877
    1PA    H15S11397   5.990   3.936   3.748
    1PA    C11411398   6.093   4.127   3.693
    1PA    H14R11399   6.191   4.084   3.669
    1PA    H14S11400   6.039   4.129   3.599
    1PA    C11311401   6.109   4.270   3.745
    1PA    H13R11402   6.008   4.305   3.770
    1PA    H13S11403   6.177   4.258   3.830
    1PA    C11211404   6.162   4.366   3.638
    1PA    H12R11405   6.188   4.460   3.687
    1PA    H12S11406   6.256   4.323   3.604
    1PA    C11111407   6.059   4.397   3.529
    1PA    H11R11408   6.035   4.311   3.465
    1PA    H11S11409   5.963   4.409   3.581
    1PA    C11011410   6.091   4.518   3.440
    1PA    H10R11411   5.999   4.565   3.405
    1PA    H10S11412   6.150   4.595   3.489
    1PA     C1911413   6.162   4.463   3.315
    1PA     H9R11414   6.256   4.419   3.348
    1PA     H9S11415   6.096   4.384   3.280
    1PA     C1811416   6.176   4.571   3.207
    1PA     H8R11417   6.079   4.591   3.159
    1PA     H8S11418   6.212   4.668   3.242
    1PA     C1711419   6.260   4.509   3.094
    1PA     H7R11420   6.360   4.490   3.135
    1PA     H7S11421   6.204   4.421   3.062
    1PA     C1611422   6.282   4.611   2.981
    1PA     H6R11423   6.291   4.710   3.024
    1PA     H6S11424   6.372   4.573   2.933
    1PA     C1511425   6.169   4.621   2.877
    1PA     H5R11426   6.132   4.522   2.852
    1PA     H5S11427   6.086   4.675   2.922
    1PA     C1411428   6.198   4.696   2.746
    1PA     H4R11429   6.121   4.771   2.726
    1PA     H4S11430   6.282   4.758   2.778
    1PA     C1311431   6.243   4.610   2.627
    1PA     H3R11432   6.325   4.544   2.658
    1PA     H3S11433   6.158   4.562   2.579
    1PA     C1211434   6.306   4.695   2.516
    1PA     H2R11435   6.235   4.766   2.472
    1PA     H2S11436   6.397   4.747   2.545
    2PC     C1111437   6.352   4.603   2.407
    2PC     O1211438   6.298   4.600   2.298
    2PC     O1111439   6.438   4.507   2.445
    2PC      C111440   6.491   4.423   2.341
    2PC      HR11441   6.404   4.369   2.303
    2PC      HS11442   6.554   4.471   2.266
    2PC      C211443   6.579   4.315   2.407
    2PC      HX11444   6.628   4.363   2.492
    2PC      C311445   6.691   4.269   2.314
    2PC      HA11446   6.754   4.355   2.289
    2PC      HB11447   6.755   4.192   2.360
    2PC     O3111448   6.637   4.224   2.188
    2PC     P3111449   6.739   4.151   2.088
    2PC     O3211450   6.764   4.010   2.160
    2PC     C3111451   6.894   3.955   2.188
    2PC     H1A11452   6.946   3.942   2.093
    2PC     H1B11453   6.940   4.033   2.249
    2PC     C3211454   6.855   3.824   2.257
    2PC     H2A11455   6.805   3.839   2.353
    2PC     H2B11456   6.793   3.764   2.190
    2PC     N3111457   6.971   3.737   2.297
    2PC     C3311458   6.921   3.612   2.363
    2PC     H3A11459   6.865   3.554   2.290
    2PC     H3B11460   7.013   3.565   2.397
    2PC     H3C11461   6.861   3.643   2.449
    2PC     C3411462   7.052   3.697   2.178
    2PC     H4A11463   6.982   3.650   2.109
    2PC     H4B11464   7.095   3.786   2.132
    2PC     H4C11465   7.129   3.621   2.195
    2PC     C3511466   7.051   3.810   2.400
    2PC     H5A11467   7.098   3.899   2.357
    2PC     H5B11468   7.130   3.746   2.440
    2PC     H5C11469   6.984   3.832   2.484
    2PC     O3311470   6.693   4.162   1.948
    2PC     O3411471   6.874   4.210   2.080
    2PC     O2111472   6.501   4.203   2.454
    2PC     C2111473   6.561   4.116   2.536
    2PC     O2211474   6.672   4.127   2.584
    3OL     C1211475   6.465   4.015   2.595
    3OL     H2R11476   6.524   3.953   2.662
    3OL     H2S11477   6.427   3.950   2.516
    3OL     C1311478   6.363   4.089   2.682
    3OL     H3R11479   6.287   4.018   2.716
    3OL     H3S11480   6.320   4.171   2.625
    3OL     C1411481   6.436   4.144   2.805
    3OL     H4R11482   6.485   4.237   2.775
    3OL     H4S11483   6.520   4.082   2.840
    3OL     C1511484   6.343   4.173   2.924
    3OL     H5R11485   6.255   4.227   2.889
    3OL     H5S11486   6.393   4.239   2.994
    3OL     C1611487   6.286   4.052   2.999
    3OL     H6R11488   6.368   4.001   3.049
    3OL     H6S11489   6.228   3.989   2.931
    3OL     C1711490   6.190   4.090   3.113
    3OL     H7R11491   6.122   4.168   3.079
    3OL     H7S11492   6.245   4.141   3.193
    3OL     C1811493   6.103   3.974   3.163
    3OL     H8R11494   6.164   3.896   3.208
    3OL     H8S11495   6.045   3.930   3.081
    3OL     C1911496   6.016   4.017   3.278
    3OL     H9R11497   5.988   4.121   3.267
    3OL    C11011498   5.981   3.946   3.384
    3OL    H10R11499   5.912   3.976   3.462
    3OL    C11111500   6.011   3.799   3.402
    3OL    H11R11501   6.105   3.782   3.455
    3OL    H11S11502   6.021   3.760   3.301
    3OL    C11211503   5.898   3.733   3.483
    3OL    H12R11504   5.802   3.751   3.434
    3OL    H12S11505   5.897   3.778   3.583
    3OL    C11311506   5.914   3.582   3.502
    3OL    H13R11507   5.948   3.542   3.407
    3OL    H13S11508   5.814   3.541   3.516
    3OL    C11411509   6.001   3.545   3.623
    3OL    H14R11510   5.970   3.606   3.709
    3OL    H14S11511   6.105   3.567   3.597
    3OL    C11511512   6.013   3.398   3.666
    3OL    H15R11513   6.066   3.350   3.583
    3OL    H15S11514   5.917   3.346   3.673
    3OL    C11611515   6.093   3.368   3.793
    3OL    H16R11516   6.106   3.260   3.786
    3OL    H16S11517   6.041   3.382   3.888
    3OL    C11711518   6.233   3.429   3.801
    3OL    H17R11519   6.279   3.439   3.702
    3OL    H17S11520   6.305   3.370   3.858
    3OL    C11811521   6.236   3.568   3.866
    3OL    H18R11522   6.179   3.638   3.805
    3OL    H18S11523   6.338   3.605   3.881
    3OL    H18T11524   6.185   3.573   3.962
    1PA    C11611525   4.988   2.664   3.732
    1PA    H16R11526   4.894   2.718   3.718
    1PA    H16S11527   5.064   2.733   3.695
    1PA    H16T11528   4.999   2.636   3.837
    1PA    C11511529   5.004   2.529   3.659
    1PA    H15R11530   5.000   2.542   3.551
    1PA    H15S11531   5.104   2.488   3.673
    1PA    C11411532   4.907   2.422   3.712
    1PA    H14R11533   4.923   2.395   3.816
    1PA    H14S11534   4.807   2.466   3.715
    1PA    C11311535   4.909   2.300   3.618
    1PA    H13R11536   4.999   2.279   3.561
    1PA    H13S11537   4.882   2.214   3.680
    1PA    C11211538   4.802   2.314   3.508
    1PA    H12R11539   4.777   2.214   3.471
    1PA    H12S11540   4.713   2.353   3.556
    1PA    C11111541   4.833   2.407   3.390
    1PA    H11R11542   4.739   2.410   3.335
    1PA    H11S11543   4.852   2.513   3.410
    1PA    C11011544   4.943   2.341   3.305
    1PA    H10R11545   5.032   2.373   3.359
    1PA    H10S11546   4.928   2.233   3.314
    1PA     C1911547   4.967   2.392   3.162
    1PA     H9R11548   4.982   2.500   3.159
    1PA     H9S11549   5.059   2.347   3.125
    1PA     C1811550   4.844   2.358   3.077
    1PA     H8R11551   4.821   2.251   3.083
    1PA     H8S11552   4.754   2.411   3.110
    1PA     C1711553   4.881   2.370   2.928
    1PA     H7R11554   4.901   2.475   2.905
    1PA     H7S11555   4.966   2.307   2.902
    1PA     C1611556   4.761   2.334   2.840
    1PA     H6R11557   4.728   2.233   2.864
    1PA     H6S11558   4.673   2.398   2.852
    1PA     C1511559   4.800   2.320   2.692
    1PA     H5R11560   4.824   2.423   2.666
    1PA     H5S11561   4.885   2.256   2.669
    1PA     C1411562   4.673   2.280   2.615
    1PA     H4R11563   4.633   2.180   2.631
    1PA     H4S11564   4.598   2.349   2.651
    1PA     C1311565   4.699   2.288   2.464
    1PA     H3R11566   4.800   2.268   2.428
    1PA     H3S11567   4.632   2.236   2.395
    1PA     C1211568   4.686   2.434   2.418
    1PA     H2R11569   4.597   2.488   2.454
    1PA     H2S11570   4.764   2.487   2.472
    2PC     C1111571   4.725   2.466   2.276
    2PC     O1211572   4.835   2.448   2.229
    2PC     O1111573   4.625   2.535   2.219
    2PC      C111574   4.653   2.590   2.089
    2PC      HR11575   4.755   2.627   2.082
    2PC      HS11576   4.641   2.517   2.009
    2PC      C211577   4.552   2.706   2.077
    2PC      HX11578   4.447   2.675   2.078
    2PC      C311579   4.574   2.786   1.948
    2PC      HA11580   4.550   2.718   1.865
    2PC      HB11581   4.515   2.878   1.942
    2PC     O3111582   4.715   2.810   1.937
    2PC     P3111583   4.768   2.868   1.797
    2PC     O3211584   4.830   2.739   1.724
    2PC     C3111585   4.891   2.749   1.594
    2PC     H1A11586   4.823   2.797   1.522
    2PC     H1B11587   4.980   2.811   1.597
    2PC     C3211588   4.908   2.606   1.541
    2PC     H2A11589   4.944   2.602   1.438
    2PC     H2B11590   4.991   2.554   1.589
    2PC     N3111591   4.792   2.511   1.539
    2PC     C3311592   4.824   2.390   1.457
    2PC     H3A11593   4.869   2.422   1.363
    2PC     H3B11594   4.891   2.320   1.506
    2PC     H3C11595   4.729   2.341   1.435
    2PC     C3411596   4.759   2.464   1.677
    2PC     H4A11597   4.707   2.545   1.728
    2PC     H4B11598   4.691   2.379   1.679
    2PC     H4C11599   4.859   2.441   1.716
    2PC     C3511600   4.669   2.572   1.479
    2PC     H5A11601   4.585   2.504   1.491
    2PC     H5B11602   4.688   2.595   1.374
    2PC     H5C11603   4.649   2.666   1.529
    2PC     O3311604   4.661   2.945   1.729
    2PC     O3411605   4.873   2.968   1.827
    2PC     O2111606   4.574   2.789   2.192
    2PC     C2111607   4.476   2.878   2.218
    2PC     O2211608   4.373   2.894   2.157
    3OL     C1211609   4.513   2.964   2.337
    3OL     H2R11610   4.462   3.060   2.327
    3OL     H2S11611   4.621   2.970   2.326
    3OL     C1311612   4.488   2.900   2.474
    3OL     H3R11613   4.386   2.862   2.484
    3OL     H3S11614   4.498   2.975   2.553
    3OL     C1411615   4.600   2.803   2.515
    3OL     H4R11616   4.694   2.858   2.522
    3OL     H4S11617   4.611   2.724   2.441
    3OL     C1511618   4.562   2.734   2.647
    3OL     H5R11619   4.602   2.633   2.656
    3OL     H5S11620   4.457   2.704   2.650
    3OL     C1611621   4.594   2.815   2.773
    3OL     H6R11622   4.541   2.911   2.774
    3OL     H6S11623   4.702   2.830   2.784
    3OL     C1711624   4.543   2.733   2.892
    3OL     H7R11625   4.588   2.634   2.890
    3OL     H7S11626   4.434   2.721   2.886
    3OL     C1811627   4.570   2.794   3.031
    3OL     H8R11628   4.503   2.879   3.041
    3OL     H8S11629   4.675   2.827   3.031
    3OL     C1911630   4.551   2.696   3.143
    3OL     H9R11631   4.475   2.619   3.127
    3OL    C11011632   4.637   2.682   3.243
    3OL    H10R11633   4.621   2.603   3.316
    3OL    C11111634   4.752   2.775   3.270
    3OL    H11R11635   4.739   2.868   3.215
    3OL    H11S11636   4.841   2.726   3.229
    3OL    C11211637   4.767   2.801   3.420
    3OL    H12R11638   4.864   2.847   3.442
    3OL    H12S11639   4.757   2.710   3.479
    3OL    C11311640   4.651   2.886   3.471
    3OL    H13R11641   4.618   2.861   3.572
    3OL    H13S11642   4.565   2.859   3.409
    3OL    C11411643   4.654   3.040   3.477
    3OL    H14R11644   4.554   3.083   3.489
    3OL    H14S11645   4.698   3.083   3.387
    3OL    C11511646   4.740   3.096   3.591
    3OL    H15R11647   4.845   3.077   3.565
    3OL    H15S11648   4.704   3.048   3.683
    3OL    C11611649   4.725   3.248   3.591
    3OL    H16R11650   4.620   3.276   3.595
    3OL    H16S11651   4.772   3.294   3.503
    3OL    C11711652   4.810   3.292   3.711
    3OL    H17R11653   4.914   3.260   3.714
    3OL    H17S11654   4.766   3.247   3.800
    3OL    C11811655   4.806   3.443   3.742
    3OL    H18R11656   4.831   3.502   3.654
    3OL    H18S11657   4.879   3.466   3.819
    3OL    H18T11658   4.706   3.476   3.770
    1PA    C11611659   1.659   5.066   3.840
    1PA    H16R11660   1.686   4.993   3.917
    1PA    H16S11661   1.567   5.022   3.800
    1PA    H16T11662   1.632   5.162   3.884
    1PA    C11511663   1.762   5.080   3.727
    1PA    H15R11664   1.735   5.155   3.653
    1PA    H15S11665   1.852   5.116   3.777
    1PA    C11411666   1.787   4.950   3.647
    1PA    H14R11667   1.819   4.875   3.719
    1PA    H14S11668   1.693   4.918   3.600
    1PA    C11311669   1.906   4.968   3.552
    1PA    H13R11670   1.891   5.048   3.479
    1PA    H13S11671   1.985   5.002   3.619
    1PA    C11211672   1.932   4.833   3.483
    1PA    H12R11673   2.028   4.836   3.431
    1PA    H12S11674   1.951   4.742   3.539
    1PA    C11111675   1.830   4.816   3.369
    1PA    H11R11676   1.724   4.811   3.397
    1PA    H11S11677   1.837   4.899   3.299
    1PA    C11011678   1.863   4.694   3.281
    1PA    H10R11679   1.972   4.691   3.279
    1PA    H10S11680   1.837   4.600   3.330
    1PA     C1911681   1.797   4.693   3.143
    1PA     H9R11682   1.690   4.673   3.149
    1PA     H9S11683   1.801   4.794   3.100
    1PA     C1811684   1.850   4.600   3.033
    1PA     H8R11685   1.953   4.620   3.001
    1PA     H8S11686   1.858   4.495   3.061
    1PA     C1711687   1.762   4.599   2.907
    1PA     H7R11688   1.659   4.582   2.937
    1PA     H7S11689   1.780   4.692   2.852
    1PA     C1611690   1.793   4.479   2.817
    1PA     H6R11691   1.888   4.489   2.764
    1PA     H6S11692   1.782   4.389   2.877
    1PA     C1511693   1.690   4.470   2.704
    1PA     H5R11694   1.655   4.572   2.688
    1PA     H5S11695   1.733   4.434   2.610
    1PA     C1411696   1.581   4.367   2.736
    1PA     H4R11697   1.638   4.275   2.751
    1PA     H4S11698   1.533   4.397   2.829
    1PA     C1311699   1.474   4.339   2.630
    1PA     H3R11700   1.517   4.298   2.539
    1PA     H3S11701   1.406   4.263   2.669
    1PA     C1211702   1.381   4.459   2.602
    1PA     H2R11703   1.351   4.504   2.696
    1PA     H2S11704   1.437   4.532   2.543
    2PC     C1111705   1.260   4.403   2.532
    2PC     O1211706   1.255   4.290   2.488
    2PC     O1111707   1.161   4.493   2.518
    2PC      C111708   1.028   4.445   2.491
    2PC      HR11709   1.022   4.355   2.429
    2PC      HS11710   0.985   4.425   2.589
    2PC      C211711   0.942   4.546   2.413
    2PC      HX11712   0.853   4.507   2.364
    2PC      C311713   1.027   4.609   2.302
    2PC      HA11714   1.096   4.684   2.342
    2PC      HB11715   1.088   4.534   2.251
    2PC     O3111716   0.951   4.683   2.205
    2PC     P3111717   1.003   4.735   2.062
    2PC     O3211718   1.130   4.824   2.100
    2PC     C3111719   1.139   4.959   2.052
    2PC     H1A11720   1.247   4.978   2.055
    2PC     H1B11721   1.105   4.963   1.948
    2PC     C3211722   1.056   5.039   2.154
    2PC     H2A11723   0.954   5.029   2.116
    2PC     H2B11724   1.066   4.988   2.250
    2PC     N3111725   1.081   5.183   2.185
    2PC     C3311726   1.213   5.206   2.253
    2PC     H3A11727   1.224   5.314   2.254
    2PC     H3B11728   1.211   5.172   2.357
    2PC     H3C11729   1.290   5.159   2.192
    2PC     C3411730   1.078   5.264   2.059
    2PC     H4A11731   1.171   5.228   2.015
    2PC     H4B11732   0.985   5.246   2.006
    2PC     H4C11733   1.088   5.372   2.071
    2PC     C3511734   0.981   5.223   2.290
    2PC     H5A11735   0.884   5.181   2.261
    2PC     H5B11736   0.980   5.327   2.320
    2PC     H5C11737   1.005   5.154   2.371
    2PC     O3311738   1.019   4.624   1.965
    2PC     O3411739   0.898   4.827   2.013
    2PC     O2111740   0.906   4.643   2.513
    2PC     C2111741   0.780   4.654   2.558
    2PC     O2211742   0.686   4.580   2.536
    3OL     C1211743   0.760   4.769   2.654
    3OL     H2R11744   0.828   4.766   2.739
    3OL     H2S11745   0.659   4.756   2.693
    3OL     C1311746   0.779   4.899   2.576
    3OL     H3R11747   0.712   4.909   2.490
    3OL     H3S11748   0.875   4.897   2.524
    3OL     C1411749   0.764   5.025   2.663
    3OL     H4R11750   0.836   5.020   2.745
    3OL     H4S11751   0.665   5.028   2.708
    3OL     C1511752   0.805   5.152   2.587
    3OL     H5R11753   0.733   5.152   2.504
    3OL     H5S11754   0.906   5.129   2.550
    3OL     C1611755   0.775   5.283   2.661
    3OL     H6R11756   0.785   5.279   2.770
    3OL     H6S11757   0.670   5.305   2.642
    3OL     C1711758   0.869   5.389   2.603
    3OL     H7R11759   0.842   5.405   2.498
    3OL     H7S11760   0.974   5.363   2.615
    3OL     C1811761   0.847   5.524   2.674
    3OL     H8R11762   0.742   5.551   2.670
    3OL     H8S11763   0.899   5.600   2.616
    3OL     C1911764   0.887   5.526   2.819
    3OL     H9R11765   0.876   5.429   2.869
    3OL    C11011766   0.929   5.629   2.891
    3OL    H10R11767   0.955   5.614   2.995
    3OL    C11111768   0.952   5.767   2.834
    3OL    H11R11769   0.900   5.784   2.739
    3OL    H11S11770   1.059   5.775   2.816
    3OL    C11211771   0.891   5.879   2.920
    3OL    H12R11772   0.783   5.872   2.938
    3OL    H12S11773   0.919   5.972   2.870
    3OL    C11311774   0.937   5.879   3.066
    3OL    H13R11775   1.044   5.882   3.085
    3OL    H13S11776   0.898   5.787   3.111
    3OL    C11411777   0.887   5.999   3.147
    3OL    H14R11778   0.782   5.995   3.177
    3OL    H14S11779   0.880   6.084   3.078
    3OL    C11511780   0.978   6.041   3.263
    3OL    H15R11781   1.081   6.049   3.227
    3OL    H15S11782   0.988   5.951   3.324
    3OL    C11611783   0.939   6.170   3.336
    3OL    H16R11784   0.854   6.154   3.403
    3OL    H16S11785   0.900   6.237   3.259
    3OL    C11711786   1.055   6.226   3.421
    3OL    H17R11787   1.027   6.318   3.472
    3OL    H17S11788   1.131   6.250   3.346
    3OL    C11811789   1.114   6.129   3.524
    3OL    H18R11790   1.129   6.033   3.474
    3OL    H18S11791   1.056   6.111   3.614
    3OL    H18T11792   1.215   6.160   3.551
    1PA    C11611793   0.088   3.587   3.556
    1PA    H16R11794   0.042   3.538   3.470
    1PA    H16S11795   0.080   3.512   3.635
    1PA    H16T11796   0.193   3.599   3.527
    1PA    C11511797   0.029   3.721   3.601
    1PA    H15R11798  -0.066   3.698   3.651
    1PA    H15S11799   0.094   3.762   3.679
    1PA    C11411800   0.018   3.832   3.495
    1PA    H14R11801  -0.060   3.818   3.420
    1PA    H14S11802  -0.011   3.917   3.557
    1PA    C11311803   0.151   3.848   3.421
    1PA    H13R11804   0.234   3.853   3.492
    1PA    H13S11805   0.173   3.757   3.364
    1PA    C11211806   0.157   3.966   3.323
    1PA    H12R11807   0.084   3.978   3.243
    1PA    H12S11808   0.155   4.064   3.370
    1PA    C11111809   0.298   3.963   3.261
    1PA    H11R11810   0.369   3.971   3.343
    1PA    H11S11811   0.320   3.879   3.195
    1PA    C11011812   0.316   4.072   3.155
    1PA    H10R11813   0.267   4.052   3.059
    1PA    H10S11814   0.263   4.161   3.189
    1PA     C1911815   0.460   4.112   3.117
    1PA     H9R11816   0.500   4.149   3.211
    1PA     H9S11817   0.518   4.024   3.087
    1PA     C1811818   0.470   4.210   3.000
    1PA     H8R11819   0.570   4.253   3.003
    1PA     H8S11820   0.464   4.157   2.904
    1PA     C1711821   0.366   4.323   3.003
    1PA     H7R11822   0.267   4.279   3.014
    1PA     H7S11823   0.390   4.382   3.092
    1PA     C1611824   0.389   4.411   2.879
    1PA     H6R11825   0.482   4.469   2.882
    1PA     H6S11826   0.387   4.338   2.799
    1PA     C1511827   0.271   4.508   2.860
    1PA     H5R11828   0.177   4.454   2.869
    1PA     H5S11829   0.272   4.591   2.931
    1PA     C1411830   0.267   4.564   2.717
    1PA     H4R11831   0.267   4.481   2.647
    1PA     H4S11832   0.167   4.607   2.706
    1PA     C1311833   0.381   4.663   2.689
    1PA     H3R11834   0.368   4.750   2.754
    1PA     H3S11835   0.470   4.612   2.725
    1PA     C1211836   0.384   4.705   2.541
    1PA     H2R11837   0.477   4.757   2.517
    1PA     H2S11838   0.366   4.612   2.487
    2PC     C1111839   0.270   4.795   2.501
    2PC     O1211840   0.233   4.885   2.575
    2PC     O1111841   0.224   4.768   2.379
    2PC      C111842   0.154   4.875   2.312
    2PC      HR11843   0.099   4.829   2.230
    2PC      HS11844   0.091   4.927   2.384
    2PC      C211845   0.249   4.981   2.254
    2PC      HX11846   0.196   5.063   2.205
    2PC      C311847   0.345   4.919   2.152
    2PC      HA11848   0.419   4.852   2.196
    2PC      HB11849   0.282   4.868   2.079
    2PC     O3111850   0.417   5.029   2.093
    2PC     P3111851   0.360   5.113   1.969
    2PC     O3211852   0.398   5.010   1.852
    2PC     C3111853   0.311   4.904   1.810
    2PC     H1A11854   0.327   4.817   1.874
    2PC     H1B11855   0.205   4.932   1.814
    2PC     C3211856   0.341   4.876   1.663
    2PC     H2A11857   0.317   4.956   1.593
    2PC     H2B11858   0.447   4.848   1.655
    2PC     N3111859   0.265   4.762   1.602
    2PC     C3311860   0.286   4.634   1.676
    2PC     H3A11861   0.387   4.632   1.718
    2PC     H3B11862   0.210   4.635   1.754
    2PC     H3C11863   0.255   4.554   1.609
    2PC     C3411864   0.120   4.801   1.594
    2PC     H4A11865   0.067   4.718   1.546
    2PC     H4B11866   0.068   4.815   1.689
    2PC     H4C11867   0.101   4.888   1.531
    2PC     C3511868   0.311   4.740   1.461
    2PC     H5A11869   0.262   4.649   1.427
    2PC     H5B11870   0.420   4.738   1.452
    2PC     H5C11871   0.269   4.830   1.416
    2PC     O3311872   0.212   5.127   1.976
    2PC     O3411873   0.413   5.249   1.949
    2PC     O2111874   0.326   5.032   2.365
    2PC     C2111875   0.316   5.161   2.403
    2PC     O2211876   0.277   5.248   2.328
    3OL     C1211877   0.377   5.186   2.540
    3OL     H2R11878   0.483   5.161   2.528
    3OL     H2S11879   0.330   5.128   2.619
    3OL     C1311880   0.370   5.336   2.571
    3OL     H3R11881   0.267   5.368   2.554
    3OL     H3S11882   0.442   5.384   2.505
    3OL     C1411883   0.394   5.358   2.721
    3OL     H4R11884   0.497   5.328   2.741
    3OL     H4S11885   0.344   5.293   2.793
    3OL     C1511886   0.376   5.508   2.747
    3OL     H5R11887   0.273   5.542   2.729
    3OL     H5S11888   0.438   5.571   2.685
    3OL     C1611889   0.408   5.543   2.893
    3OL     H6R11890   0.374   5.461   2.957
    3OL     H6S11891   0.334   5.618   2.924
    3OL     C1711892   0.550   5.595   2.918
    3OL     H7R11893   0.559   5.692   2.868
    3OL     H7S11894   0.622   5.524   2.877
    3OL     C1811895   0.569   5.626   3.067
    3OL     H8R11896   0.670   5.662   3.087
    3OL     H8S11897   0.563   5.533   3.124
    3OL     C1911898   0.464   5.725   3.113
    3OL     H9R11899   0.424   5.778   3.027
    3OL    C11011900   0.436   5.751   3.240
    3OL    H10R11901   0.365   5.826   3.275
    3OL    C11111902   0.501   5.681   3.356
    3OL    H11R11903   0.545   5.755   3.423
    3OL    H11S11904   0.584   5.619   3.321
    3OL    C11211905   0.401   5.593   3.432
    3OL    H12R11906   0.453   5.536   3.509
    3OL    H12S11907   0.358   5.516   3.368
    3OL    C11311908   0.281   5.669   3.490
    3OL    H13R11909   0.235   5.746   3.428
    3OL    H13S11910   0.311   5.736   3.571
    3OL    C11411911   0.183   5.574   3.559
    3OL    H14R11912   0.129   5.518   3.482
    3OL    H14S11913   0.110   5.625   3.622
    3OL    C11511914   0.251   5.469   3.648
    3OL    H15R11915   0.318   5.518   3.719
    3OL    H15S11916   0.315   5.406   3.586
    3OL    C11611917   0.143   5.383   3.715
    3OL    H16R11918   0.089   5.326   3.639
    3OL    H16S11919   0.078   5.454   3.767
    3OL    C11711920   0.199   5.288   3.822
    3OL    H17R11921   0.116   5.247   3.880
    3OL    H17S11922   0.266   5.329   3.897
    3OL    C11811923   0.269   5.167   3.759
    3OL    H18R11924   0.191   5.105   3.714
    3OL    H18S11925   0.324   5.120   3.841
    3OL    H18T11926   0.333   5.206   3.680
    1PA    C11611927   4.562   4.943   4.145
    1PA    H16R11928   4.496   5.008   4.203
    1PA    H16S11929   4.583   4.986   4.047
    1PA    H16T11930   4.656   4.931   4.199
    1PA    C11511931   4.488   4.808   4.140
    1PA    H15R11932   4.549   4.724   4.106
    1PA    H15S11933   4.471   4.782   4.245
    1PA    C11411934   4.352   4.824   4.071
    1PA    H14R11935   4.301   4.729   4.089
    1PA    H14S11936   4.299   4.903   4.124
    1PA    C11311937   4.357   4.867   3.924
    1PA    H13R11938   4.256   4.888   3.890
    1PA    H13S11939   4.405   4.963   3.902
    1PA    C11211940   4.410   4.758   3.830
    1PA    H12R11941   4.505   4.727   3.874
    1PA    H12S11942   4.345   4.671   3.845
    1PA    C11111943   4.422   4.796   3.682
    1PA    H11R11944   4.325   4.828   3.643
    1PA    H11S11945   4.482   4.887   3.676
    1PA    C11011946   4.491   4.685   3.603
    1PA    H10R11947   4.583   4.654   3.654
    1PA    H10S11948   4.426   4.597   3.605
    1PA     C1911949   4.533   4.716   3.458
    1PA     H9R11950   4.444   4.724   3.395
    1PA     H9S11951   4.593   4.808   3.453
    1PA     C1811952   4.618   4.598   3.411
    1PA     H8R11953   4.714   4.604   3.463
    1PA     H8S11954   4.556   4.508   3.421
    1PA     C1711955   4.636   4.621   3.260
    1PA     H7R11956   4.543   4.650   3.211
    1PA     H7S11957   4.702   4.707   3.251
    1PA     C1611958   4.689   4.501   3.181
    1PA     H6R11959   4.779   4.476   3.237
    1PA     H6S11960   4.616   4.420   3.179
    1PA     C1511961   4.717   4.553   3.040
    1PA     H5R11962   4.623   4.600   3.008
    1PA     H5S11963   4.800   4.624   3.033
    1PA     C1411964   4.766   4.447   2.940
    1PA     H4R11965   4.866   4.424   2.976
    1PA     H4S11966   4.710   4.354   2.940
    1PA     C1311967   4.786   4.502   2.798
    1PA     H3R11968   4.871   4.570   2.802
    1PA     H3S11969   4.816   4.418   2.737
    1PA     C1211970   4.663   4.577   2.743
    1PA     H2R11971   4.570   4.523   2.762
    1PA     H2S11972   4.662   4.666   2.807
    2PC     C1111973   4.677   4.635   2.605
    2PC     O1211974   4.764   4.602   2.526
    2PC     O1111975   4.589   4.732   2.579
    2PC      C111976   4.564   4.772   2.443
    2PC      HR11977   4.485   4.847   2.444
    2PC      HS11978   4.657   4.808   2.398
    2PC      C211979   4.511   4.662   2.351
    2PC      HX11980   4.553   4.565   2.380
    2PC      C311981   4.550   4.681   2.203
    2PC      HA11982   4.655   4.668   2.178
    2PC      HB11983   4.496   4.611   2.139
    2PC     O3111984   4.512   4.810   2.153
    2PC     P3111985   4.473   4.834   2.000
    2PC     O3211986   4.331   4.758   2.003
    2PC     C3111987   4.251   4.747   1.884
    2PC     H1A11988   4.154   4.713   1.922
    2PC     H1B11989   4.244   4.849   1.844
    2PC     C3211990   4.304   4.644   1.784
    2PC     H2A11991   4.405   4.672   1.755
    2PC     H2B11992   4.302   4.541   1.821
    2PC     N3111993   4.237   4.633   1.651
    2PC     C3311994   4.251   4.762   1.576
    2PC     H3A11995   4.357   4.767   1.548
    2PC     H3B11996   4.207   4.757   1.477
    2PC     H3C11997   4.209   4.847   1.631
    2PC     C3411998   4.301   4.532   1.560
    2PC     H4A11999   4.236   4.524   1.473
    2PC     H4B12000   4.401   4.570   1.536
    2PC     H4C12001   4.313   4.440   1.618
    2PC     C3512002   4.091   4.613   1.677
    2PC     H5A12003   4.049   4.639   1.580
    2PC     H5B12004   4.059   4.679   1.758
    2PC     H5C12005   4.067   4.511   1.708
    2PC     O3312006   4.464   4.976   1.959
    2PC     O3412007   4.580   4.768   1.922
    2PC     O2112008   4.367   4.659   2.362
    2PC     C2112009   4.281   4.570   2.311
    2PC     O2212010   4.317   4.470   2.251
    3OL     C1212011   4.138   4.601   2.346
    3OL     H2R12012   4.094   4.584   2.248
    3OL     H2S12013   4.125   4.704   2.380
    3OL     C1312014   4.087   4.506   2.456
    3OL     H3R12015   4.156   4.523   2.539
    3OL     H3S12016   4.087   4.400   2.433
    3OL     C1412017   3.946   4.524   2.513
    3OL     H4R12018   3.929   4.622   2.558
    3OL     H4S12019   3.939   4.462   2.602
    3OL     C1512020   3.834   4.496   2.411
    3OL     H5R12021   3.854   4.398   2.367
    3OL     H5S12022   3.837   4.561   2.323
    3OL     C1612023   3.694   4.488   2.472
    3OL     H6R12024   3.696   4.420   2.557
    3OL     H6S12025   3.621   4.456   2.397
    3OL     C1712026   3.646   4.617   2.541
    3OL     H7R12027   3.633   4.701   2.473
    3OL     H7S12028   3.715   4.644   2.620
    3OL     C1812029   3.511   4.608   2.613
    3OL     H8R12030   3.441   4.593   2.531
    3OL     H8S12031   3.488   4.706   2.656
    3OL     C1912032   3.486   4.500   2.715
    3OL     H9R12033   3.396   4.442   2.699
    3OL    C11012034   3.564   4.455   2.812
    3OL    H10R12035   3.530   4.374   2.876
    3OL    C11112036   3.685   4.520   2.875
    3OL    H11R12037   3.691   4.622   2.837
    3OL    H11S12038   3.777   4.468   2.847
    3OL    C11212039   3.669   4.507   3.027
    3OL    H12R12040   3.650   4.405   3.059
    3OL    H12S12041   3.582   4.555   3.071
    3OL    C11312042   3.801   4.563   3.083
    3OL    H13R12043   3.805   4.672   3.074
    3OL    H13S12044   3.884   4.523   3.025
    3OL    C11412045   3.826   4.512   3.225
    3OL    H14R12046   3.822   4.403   3.218
    3OL    H14S12047   3.738   4.538   3.284
    3OL    C11512048   3.963   4.553   3.282
    3OL    H15R12049   3.988   4.652   3.242
    3OL    H15S12050   4.040   4.494   3.233
    3OL    C11612051   3.959   4.531   3.433
    3OL    H16R12052   3.925   4.432   3.464
    3OL    H16S12053   3.888   4.599   3.480
    3OL    C11712054   4.097   4.545   3.500
    3OL    H17R12055   4.116   4.652   3.491
    3OL    H17S12056   4.174   4.494   3.442
    3OL    C11812057   4.112   4.505   3.648
    3OL    H18R12058   4.217   4.512   3.675
    3OL    H18S12059   4.075   4.406   3.675
    3OL    H18T12060   4.067   4.579   3.715
    1PA    C11612061   4.227   3.572   3.489
    1PA    H16R12062   4.197   3.573   3.593
    1PA    H16S12063   4.255   3.470   3.460
    1PA    H16T12064   4.139   3.596   3.429
    1PA    C11512065   4.340   3.676   3.477
    1PA    H15R12066   4.363   3.672   3.371
    1PA    H15S12067   4.312   3.776   3.510
    1PA    C11412068   4.460   3.634   3.564
    1PA    H14R12069   4.421   3.647   3.666
    1PA    H14S12070   4.484   3.528   3.562
    1PA    C11312071   4.591   3.708   3.534
    1PA    H13R12072   4.577   3.805   3.486
    1PA    H13S12073   4.645   3.719   3.627
    1PA    C11212074   4.679   3.621   3.444
    1PA    H12R12075   4.779   3.658   3.466
    1PA    H12S12076   4.670   3.515   3.469
    1PA    C11112077   4.647   3.637   3.294
    1PA    H11R12078   4.547   3.597   3.276
    1PA    H11S12079   4.635   3.742   3.269
    1PA    C11012080   4.748   3.570   3.200
    1PA    H10R12081   4.775   3.473   3.244
    1PA    H10S12082   4.692   3.556   3.108
    1PA     C1912083   4.878   3.649   3.183
    1PA     H9R12084   4.860   3.738   3.122
    1PA     H9S12085   4.920   3.671   3.282
    1PA     C1812086   4.985   3.569   3.108
    1PA     H8R12087   5.004   3.475   3.160
    1PA     H8S12088   4.948   3.553   3.007
    1PA     C1712089   5.109   3.657   3.086
    1PA     H7R12090   5.069   3.743   3.032
    1PA     H7S12091   5.151   3.696   3.179
    1PA     C1612092   5.211   3.592   2.991
    1PA     H6R12093   5.158   3.548   2.907
    1PA     H6S12094   5.267   3.677   2.954
    1PA     C1512095   5.303   3.493   3.064
    1PA     H5R12096   5.368   3.554   3.127
    1PA     H5S12097   5.248   3.417   3.120
    1PA     C1412098   5.421   3.436   2.984
    1PA     H4R12099   5.467   3.519   2.930
    1PA     H4S12100   5.494   3.397   3.055
    1PA     C1312101   5.378   3.327   2.885
    1PA     H3R12102   5.329   3.249   2.944
    1PA     H3S12103   5.303   3.370   2.818
    1PA     C1212104   5.500   3.275   2.808
    1PA     H2R12105   5.584   3.274   2.878
    1PA     H2S12106   5.487   3.175   2.767
    2PC     C1112107   5.536   3.354   2.685
    2PC     O1212108   5.642   3.413   2.675
    2PC     O1112109   5.433   3.362   2.599
    2PC      C112110   5.455   3.440   2.480
    2PC      HR12111   5.470   3.547   2.499
    2PC      HS12112   5.547   3.410   2.430
    2PC      C212113   5.332   3.414   2.392
    2PC      HX12114   5.317   3.306   2.387
    2PC      C312115   5.371   3.454   2.248
    2PC      HA12116   5.468   3.405   2.232
    2PC      HB12117   5.300   3.416   2.175
    2PC     O3112118   5.380   3.597   2.244
    2PC     P3112119   5.381   3.665   2.099
    2PC     O3212120   5.513   3.752   2.122
    2PC     C3112121   5.497   3.885   2.173
    2PC     H1A12122   5.426   3.935   2.108
    2PC     H1B12123   5.460   3.892   2.275
    2PC     C3212124   5.623   3.973   2.160
    2PC     H2A12125   5.598   4.069   2.205
    2PC     H2B12126   5.692   3.939   2.238
    2PC     N3112127   5.703   3.983   2.034
    2PC     C3312128   5.621   4.053   1.930
    2PC     H3A12129   5.684   4.073   1.843
    2PC     H3B12130   5.533   3.992   1.911
    2PC     H3C12131   5.604   4.151   1.977
    2PC     C3412132   5.819   4.074   2.063
    2PC     H4A12133   5.892   4.045   1.987
    2PC     H4B12134   5.791   4.178   2.046
    2PC     H4C12135   5.851   4.063   2.166
    2PC     C3512136   5.749   3.847   1.993
    2PC     H5A12137   5.664   3.778   1.988
    2PC     H5B12138   5.824   3.813   2.065
    2PC     H5C12139   5.798   3.855   1.896
    2PC     O3312140   5.391   3.577   1.980
    2PC     O3412141   5.271   3.758   2.064
    2PC     O2112142   5.215   3.478   2.446
    2PC     C2112143   5.097   3.465   2.385
    2PC     O2212144   5.080   3.403   2.282
    3OL     C1212145   4.995   3.553   2.453
    3OL     H2R12146   4.899   3.507   2.426
    3OL     H2S12147   4.996   3.649   2.401
    3OL     C1312148   5.001   3.570   2.605
    3OL     H3R12149   5.095   3.620   2.629
    3OL     H3S12150   4.995   3.467   2.642
    3OL     C1412151   4.878   3.636   2.668
    3OL     H4R12152   4.891   3.639   2.777
    3OL     H4S12153   4.787   3.578   2.653
    3OL     C1512154   4.864   3.784   2.630
    3OL     H5R12155   4.842   3.780   2.523
    3OL     H5S12156   4.957   3.840   2.636
    3OL     C1612157   4.769   3.867   2.718
    3OL     H6R12158   4.779   3.974   2.697
    3OL     H6S12159   4.791   3.849   2.823
    3OL     C1712160   4.620   3.832   2.706
    3OL     H7R12161   4.604   3.724   2.714
    3OL     H7S12162   4.592   3.851   2.603
    3OL     C1812163   4.531   3.909   2.805
    3OL     H8R12164   4.429   3.877   2.781
    3OL     H8S12165   4.529   4.016   2.784
    3OL     C1912166   4.551   3.872   2.950
    3OL     H9R12167   4.518   3.776   2.990
    3OL    C11012168   4.617   3.946   3.037
    3OL    H10R12169   4.614   3.913   3.141
    3OL    C11112170   4.688   4.077   3.013
    3OL    H11R12171   4.653   4.156   3.080
    3OL    H11S12172   4.678   4.106   2.909
    3OL    C11212173   4.839   4.061   3.033
    3OL    H12R12174   4.892   4.156   3.025
    3OL    H12S12175   4.870   4.004   2.945
    3OL    C11312176   4.879   4.005   3.170
    3OL    H13R12177   4.983   3.972   3.163
    3OL    H13S12178   4.824   3.913   3.191
    3OL    C11412179   4.852   4.102   3.286
    3OL    H14R12180   4.746   4.126   3.292
    3OL    H14S12181   4.899   4.200   3.275
    3OL    C11512182   4.897   4.041   3.420
    3OL    H15R12183   4.833   3.953   3.422
    3OL    H15S12184   4.860   4.097   3.506
    3OL    C11612185   5.044   4.000   3.436
    3OL    H16R12186   5.108   4.085   3.409
    3OL    H16S12187   5.071   3.912   3.378
    3OL    C11712188   5.084   3.979   3.582
    3OL    H17R12189   5.077   4.071   3.641
    3OL    H17S12190   5.184   3.937   3.594
    3OL    C11812191   4.985   3.888   3.655
    3OL    H18R12192   4.902   3.955   3.679
    3OL    H18S12193   5.031   3.847   3.745
    3OL    H18T12194   4.941   3.812   3.590
    1PA    C11612195   0.819   1.618   3.940
    1PA    H16R12196   0.786   1.676   4.027
    1PA    H16S12197   0.832   1.690   3.859
    1PA    H16T12198   0.918   1.585   3.970
    1PA    C11512199   0.723   1.501   3.913
    1PA    H15R12200   0.670   1.472   4.004
    1PA    H15S12201   0.643   1.535   3.847
    1PA    C11412202   0.796   1.385   3.845
    1PA    H14R12203   0.883   1.367   3.908
    1PA    H14S12204   0.741   1.291   3.850
    1PA    C11312205   0.845   1.401   3.701
    1PA    H13R12206   0.884   1.500   3.678
    1PA    H13S12207   0.928   1.335   3.672
    1PA    C11212208   0.739   1.361   3.597
    1PA    H12R12209   0.707   1.259   3.620
    1PA    H12S12210   0.648   1.418   3.617
    1PA    C11112211   0.786   1.387   3.454
    1PA    H11R12212   0.816   1.490   3.432
    1PA    H11S12213   0.879   1.330   3.439
    1PA    C11012214   0.688   1.335   3.348
    1PA    H10R12215   0.681   1.226   3.351
    1PA    H10S12216   0.588   1.373   3.367
    1PA     C1912217   0.743   1.378   3.211
    1PA     H9R12218   0.757   1.486   3.216
    1PA     H9S12219   0.834   1.321   3.193
    1PA     C1812220   0.644   1.337   3.101
    1PA     H8R12221   0.662   1.234   3.068
    1PA     H8S12222   0.538   1.334   3.130
    1PA     C1712223   0.657   1.440   2.988
    1PA     H7R12224   0.575   1.432   2.917
    1PA     H7S12225   0.645   1.541   3.028
    1PA     C1612226   0.791   1.435   2.914
    1PA     H6R12227   0.866   1.471   2.984
    1PA     H6S12228   0.803   1.334   2.873
    1PA     C1512229   0.793   1.521   2.786
    1PA     H5R12230   0.704   1.502   2.727
    1PA     H5S12231   0.796   1.625   2.817
    1PA     C1412232   0.925   1.482   2.717
    1PA     H4R12233   1.003   1.498   2.791
    1PA     H4S12234   0.920   1.377   2.688
    1PA     C1312235   0.954   1.562   2.589
    1PA     H3R12236   1.006   1.499   2.518
    1PA     H3S12237   0.857   1.582   2.541
    1PA     C1212238   1.029   1.692   2.624
    1PA     H2R12239   0.975   1.745   2.703
    1PA     H2S12240   1.132   1.672   2.654
    2PC     C1112241   1.012   1.792   2.513
    2PC     O1212242   1.006   1.761   2.395
    2PC     O1112243   0.989   1.916   2.560
    2PC      C112244   0.959   2.032   2.480
    2PC      HR12245   0.975   2.125   2.535
    2PC      HS12246   1.027   2.026   2.395
    2PC      C212247   0.821   2.027   2.413
    2PC      HX12248   0.813   1.932   2.361
    2PC      C312249   0.797   2.140   2.312
    2PC      HA12250   0.815   2.241   2.348
    2PC      HB12251   0.877   2.135   2.238
    2PC     O3112252   0.667   2.126   2.252
    2PC     P3112253   0.673   2.043   2.115
    2PC     O3212254   0.716   2.178   2.042
    2PC     C3112255   0.737   2.187   1.900
    2PC     H1A12256   0.816   2.260   1.878
    2PC     H1B12257   0.788   2.095   1.872
    2PC     C3212258   0.610   2.204   1.815
    2PC     H2A12259   0.635   2.211   1.709
    2PC     H2B12260   0.541   2.122   1.838
    2PC     N3112261   0.533   2.330   1.840
    2PC     C3312262   0.452   2.319   1.966
    2PC     H3A12263   0.517   2.288   2.047
    2PC     H3B12264   0.434   2.424   1.991
    2PC     H3C12265   0.359   2.265   1.947
    2PC     C3412266   0.618   2.453   1.836
    2PC     H4A12267   0.669   2.473   1.931
    2PC     H4B12268   0.686   2.448   1.752
    2PC     H4C12269   0.553   2.537   1.812
    2PC     C3512270   0.436   2.347   1.727
    2PC     H5A12271   0.373   2.433   1.752
    2PC     H5B12272   0.381   2.255   1.707
    2PC     H5C12273   0.497   2.375   1.641
    2PC     O3312274   0.778   1.938   2.111
    2PC     O3412275   0.542   2.002   2.059
    2PC     O2112276   0.712   2.038   2.507
    2PC     C2112277   0.673   1.936   2.584
    2PC     O2212278   0.729   1.831   2.556
    3OL     C1212279   0.562   1.968   2.681
    3OL     H2R12280   0.459   1.959   2.645
    3OL     H2S12281   0.568   2.077   2.691
    3OL     C1312282   0.578   1.896   2.815
    3OL     H3R12283   0.674   1.928   2.857
    3OL     H3S12284   0.567   1.789   2.796
    3OL     C1412285   0.468   1.945   2.911
    3OL     H4R12286   0.378   1.943   2.848
    3OL     H4S12287   0.483   2.047   2.947
    3OL     C1512288   0.466   1.858   3.037
    3OL     H5R12289   0.493   1.756   3.009
    3OL     H5S12290   0.366   1.845   3.080
    3OL     C1612291   0.558   1.902   3.152
    3OL     H6R12292   0.529   1.996   3.200
    3OL     H6S12293   0.663   1.899   3.119
    3OL     C1712294   0.542   1.801   3.266
    3OL     H7R12295   0.567   1.705   3.219
    3OL     H7S12296   0.436   1.805   3.289
    3OL     C1812297   0.620   1.840   3.392
    3OL     H8R12298   0.591   1.943   3.413
    3OL     H8S12299   0.727   1.829   3.371
    3OL     C1912300   0.588   1.750   3.509
    3OL     H9R12301   0.658   1.671   3.538
    3OL    C11012302   0.480   1.755   3.584
    3OL    H10R12303   0.480   1.678   3.661
    3OL    C11112304   0.373   1.862   3.585
    3OL    H11R12305   0.322   1.871   3.489
    3OL    H11S12306   0.422   1.956   3.611
    3OL    C11212307   0.262   1.823   3.684
    3OL    H12R12308   0.318   1.811   3.777
    3OL    H12S12309   0.214   1.736   3.639
    3OL    C11312310   0.174   1.948   3.698
    3OL    H13R12311   0.144   1.980   3.598
    3OL    H13S12312   0.244   2.027   3.726
    3OL    C11412313   0.069   1.936   3.810
    3OL    H14R12314   0.122   1.936   3.906
    3OL    H14S12315   0.022   1.838   3.805
    3OL    C11512316  -0.031   2.052   3.805
    3OL    H15R12317  -0.100   2.048   3.720
    3OL    H15S12318   0.019   2.147   3.789
    3OL    C11612319  -0.110   2.047   3.937
    3OL    H16R12320  -0.043   2.056   4.022
    3OL    H16S12321  -0.149   1.945   3.944
    3OL    C11712322  -0.233   2.139   3.938
    3OL    H17R12323  -0.290   2.119   3.847
    3OL    H17S12324  -0.194   2.241   3.934
    3OL    C11812325  -0.325   2.113   4.059
    3OL    H18R12326  -0.334   2.008   4.087
    3OL    H18S12327  -0.426   2.150   4.039
    3OL    H18T12328  -0.282   2.168   4.142
    1PA    C11612329   2.118   0.646   3.867
    1PA    H16R12330   2.125   0.538   3.854
    1PA    H16S12331   2.047   0.670   3.946
    1PA    H16T12332   2.215   0.678   3.906
    1PA    C11512333   2.085   0.706   3.730
    1PA    H15R12334   2.052   0.810   3.739
    1PA    H15S12335   2.177   0.704   3.671
    1PA    C11412336   1.975   0.622   3.663
    1PA    H14R12337   2.011   0.519   3.652
    1PA    H14S12338   1.886   0.629   3.726
    1PA    C11312339   1.934   0.682   3.527
    1PA    H13R12340   2.019   0.696   3.461
    1PA    H13S12341   1.882   0.606   3.469
    1PA    C11212342   1.848   0.809   3.540
    1PA    H12R12343   1.759   0.787   3.598
    1PA    H12S12344   1.905   0.888   3.589
    1PA    C11112345   1.820   0.857   3.397
    1PA    H11R12346   1.770   0.953   3.405
    1PA    H11S12347   1.919   0.862   3.351
    1PA    C11012348   1.729   0.762   3.317
    1PA    H10R12349   1.777   0.665   3.302
    1PA    H10S12350   1.633   0.754   3.369
    1PA     C1912351   1.704   0.817   3.176
    1PA     H9R12352   1.784   0.871   3.125
    1PA     H9S12353   1.683   0.737   3.105
    1PA     C1812354   1.584   0.913   3.167
    1PA     H8R12355   1.492   0.866   3.202
    1PA     H8S12356   1.601   1.000   3.230
    1PA     C1712357   1.570   0.976   3.028
    1PA     H7R12358   1.494   1.054   3.032
    1PA     H7S12359   1.654   1.045   3.012
    1PA     C1612360   1.551   0.876   2.913
    1PA     H6R12361   1.646   0.823   2.899
    1PA     H6S12362   1.471   0.807   2.941
    1PA     C1512363   1.518   0.948   2.782
    1PA     H5R12364   1.583   1.036   2.777
    1PA     H5S12365   1.539   0.894   2.689
    1PA     C1412366   1.372   0.994   2.770
    1PA     H4R12367   1.332   1.009   2.871
    1PA     H4S12368   1.381   1.096   2.731
    1PA     C1312369   1.281   0.899   2.692
    1PA     H3R12370   1.320   0.879   2.592
    1PA     H3S12371   1.261   0.808   2.751
    1PA     C1212372   1.141   0.963   2.694
    1PA     H2R12373   1.127   0.997   2.796
    1PA     H2S12374   1.144   1.046   2.623
    2PC     C1112375   1.034   0.863   2.657
    2PC     O1212376   1.028   0.747   2.692
    2PC     O1112377   0.947   0.928   2.578
    2PC      C112378   0.850   0.853   2.504
    2PC      HR12379   0.896   0.795   2.424
    2PC      HS12380   0.808   0.784   2.578
    2PC      C212381   0.751   0.956   2.448
    2PC      HX12382   0.675   0.897   2.397
    2PC      C312383   0.823   1.043   2.344
    2PC      HA12384   0.908   1.097   2.386
    2PC      HB12385   0.863   0.991   2.256
    2PC     O3112386   0.722   1.127   2.284
    2PC     P3112387   0.776   1.267   2.229
    2PC     O3212388   0.730   1.370   2.343
    2PC     C3112389   0.590   1.405   2.356
    2PC     H1A12390   0.530   1.314   2.354
    2PC     H1B12391   0.576   1.444   2.457
    2PC     C3212392   0.537   1.493   2.242
    2PC     H2A12393   0.542   1.434   2.150
    2PC     H2B12394   0.433   1.513   2.267
    2PC     N3112395   0.596   1.631   2.234
    2PC     C3312396   0.524   1.712   2.337
    2PC     H3A12397   0.540   1.814   2.302
    2PC     H3B12398   0.417   1.689   2.332
    2PC     H3C12399   0.560   1.689   2.437
    2PC     C3412400   0.744   1.637   2.255
    2PC     H4A12401   0.785   1.568   2.181
    2PC     H4B12402   0.774   1.740   2.235
    2PC     H4C12403   0.776   1.606   2.354
    2PC     C3512404   0.565   1.679   2.095
    2PC     H5A12405   0.597   1.781   2.072
    2PC     H5B12406   0.457   1.679   2.084
    2PC     H5C12407   0.603   1.609   2.020
    2PC     O3312408   0.919   1.276   2.191
    2PC     O3412409   0.708   1.298   2.101
    2PC     O2112410   0.705   1.038   2.557
    2PC     C2112411   0.607   0.989   2.635
    2PC     O2212412   0.538   0.894   2.606
    3OL     C1212413   0.590   1.082   2.752
    3OL     H2R12414   0.520   1.160   2.722
    3OL     H2S12415   0.684   1.133   2.775
    3OL     C1312416   0.529   1.015   2.875
    3OL     H3R12417   0.423   0.996   2.859
    3OL     H3S12418   0.548   1.088   2.954
    3OL     C1412419   0.595   0.887   2.928
    3OL     H4R12420   0.588   0.818   2.843
    3OL     H4S12421   0.542   0.848   3.016
    3OL     C1512422   0.742   0.896   2.973
    3OL     H5R12423   0.734   0.952   3.067
    3OL     H5S12424   0.804   0.940   2.895
    3OL     C1612425   0.795   0.759   3.018
    3OL     H6R12426   0.782   0.696   2.930
    3OL     H6S12427   0.742   0.706   3.097
    3OL     C1712428   0.945   0.774   3.049
    3OL     H7R12429   0.951   0.848   3.129
    3OL     H7S12430   0.999   0.805   2.959
    3OL     C1812431   1.008   0.648   3.110
    3OL     H8R12432   0.977   0.566   3.045
    3OL     H8S12433   0.975   0.641   3.214
    3OL     C1912434   1.157   0.664   3.105
    3OL     H9R12435   1.203   0.639   3.010
    3OL    C11012436   1.237   0.699   3.205
    3OL    H10R12437   1.343   0.696   3.183
    3OL    C11112438   1.201   0.735   3.347
    3OL    H11R12439   1.197   0.641   3.402
    3OL    H11S12440   1.102   0.782   3.351
    3OL    C11212441   1.313   0.817   3.412
    3OL    H12R12442   1.329   0.899   3.341
    3OL    H12S12443   1.409   0.764   3.404
    3OL    C11312444   1.286   0.849   3.559
    3OL    H13R12445   1.231   0.761   3.596
    3OL    H13S12446   1.217   0.933   3.562
    3OL    C11412447   1.399   0.911   3.642
    3OL    H14R12448   1.426   1.010   3.604
    3OL    H14S12449   1.483   0.841   3.645
    3OL    C11512450   1.355   0.916   3.789
    3OL    H15R12451   1.339   0.814   3.826
    3OL    H15S12452   1.260   0.967   3.804
    3OL    C11612453   1.460   0.975   3.884
    3OL    H16R12454   1.511   1.063   3.842
    3OL    H16S12455   1.541   0.902   3.888
    3OL    C11712456   1.414   0.989   4.030
    3OL    H17R12457   1.379   0.890   4.062
    3OL    H17S12458   1.327   1.054   4.023
    3OL    C11812459   1.519   1.063   4.113
    3OL    H18R12460   1.474   1.115   4.199
    3OL    H18S12461   1.566   1.137   4.049
    3OL    H18T12462   1.591   0.990   4.150
    1PA    C11612463   3.455   0.009   3.393
    1PA    H16R12464   3.442  -0.057   3.306
    1PA    H16S12465   3.491   0.109   3.369
    1PA    H16T12466   3.356   0.018   3.436
    1PA    C11512467   3.540  -0.043   3.510
    1PA    H15R12468   3.554   0.043   3.576
    1PA    H15S12469   3.480  -0.124   3.552
    1PA    C11412470   3.676  -0.099   3.466
    1PA    H14R12471   3.729  -0.154   3.544
    1PA    H14S12472   3.664  -0.160   3.377
    1PA    C11312473   3.760   0.021   3.420
    1PA    H13R12474   3.718   0.080   3.338
    1PA    H13S12475   3.767   0.098   3.497
    1PA    C11212476   3.901  -0.033   3.393
    1PA    H12R12477   3.932  -0.084   3.484
    1PA    H12S12478   3.908  -0.108   3.314
    1PA    C11112479   3.997   0.077   3.345
    1PA    H11R12480   3.953   0.119   3.254
    1PA    H11S12481   4.003   0.159   3.417
    1PA    C11012482   4.141   0.027   3.327
    1PA    H10R12483   4.193   0.012   3.422
    1PA    H10S12484   4.147  -0.072   3.281
    1PA     C1912485   4.231   0.129   3.257
    1PA     H9R12486   4.196   0.233   3.265
    1PA     H9S12487   4.337   0.115   3.279
    1PA     C1812488   4.220   0.103   3.106
    1PA     H8R12489   4.264   0.005   3.086
    1PA     H8S12490   4.117   0.107   3.069
    1PA     C1712491   4.307   0.200   3.025
    1PA     H7R12492   4.275   0.300   3.054
    1PA     H7S12493   4.411   0.201   3.055
    1PA     C1612494   4.304   0.182   2.873
    1PA     H6R12495   4.345   0.082   2.857
    1PA     H6S12496   4.205   0.182   2.827
    1PA     C1512497   4.400   0.281   2.805
    1PA     H5R12498   4.453   0.336   2.883
    1PA     H5S12499   4.475   0.222   2.750
    1PA     C1412500   4.355   0.391   2.707
    1PA     H4R12501   4.268   0.432   2.759
    1PA     H4S12502   4.436   0.464   2.709
    1PA     C1312503   4.303   0.343   2.571
    1PA     H3R12504   4.395   0.304   2.528
    1PA     H3S12505   4.238   0.256   2.581
    1PA     C1212506   4.249   0.462   2.490
    1PA     H2R12507   4.163   0.502   2.543
    1PA     H2S12508   4.327   0.537   2.482
    2PC     C1112509   4.196   0.440   2.350
    2PC     O1212510   4.253   0.487   2.255
    2PC     O1112511   4.089   0.359   2.345
    2PC      C112512   4.038   0.346   2.211
    2PC      HR12513   4.022   0.449   2.179
    2PC      HS12514   4.109   0.302   2.140
    2PC      C212515   3.905   0.269   2.210
    2PC      HX12516   3.906   0.171   2.258
    2PC      C312517   3.853   0.240   2.068
    2PC      HA12518   3.899   0.151   2.026
    2PC      HB12519   3.745   0.226   2.063
    2PC     O3112520   3.875   0.343   1.970
    2PC     P3112521   3.879   0.296   1.817
    2PC     O3212522   3.917   0.415   1.716
    2PC     C3112523   4.055   0.445   1.689
    2PC     H1A12524   4.089   0.523   1.757
    2PC     H1B12525   4.119   0.357   1.707
    2PC     C3212526   4.061   0.508   1.549
    2PC     H2A12527   3.990   0.447   1.494
    2PC     H2B12528   4.025   0.611   1.548
    2PC     N3112529   4.188   0.505   1.470
    2PC     C3312530   4.237   0.364   1.468
    2PC     H3A12531   4.279   0.339   1.566
    2PC     H3B12532   4.155   0.294   1.449
    2PC     H3C12533   4.308   0.347   1.387
    2PC     C3412534   4.179   0.555   1.329
    2PC     H4A12535   4.129   0.487   1.261
    2PC     H4B12536   4.122   0.648   1.331
    2PC     H4C12537   4.280   0.575   1.293
    2PC     C3512538   4.281   0.605   1.532
    2PC     H5A12539   4.303   0.580   1.636
    2PC     H5B12540   4.244   0.707   1.518
    2PC     H5C12541   4.376   0.600   1.478
    2PC     O3312542   3.961   0.175   1.794
    2PC     O3412543   3.743   0.247   1.788
    2PC     O2112544   3.819   0.359   2.282
    2PC     C2112545   3.698   0.326   2.331
    2PC     O2212546   3.637   0.226   2.298
    3OL     C1212547   3.646   0.436   2.420
    3OL     H2R12548   3.602   0.518   2.362
    3OL     H2S12549   3.727   0.474   2.483
    3OL     C1312550   3.545   0.381   2.521
    3OL     H3R12551   3.603   0.313   2.584
    3OL     H3S12552   3.467   0.324   2.472
    3OL     C1412553   3.499   0.504   2.601
    3OL     H4R12554   3.456   0.580   2.535
    3OL     H4S12555   3.588   0.546   2.649
    3OL     C1512556   3.403   0.475   2.717
    3OL     H5R12557   3.445   0.398   2.782
    3OL     H5S12558   3.311   0.433   2.675
    3OL     C1612559   3.372   0.597   2.805
    3OL     H6R12560   3.275   0.582   2.854
    3OL     H6S12561   3.359   0.682   2.737
    3OL     C1712562   3.481   0.619   2.909
    3OL     H7R12563   3.446   0.712   2.954
    3OL     H7S12564   3.584   0.636   2.875
    3OL     C1812565   3.479   0.518   3.025
    3OL     H8R12566   3.519   0.423   2.990
    3OL     H8S12567   3.371   0.502   3.034
    3OL     C1912568   3.551   0.564   3.150
    3OL     H9R12569   3.503   0.651   3.196
    3OL    C11012570   3.652   0.502   3.208
    3OL    H10R12571   3.692   0.549   3.297
    3OL    C11112572   3.730   0.388   3.147
    3OL    H11R12573   3.712   0.380   3.039
    3OL    H11S12574   3.695   0.292   3.186
    3OL    C11212575   3.882   0.392   3.170
    3OL    H12R12576   3.921   0.307   3.115
    3OL    H12S12577   3.911   0.384   3.275
    3OL    C11312578   3.932   0.524   3.111
    3OL    H13R12579   3.927   0.608   3.181
    3OL    H13S12580   3.883   0.543   3.016
    3OL    C11412581   4.081   0.504   3.080
    3OL    H14R12582   4.102   0.430   3.003
    3OL    H14S12583   4.118   0.481   3.180
    3OL    C11512584   4.153   0.631   3.033
    3OL    H15R12585   4.129   0.712   3.102
    3OL    H15S12586   4.121   0.652   2.931
    3OL    C11612587   4.303   0.602   3.049
    3OL    H16R12588   4.327   0.517   2.985
    3OL    H16S12589   4.322   0.576   3.153
    3OL    C11712590   4.384   0.725   3.004
    3OL    H17R12591   4.334   0.775   2.920
    3OL    H17S12592   4.485   0.696   2.975
    3OL    C11812593   4.387   0.837   3.109
    3OL    H18R12594   4.452   0.813   3.194
    3OL    H18S12595   4.291   0.873   3.145
    3OL    H18T12596   4.438   0.922   3.064
    1PA    C11612597   3.875   0.401   2.740
    1PA    H16R12598   3.882   0.459   2.647
    1PA    H16S12599   3.955   0.440   2.804
    1PA    H16T12600   3.786   0.414   2.802
    1PA    C11512601   3.897   0.251   2.720
    1PA    H15R12602   3.815   0.211   2.661
    1PA    H15S12603   3.992   0.233   2.668
    1PA    C11412604   3.883   0.173   2.852
    1PA    H14R12605   3.974   0.186   2.911
    1PA    H14S12606   3.789   0.209   2.894
    1PA    C11312607   3.859   0.022   2.843
    1PA    H13R12608   3.820  -0.008   2.745
    1PA    H13S12609   3.953  -0.028   2.867
    1PA    C11212610   3.765  -0.016   2.958
    1PA    H12R12611   3.816   0.004   3.053
    1PA    H12S12612   3.680   0.053   2.958
    1PA    C11112613   3.717  -0.161   2.952
    1PA    H11R12614   3.642  -0.166   2.872
    1PA    H11S12615   3.799  -0.230   2.932
    1PA    C11012616   3.653  -0.204   3.085
    1PA    H10R12617   3.733  -0.229   3.154
    1PA    H10S12618   3.604  -0.123   3.139
    1PA     C1912619   3.550  -0.318   3.072
    1PA     H9R12620   3.594  -0.393   3.007
    1PA     H9S12621   3.533  -0.360   3.172
    1PA     C1812622   3.420  -0.268   3.007
    1PA     H8R12623   3.368  -0.188   3.060
    1PA     H8S12624   3.450  -0.231   2.909
    1PA     C1712625   3.322  -0.385   2.989
    1PA     H7R12626   3.378  -0.476   2.965
    1PA     H7S12627   3.267  -0.404   3.081
    1PA     C1612628   3.229  -0.358   2.870
    1PA     H6R12629   3.179  -0.264   2.892
    1PA     H6S12630   3.282  -0.338   2.777
    1PA     C1512631   3.125  -0.469   2.852
    1PA     H5R12632   3.166  -0.566   2.880
    1PA     H5S12633   3.054  -0.455   2.934
    1PA     C1412634   3.066  -0.477   2.710
    1PA     H4R12635   3.144  -0.465   2.634
    1PA     H4S12636   3.021  -0.576   2.696
    1PA     C1312637   2.960  -0.370   2.682
    1PA     H3R12638   2.869  -0.390   2.738
    1PA     H3S12639   2.988  -0.267   2.702
    1PA     C1212640   2.913  -0.378   2.536
    1PA     H2R12641   2.883  -0.477   2.501
    1PA     H2S12642   2.816  -0.328   2.538
    2PC     C1112643   3.007  -0.305   2.444
    2PC     O1212644   3.024  -0.328   2.326
    2PC     O1112645   3.065  -0.197   2.499
    2PC      C112646   3.124  -0.093   2.418
    2PC      HR12647   3.201  -0.035   2.469
    2PC      HS12648   3.183  -0.136   2.337
    2PC      C212649   3.009  -0.020   2.348
    2PC      HX12650   2.968  -0.091   2.275
    2PC      C312651   3.062   0.100   2.268
    2PC      HA12652   3.085   0.173   2.346
    2PC      HB12653   3.155   0.073   2.218
    2PC     O3112654   2.980   0.147   2.160
    2PC     P3112655   3.043   0.240   2.046
    2PC     O3212656   2.925   0.348   2.034
    2PC     C3112657   2.798   0.298   1.990
    2PC     H1A12658   2.810   0.232   1.904
    2PC     H1B12659   2.765   0.235   2.074
    2PC     C3212660   2.701   0.409   1.946
    2PC     H2A12661   2.600   0.371   1.935
    2PC     H2B12662   2.697   0.502   2.004
    2PC     N3112663   2.731   0.463   1.810
    2PC     C3312664   2.663   0.595   1.787
    2PC     H3A12665   2.708   0.630   1.693
    2PC     H3B12666   2.556   0.578   1.782
    2PC     H3C12667   2.688   0.667   1.865
    2PC     C3412668   2.875   0.504   1.795
    2PC     H4A12669   2.913   0.571   1.873
    2PC     H4B12670   2.934   0.414   1.811
    2PC     H4C12671   2.895   0.540   1.694
    2PC     C3512672   2.689   0.362   1.708
    2PC     H5A12673   2.661   0.413   1.615
    2PC     H5B12674   2.594   0.324   1.746
    2PC     H5C12675   2.772   0.294   1.695
    2PC     O3312676   3.177   0.294   2.079
    2PC     O3412677   3.062   0.158   1.924
    2PC     O2112678   2.907   0.019   2.441
    2PC     C2112679   2.789  -0.045   2.442
    2PC     O2212680   2.750  -0.123   2.357
    3OL     C1212681   2.698   0.004   2.552
    3OL     H2R12682   2.593  -0.005   2.522
    3OL     H2S12683   2.717   0.111   2.564
    3OL     C1312684   2.709  -0.072   2.685
    3OL     H3R12685   2.815  -0.082   2.709
    3OL     H3S12686   2.656  -0.167   2.675
    3OL     C1412687   2.646   0.005   2.802
    3OL     H4R12688   2.577  -0.062   2.854
    3OL     H4S12689   2.594   0.096   2.773
    3OL     C1512690   2.754   0.050   2.901
    3OL     H5R12691   2.829   0.107   2.846
    3OL     H5S12692   2.796  -0.042   2.944
    3OL     C1612693   2.713   0.136   3.022
    3OL     H6R12694   2.667   0.228   2.985
    3OL     H6S12695   2.809   0.170   3.062
    3OL     C1712696   2.637   0.055   3.128
    3OL     H7R12697   2.686  -0.039   3.153
    3OL     H7S12698   2.539   0.032   3.087
    3OL     C1812699   2.617   0.144   3.252
    3OL     H8R12700   2.710   0.193   3.281
    3OL     H8S12701   2.586   0.079   3.334
    3OL     C1912702   2.512   0.249   3.226
    3OL     H9R12703   2.522   0.277   3.121
    3OL    C11012704   2.427   0.310   3.307
    3OL    H10R12705   2.370   0.392   3.265
    3OL    C11112706   2.413   0.301   3.457
    3OL    H11R12707   2.484   0.227   3.494
    3OL    H11S12708   2.312   0.272   3.489
    3OL    C11212709   2.446   0.429   3.534
    3OL    H12R12710   2.395   0.517   3.496
    3OL    H12S12711   2.554   0.444   3.522
    3OL    C11312712   2.423   0.415   3.685
    3OL    H13R12713   2.468   0.327   3.731
    3OL    H13S12714   2.316   0.408   3.705
    3OL    C11412715   2.473   0.536   3.765
    3OL    H14R12716   2.403   0.621   3.761
    3OL    H14S12717   2.570   0.562   3.722
    3OL    C11512718   2.500   0.502   3.912
    3OL    H15R12719   2.588   0.438   3.913
    3OL    H15S12720   2.414   0.453   3.958
    3OL    C11612721   2.544   0.620   4.001
    3OL    H16R12722   2.503   0.605   4.101
    3OL    H16S12723   2.485   0.703   3.962
    3OL    C11712724   2.695   0.648   3.996
    3OL    H17R12725   2.697   0.757   4.006
    3OL    H17S12726   2.732   0.617   3.899
    3OL    C11812727   2.773   0.573   4.105
    3OL    H18R12728   2.712   0.576   4.196
    3OL    H18S12729   2.877   0.605   4.117
    3OL    H18T12730   2.780   0.468   4.076
    1PA    C11612731   1.633   5.699   3.914
    1PA    H16R12732   1.628   5.697   4.023
    1PA    H16S12733   1.622   5.805   3.889
    1PA    H16T12734   1.733   5.667   3.886
    1PA    C11512735   1.536   5.600   3.849
    1PA    H15R12736   1.571   5.497   3.843
    1PA    H15S12737   1.446   5.584   3.908
    1PA    C11412738   1.489   5.636   3.707
    1PA    H14R12739   1.402   5.575   3.682
    1PA    H14S12740   1.455   5.740   3.710
    1PA    C11312741   1.603   5.599   3.611
    1PA    H13R12742   1.683   5.672   3.622
    1PA    H13S12743   1.641   5.500   3.636
    1PA    C11212744   1.566   5.598   3.462
    1PA    H12R12745   1.479   5.533   3.450
    1PA    H12S12746   1.542   5.698   3.425
    1PA    C11112747   1.672   5.531   3.373
    1PA    H11R12748   1.751   5.605   3.357
    1PA    H11S12749   1.702   5.437   3.419
    1PA    C11012750   1.619   5.516   3.230
    1PA    H10R12751   1.536   5.444   3.223
    1PA    H10S12752   1.580   5.612   3.197
    1PA     C1912753   1.727   5.476   3.129
    1PA     H9R12754   1.812   5.543   3.143
    1PA     H9S12755   1.759   5.373   3.149
    1PA     C1812756   1.688   5.472   2.981
    1PA     H8R12757   1.638   5.379   2.954
    1PA     H8S12758   1.623   5.558   2.964
    1PA     C1712759   1.805   5.502   2.886
    1PA     H7R12760   1.852   5.598   2.907
    1PA     H7S12761   1.883   5.429   2.906
    1PA     C1612762   1.757   5.497   2.740
    1PA     H6R12763   1.727   5.398   2.707
    1PA     H6S12764   1.680   5.572   2.717
    1PA     C1512765   1.864   5.531   2.636
    1PA     H5R12766   1.903   5.630   2.657
    1PA     H5S12767   1.943   5.455   2.634
    1PA     C1412768   1.801   5.536   2.496
    1PA     H4R12769   1.773   5.437   2.460
    1PA     H4S12770   1.709   5.594   2.510
    1PA     C1312771   1.887   5.602   2.387
    1PA     H3R12772   1.814   5.640   2.315
    1PA     H3S12773   1.936   5.692   2.424
    1PA     C1212774   1.974   5.495   2.321
    1PA     H2R12775   2.062   5.469   2.380
    1PA     H2S12776   1.914   5.404   2.308
    2PC     C1112777   2.028   5.539   2.187
    2PC     O1212778   1.993   5.635   2.121
    2PC     O1112779   2.120   5.452   2.142
    2PC      C112780   2.182   5.478   2.015
    2PC      HR12781   2.100   5.471   1.943
    2PC      HS12782   2.223   5.579   2.020
    2PC      C212783   2.298   5.379   1.996
    2PC      HX12784   2.350   5.380   1.899
    2PC      C312785   2.246   5.238   2.025
    2PC      HA12786   2.213   5.239   2.129
    2PC      HB12787   2.157   5.202   1.973
    2PC     O3112788   2.351   5.140   2.024
    2PC     P3112789   2.412   5.093   1.884
    2PC     O3212790   2.485   5.219   1.818
    2PC     C3112791   2.622   5.249   1.850
    2PC     H1A12792   2.643   5.276   1.954
    2PC     H1B12793   2.680   5.158   1.828
    2PC     C3212794   2.667   5.372   1.771
    2PC     H2A12795   2.635   5.460   1.828
    2PC     H2B12796   2.776   5.380   1.763
    2PC     N3112797   2.609   5.396   1.635
    2PC     C3312798   2.591   5.281   1.540
    2PC     H3A12799   2.548   5.320   1.448
    2PC     H3B12800   2.680   5.220   1.526
    2PC     H3C12801   2.514   5.219   1.586
    2PC     C3412802   2.473   5.458   1.647
    2PC     H4A12803   2.483   5.558   1.690
    2PC     H4B12804   2.413   5.471   1.557
    2PC     H4C12805   2.432   5.394   1.725
    2PC     C3512806   2.688   5.502   1.565
    2PC     H5A12807   2.691   5.589   1.632
    2PC     H5B12808   2.649   5.525   1.466
    2PC     H5C12809   2.784   5.455   1.542
    2PC     O3312810   2.512   4.984   1.900
    2PC     O3412811   2.298   5.048   1.801
    2PC     O2112812   2.394   5.403   2.100
    2PC     C2112813   2.469   5.514   2.113
    2PC     O2212814   2.460   5.615   2.047
    3OL     C1212815   2.556   5.504   2.235
    3OL     H2R12816   2.652   5.464   2.201
    3OL     H2S12817   2.517   5.429   2.304
    3OL     C1312818   2.574   5.635   2.313
    3OL     H3R12819   2.599   5.717   2.245
    3OL     H3S12820   2.664   5.608   2.370
    3OL     C1412821   2.458   5.671   2.406
    3OL     H4R12822   2.444   5.578   2.462
    3OL     H4S12823   2.372   5.698   2.345
    3OL     C1512824   2.502   5.779   2.506
    3OL     H5R12825   2.566   5.851   2.455
    3OL     H5S12826   2.561   5.737   2.587
    3OL     C1612827   2.383   5.842   2.580
    3OL     H6R12828   2.322   5.762   2.623
    3OL     H6S12829   2.321   5.899   2.510
    3OL     C1712830   2.426   5.940   2.690
    3OL     H7R12831   2.457   6.029   2.636
    3OL     H7S12832   2.508   5.902   2.751
    3OL     C1812833   2.311   5.968   2.788
    3OL     H8R12834   2.284   5.886   2.854
    3OL     H8S12835   2.219   5.988   2.733
    3OL     C1912836   2.332   6.093   2.870
    3OL     H9R12837   2.287   6.183   2.827
    3OL    C11012838   2.387   6.107   2.989
    3OL    H10R12839   2.389   6.202   3.042
    3OL    C11112840   2.442   5.993   3.071
    3OL    H11R12841   2.443   5.897   3.017
    3OL    H11S12842   2.377   5.985   3.158
    3OL    C11212843   2.587   6.017   3.116
    3OL    H12R12844   2.608   5.932   3.182
    3OL    H12S12845   2.601   6.102   3.183
    3OL    C11312846   2.684   6.039   3.000
    3OL    H13R12847   2.670   6.127   2.937
    3OL    H13S12848   2.669   5.951   2.937
    3OL    C11412849   2.827   6.027   3.055
    3OL    H14R12850   2.888   6.065   2.972
    3OL    H14S12851   2.855   5.925   3.081
    3OL    C11512852   2.856   6.121   3.172
    3OL    H15R12853   2.778   6.107   3.247
    3OL    H15S12854   2.843   6.226   3.143
    3OL    C11612855   2.993   6.104   3.237
    3OL    H16R12856   3.075   6.122   3.167
    3OL    H16S12857   3.002   6.002   3.275
    3OL    C11712858   3.010   6.208   3.349
    3OL    H17R12859   2.931   6.201   3.423
    3OL    H17S12860   3.005   6.302   3.294
    3OL    C11812861   3.146   6.212   3.421
    3OL    H18R12862   3.171   6.112   3.458
    3OL    H18S12863   3.149   6.283   3.503
    3OL    H18T12864   3.230   6.226   3.353
    1PA    C11612865   4.621   0.741   3.439
    1PA    H16R12866   4.606   0.733   3.331
    1PA    H16S12867   4.727   0.724   3.458
    1PA    H16T12868   4.606   0.843   3.472
    1PA    C11512869   4.530   0.633   3.499
    1PA    H15R12870   4.546   0.538   3.448
    1PA    H15S12871   4.574   0.620   3.598
    1PA    C11412872   4.386   0.686   3.497
    1PA    H14R12873   4.375   0.793   3.517
    1PA    H14S12874   4.354   0.672   3.394
    1PA    C11312875   4.279   0.628   3.591
    1PA    H13R12876   4.257   0.521   3.576
    1PA    H13S12877   4.308   0.635   3.696
    1PA    C11212878   4.150   0.711   3.580
    1PA    H12R12879   4.104   0.721   3.678
    1PA    H12S12880   4.169   0.808   3.533
    1PA    C11112881   4.051   0.643   3.483
    1PA    H11R12882   4.100   0.630   3.387
    1PA    H11S12883   4.011   0.549   3.522
    1PA    C11012884   3.923   0.723   3.457
    1PA    H10R12885   3.866   0.669   3.382
    1PA    H10S12886   3.869   0.729   3.551
    1PA     C1912887   3.955   0.864   3.404
    1PA     H9R12888   3.997   0.912   3.493
    1PA     H9S12889   4.028   0.859   3.323
    1PA     C1812890   3.830   0.943   3.362
    1PA     H8R12891   3.759   0.963   3.443
    1PA     H8S12892   3.864   1.043   3.333
    1PA     C1712893   3.759   0.884   3.239
    1PA     H7R12894   3.738   0.780   3.263
    1PA     H7S12895   3.662   0.935   3.234
    1PA     C1612896   3.843   0.889   3.111
    1PA     H6R12897   3.863   0.993   3.084
    1PA     H6S12898   3.936   0.839   3.141
    1PA     C1512899   3.782   0.828   2.985
    1PA     H5R12900   3.771   0.720   2.999
    1PA     H5S12901   3.685   0.874   2.967
    1PA     C1412902   3.886   0.845   2.874
    1PA     H4R12903   3.888   0.953   2.857
    1PA     H4S12904   3.975   0.792   2.906
    1PA     C1312905   3.838   0.783   2.742
    1PA     H3R12906   3.925   0.762   2.679
    1PA     H3S12907   3.809   0.683   2.775
    1PA     C1212908   3.727   0.857   2.665
    1PA     H2R12909   3.650   0.791   2.626
    1PA     H2S12910   3.671   0.929   2.725
    2PC     C1112911   3.786   0.944   2.557
    2PC     O1212912   3.844   0.894   2.462
    2PC     O1112913   3.768   1.075   2.580
    2PC      C112914   3.792   1.174   2.478
    2PC      HR12915   3.827   1.268   2.520
    2PC      HS12916   3.881   1.139   2.425
    2PC      C212917   3.665   1.194   2.395
    2PC      HX12918   3.623   1.098   2.365
    2PC      C312919   3.689   1.288   2.276
    2PC      HA12920   3.716   1.387   2.313
    2PC      HB12921   3.775   1.254   2.218
    2PC     O3112922   3.574   1.301   2.191
    2PC     P3112923   3.575   1.397   2.063
    2PC     O3212924   3.567   1.542   2.130
    2PC     C3112925   3.577   1.660   2.049
    2PC     H1A12926   3.587   1.749   2.113
    2PC     H1B12927   3.668   1.660   1.989
    2PC     C3212928   3.446   1.677   1.970
    2PC     H2A12929   3.463   1.760   1.902
    2PC     H2B12930   3.421   1.581   1.924
    2PC     N3112931   3.326   1.724   2.047
    2PC     C3312932   3.285   1.632   2.158
    2PC     H3A12933   3.354   1.635   2.242
    2PC     H3B12934   3.187   1.664   2.193
    2PC     H3C12935   3.261   1.535   2.113
    2PC     C3412936   3.339   1.864   2.098
    2PC     H4A12937   3.320   1.930   2.014
    2PC     H4B12938   3.264   1.880   2.177
    2PC     H4C12939   3.442   1.880   2.128
    2PC     C3512940   3.215   1.707   1.948
    2PC     H5A12941   3.218   1.608   1.902
    2PC     H5B12942   3.221   1.791   1.879
    2PC     H5C12943   3.126   1.722   2.008
    2PC     O3312944   3.689   1.385   1.968
    2PC     O3412945   3.457   1.362   1.981
    2PC     O2112946   3.580   1.257   2.493
    2PC     C2112947   3.499   1.182   2.569
    2PC     O2212948   3.486   1.063   2.555
    3OL     C1212949   3.465   1.247   2.701
    3OL     H2R12950   3.545   1.315   2.728
    3OL     H2S12951   3.463   1.167   2.775
    3OL     C1312952   3.323   1.306   2.696
    3OL     H3R12953   3.252   1.225   2.673
    3OL     H3S12954   3.303   1.383   2.621
    3OL     C1412955   3.291   1.370   2.831
    3OL     H4R12956   3.353   1.456   2.857
    3OL     H4S12957   3.304   1.293   2.907
    3OL     C1512958   3.144   1.415   2.833
    3OL     H5R12959   3.102   1.320   2.797
    3OL     H5S12960   3.116   1.492   2.761
    3OL     C1612961   3.094   1.438   2.976
    3OL     H6R12962   3.135   1.365   3.045
    3OL     H6S12963   2.987   1.415   2.973
    3OL     C1712964   3.124   1.581   3.023
    3OL     H7R12965   3.098   1.657   2.949
    3OL     H7S12966   3.232   1.597   3.029
    3OL     C1812967   3.056   1.601   3.159
    3OL     H8R12968   3.095   1.538   3.240
    3OL     H8S12969   2.949   1.580   3.158
    3OL     C1912970   3.069   1.742   3.212
    3OL     H9R12971   3.021   1.818   3.152
    3OL    C11012972   3.128   1.784   3.323
    3OL    H10R12973   3.132   1.888   3.355
    3OL    C11112974   3.165   1.697   3.440
    3OL    H11R12975   3.224   1.609   3.413
    3OL    H11S12976   3.062   1.668   3.465
    3OL    C11212977   3.226   1.776   3.556
    3OL    H12R12978   3.200   1.882   3.556
    3OL    H12S12979   3.335   1.765   3.557
    3OL    C11312980   3.178   1.730   3.694
    3OL    H13R12981   3.163   1.622   3.697
    3OL    H13S12982   3.076   1.767   3.709
    3OL    C11412983   3.261   1.788   3.809
    3OL    H14R12984   3.271   1.897   3.801
    3OL    H14S12985   3.360   1.744   3.796
    3OL    C11512986   3.201   1.756   3.946
    3OL    H15R12987   3.178   1.649   3.953
    3OL    H15S12988   3.107   1.811   3.958
    3OL    C11612989   3.288   1.800   4.064
    3OL    H16R12990   3.300   1.909   4.056
    3OL    H16S12991   3.390   1.762   4.054
    3OL    C11712992   3.231   1.758   4.200
    3OL    H17R12993   3.134   1.795   4.233
    3OL    H17S12994   3.289   1.816   4.273
    3OL    C11812995   3.253   1.611   4.240
    3OL    H18R12996   3.356   1.586   4.215
    3OL    H18S12997   3.200   1.547   4.168
    3OL    H18T12998   3.237   1.590   4.346
    1PA    C11612999   1.549   4.707   3.942
    1PA    H16R13000   1.545   4.601   3.915
    1PA    H16S13001   1.561   4.704   4.050
    1PA    H16T13002   1.641   4.752   3.903
    1PA    C11513003   1.423   4.787   3.908
    1PA    H15R13004   1.338   4.748   3.965
    1PA    H15S13005   1.441   4.892   3.932
    1PA    C11413006   1.394   4.769   3.758
    1PA    H14R13007   1.456   4.837   3.699
    1PA    H14S13008   1.404   4.665   3.728
    1PA    C11313009   1.252   4.818   3.726
    1PA    H13R13010   1.232   4.909   3.783
    1PA    H13S13011   1.252   4.840   3.619
    1PA    C11213012   1.142   4.718   3.764
    1PA    H12R13013   1.164   4.621   3.719
    1PA    H12S13014   1.131   4.708   3.872
    1PA    C11113015   1.004   4.750   3.705
    1PA    H11R13016   0.938   4.731   3.789
    1PA    H11S13017   0.992   4.856   3.681
    1PA    C11013018   0.967   4.666   3.582
    1PA    H10R13019   0.979   4.562   3.611
    1PA    H10S13020   0.864   4.693   3.561
    1PA     C1913021   1.055   4.689   3.458
    1PA     H9R13022   1.160   4.672   3.481
    1PA     H9S13023   1.030   4.627   3.372
    1PA     C1813024   1.041   4.830   3.398
    1PA     H8R13025   0.936   4.852   3.376
    1PA     H8S13026   1.080   4.901   3.472
    1PA     C1713027   1.108   4.851   3.262
    1PA     H7R13028   1.211   4.816   3.266
    1PA     H7S13029   1.061   4.784   3.189
    1PA     C1613030   1.115   5.001   3.228
    1PA     H6R13031   1.015   5.045   3.229
    1PA     H6S13032   1.174   5.059   3.298
    1PA     C1513033   1.162   5.029   3.085
    1PA     H5R13034   1.258   4.981   3.063
    1PA     H5S13035   1.087   4.988   3.018
    1PA     C1413036   1.173   5.180   3.060
    1PA     H4R13037   1.079   5.229   3.090
    1PA     H4S13038   1.248   5.227   3.124
    1PA     C1313039   1.210   5.200   2.913
    1PA     H3R13040   1.294   5.137   2.885
    1PA     H3S13041   1.124   5.177   2.850
    1PA     C1213042   1.239   5.348   2.882
    1PA     H2R13043   1.149   5.403   2.910
    1PA     H2S13044   1.326   5.387   2.935
    2PC     C1113045   1.284   5.353   2.738
    2PC     O1213046   1.205   5.312   2.656
    2PC     O1113047   1.402   5.408   2.706
    2PC      C113048   1.435   5.414   2.566
    2PC      HR13049   1.543   5.423   2.553
    2PC      HS13050   1.405   5.325   2.509
    2PC      C213051   1.364   5.536   2.506
    2PC      HX13052   1.259   5.540   2.537
    2PC      C313053   1.385   5.535   2.354
    2PC      HA13054   1.463   5.609   2.333
    2PC      HB13055   1.429   5.438   2.328
    2PC     O3113056   1.258   5.569   2.295
    2PC     P3113057   1.251   5.618   2.142
    2PC     O3213058   1.306   5.767   2.163
    2PC     C3113059   1.361   5.840   2.052
    2PC     H1A13060   1.455   5.798   2.017
    2PC     H1B13061   1.289   5.836   1.970
    2PC     C3213062   1.385   5.985   2.098
    2PC     H2A13063   1.461   5.980   2.176
    2PC     H2B13064   1.418   6.045   2.013
    2PC     N3113065   1.279   6.064   2.168
    2PC     C3313066   1.146   6.027   2.110
    2PC     H3A13067   1.131   5.921   2.132
    2PC     H3B13068   1.076   6.084   2.171
    2PC     H3C13069   1.138   6.050   2.003
    2PC     C3413070   1.275   6.020   2.311
    2PC     H4A13071   1.378   6.004   2.342
    2PC     H4B13072   1.246   6.107   2.371
    2PC     H4C13073   1.216   5.929   2.315
    2PC     C3513074   1.303   6.212   2.161
    2PC     H5A13075   1.268   6.247   2.064
    2PC     H5B13076   1.409   6.233   2.166
    2PC     H5C13077   1.244   6.263   2.238
    2PC     O3313078   1.321   5.527   2.049
    2PC     O3413079   1.110   5.604   2.098
    2PC     O2113080   1.429   5.651   2.562
    2PC     C2113081   1.371   5.772   2.550
    2PC     O2213082   1.265   5.800   2.497
    3OL     C1213083   1.458   5.870   2.623
    3OL     H2R13084   1.477   5.963   2.569
    3OL     H2S13085   1.556   5.828   2.646
    3OL     C1313086   1.397   5.897   2.762
    3OL     H3R13087   1.300   5.946   2.768
    3OL     H3S13088   1.459   5.965   2.821
    3OL     C1413089   1.370   5.770   2.843
    3OL     H4R13090   1.460   5.709   2.849
    3OL     H4S13091   1.286   5.719   2.795
    3OL     C1513092   1.332   5.801   2.988
    3OL     H5R13093   1.255   5.879   2.997
    3OL     H5S13094   1.413   5.841   3.049
    3OL     C1613095   1.291   5.677   3.070
    3OL     H6R13096   1.375   5.609   3.077
    3OL     H6S13097   1.213   5.629   3.010
    3OL     C1713098   1.233   5.706   3.209
    3OL     H7R13099   1.162   5.788   3.199
    3OL     H7S13100   1.320   5.733   3.271
    3OL     C1813101   1.173   5.585   3.281
    3OL     H8R13102   1.211   5.577   3.383
    3OL     H8S13103   1.223   5.495   3.245
    3OL     C1913104   1.023   5.566   3.277
    3OL     H9R13105   0.992   5.539   3.176
    3OL    C11013106   0.938   5.576   3.378
    3OL    H10R13107   0.835   5.545   3.360
    3OL    C11113108   0.964   5.627   3.517
    3OL    H11R13109   1.040   5.706   3.514
    3OL    H11S13110   0.996   5.545   3.581
    3OL    C11213111   0.836   5.690   3.574
    3OL    H12R13112   0.768   5.724   3.496
    3OL    H12S13113   0.860   5.774   3.640
    3OL    C11313114   0.757   5.582   3.649
    3OL    H13R13115   0.818   5.520   3.715
    3OL    H13S13116   0.733   5.514   3.567
    3OL    C11413117   0.629   5.627   3.722
    3OL    H14R13118   0.561   5.665   3.646
    3OL    H14S13119   0.651   5.712   3.787
    3OL    C11513120   0.564   5.522   3.813
    3OL    H15R13121   0.544   5.435   3.749
    3OL    H15S13122   0.476   5.579   3.843
    3OL    C11613123   0.645   5.481   3.936
    3OL    H16R13124   0.668   5.565   4.002
    3OL    H16S13125   0.742   5.440   3.908
    3OL    C11713126   0.562   5.372   4.006
    3OL    H17R13127   0.560   5.285   3.940
    3OL    H17S13128   0.461   5.410   4.023
    3OL    C11813129   0.615   5.335   4.145
    3OL    H18R13130   0.694   5.261   4.131
    3OL    H18S13131   0.537   5.281   4.199
    3OL    H18T13132   0.646   5.422   4.204
    1PA    C11613133   1.250   6.488   3.724
    1PA    H16R13134   1.143   6.465   3.729
    1PA    H16S13135   1.286   6.474   3.623
    1PA    H16T13136   1.271   6.591   3.752
    1PA    C11513137   1.334   6.392   3.810
    1PA    H15R13138   1.314   6.405   3.916
    1PA    H15S13139   1.286   6.294   3.794
    1PA    C11413140   1.480   6.384   3.763
    1PA    H14R13141   1.506   6.483   3.724
    1PA    H14S13142   1.543   6.355   3.847
    1PA    C11313143   1.500   6.276   3.657
    1PA    H13R13144   1.424   6.278   3.579
    1PA    H13S13145   1.596   6.295   3.608
    1PA    C11213146   1.499   6.136   3.721
    1PA    H12R13147   1.540   6.145   3.822
    1PA    H12S13148   1.402   6.092   3.740
    1PA    C11113149   1.595   6.037   3.654
    1PA    H11R13150   1.701   6.060   3.644
    1PA    H11S13151   1.605   5.955   3.725
    1PA    C11013152   1.531   5.979   3.526
    1PA    H10R13153   1.577   5.881   3.510
    1PA    H10S13154   1.423   5.971   3.517
    1PA     C1913155   1.576   6.064   3.407
    1PA     H9R13156   1.502   6.144   3.394
    1PA     H9S13157   1.672   6.114   3.427
    1PA     C1813158   1.590   5.986   3.276
    1PA     H8R13159   1.517   5.905   3.264
    1PA     H8S13160   1.567   6.067   3.206
    1PA     C1713161   1.730   5.929   3.251
    1PA     H7R13162   1.810   6.002   3.265
    1PA     H7S13163   1.747   5.851   3.326
    1PA     C1613164   1.758   5.847   3.124
    1PA     H6R13165   1.853   5.794   3.133
    1PA     H6S13166   1.676   5.777   3.107
    1PA     C1513167   1.772   5.940   3.003
    1PA     H5R13168   1.688   6.009   2.993
    1PA     H5S13169   1.864   5.995   3.022
    1PA     C1413170   1.792   5.863   2.872
    1PA     H4R13171   1.875   5.793   2.881
    1PA     H4S13172   1.700   5.810   2.848
    1PA     C1313173   1.816   5.969   2.764
    1PA     H3R13174   1.724   6.027   2.754
    1PA     H3S13175   1.901   6.035   2.783
    1PA     C1213176   1.850   5.897   2.633
    1PA     H2R13177   1.944   5.842   2.626
    1PA     H2S13178   1.776   5.820   2.608
    2PC     C1113179   1.842   6.007   2.531
    2PC     O1213180   1.745   6.077   2.510
    2PC     O1113181   1.958   6.015   2.463
    2PC      C113182   1.970   6.105   2.352
    2PC      HR13183   1.887   6.074   2.288
    2PC      HS13184   1.964   6.210   2.384
    2PC      C213185   2.098   6.076   2.274
    2PC      HX13186   2.101   6.134   2.181
    2PC      C313187   2.109   5.929   2.228
    2PC      HA13188   2.129   5.866   2.315
    2PC      HB13189   2.016   5.893   2.184
    2PC     O3113190   2.218   5.907   2.137
    2PC     P3113191   2.197   5.938   1.982
    2PC     O3213192   2.155   5.792   1.930
    2PC     C3113193   2.187   5.758   1.794
    2PC     H1A13194   2.292   5.782   1.778
    2PC     H1B13195   2.169   5.651   1.782
    2PC     C3213196   2.099   5.829   1.690
    2PC     H2A13197   2.106   5.937   1.700
    2PC     H2B13198   2.139   5.794   1.594
    2PC     N3113199   1.954   5.793   1.694
    2PC     C3313200   1.890   5.831   1.825
    2PC     H3A13201   1.921   5.931   1.853
    2PC     H3B13202   1.783   5.844   1.813
    2PC     H3C13203   1.911   5.757   1.903
    2PC     C3413204   1.891   5.856   1.573
    2PC     H4A13205   1.911   5.963   1.580
    2PC     H4B13206   1.941   5.820   1.483
    2PC     H4C13207   1.783   5.838   1.569
    2PC     C3513208   1.927   5.646   1.681
    2PC     H5A13209   1.970   5.592   1.765
    2PC     H5B13210   1.975   5.603   1.593
    2PC     H5C13211   1.819   5.632   1.686
    2PC     O3313212   2.095   6.042   1.960
    2PC     O3413213   2.324   5.994   1.929
    2PC     O2113214   2.216   6.116   2.346
    2PC     C2113215   2.233   6.246   2.376
    2PC     O2213216   2.159   6.339   2.352
    3OL     C1213217   2.359   6.279   2.451
    3OL     H2R13218   2.420   6.354   2.398
    3OL     H2S13219   2.426   6.194   2.433
    3OL     C1313220   2.348   6.311   2.601
    3OL     H3R13221   2.435   6.298   2.665
    3OL     H3S13222   2.268   6.253   2.647
    3OL     C1413223   2.309   6.459   2.614
    3OL     H4R13224   2.214   6.488   2.568
    3OL     H4S13225   2.390   6.520   2.574
    3OL     C1513226   2.277   6.497   2.759
    3OL     H5R13227   2.349   6.456   2.831
    3OL     H5S13228   2.179   6.456   2.783
    3OL     C1613229   2.274   6.648   2.785
    3OL     H6R13230   2.207   6.689   2.708
    3OL     H6S13231   2.361   6.711   2.763
    3OL     C1713232   2.200   6.686   2.914
    3OL     H7R13233   2.263   6.648   2.995
    3OL     H7S13234   2.101   6.642   2.931
    3OL     C1813235   2.197   6.839   2.921
    3OL     H8R13236   2.136   6.888   2.845
    3OL     H8S13237   2.301   6.874   2.922
    3OL     C1913238   2.143   6.882   3.056
    3OL     H9R13239   2.224   6.895   3.128
    3OL    C11013240   2.018   6.889   3.098
    3OL    H10R13241   1.997   6.920   3.200
    3OL    C11113242   1.895   6.871   3.013
    3OL    H11R13243   1.920   6.873   2.907
    3OL    H11S13244   1.836   6.962   3.026
    3OL    C11213245   1.815   6.745   3.049
    3OL    H12R13246   1.763   6.751   3.144
    3OL    H12S13247   1.882   6.659   3.046
    3OL    C11313248   1.713   6.715   2.938
    3OL    H13R13249   1.665   6.620   2.962
    3OL    H13S13250   1.766   6.709   2.843
    3OL    C11413251   1.600   6.819   2.944
    3OL    H14R13252   1.641   6.920   2.947
    3OL    H14S13253   1.537   6.801   3.031
    3OL    C11513254   1.501   6.805   2.828
    3OL    H15R13255   1.461   6.704   2.836
    3OL    H15S13256   1.543   6.811   2.727
    3OL    C11613257   1.378   6.895   2.844
    3OL    H16R13258   1.404   7.000   2.827
    3OL    H16S13259   1.333   6.878   2.942
    3OL    C11713260   1.266   6.864   2.744
    3OL    H17R13261   1.310   6.801   2.666
    3OL    H17S13262   1.236   6.957   2.696
    3OL    C11813263   1.145   6.786   2.798
    3OL    H18R13264   1.072   6.762   2.720
    3OL    H18S13265   1.090   6.850   2.868
    3OL    H18T13266   1.176   6.696   2.850
    1PA    C11613267   0.644   3.072   4.253
    1PA    H16R13268   0.670   2.969   4.277
    1PA    H16S13269   0.539   3.071   4.225
    1PA    H16T13270   0.665   3.126   4.345
    1PA    C11513271   0.727   3.118   4.132
    1PA    H15R13272   0.700   3.219   4.101
    1PA    H15S13273   0.835   3.114   4.151
    1PA    C11413274   0.708   3.027   4.009
    1PA    H14R13275   0.725   2.921   4.029
    1PA    H14S13276   0.603   3.034   3.980
    1PA    C11313277   0.799   3.066   3.892
    1PA    H13R13278   0.772   3.168   3.861
    1PA    H13S13279   0.901   3.075   3.930
    1PA    C11213280   0.786   2.972   3.771
    1PA    H12R13281   0.785   2.869   3.806
    1PA    H12S13282   0.695   2.982   3.712
    1PA    C11113283   0.896   3.009   3.671
    1PA    H11R13284   0.887   3.115   3.644
    1PA    H11S13285   0.999   3.005   3.709
    1PA    C11013286   0.892   2.916   3.549
    1PA    H10R13287   0.985   2.921   3.492
    1PA    H10S13288   0.880   2.809   3.570
    1PA     C1913289   0.781   2.960   3.452
    1PA     H9R13290   0.754   2.873   3.393
    1PA     H9S13291   0.696   2.985   3.516
    1PA     C1813292   0.826   3.076   3.362
    1PA     H8R13293   0.847   3.166   3.421
    1PA     H8S13294   0.922   3.046   3.318
    1PA     C1713295   0.729   3.096   3.246
    1PA     H7R13296   0.713   2.995   3.207
    1PA     H7S13297   0.640   3.125   3.303
    1PA     C1613298   0.773   3.190   3.133
    1PA     H6R13299   0.777   3.296   3.158
    1PA     H6S13300   0.873   3.161   3.101
    1PA     C1513301   0.681   3.175   3.011
    1PA     H5R13302   0.590   3.126   3.044
    1PA     H5S13303   0.654   3.278   2.988
    1PA     C1413304   0.749   3.102   2.894
    1PA     H4R13305   0.840   3.160   2.877
    1PA     H4S13306   0.777   2.999   2.918
    1PA     C1313307   0.661   3.094   2.768
    1PA     H3R13308   0.559   3.066   2.793
    1PA     H3S13309   0.658   3.197   2.732
    1PA     C1213310   0.709   3.000   2.657
    1PA     H2R13311   0.816   3.020   2.650
    1PA     H2S13312   0.694   2.903   2.704
    2PC     C1113313   0.657   3.012   2.516
    2PC     O1213314   0.613   3.116   2.471
    2PC     O1113315   0.660   2.900   2.441
    2PC      C113316   0.632   2.898   2.300
    2PC      HR13317   0.527   2.927   2.287
    2PC      HS13318   0.692   2.977   2.253
    2PC      C213319   0.643   2.758   2.239
    2PC      HX13320   0.741   2.717   2.266
    2PC      C313321   0.627   2.761   2.087
    2PC      HA13322   0.714   2.805   2.037
    2PC      HB13323   0.616   2.656   2.057
    2PC     O3113324   0.507   2.834   2.059
    2PC     P3113325   0.478   2.852   1.903
    2PC     O3213326   0.335   2.925   1.896
    2PC     C3113327   0.328   3.065   1.931
    2PC     H1A13328   0.364   3.083   2.033
    2PC     H1B13329   0.385   3.131   1.866
    2PC     C3213330   0.184   3.117   1.931
    2PC     H2A13331   0.121   3.038   1.972
    2PC     H2B13332   0.188   3.207   1.994
    2PC     N3113333   0.123   3.162   1.802
    2PC     C3313334  -0.015   3.218   1.819
    2PC     H3A13335  -0.045   3.253   1.720
    2PC     H3B13336  -0.080   3.138   1.854
    2PC     H3C13337  -0.012   3.290   1.901
    2PC     C3413338   0.215   3.256   1.730
    2PC     H4A13339   0.169   3.316   1.651
    2PC     H4B13340   0.256   3.331   1.797
    2PC     H4C13341   0.303   3.204   1.692
    2PC     C3513342   0.101   3.045   1.711
    2PC     H5A13343   0.028   3.078   1.636
    2PC     H5B13344   0.063   2.959   1.766
    2PC     H5C13345   0.201   3.025   1.673
    2PC     O3313346   0.594   2.899   1.823
    2PC     O3413347   0.451   2.722   1.837
    2PC     O2113348   0.538   2.672   2.288
    2PC     C2113349   0.554   2.539   2.281
    2PC     O2213350   0.651   2.480   2.237
    3OL     C1213351   0.443   2.485   2.367
    3OL     H2R13352   0.345   2.518   2.331
    3OL     H2S13353   0.442   2.538   2.463
    3OL     C1313354   0.438   2.332   2.379
    3OL     H3R13355   0.542   2.305   2.399
    3OL     H3S13356   0.419   2.291   2.279
    3OL     C1413357   0.353   2.284   2.497
    3OL     H4R13358   0.400   2.324   2.587
    3OL     H4S13359   0.378   2.178   2.502
    3OL     C1513360   0.203   2.311   2.485
    3OL     H5R13361   0.168   2.282   2.386
    3OL     H5S13362   0.189   2.418   2.499
    3OL     C1613363   0.125   2.237   2.594
    3OL     H6R13364   0.175   2.140   2.598
    3OL     H6S13365   0.021   2.226   2.562
    3OL     C1713366   0.135   2.300   2.734
    3OL     H7R13367   0.041   2.353   2.748
    3OL     H7S13368   0.219   2.369   2.744
    3OL     C1813369   0.152   2.195   2.845
    3OL     H8R13370   0.140   2.252   2.938
    3OL     H8S13371   0.252   2.153   2.830
    3OL     C1913372   0.044   2.090   2.850
    3OL     H9R13373   0.065   2.000   2.792
    3OL    C11013374  -0.077   2.111   2.900
    3OL    H10R13375  -0.143   2.024   2.899
    3OL    C11113376  -0.125   2.231   2.977
    3OL    H11R13377  -0.122   2.306   2.898
    3OL    H11S13378  -0.058   2.266   3.056
    3OL    C11213379  -0.270   2.216   3.024
    3OL    H12R13380  -0.271   2.151   3.112
    3OL    H12S13381  -0.319   2.166   2.940
    3OL    C11313382  -0.338   2.351   3.049
    3OL    H13R13383  -0.431   2.356   2.992
    3OL    H13S13384  -0.286   2.433   2.998
    3OL    C11413385  -0.358   2.385   3.197
    3OL    H14R13386  -0.379   2.490   3.223
    3OL    H14S13387  -0.269   2.354   3.252
    3OL    C11513388  -0.477   2.302   3.246
    3OL    H15R13389  -0.478   2.199   3.211
    3OL    H15S13390  -0.573   2.345   3.216
    3OL    C11613391  -0.477   2.283   3.399
    3OL    H16R13392  -0.487   2.377   3.454
    3OL    H16S13393  -0.380   2.246   3.432
    3OL    C11713394  -0.599   2.207   3.452
    3OL    H17R13395  -0.607   2.101   3.426
    3OL    H17S13396  -0.681   2.262   3.406
    3OL    C11813397  -0.632   2.224   3.601
    3OL    H18R13398  -0.672   2.325   3.610
    3OL    H18S13399  -0.543   2.197   3.658
    3OL    H18T13400  -0.725   2.170   3.624
    1PA    C11613401   3.285   6.040   3.972
    1PA    H16R13402   3.178   6.054   3.954
    1PA    H16S13403   3.324   6.135   4.008
    1PA    H16T13404   3.312   5.967   4.048
    1PA    C11513405   3.346   6.022   3.832
    1PA    H15R13406   3.306   6.101   3.769
    1PA    H15S13407   3.455   6.028   3.830
    1PA    C11413408   3.295   5.881   3.798
    1PA    H14R13409   3.343   5.807   3.863
    1PA    H14S13410   3.186   5.880   3.804
    1PA    C11313411   3.322   5.859   3.648
    1PA    H13R13412   3.250   5.916   3.589
    1PA    H13S13413   3.423   5.891   3.621
    1PA    C11213414   3.300   5.711   3.616
    1PA    H12R13415   3.350   5.640   3.682
    1PA    H12S13416   3.194   5.689   3.635
    1PA    C11113417   3.330   5.678   3.469
    1PA    H11R13418   3.432   5.695   3.434
    1PA    H11S13419   3.329   5.568   3.466
    1PA    C11013420   3.222   5.727   3.372
    1PA    H10R13421   3.126   5.732   3.422
    1PA    H10S13422   3.237   5.831   3.343
    1PA     C1913423   3.213   5.642   3.244
    1PA     H9R13424   3.298   5.669   3.181
    1PA     H9S13425   3.221   5.536   3.271
    1PA     C1813426   3.087   5.672   3.161
    1PA     H8R13427   2.993   5.644   3.209
    1PA     H8S13428   3.067   5.777   3.139
    1PA     C1713429   3.094   5.589   3.032
    1PA     H7R13430   3.178   5.624   2.972
    1PA     H7S13431   3.109   5.483   3.054
    1PA     C1613432   2.967   5.600   2.947
    1PA     H6R13433   2.875   5.584   3.003
    1PA     H6S13434   2.959   5.706   2.923
    1PA     C1513435   2.974   5.514   2.820
    1PA     H5R13436   3.065   5.541   2.767
    1PA     H5S13437   2.989   5.410   2.847
    1PA     C1413438   2.846   5.536   2.739
    1PA     H4R13439   2.756   5.508   2.794
    1PA     H4S13440   2.835   5.642   2.713
    1PA     C1313441   2.849   5.455   2.609
    1PA     H3R13442   2.788   5.502   2.531
    1PA     H3S13443   2.952   5.462   2.576
    1PA     C1213444   2.803   5.310   2.629
    1PA     H2R13445   2.840   5.257   2.717
    1PA     H2S13446   2.695   5.297   2.636
    2PC     C1113447   2.846   5.233   2.506
    2PC     O1213448   2.787   5.227   2.400
    2PC     O1113449   2.968   5.179   2.516
    2PC      C113450   3.026   5.112   2.403
    2PC      HR13451   2.971   5.040   2.341
    2PC      HS13452   3.051   5.189   2.330
    2PC      C213453   3.156   5.047   2.454
    2PC      HX13454   3.195   5.105   2.538
    2PC      C313455   3.259   5.043   2.340
    2PC      HA13456   3.316   5.137   2.338
    2PC      HB13457   3.331   4.966   2.368
    2PC     O3113458   3.197   5.000   2.218
    2PC     P3113459   3.278   4.997   2.080
    2PC     O3213460   3.169   4.902   2.011
    2PC     C3113461   3.057   4.966   1.947
    2PC     H1A13462   3.019   5.038   2.020
    2PC     H1B13463   3.090   5.013   1.854
    2PC     C3213464   2.955   4.854   1.923
    2PC     H2A13465   2.919   4.815   2.018
    2PC     H2B13466   2.868   4.892   1.869
    2PC     N3113467   2.985   4.734   1.837
    2PC     C3313468   2.863   4.650   1.818
    2PC     H3A13469   2.806   4.671   1.727
    2PC     H3B13470   2.908   4.553   1.799
    2PC     H3C13471   2.797   4.654   1.905
    2PC     C3413472   3.016   4.778   1.697
    2PC     H4A13473   3.044   4.689   1.641
    2PC     H4B13474   2.928   4.832   1.662
    2PC     H4C13475   3.101   4.846   1.705
    2PC     C3513476   3.095   4.645   1.887
    2PC     H5A13477   3.077   4.606   1.987
    2PC     H5B13478   3.187   4.704   1.889
    2PC     H5C13479   3.102   4.556   1.825
    2PC     O3313480   3.296   5.126   2.009
    2PC     O3413481   3.413   4.937   2.082
    2PC     O2113482   3.133   4.909   2.487
    2PC     C2113483   3.208   4.863   2.589
    2PC     O2213484   3.306   4.916   2.636
    3OL     C1213485   3.149   4.735   2.645
    3OL     H2R13486   3.214   4.651   2.619
    3OL     H2S13487   3.050   4.723   2.601
    3OL     C1313488   3.141   4.742   2.798
    3OL     H3R13489   3.109   4.842   2.830
    3OL     H3S13490   3.241   4.723   2.837
    3OL     C1413491   3.044   4.645   2.868
    3OL     H4R13492   3.079   4.543   2.855
    3OL     H4S13493   2.949   4.662   2.818
    3OL     C1513494   3.050   4.666   3.020
    3OL     H5R13495   3.035   4.772   3.039
    3OL     H5S13496   3.151   4.633   3.049
    3OL     C1613497   2.948   4.585   3.101
    3OL     H6R13498   2.963   4.480   3.075
    3OL     H6S13499   2.850   4.620   3.069
    3OL     C1713500   2.964   4.609   3.251
    3OL     H7R13501   2.952   4.717   3.259
    3OL     H7S13502   3.063   4.595   3.295
    3OL     C1813503   2.854   4.530   3.323
    3OL     H8R13504   2.873   4.423   3.305
    3OL     H8S13505   2.754   4.549   3.284
    3OL     C1913506   2.856   4.556   3.471
    3OL     H9R13507   2.798   4.642   3.504
    3OL    C11013508   2.920   4.488   3.565
    3OL    H10R13509   2.924   4.518   3.669
    3OL    C11113510   3.006   4.367   3.537
    3OL    H11R13511   3.103   4.392   3.495
    3OL    H11S13512   2.955   4.296   3.473
    3OL    C11213513   3.020   4.299   3.674
    3OL    H12R13514   2.920   4.287   3.716
    3OL    H12S13515   3.083   4.362   3.737
    3OL    C11313516   3.079   4.158   3.663
    3OL    H13R13517   3.182   4.149   3.630
    3OL    H13S13518   3.013   4.106   3.593
    3OL    C11413519   3.077   4.092   3.802
    3OL    H14R13520   3.136   4.146   3.877
    3OL    H14S13521   3.125   3.996   3.782
    3OL    C11513522   2.940   4.059   3.862
    3OL    H15R13523   2.879   4.149   3.861
    3OL    H15S13524   2.969   4.040   3.965
    3OL    C11613525   2.880   3.939   3.786
    3OL    H16R13526   2.959   3.866   3.773
    3OL    H16S13527   2.838   3.977   3.693
    3OL    C11713528   2.762   3.872   3.858
    3OL    H17R13529   2.700   3.945   3.910
    3OL    H17S13530   2.809   3.814   3.938
    3OL    C11813531   2.672   3.784   3.770
    3OL    H18R13532   2.729   3.713   3.710
    3OL    H18S13533   2.608   3.851   3.713
    3OL    H18T13534   2.606   3.735   3.843
    1PA    C11613535   5.596   3.417   3.783
    1PA    H16R13536   5.630   3.445   3.884
    1PA    H16S13537   5.516   3.485   3.754
    1PA    H16T13538   5.685   3.417   3.719
    1PA    C11513539   5.544   3.273   3.779
    1PA    H15R13540   5.612   3.206   3.832
    1PA    H15S13541   5.453   3.269   3.839
    1PA    C11413542   5.515   3.219   3.638
    1PA    H14R13543   5.474   3.118   3.651
    1PA    H14S13544   5.436   3.285   3.601
    1PA    C11313545   5.632   3.227   3.540
    1PA    H13R13546   5.678   3.326   3.534
    1PA    H13S13547   5.710   3.155   3.565
    1PA    C11213548   5.575   3.183   3.405
    1PA    H12R13549   5.527   3.087   3.423
    1PA    H12S13550   5.496   3.251   3.373
    1PA    C11113551   5.682   3.182   3.295
    1PA    H11R13552   5.719   3.284   3.282
    1PA    H11S13553   5.767   3.119   3.320
    1PA    C11013554   5.631   3.134   3.159
    1PA    H10R13555   5.532   3.171   3.135
    1PA    H10S13556   5.697   3.170   3.080
    1PA     C1913557   5.639   2.980   3.157
    1PA     H9R13558   5.742   2.945   3.165
    1PA     H9S13559   5.573   2.935   3.232
    1PA     C1813560   5.587   2.932   3.021
    1PA     H8R13561   5.487   2.970   3.000
    1PA     H8S13562   5.654   2.974   2.946
    1PA     C1713563   5.577   2.779   3.004
    1PA     H7R13564   5.520   2.739   3.088
    1PA     H7S13565   5.518   2.764   2.914
    1PA     C1613566   5.708   2.700   3.012
    1PA     H6R13567   5.785   2.750   2.952
    1PA     H6S13568   5.740   2.702   3.116
    1PA     C1513569   5.698   2.552   2.974
    1PA     H5R13570   5.783   2.498   3.017
    1PA     H5S13571   5.612   2.508   3.025
    1PA     C1413572   5.697   2.529   2.822
    1PA     H4R13573   5.616   2.590   2.783
    1PA     H4S13574   5.791   2.569   2.783
    1PA     C1313575   5.694   2.382   2.779
    1PA     H3R13576   5.789   2.328   2.789
    1PA     H3S13577   5.619   2.322   2.832
    1PA     C1213578   5.655   2.363   2.632
    1PA     H2R13579   5.631   2.259   2.607
    1PA     H2S13580   5.581   2.442   2.619
    2PC     C1113581   5.777   2.400   2.552
    2PC     O1213582   5.832   2.508   2.563
    2PC     O1113583   5.803   2.310   2.455
    2PC      C113584   5.914   2.327   2.365
    2PC      HR13585   5.906   2.244   2.294
    2PC      HS13586   5.903   2.419   2.306
    2PC      C213587   6.052   2.338   2.432
    2PC      HX13588   6.059   2.414   2.511
    2PC      C313589   6.144   2.386   2.319
    2PC      HA13590   6.133   2.494   2.306
    2PC      HB13591   6.241   2.360   2.363
    2PC     O3113592   6.123   2.330   2.188
    2PC     P3113593   6.190   2.416   2.071
    2PC     O3213594   6.186   2.317   1.945
    2PC     C3113595   6.056   2.272   1.902
    2PC     H1A13596   5.995   2.235   1.984
    2PC     H1B13597   6.014   2.362   1.856
    2PC     C3213598   6.067   2.175   1.783
    2PC     H2A13599   6.162   2.124   1.799
    2PC     H2B13600   5.988   2.101   1.775
    2PC     N3113601   6.092   2.226   1.644
    2PC     C3313602   6.216   2.310   1.635
    2PC     H3A13603   6.303   2.244   1.626
    2PC     H3B13604   6.204   2.371   1.545
    2PC     H3C13605   6.227   2.376   1.721
    2PC     C3413606   6.117   2.110   1.553
    2PC     H4A13607   6.205   2.058   1.591
    2PC     H4B13608   6.026   2.052   1.565
    2PC     H4C13609   6.129   2.149   1.452
    2PC     C3513610   5.972   2.302   1.598
    2PC     H5A13611   5.998   2.311   1.493
    2PC     H5B13612   5.952   2.398   1.647
    2PC     H5C13613   5.883   2.239   1.598
    2PC     O3313614   6.111   2.539   2.053
    2PC     O3413615   6.328   2.463   2.100
    2PC     O2113616   6.101   2.209   2.472
    2PC     C2113617   6.068   2.165   2.595
    2PC     O2213618   6.017   2.241   2.675
    3OL     C1213619   6.088   2.017   2.611
    3OL     H2R13620   6.193   1.985   2.619
    3OL     H2S13621   6.051   1.960   2.525
    3OL     C1313622   6.017   1.957   2.733
    3OL     H3R13623   5.909   1.971   2.733
    3OL     H3S13624   6.056   2.004   2.824
    3OL     C1413625   6.056   1.809   2.748
    3OL     H4R13626   6.162   1.796   2.771
    3OL     H4S13627   6.025   1.746   2.665
    3OL     C1513628   5.986   1.754   2.873
    3OL     H5R13629   5.878   1.765   2.860
    3OL     H5S13630   6.015   1.816   2.957
    3OL     C1613631   6.022   1.608   2.905
    3OL     H6R13632   6.127   1.597   2.934
    3OL     H6S13633   6.003   1.540   2.822
    3OL     C1713634   5.941   1.565   3.028
    3OL     H7R13635   5.945   1.456   3.032
    3OL     H7S13636   5.833   1.567   3.012
    3OL     C1813637   5.972   1.626   3.166
    3OL     H8R13638   5.877   1.670   3.197
    3OL     H8S13639   6.052   1.701   3.163
    3OL     C1913640   6.014   1.527   3.272
    3OL     H9R13641   6.102   1.562   3.326
    3OL    C11013642   5.974   1.403   3.292
    3OL    H10R13643   6.017   1.332   3.362
    3OL    C11113644   5.843   1.348   3.242
    3OL    H11R13645   5.871   1.280   3.160
    3OL    H11S13646   5.785   1.432   3.203
    3OL    C11213647   5.768   1.267   3.348
    3OL    H12R13648   5.664   1.259   3.316
    3OL    H12S13649   5.768   1.327   3.439
    3OL    C11313650   5.812   1.123   3.376
    3OL    H13R13651   5.764   1.100   3.472
    3OL    H13S13652   5.918   1.104   3.395
    3OL    C11413653   5.758   1.023   3.274
    3OL    H14R13654   5.777   1.034   3.167
    3OL    H14S13655   5.650   1.040   3.278
    3OL    C11513656   5.802   0.881   3.311
    3OL    H15R13657   5.781   0.870   3.418
    3OL    H15S13658   5.911   0.873   3.305
    3OL    C11613659   5.749   0.761   3.230
    3OL    H16R13660   5.793   0.771   3.131
    3OL    H16S13661   5.640   0.766   3.232
    3OL    C11713662   5.792   0.623   3.281
    3OL    H17R13663   5.900   0.623   3.297
    3OL    H17S13664   5.753   0.548   3.212
    3OL    C11813665   5.730   0.596   3.419
    3OL    H18R13666   5.621   0.607   3.411
    3OL    H18S13667   5.765   0.666   3.495
    3OL    H18T13668   5.756   0.500   3.462
    1PA    C11613669  -0.518   1.689   3.695
    1PA    H16R13670  -0.468   1.632   3.617
    1PA    H16S13671  -0.623   1.701   3.668
    1PA    H16T13672  -0.518   1.625   3.784
    1PA    C11513673  -0.470   1.834   3.714
    1PA    H15R13674  -0.550   1.896   3.753
    1PA    H15S13675  -0.384   1.839   3.781
    1PA    C11413676  -0.448   1.904   3.579
    1PA    H14R13677  -0.531   1.888   3.510
    1PA    H14S13678  -0.456   2.011   3.600
    1PA    C11313679  -0.312   1.872   3.516
    1PA    H13R13680  -0.229   1.908   3.577
    1PA    H13S13681  -0.287   1.768   3.496
    1PA    C11213682  -0.300   1.941   3.379
    1PA    H12R13683  -0.378   1.897   3.317
    1PA    H12S13684  -0.326   2.047   3.392
    1PA    C11113685  -0.157   1.937   3.322
    1PA    H11R13686  -0.112   1.844   3.357
    1PA    H11S13687  -0.163   1.910   3.217
    1PA    C11013688  -0.070   2.061   3.342
    1PA    H10R13689  -0.106   2.140   3.276
    1PA    H10S13690  -0.070   2.081   3.450
    1PA     C1913691   0.078   2.029   3.316
    1PA     H9R13692   0.118   1.951   3.381
    1PA     H9S13693   0.095   1.984   3.218
    1PA     C1813694   0.164   2.154   3.342
    1PA     H8R13695   0.128   2.237   3.282
    1PA     H8S13696   0.158   2.181   3.447
    1PA     C1713697   0.314   2.134   3.317
    1PA     H7R13698   0.352   2.066   3.393
    1PA     H7S13699   0.330   2.100   3.214
    1PA     C1613700   0.397   2.262   3.334
    1PA     H6R13701   0.373   2.308   3.431
    1PA     H6S13702   0.504   2.243   3.342
    1PA     C1513703   0.377   2.347   3.208
    1PA     H5R13704   0.365   2.284   3.119
    1PA     H5S13705   0.276   2.387   3.221
    1PA     C1413706   0.483   2.456   3.190
    1PA     H4R13707   0.493   2.511   3.284
    1PA     H4S13708   0.576   2.417   3.149
    1PA     C1313709   0.431   2.557   3.086
    1PA     H3R13710   0.374   2.497   3.014
    1PA     H3S13711   0.368   2.628   3.140
    1PA     C1213712   0.553   2.628   3.027
    1PA     H2R13713   0.601   2.687   3.105
    1PA     H2S13714   0.629   2.552   3.010
    2PC     C1113715   0.530   2.721   2.910
    2PC     O1213716   0.598   2.820   2.893
    2PC     O1113717   0.432   2.680   2.827
    2PC      C113718   0.396   2.760   2.713
    2PC      HR13719   0.381   2.865   2.742
    2PC      HS13720   0.487   2.754   2.653
    2PC      C213721   0.270   2.702   2.647
    2PC      HX13722   0.284   2.594   2.631
    2PC      C313723   0.229   2.776   2.520
    2PC      HA13724   0.302   2.747   2.444
    2PC      HB13725   0.129   2.750   2.487
    2PC     O3113726   0.221   2.918   2.544
    2PC     P3113727   0.184   3.017   2.423
    2PC     O3213728   0.032   2.970   2.403
    2PC     C3113729  -0.065   3.021   2.496
    2PC     H1A13730  -0.133   2.937   2.512
    2PC     H1B13731  -0.007   3.038   2.588
    2PC     C3213732  -0.128   3.149   2.438
    2PC     H2A13733  -0.181   3.196   2.520
    2PC     H2B13734  -0.046   3.219   2.424
    2PC     N3113735  -0.216   3.131   2.318
    2PC     C3313736  -0.136   3.102   2.194
    2PC     H3A13737  -0.203   3.089   2.109
    2PC     H3B13738  -0.067   3.185   2.178
    2PC     H3C13739  -0.089   3.004   2.203
    2PC     C3413740  -0.308   3.016   2.348
    2PC     H4A13741  -0.253   2.922   2.351
    2PC     H4B13742  -0.364   3.033   2.440
    2PC     H4C13743  -0.365   3.008   2.256
    2PC     C3513744  -0.294   3.257   2.300
    2PC     H5A13745  -0.214   3.329   2.281
    2PC     H5B13746  -0.344   3.287   2.392
    2PC     H5C13747  -0.368   3.250   2.221
    2PC     O3313748   0.192   3.162   2.451
    2PC     O3413749   0.271   3.000   2.305
    2PC     O2113750   0.166   2.706   2.747
    2PC     C2113751   0.053   2.635   2.732
    2PC     O2213752   0.024   2.588   2.624
    3OL     C1213753  -0.045   2.639   2.847
    3OL     H2R13754  -0.136   2.583   2.828
    3OL     H2S13755  -0.079   2.737   2.879
    3OL     C1313756   0.025   2.584   2.972
    3OL     H3R13757   0.116   2.644   2.974
    3OL     H3S13758   0.056   2.479   2.969
    3OL     C1413759  -0.054   2.612   3.100
    3OL     H4R13760  -0.151   2.562   3.090
    3OL     H4S13761  -0.057   2.721   3.104
    3OL     C1513762   0.016   2.555   3.224
    3OL     H5R13763   0.108   2.609   3.250
    3OL     H5S13764   0.033   2.449   3.201
    3OL     C1613765  -0.078   2.551   3.345
    3OL     H6R13766  -0.181   2.530   3.317
    3OL     H6S13767  -0.070   2.650   3.392
    3OL     C1713768  -0.031   2.444   3.445
    3OL     H7R13769   0.073   2.467   3.469
    3OL     H7S13770  -0.046   2.344   3.405
    3OL     C1813771  -0.098   2.442   3.583
    3OL     H8R13772  -0.068   2.355   3.641
    3OL     H8S13773  -0.207   2.447   3.580
    3OL     C1913774  -0.059   2.570   3.653
    3OL     H9R13775  -0.111   2.659   3.619
    3OL    C11013776   0.044   2.572   3.737
    3OL    H10R13777   0.077   2.667   3.779
    3OL    C11113778   0.107   2.452   3.804
    3OL    H11R13779   0.047   2.365   3.833
    3OL    H11S13780   0.146   2.496   3.896
    3OL    C11213781   0.225   2.402   3.721
    3OL    H12R13782   0.288   2.488   3.695
    3OL    H12S13783   0.190   2.354   3.630
    3OL    C11313784   0.313   2.308   3.806
    3OL    H13R13785   0.245   2.225   3.825
    3OL    H13S13786   0.344   2.361   3.896
    3OL    C11413787   0.434   2.259   3.727
    3OL    H14R13788   0.495   2.343   3.693
    3OL    H14S13789   0.401   2.203   3.639
    3OL    C11513790   0.525   2.162   3.803
    3OL    H15R13791   0.463   2.076   3.830
    3OL    H15S13792   0.572   2.211   3.889
    3OL    C11613793   0.642   2.126   3.710
    3OL    H16R13794   0.704   2.213   3.691
    3OL    H16S13795   0.600   2.095   3.614
    3OL    C11713796   0.735   2.019   3.769
    3OL    H17R13797   0.686   1.921   3.769
    3OL    H17S13798   0.765   2.033   3.874
    3OL    C11813799   0.865   2.023   3.686
    3OL    H18R13800   0.840   1.999   3.583
    3OL    H18S13801   0.940   1.952   3.721
    3OL    H18T13802   0.907   2.123   3.688
    1PA    C11613803   7.011   5.141   3.599
    1PA    H16R13804   6.977   5.154   3.702
    1PA    H16S13805   6.925   5.146   3.532
    1PA    H16T13806   7.075   5.226   3.575
    1PA    C11513807   7.090   5.009   3.590
    1PA    H15R13808   7.100   4.973   3.487
    1PA    H15S13809   7.194   5.031   3.615
    1PA    C11413810   7.036   4.894   3.676
    1PA    H14R13811   7.107   4.811   3.681
    1PA    H14S13812   7.025   4.923   3.781
    1PA    C11313813   6.900   4.837   3.633
    1PA    H13R13814   6.878   4.748   3.692
    1PA    H13S13815   6.821   4.911   3.651
    1PA    C11213816   6.898   4.802   3.484
    1PA    H12R13817   6.900   4.895   3.427
    1PA    H12S13818   6.987   4.746   3.455
    1PA    C11113819   6.768   4.734   3.439
    1PA    H11R13820   6.752   4.644   3.498
    1PA    H11S13821   6.690   4.807   3.461
    1PA    C11013822   6.760   4.716   3.286
    1PA    H10R13823   6.800   4.800   3.230
    1PA    H10S13824   6.820   4.633   3.247
    1PA     C1913825   6.615   4.677   3.254
    1PA     H9R13826   6.617   4.612   3.166
    1PA     H9S13827   6.564   4.632   3.339
    1PA     C1813828   6.521   4.791   3.213
    1PA     H8R13829   6.421   4.751   3.201
    1PA     H8S13830   6.517   4.865   3.293
    1PA     C1713831   6.571   4.850   3.080
    1PA     H7R13832   6.664   4.897   3.111
    1PA     H7S13833   6.589   4.779   2.999
    1PA     C1613834   6.465   4.946   3.022
    1PA     H6R13835   6.371   4.891   3.019
    1PA     H6S13836   6.467   5.025   3.097
    1PA     C1513837   6.495   5.002   2.882
    1PA     H5R13838   6.597   5.037   2.899
    1PA     H5S13839   6.502   4.923   2.808
    1PA     C1413840   6.392   5.113   2.856
    1PA     H4R13841   6.295   5.089   2.900
    1PA     H4S13842   6.413   5.202   2.915
    1PA     C1313843   6.377   5.160   2.710
    1PA     H3R13844   6.356   5.267   2.707
    1PA     H3S13845   6.465   5.145   2.646
    1PA     C1213846   6.273   5.080   2.632
    1PA     H2R13847   6.289   4.971   2.628
    1PA     H2S13848   6.182   5.087   2.691
    2PC     C1113849   6.236   5.139   2.498
    2PC     O1213850   6.310   5.139   2.401
    2PC     O1113851   6.113   5.194   2.498
    2PC      C113852   6.061   5.270   2.388
    2PC      HR13853   5.978   5.335   2.418
    2PC      HS13854   6.137   5.335   2.344
    2PC      C213855   6.003   5.165   2.292
    2PC      HX13856   6.076   5.084   2.283
    2PC      C313857   5.982   5.235   2.157
    2PC      HA13858   5.882   5.277   2.163
    2PC      HB13859   6.049   5.318   2.131
    2PC     O3113860   5.999   5.129   2.061
    2PC     P3113861   6.029   5.159   1.907
    2PC     O3213862   6.147   5.268   1.911
    2PC     C3113863   6.140   5.355   1.796
    2PC     H1A13864   6.153   5.300   1.703
    2PC     H1B13865   6.037   5.390   1.787
    2PC     C3213866   6.240   5.471   1.799
    2PC     H2A13867   6.344   5.439   1.792
    2PC     H2B13868   6.221   5.524   1.706
    2PC     N3113869   6.236   5.570   1.912
    2PC     C3313870   6.348   5.669   1.903
    2PC     H3A13871   6.333   5.743   1.983
    2PC     H3B13872   6.446   5.622   1.901
    2PC     H3C13873   6.337   5.724   1.809
    2PC     C3413874   6.107   5.645   1.896
    2PC     H4A13875   6.104   5.699   1.801
    2PC     H4B13876   6.026   5.573   1.911
    2PC     H4C13877   6.108   5.718   1.977
    2PC     C3513878   6.247   5.506   2.047
    2PC     H5A13879   6.240   5.581   2.125
    2PC     H5B13880   6.337   5.444   2.045
    2PC     H5C13881   6.163   5.438   2.065
    2PC     O3313882   6.075   5.037   1.836
    2PC     O3413883   5.905   5.198   1.836
    2PC     O2113884   5.875   5.117   2.338
    2PC     C2113885   5.887   5.018   2.427
    2PC     O2213886   5.986   4.951   2.451
    3OL     C1213887   5.754   4.984   2.491
    3OL     H2R13888   5.686   4.932   2.423
    3OL     H2S13889   5.711   5.083   2.511
    3OL     C1313890   5.761   4.894   2.615
    3OL     H3R13891   5.843   4.822   2.608
    3OL     H3S13892   5.664   4.844   2.616
    3OL     C1413893   5.769   4.981   2.742
    3OL     H4R13894   5.679   5.040   2.757
    3OL     H4S13895   5.858   5.045   2.737
    3OL     C1513896   5.789   4.902   2.872
    3OL     H5R13897   5.875   4.836   2.863
    3OL     H5S13898   5.705   4.832   2.881
    3OL     C1613899   5.800   4.988   2.999
    3OL     H6R13900   5.706   5.044   2.998
    3OL     H6S13901   5.873   5.069   2.988
    3OL     C1713902   5.827   4.918   3.133
    3OL     H7R13903   5.838   4.986   3.217
    3OL     H7S13904   5.919   4.860   3.128
    3OL     C1813905   5.717   4.815   3.165
    3OL     H8R13906   5.771   4.738   3.221
    3OL     H8S13907   5.678   4.778   3.070
    3OL     C1913908   5.597   4.859   3.244
    3OL     H9R13909   5.523   4.913   3.186
    3OL    C11013910   5.567   4.832   3.371
    3OL    H10R13911   5.478   4.872   3.418
    3OL    C11113912   5.648   4.758   3.474
    3OL    H11R13913   5.661   4.822   3.562
    3OL    H11S13914   5.746   4.756   3.426
    3OL    C11213915   5.589   4.623   3.516
    3OL    H12R13916   5.549   4.574   3.427
    3OL    H12S13917   5.507   4.632   3.588
    3OL    C11313918   5.694   4.540   3.592
    3OL    H13R13919   5.784   4.560   3.533
    3OL    H13S13920   5.673   4.433   3.590
    3OL    C11413921   5.705   4.587   3.737
    3OL    H14R13922   5.613   4.574   3.794
    3OL    H14S13923   5.712   4.696   3.750
    3OL    C11513924   5.820   4.512   3.807
    3OL    H15R13925   5.908   4.523   3.743
    3OL    H15S13926   5.792   4.407   3.813
    3OL    C11613927   5.838   4.568   3.948
    3OL    H16R13928   5.753   4.548   4.013
    3OL    H16S13929   5.866   4.674   3.945
    3OL    C11713930   5.968   4.520   4.014
    3OL    H17R13931   5.968   4.411   4.025
    3OL    H17S13932   5.964   4.553   4.118
    3OL    C11813933   6.099   4.576   3.957
    3OL    H18R13934   6.136   4.522   3.870
    3OL    H18S13935   6.172   4.568   4.038
    3OL    H18T13936   6.087   4.683   3.938
    1PA    C11613937   5.718   2.506   4.110
    1PA    H16R13938   5.805   2.550   4.159
    1PA    H16S13939   5.659   2.460   4.189
    1PA    H16T13940   5.652   2.580   4.063
    1PA    C11513941   5.765   2.399   4.010
    1PA    H15R13942   5.801   2.310   4.063
    1PA    H15S13943   5.685   2.370   3.942
    1PA    C11413944   5.880   2.451   3.923
    1PA    H14R13945   5.957   2.493   3.989
    1PA    H14S13946   5.942   2.379   3.869
    1PA    C11313947   5.819   2.552   3.825
    1PA    H13R13948   5.739   2.501   3.772
    1PA    H13S13949   5.782   2.641   3.877
    1PA    C11213950   5.918   2.594   3.715
    1PA    H12R13951   6.008   2.628   3.768
    1PA    H12S13952   5.948   2.511   3.651
    1PA    C11113953   5.878   2.700   3.612
    1PA    H11R13954   5.803   2.650   3.550
    1PA    H11S13955   5.831   2.786   3.661
    1PA    C11013956   5.990   2.736   3.514
    1PA    H10R13957   6.077   2.787   3.554
    1PA    H10S13958   6.033   2.644   3.473
    1PA     C1913959   5.934   2.826   3.403
    1PA     H9R13960   5.850   2.773   3.358
    1PA     H9S13961   5.888   2.917   3.444
    1PA     C1813962   6.049   2.847   3.304
    1PA     H8R13963   6.126   2.906   3.354
    1PA     H8S13964   6.094   2.749   3.288
    1PA     C1713965   6.019   2.930   3.178
    1PA     H7R13966   5.943   2.885   3.114
    1PA     H7S13967   5.983   3.027   3.214
    1PA     C1613968   6.142   2.955   3.090
    1PA     H6R13969   6.223   3.007   3.142
    1PA     H6S13970   6.178   2.859   3.051
    1PA     C1513971   6.115   3.042   2.967
    1PA     H5R13972   6.050   3.128   2.983
    1PA     H5S13973   6.207   3.080   2.921
    1PA     C1413974   6.054   2.955   2.856
    1PA     H4R13975   6.127   2.881   2.825
    1PA     H4S13976   5.968   2.893   2.882
    1PA     C1313977   6.004   3.033   2.733
    1PA     H3R13978   6.064   3.121   2.708
    1PA     H3S13979   6.019   2.974   2.643
    1PA     C1213980   5.862   3.090   2.748
    1PA     H2R13981   5.791   3.016   2.785
    1PA     H2S13982   5.853   3.169   2.823
    2PC     C1113983   5.801   3.140   2.619
    2PC     O1213984   5.852   3.220   2.543
    2PC     O1113985   5.682   3.082   2.599
    2PC      C113986   5.625   3.094   2.467
    2PC      HR13987   5.601   3.198   2.444
    2PC      HS13988   5.699   3.057   2.396
    2PC      C213989   5.493   3.017   2.455
    2PC      HX13990   5.513   2.916   2.494
    2PC      C313991   5.461   2.985   2.308
    2PC      HA13992   5.546   2.930   2.266
    2PC      HB13993   5.365   2.935   2.298
    2PC     O3113994   5.451   3.117   2.252
    2PC     P3113995   5.424   3.107   2.094
    2PC     O3213996   5.268   3.143   2.086
    2PC     C3113997   5.232   3.230   1.976
    2PC     H1A13998   5.271   3.331   1.986
    2PC     H1B13999   5.259   3.189   1.878
    2PC     C3214000   5.079   3.231   1.984
    2PC     H2A14001   5.040   3.132   1.959
    2PC     H2B14002   5.040   3.254   2.084
    2PC     N3114003   5.028   3.347   1.904
    2PC     C3314004   5.051   3.319   1.759
    2PC     H3A14005   5.153   3.285   1.739
    2PC     H3B14006   4.976   3.242   1.744
    2PC     H3C14007   5.024   3.404   1.695
    2PC     C3414008   4.878   3.344   1.914
    2PC     H4A14009   4.838   3.270   1.845
    2PC     H4B14010   4.846   3.321   2.016
    2PC     H4C14011   4.847   3.443   1.878
    2PC     C3514012   5.069   3.484   1.948
    2PC     H5A14013   5.174   3.479   1.922
    2PC     H5B14014   5.037   3.498   2.051
    2PC     H5C14015   5.009   3.551   1.885
    2PC     O3314016   5.520   3.199   2.029
    2PC     O3414017   5.440   2.971   2.038
    2PC     O2114018   5.380   3.077   2.521
    2PC     C2114019   5.271   3.007   2.552
    2PC     O2214020   5.260   2.886   2.543
    3OL     C1214021   5.154   3.097   2.582
    3OL     H2R14022   5.069   3.074   2.517
    3OL     H2S14023   5.177   3.201   2.560
    3OL     C1314024   5.104   3.073   2.726
    3OL     H3R14025   5.188   3.082   2.795
    3OL     H3S14026   5.049   2.979   2.731
    3OL     C1414027   4.997   3.175   2.765
    3OL     H4R14028   4.918   3.174   2.689
    3OL     H4S14029   5.035   3.277   2.770
    3OL     C1514030   4.939   3.151   2.905
    3OL     H5R14031   5.014   3.151   2.985
    3OL     H5S14032   4.889   3.055   2.903
    3OL     C1614033   4.843   3.259   2.956
    3OL     H6R14034   4.887   3.351   2.916
    3OL     H6S14035   4.857   3.289   3.061
    3OL     C1714036   4.694   3.239   2.925
    3OL     H7R14037   4.695   3.196   2.825
    3OL     H7S14038   4.652   3.338   2.910
    3OL     C1814039   4.630   3.141   3.024
    3OL     H8R14040   4.704   3.062   3.042
    3OL     H8S14041   4.536   3.103   2.984
    3OL     C1914042   4.622   3.219   3.153
    3OL     H9R14043   4.713   3.219   3.212
    3OL    C11014044   4.522   3.296   3.193
    3OL    H10R14045   4.532   3.344   3.290
    3OL    C11114046   4.393   3.309   3.115
    3OL    H11R14047   4.390   3.233   3.037
    3OL    H11S14048   4.400   3.406   3.065
    3OL    C11214049   4.270   3.299   3.206
    3OL    H12R14050   4.183   3.327   3.146
    3OL    H12S14051   4.271   3.381   3.278
    3OL    C11314052   4.243   3.165   3.275
    3OL    H13R14053   4.322   3.144   3.347
    3OL    H13S14054   4.254   3.077   3.211
    3OL    C11414055   4.114   3.155   3.358
    3OL    H14R14056   4.091   3.048   3.359
    3OL    H14S14057   4.042   3.211   3.299
    3OL    C11514058   4.129   3.216   3.498
    3OL    H15R14059   4.115   3.324   3.502
    3OL    H15S14060   4.231   3.195   3.532
    3OL    C11614061   4.032   3.157   3.601
    3OL    H16R14062   3.937   3.140   3.551
    3OL    H16S14063   4.024   3.225   3.687
    3OL    C11714064   4.085   3.026   3.661
    3OL    H17R14065   4.178   3.035   3.717
    3OL    H17S14066   4.107   2.962   3.576
    3OL    C11814067   3.981   2.974   3.762
    3OL    H18R14068   3.882   2.960   3.717
    3OL    H18S14069   3.963   3.026   3.856
    3OL    H18T14070   4.010   2.874   3.794
    1PA    C11614071   3.446   4.154   4.001
    1PA    H16R14072   3.388   4.062   4.015
    1PA    H16S14073   3.383   4.201   3.925
    1PA    H16T14074   3.456   4.210   4.094
    1PA    C11514075   3.588   4.138   3.947
    1PA    H15R14076   3.620   4.232   3.900
    1PA    H15S14077   3.657   4.104   4.025
    1PA    C11414078   3.586   4.032   3.837
    1PA    H14R14079   3.562   3.938   3.887
    1PA    H14S14080   3.504   4.062   3.771
    1PA    C11314081   3.717   4.029   3.757
    1PA    H13R14082   3.752   4.130   3.737
    1PA    H13S14083   3.797   3.984   3.817
    1PA    C11214084   3.717   3.954   3.623
    1PA    H12R14085   3.675   3.854   3.627
    1PA    H12S14086   3.671   4.007   3.539
    1PA    C11114087   3.866   3.934   3.593
    1PA    H11R14088   3.926   3.886   3.670
    1PA    H11S14089   3.857   3.862   3.511
    1PA    C11014090   3.940   4.055   3.537
    1PA    H10R14091   3.886   4.145   3.566
    1PA    H10S14092   4.039   4.066   3.582
    1PA     C1914093   3.949   4.070   3.384
    1PA     H9R14094   3.845   4.086   3.352
    1PA     H9S14095   3.982   4.171   3.359
    1PA     C1814096   4.033   3.963   3.313
    1PA     H8R14097   4.137   3.951   3.346
    1PA     H8S14098   3.991   3.866   3.340
    1PA     C1714099   4.026   3.980   3.161
    1PA     H7R14100   3.922   3.989   3.128
    1PA     H7S14101   4.077   4.072   3.132
    1PA     C1614102   4.095   3.869   3.080
    1PA     H6R14103   4.202   3.878   3.096
    1PA     H6S14104   4.053   3.772   3.107
    1PA     C1514105   4.071   3.890   2.930
    1PA     H5R14106   3.963   3.882   2.913
    1PA     H5S14107   4.089   3.996   2.911
    1PA     C1414108   4.152   3.796   2.841
    1PA     H4R14109   4.259   3.798   2.863
    1PA     H4S14110   4.121   3.691   2.841
    1PA     C1314111   4.145   3.831   2.692
    1PA     H3R14112   4.046   3.813   2.649
    1PA     H3S14113   4.158   3.938   2.673
    1PA     C1214114   4.235   3.736   2.613
    1PA     H2R14115   4.326   3.709   2.667
    1PA     H2S14116   4.171   3.649   2.598
    2PC     C1114117   4.265   3.788   2.474
    2PC     O1214118   4.300   3.901   2.446
    2PC     O1114119   4.228   3.688   2.392
    2PC      C114120   4.232   3.708   2.250
    2PC      HR14121   4.177   3.629   2.198
    2PC      HS14122   4.191   3.806   2.226
    2PC      C214123   4.375   3.699   2.195
    2PC      HX14124   4.433   3.757   2.267
    2PC      C314125   4.376   3.745   2.048
    2PC      HA14126   4.329   3.667   1.987
    2PC      HB14127   4.330   3.843   2.033
    2PC     O3114128   4.516   3.749   2.016
    2PC     P3114129   4.562   3.784   1.867
    2PC     O3214130   4.595   3.938   1.894
    2PC     C3114131   4.639   4.000   1.772
    2PC     H1A14132   4.701   3.930   1.716
    2PC     H1B14133   4.545   4.028   1.723
    2PC     C3214134   4.710   4.135   1.791
    2PC     H2A14135   4.723   4.183   1.694
    2PC     H2B14136   4.644   4.195   1.853
    2PC     N3114137   4.840   4.125   1.866
    2PC     C3314138   4.896   4.264   1.864
    2PC     H3A14139   4.819   4.332   1.901
    2PC     H3B14140   4.983   4.280   1.927
    2PC     H3C14141   4.906   4.287   1.758
    2PC     C3414142   4.808   4.095   2.009
    2PC     H4A14143   4.787   3.989   2.018
    2PC     H4B14144   4.896   4.122   2.068
    2PC     H4C14145   4.723   4.158   2.038
    2PC     C3514146   4.940   4.030   1.807
    2PC     H5A14147   4.909   4.006   1.705
    2PC     H5B14148   4.940   3.940   1.869
    2PC     H5C14149   5.033   4.086   1.808
    2PC     O3314150   4.678   3.694   1.850
    2PC     O3414151   4.474   3.751   1.752
    2PC     O2114152   4.404   3.558   2.189
    2PC     C2114153   4.530   3.515   2.209
    2PC     O2214154   4.622   3.593   2.223
    3OL     C1214155   4.528   3.365   2.220
    3OL     H2R14156   4.553   3.334   2.118
    3OL     H2S14157   4.435   3.314   2.247
    3OL     C1314158   4.639   3.317   2.316
    3OL     H3R14159   4.738   3.338   2.274
    3OL     H3S14160   4.633   3.208   2.320
    3OL     C1414161   4.611   3.375   2.455
    3OL     H4R14162   4.637   3.481   2.451
    3OL     H4S14163   4.682   3.329   2.524
    3OL     C1514164   4.472   3.345   2.513
    3OL     H5R14165   4.457   3.238   2.527
    3OL     H5S14166   4.391   3.368   2.444
    3OL     C1614167   4.439   3.419   2.644
    3OL     H6R14168   4.427   3.526   2.622
    3OL     H6S14169   4.524   3.414   2.713
    3OL     C1714170   4.310   3.382   2.717
    3OL     H7R14171   4.217   3.416   2.672
    3OL     H7S14172   4.312   3.433   2.814
    3OL     C1814173   4.286   3.231   2.734
    3OL     H8R14174   4.375   3.196   2.787
    3OL     H8S14175   4.273   3.178   2.639
    3OL     C1914176   4.158   3.196   2.806
    3OL     H9R14177   4.097   3.284   2.823
    3OL    C11014178   4.124   3.075   2.846
    3OL    H10R14179   4.028   3.059   2.894
    3OL    C11114180   4.209   2.956   2.808
    3OL    H11R14181   4.312   2.972   2.840
    3OL    H11S14182   4.217   2.942   2.700
    3OL    C11214183   4.163   2.828   2.879
    3OL    H12R14184   4.221   2.742   2.844
    3OL    H12S14185   4.061   2.803   2.848
    3OL    C11314186   4.167   2.834   3.032
    3OL    H13R14187   4.122   2.925   3.074
    3OL    H13S14188   4.269   2.836   3.071
    3OL    C11414189   4.103   2.712   3.100
    3OL    H14R14190   4.156   2.621   3.070
    3OL    H14S14191   3.999   2.710   3.065
    3OL    C11514192   4.116   2.708   3.253
    3OL    H15R14193   4.039   2.638   3.285
    3OL    H15S14194   4.091   2.806   3.294
    3OL    C11614195   4.255   2.673   3.306
    3OL    H16R14196   4.325   2.753   3.280
    3OL    H16S14197   4.291   2.577   3.268
    3OL    C11714198   4.244   2.655   3.458
    3OL    H17R14199   4.167   2.589   3.500
    3OL    H17S14200   4.229   2.751   3.507
    3OL    C11814201   4.373   2.598   3.519
    3OL    H18R14202   4.463   2.657   3.500
    3OL    H18S14203   4.385   2.495   3.485
    3OL    H18T14204   4.360   2.599   3.627
    1PA    C11614205   6.289   3.503   3.217
    1PA    H16R14206   6.297   3.610   3.202
    1PA    H16S14207   6.395   3.478   3.222
    1PA    H16T14208   6.235   3.474   3.308
    1PA    C11514209   6.241   3.435   3.088
    1PA    H15R14210   6.300   3.438   2.996
    1PA    H15S14211   6.214   3.331   3.106
    1PA    C11414212   6.103   3.494   3.055
    1PA    H14R14213   6.037   3.488   3.142
    1PA    H14S14214   6.127   3.599   3.036
    1PA    C11314215   6.037   3.448   2.925
    1PA    H13R14216   6.100   3.484   2.843
    1PA    H13S14217   6.036   3.339   2.912
    1PA    C11214218   5.899   3.515   2.920
    1PA    H12R14219   5.867   3.493   2.818
    1PA    H12S14220   5.823   3.471   2.984
    1PA    C11114221   5.893   3.664   2.956
    1PA    H11R14222   5.931   3.676   3.058
    1PA    H11S14223   5.963   3.722   2.895
    1PA    C11014224   5.753   3.724   2.944
    1PA    H10R14225   5.727   3.697   2.842
    1PA    H10S14226   5.689   3.678   3.020
    1PA     C1914227   5.762   3.877   2.958
    1PA     H9R14228   5.796   3.892   3.060
    1PA     H9S14229   5.836   3.914   2.886
    1PA     C1814230   5.631   3.952   2.926
    1PA     H8R14231   5.647   4.058   2.944
    1PA     H8S14232   5.622   3.933   2.819
    1PA     C1714233   5.502   3.908   2.997
    1PA     H7R14234   5.481   3.803   2.978
    1PA     H7S14235   5.514   3.913   3.105
    1PA     C1614236   5.375   3.985   2.958
    1PA     H6R14237   5.289   3.935   3.004
    1PA     H6S14238   5.386   4.087   2.995
    1PA     C1514239   5.360   3.993   2.806
    1PA     H5R14240   5.430   4.061   2.757
    1PA     H5S14241   5.383   3.901   2.753
    1PA     C1414242   5.214   4.030   2.776
    1PA     H4R14243   5.201   4.023   2.668
    1PA     H4S14244   5.149   3.955   2.822
    1PA     C1314245   5.180   4.173   2.822
    1PA     H3R14246   5.176   4.188   2.930
    1PA     H3S14247   5.261   4.241   2.795
    1PA     C1214248   5.054   4.228   2.754
    1PA     H2R14249   4.977   4.150   2.747
    1PA     H2S14250   5.012   4.314   2.807
    2PC     C1114251   5.098   4.283   2.621
    2PC     O1214252   5.210   4.272   2.575
    2PC     O1114253   4.999   4.345   2.554
    2PC      C114254   5.019   4.390   2.419
    2PC      HR14255   4.932   4.450   2.393
    2PC      HS14256   5.111   4.449   2.421
    2PC      C214257   5.042   4.280   2.315
    2PC      HX14258   5.118   4.208   2.346
    2PC      C314259   5.100   4.345   2.188
    2PC      HA14260   5.200   4.385   2.206
    2PC      HB14261   5.107   4.268   2.111
    2PC     O3114262   5.001   4.439   2.143
    2PC     P3114263   5.031   4.536   2.019
    2PC     O3214264   5.107   4.661   2.085
    2PC     C3114265   5.023   4.739   2.171
    2PC     H1A14266   4.940   4.786   2.118
    2PC     H1B14267   4.983   4.670   2.246
    2PC     C3214268   5.102   4.851   2.240
    2PC     H2A14269   5.026   4.902   2.299
    2PC     H2B14270   5.161   4.801   2.317
    2PC     N3114271   5.183   4.948   2.159
    2PC     C3314272   5.278   5.031   2.240
    2PC     H3A14273   5.225   5.052   2.333
    2PC     H3B14274   5.366   4.972   2.265
    2PC     H3C14275   5.308   5.112   2.172
    2PC     C3414276   5.282   4.889   2.064
    2PC     H4A14277   5.326   4.804   2.116
    2PC     H4B14278   5.224   4.859   1.977
    2PC     H4C14279   5.364   4.958   2.040
    2PC     C3514280   5.099   5.032   2.068
    2PC     H5A14281   5.158   5.085   1.993
    2PC     H5B14282   5.050   5.105   2.133
    2PC     H5C14283   5.026   4.964   2.024
    2PC     O3314284   5.112   4.478   1.910
    2PC     O3414285   4.916   4.579   1.937
    2PC     O2114286   4.919   4.212   2.285
    2PC     C2114287   4.874   4.116   2.368
    2PC     O2214288   4.941   4.076   2.462
    3OL     C1214289   4.732   4.072   2.347
    3OL     H2R14290   4.742   3.964   2.337
    3OL     H2S14291   4.703   4.116   2.251
    3OL     C1314292   4.646   4.102   2.471
    3OL     H3R14293   4.695   4.071   2.563
    3OL     H3S14294   4.558   4.037   2.468
    3OL     C1414295   4.606   4.250   2.472
    3OL     H4R14296   4.559   4.288   2.381
    3OL     H4S14297   4.688   4.318   2.495
    3OL     C1514298   4.512   4.276   2.591
    3OL     H5R14299   4.497   4.383   2.603
    3OL     H5S14300   4.563   4.226   2.673
    3OL     C1614301   4.374   4.211   2.575
    3OL     H6R14302   4.376   4.102   2.586
    3OL     H6S14303   4.335   4.241   2.477
    3OL     C1714304   4.278   4.258   2.685
    3OL     H7R14305   4.177   4.228   2.656
    3OL     H7S14306   4.280   4.367   2.674
    3OL     C1814307   4.305   4.214   2.829
    3OL     H8R14308   4.405   4.246   2.860
    3OL     H8S14309   4.309   4.105   2.840
    3OL     C1914310   4.202   4.282   2.916
    3OL     H9R14311   4.102   4.292   2.876
    3OL    C11014312   4.214   4.336   3.036
    3OL    H10R14313   4.128   4.387   3.078
    3OL    C11114314   4.341   4.318   3.117
    3OL    H11R14315   4.411   4.395   3.087
    3OL    H11S14316   4.386   4.224   3.084
    3OL    C11214317   4.323   4.317   3.269
    3OL    H12R14318   4.216   4.297   3.281
    3OL    H12S14319   4.349   4.418   3.300
    3OL    C11314320   4.412   4.206   3.328
    3OL    H13R14321   4.515   4.205   3.292
    3OL    H13S14322   4.372   4.110   3.296
    3OL    C11414323   4.418   4.200   3.481
    3OL    H14R14324   4.454   4.297   3.516
    3OL    H14S14325   4.492   4.127   3.514
    3OL    C11514326   4.285   4.166   3.549
    3OL    H15R14327   4.242   4.080   3.498
    3OL    H15S14328   4.215   4.250   3.538
    3OL    C11614329   4.308   4.116   3.692
    3OL    H16R14330   4.236   4.158   3.763
    3OL    H16S14331   4.405   4.155   3.722
    3OL    C11714332   4.306   3.963   3.701
    3OL    H17R14333   4.396   3.921   3.656
    3OL    H17S14334   4.211   3.918   3.670
    3OL    C11814335   4.316   3.912   3.846
    3OL    H18R14336   4.396   3.961   3.901
    3OL    H18S14337   4.335   3.805   3.840
    3OL    H18T14338   4.221   3.931   3.897
    1PA    C11614339   5.440   2.775   3.679
    1PA    H16R14340   5.419   2.819   3.777
    1PA    H16S14341   5.374   2.821   3.605
    1PA    H16T14342   5.541   2.804   3.650
    1PA    C11514343   5.419   2.623   3.686
    1PA    H15R14344   5.507   2.573   3.728
    1PA    H15S14345   5.339   2.599   3.756
    1PA    C11414346   5.383   2.566   3.548
    1PA    H14R14347   5.341   2.466   3.558
    1PA    H14S14348   5.310   2.625   3.493
    1PA    C11314349   5.511   2.560   3.463
    1PA    H13R14350   5.557   2.658   3.453
    1PA    H13S14351   5.581   2.503   3.526
    1PA    C11214352   5.490   2.501   3.323
    1PA    H12R14353   5.437   2.578   3.266
    1PA    H12S14354   5.583   2.486   3.267
    1PA    C11114355   5.413   2.368   3.324
    1PA    H11R14356   5.458   2.296   3.392
    1PA    H11S14357   5.308   2.388   3.349
    1PA    C11014358   5.407   2.304   3.185
    1PA    H10R14359   5.340   2.358   3.118
    1PA    H10S14360   5.507   2.307   3.139
    1PA     C1914361   5.344   2.164   3.185
    1PA     H9R14362   5.402   2.088   3.237
    1PA     H9S14363   5.244   2.163   3.228
    1PA     C1814364   5.335   2.102   3.045
    1PA     H8R14365   5.291   2.004   3.066
    1PA     H8S14366   5.281   2.170   2.979
    1PA     C1714367   5.467   2.083   2.969
    1PA     H7R14368   5.498   2.180   2.927
    1PA     H7S14369   5.555   2.051   3.026
    1PA     C1614370   5.447   1.987   2.851
    1PA     H6R14371   5.433   1.886   2.891
    1PA     H6S14372   5.352   2.014   2.805
    1PA     C1514373   5.565   1.972   2.753
    1PA     H5R14374   5.626   2.061   2.736
    1PA     H5S14375   5.636   1.902   2.798
    1PA     C1414376   5.515   1.909   2.623
    1PA     H4R14377   5.456   1.820   2.645
    1PA     H4S14378   5.442   1.972   2.571
    1PA     C1314379   5.635   1.876   2.532
    1PA     H3R14380   5.716   1.841   2.597
    1PA     H3S14381   5.608   1.797   2.461
    1PA     C1214382   5.687   1.990   2.443
    1PA     H2R14383   5.608   2.052   2.400
    1PA     H2S14384   5.739   2.063   2.506
    2PC     C1114385   5.767   1.935   2.328
    2PC     O1214386   5.732   1.840   2.261
    2PC     O1114387   5.890   1.989   2.320
    2PC      C114388   5.980   1.930   2.224
    2PC      HR14389   5.991   1.826   2.256
    2PC      HS14390   5.922   1.935   2.131
    2PC      C214391   6.121   1.991   2.223
    2PC      HX14392   6.117   2.099   2.239
    2PC      C314393   6.188   1.969   2.087
    2PC      HA14394   6.138   2.031   2.013
    2PC      HB14395   6.292   2.004   2.086
    2PC     O3114396   6.186   1.829   2.051
    2PC     P3114397   6.265   1.777   1.922
    2PC     O3214398   6.200   1.631   1.911
    2PC     C3114399   6.274   1.533   1.836
    2PC     H1A14400   6.382   1.547   1.849
    2PC     H1B14401   6.250   1.435   1.877
    2PC     C3214402   6.233   1.551   1.689
    2PC     H2A14403   6.127   1.575   1.684
    2PC     H2B14404   6.295   1.638   1.668
    2PC     N3114405   6.272   1.459   1.577
    2PC     C3314406   6.236   1.520   1.445
    2PC     H3A14407   6.225   1.449   1.363
    2PC     H3B14408   6.140   1.570   1.434
    2PC     H3C14409   6.309   1.597   1.419
    2PC     C3414410   6.420   1.438   1.586
    2PC     H4A14411   6.468   1.530   1.551
    2PC     H4B14412   6.453   1.410   1.686
    2PC     H4C14413   6.456   1.366   1.512
    2PC     C3514414   6.201   1.330   1.601
    2PC     H5A14415   6.209   1.257   1.520
    2PC     H5B14416   6.095   1.344   1.624
    2PC     H5C14417   6.257   1.285   1.683
    2PC     O3314418   6.235   1.862   1.804
    2PC     O3414419   6.412   1.779   1.943
    2PC     O2114420   6.199   1.924   2.324
    2PC     C2114421   6.319   1.977   2.350
    2PC     O2214422   6.378   2.075   2.308
    3OL     C1214423   6.380   1.893   2.459
    3OL     H2R14424   6.309   1.817   2.492
    3OL     H2S14425   6.389   1.961   2.544
    3OL     C1314426   6.515   1.827   2.426
    3OL     H3R14427   6.570   1.905   2.373
    3OL     H3S14428   6.490   1.744   2.360
    3OL     C1414429   6.599   1.787   2.549
    3OL     H4R14430   6.648   1.873   2.594
    3OL     H4S14431   6.684   1.728   2.514
    3OL     C1514432   6.520   1.700   2.648
    3OL     H5R14433   6.506   1.599   2.608
    3OL     H5S14434   6.421   1.740   2.670
    3OL     C1614435   6.604   1.683   2.775
    3OL     H6R14436   6.637   1.784   2.799
    3OL     H6S14437   6.693   1.623   2.754
    3OL     C1714438   6.522   1.609   2.881
    3OL     H7R14439   6.589   1.543   2.938
    3OL     H7S14440   6.439   1.546   2.850
    3OL     C1814441   6.470   1.707   2.987
    3OL     H8R14442   6.406   1.783   2.942
    3OL     H8S14443   6.549   1.767   3.032
    3OL     C1914444   6.385   1.642   3.093
    3OL     H9R14445   6.282   1.620   3.065
    3OL    C11014446   6.427   1.615   3.215
    3OL    H10R14447   6.369   1.564   3.292
    3OL    C11114448   6.565   1.645   3.270
    3OL    H11R14449   6.562   1.665   3.378
    3OL    H11S14450   6.608   1.735   3.227
    3OL    C11214451   6.652   1.521   3.245
    3OL    H12R14452   6.757   1.545   3.258
    3OL    H12S14453   6.635   1.494   3.141
    3OL    C11314454   6.610   1.404   3.335
    3OL    H13R14455   6.669   1.318   3.301
    3OL    H13S14456   6.504   1.378   3.322
    3OL    C11414457   6.650   1.436   3.479
    3OL    H14R14458   6.590   1.517   3.520
    3OL    H14S14459   6.749   1.482   3.472
    3OL    C11514460   6.671   1.312   3.567
    3OL    H15R14461   6.740   1.240   3.522
    3OL    H15S14462   6.577   1.260   3.584
    3OL    C11614463   6.724   1.348   3.706
    3OL    H16R14464   6.643   1.378   3.773
    3OL    H16S14465   6.796   1.430   3.703
    3OL    C11714466   6.794   1.225   3.765
    3OL    H17R14467   6.888   1.211   3.712
    3OL    H17S14468   6.733   1.135   3.770
    3OL    C11814469   6.822   1.259   3.913
    3OL    H18R14470   6.881   1.177   3.954
    3OL    H18S14471   6.732   1.278   3.971
    3OL    H18T14472   6.895   1.340   3.915
    1PA    C11614473   6.784   0.640   3.614
    1PA    H16R14474   6.765   0.553   3.551
    1PA    H16S14475   6.692   0.650   3.671
    1PA    H16T14476   6.869   0.624   3.682
    1PA    C11514477   6.807   0.771   3.537
    1PA    H15R14478   6.815   0.859   3.601
    1PA    H15S14479   6.902   0.758   3.484
    1PA    C11414480   6.696   0.797   3.433
    1PA    H14R14481   6.679   0.711   3.368
    1PA    H14S14482   6.602   0.816   3.484
    1PA    C11314483   6.745   0.912   3.344
    1PA    H13R14484   6.785   0.994   3.405
    1PA    H13S14485   6.829   0.883   3.280
    1PA    C11214486   6.628   0.961   3.257
    1PA    H12R14487   6.587   0.884   3.191
    1PA    H12S14488   6.542   1.002   3.310
    1PA    C11114489   6.676   1.076   3.167
    1PA    H11R14490   6.734   1.147   3.226
    1PA    H11S14491   6.728   1.026   3.085
    1PA    C11014492   6.558   1.153   3.107
    1PA    H10R14493   6.486   1.174   3.187
    1PA    H10S14494   6.597   1.248   3.069
    1PA     C1914495   6.484   1.071   3.001
    1PA     H9R14496   6.554   1.046   2.920
    1PA     H9S14497   6.460   0.973   3.044
    1PA     C1814498   6.360   1.132   2.934
    1PA     H8R14499   6.332   1.069   2.850
    1PA     H8S14500   6.275   1.120   3.001
    1PA     C1714501   6.377   1.281   2.902
    1PA     H7R14502   6.398   1.338   2.992
    1PA     H7S14503   6.470   1.291   2.846
    1PA     C1614504   6.264   1.338   2.815
    1PA     H6R14505   6.164   1.317   2.854
    1PA     H6S14506   6.273   1.447   2.814
    1PA     C1514507   6.268   1.294   2.667
    1PA     H5R14508   6.367   1.307   2.623
    1PA     H5S14509   6.247   1.187   2.667
    1PA     C1414510   6.170   1.381   2.586
    1PA     H4R14511   6.148   1.325   2.495
    1PA     H4S14512   6.076   1.391   2.640
    1PA     C1314513   6.226   1.520   2.553
    1PA     H3R14514   6.249   1.565   2.650
    1PA     H3S14515   6.319   1.510   2.496
    1PA     C1214516   6.117   1.596   2.476
    1PA     H2R14517   6.021   1.580   2.526
    1PA     H2S14518   6.137   1.703   2.475
    2PC     C1114519   6.101   1.553   2.332
    2PC     O1214520   6.192   1.497   2.276
    2PC     O1114521   5.976   1.578   2.289
    2PC      C114522   5.942   1.553   2.151
    2PC      HR14523   5.833   1.542   2.145
    2PC      HS14524   5.973   1.631   2.082
    2PC      C214525   5.989   1.415   2.104
    2PC      HX14526   6.093   1.431   2.074
    2PC      C314527   5.928   1.380   1.967
    2PC      HA14528   5.920   1.466   1.901
    2PC      HB14529   5.997   1.306   1.927
    2PC     O3114530   5.795   1.327   1.981
    2PC     P3114531   5.745   1.221   1.871
    2PC     O3214532   5.594   1.274   1.862
    2PC     C3114533   5.565   1.402   1.803
    2PC     H1A14534   5.622   1.488   1.839
    2PC     H1B14535   5.576   1.392   1.695
    2PC     C3214536   5.416   1.424   1.830
    2PC     H2A14537   5.380   1.412   1.933
    2PC     H2B14538   5.406   1.529   1.802
    2PC     N3114539   5.312   1.362   1.741
    2PC     C3314540   5.314   1.213   1.753
    2PC     H3A14541   5.217   1.182   1.714
    2PC     H3B14542   5.401   1.180   1.697
    2PC     H3C14543   5.332   1.184   1.857
    2PC     C3414544   5.183   1.418   1.793
    2PC     H4A14545   5.104   1.366   1.739
    2PC     H4B14546   5.175   1.404   1.901
    2PC     H4C14547   5.175   1.524   1.769
    2PC     C3514548   5.325   1.404   1.598
    2PC     H5A14549   5.224   1.400   1.557
    2PC     H5B14550   5.393   1.332   1.553
    2PC     H5C14551   5.360   1.508   1.594
    2PC     O3314552   5.808   1.238   1.738
    2PC     O3414553   5.755   1.076   1.897
    2PC     O2114554   5.975   1.315   2.207
    2PC     C2114555   6.045   1.201   2.203
    2PC     O2214556   6.145   1.182   2.137
    3OL     C1214557   5.998   1.099   2.305
    3OL     H2R14558   6.081   1.086   2.374
    3OL     H2S14559   5.996   1.001   2.258
    3OL     C1314560   5.862   1.120   2.374
    3OL     H3R14561   5.790   1.122   2.292
    3OL     H3S14562   5.860   1.218   2.423
    3OL     C1414563   5.808   1.003   2.457
    3OL     H4R14564   5.800   0.913   2.395
    3OL     H4S14565   5.708   1.014   2.500
    3OL     C1514566   5.900   0.975   2.576
    3OL     H5R14567   5.998   0.942   2.541
    3OL     H5S14568   5.857   0.894   2.636
    3OL     C1614569   5.909   1.094   2.673
    3OL     H6R14570   5.814   1.130   2.713
    3OL     H6S14571   5.961   1.166   2.610
    3OL     C1714572   6.001   1.068   2.793
    3OL     H7R14573   6.019   1.165   2.839
    3OL     H7S14574   6.101   1.039   2.759
    3OL     C1814575   5.927   0.985   2.898
    3OL     H8R14576   5.906   0.886   2.857
    3OL     H8S14577   5.828   1.031   2.905
    3OL     C1914578   6.004   0.977   3.027
    3OL     H9R14579   5.995   1.073   3.077
    3OL    C11014580   6.074   0.873   3.070
    3OL    H10R14581   6.131   0.889   3.162
    3OL    C11114582   6.099   0.739   3.005
    3OL    H11R14583   6.118   0.766   2.901
    3OL    H11S14584   6.012   0.675   3.014
    3OL    C11214585   6.223   0.681   3.076
    3OL    H12R14586   6.305   0.751   3.063
    3OL    H12S14587   6.252   0.594   3.017
    3OL    C11314588   6.206   0.646   3.224
    3OL    H13R14589   6.139   0.561   3.227
    3OL    H13S14590   6.168   0.735   3.275
    3OL    C11414591   6.344   0.623   3.289
    3OL    H14R14592   6.402   0.708   3.253
    3OL    H14S14593   6.393   0.533   3.251
    3OL    C11514594   6.347   0.614   3.442
    3OL    H15R14595   6.447   0.580   3.471
    3OL    H15S14596   6.266   0.541   3.454
    3OL    C11614597   6.315   0.740   3.524
    3OL    H16R14598   6.231   0.792   3.478
    3OL    H16S14599   6.395   0.814   3.519
    3OL    C11714600   6.279   0.718   3.671
    3OL    H17R14601   6.357   0.668   3.728
    3OL    H17S14602   6.194   0.649   3.679
    3OL    C11814603   6.245   0.848   3.745
    3OL    H18R14604   6.327   0.920   3.754
    3OL    H18S14605   6.230   0.820   3.850
    3OL    H18T14606   6.153   0.895   3.712
    1PA    C11614607   3.076   7.243   3.831
    1PA    H16R14608   3.076   7.192   3.927
    1PA    H16S14609   3.068   7.351   3.845
    1PA    H16T14610   3.175   7.224   3.788
    1PA    C11514611   2.967   7.186   3.740
    1PA    H15R14612   2.873   7.224   3.781
    1PA    H15S14613   2.979   7.231   3.641
    1PA    C11414614   2.973   7.033   3.734
    1PA    H14R14615   3.070   7.000   3.697
    1PA    H14S14616   2.962   6.991   3.835
    1PA    C11314617   2.863   6.981   3.641
    1PA    H13R14618   2.771   7.029   3.673
    1PA    H13S14619   2.875   7.016   3.538
    1PA    C11214620   2.857   6.827   3.638
    1PA    H12R14621   2.868   6.796   3.742
    1PA    H12S14622   2.756   6.795   3.614
    1PA    C11114623   2.949   6.745   3.547
    1PA    H11R14624   2.962   6.642   3.579
    1PA    H11S14625   2.904   6.738   3.447
    1PA    C11014626   3.090   6.802   3.531
    1PA    H10R14627   3.074   6.906   3.502
    1PA    H10S14628   3.146   6.810   3.624
    1PA     C1914629   3.177   6.719   3.434
    1PA     H9R14630   3.281   6.747   3.448
    1PA     H9S14631   3.166   6.615   3.464
    1PA     C1814632   3.132   6.745   3.290
    1PA     H8R14633   3.026   6.732   3.268
    1PA     H8S14634   3.144   6.851   3.267
    1PA     C1714635   3.220   6.663   3.194
    1PA     H7R14636   3.230   6.726   3.105
    1PA     H7S14637   3.320   6.651   3.235
    1PA     C1614638   3.149   6.532   3.156
    1PA     H6R14639   3.151   6.465   3.242
    1PA     H6S14640   3.044   6.546   3.131
    1PA     C1514641   3.224   6.454   3.046
    1PA     H5R14642   3.322   6.432   3.089
    1PA     H5S14643   3.166   6.362   3.050
    1PA     C1414644   3.217   6.521   2.908
    1PA     H4R14645   3.111   6.536   2.887
    1PA     H4S14646   3.264   6.619   2.901
    1PA     C1314647   3.286   6.430   2.806
    1PA     H3R14648   3.258   6.329   2.834
    1PA     H3S14649   3.249   6.447   2.704
    1PA     C1214650   3.438   6.451   2.812
    1PA     H2R14651   3.467   6.556   2.824
    1PA     H2S14652   3.484   6.407   2.901
    2PC     C1114653   3.508   6.380   2.698
    2PC     O1214654   3.589   6.432   2.623
    2PC     O1114655   3.461   6.255   2.682
    2PC      C114656   3.493   6.185   2.560
    2PC      HR14657   3.418   6.106   2.549
    2PC      HS14658   3.491   6.252   2.474
    2PC      C214659   3.628   6.112   2.560
    2PC      HX14660   3.709   6.180   2.586
    2PC      C314661   3.661   6.058   2.420
    2PC      HA14662   3.668   6.144   2.353
    2PC      HB14663   3.760   6.012   2.423
    2PC     O3114664   3.558   5.963   2.388
    2PC     P3114665   3.585   5.841   2.287
    2PC     O3214666   3.440   5.794   2.237
    2PC     C3114667   3.408   5.654   2.247
    2PC     H1A14668   3.407   5.642   2.355
    2PC     H1B14669   3.304   5.630   2.223
    2PC     C3214670   3.508   5.566   2.171
    2PC     H2A14671   3.611   5.577   2.207
    2PC     H2B14672   3.476   5.463   2.183
    2PC     N3114673   3.511   5.584   2.022
    2PC     C3314674   3.407   5.503   1.951
    2PC     H3A14675   3.410   5.400   1.985
    2PC     H3B14676   3.307   5.545   1.959
    2PC     H3C14677   3.424   5.497   1.843
    2PC     C3414678   3.504   5.728   1.980
    2PC     H4A14679   3.423   5.781   2.031
    2PC     H4B14680   3.599   5.781   1.992
    2PC     H4C14681   3.476   5.723   1.875
    2PC     C3514682   3.638   5.523   1.973
    2PC     H5A14683   3.647   5.422   2.012
    2PC     H5B14684   3.727   5.583   1.992
    2PC     H5C14685   3.638   5.535   1.864
    2PC     O3314686   3.677   5.882   2.179
    2PC     O3414687   3.659   5.734   2.358
    2PC     O2114688   3.618   6.004   2.655
    2PC     C2114689   3.732   5.941   2.689
    2PC     O2214690   3.844   5.974   2.659
    3OL     C1214691   3.707   5.819   2.774
    3OL     H2R14692   3.736   5.843   2.877
    3OL     H2S14693   3.783   5.746   2.744
    3OL     C1314694   3.562   5.769   2.777
    3OL     H3R14695   3.526   5.774   2.674
    3OL     H3S14696   3.496   5.827   2.842
    3OL     C1414697   3.562   5.620   2.813
    3OL     H4R14698   3.606   5.599   2.911
    3OL     H4S14699   3.628   5.568   2.744
    3OL     C1514700   3.429   5.546   2.793
    3OL     H5R14701   3.391   5.556   2.691
    3OL     H5S14702   3.361   5.591   2.865
    3OL     C1614703   3.426   5.394   2.818
    3OL     H6R14704   3.478   5.361   2.909
    3OL     H6S14705   3.476   5.337   2.740
    3OL     C1714706   3.279   5.352   2.820
    3OL     H7R14707   3.217   5.404   2.746
    3OL     H7S14708   3.234   5.388   2.913
    3OL     C1814709   3.257   5.201   2.835
    3OL     H8R14710   3.303   5.167   2.927
    3OL     H8S14711   3.315   5.151   2.757
    3OL     C1914712   3.110   5.170   2.819
    3OL     H9R14713   3.070   5.183   2.719
    3OL    C11014714   3.034   5.126   2.917
    3OL    H10R14715   2.940   5.082   2.885
    3OL    C11114716   3.064   5.097   3.062
    3OL    H11R14717   3.156   5.038   3.068
    3OL    H11S14718   2.982   5.035   3.099
    3OL    C11214719   3.073   5.225   3.146
    3OL    H12R14720   3.003   5.299   3.104
    3OL    H12S14721   3.174   5.264   3.134
    3OL    C11314722   3.035   5.190   3.290
    3OL    H13R14723   3.126   5.150   3.336
    3OL    H13S14724   2.950   5.123   3.300
    3OL    C11414725   2.997   5.312   3.374
    3OL    H14R14726   2.903   5.351   3.334
    3OL    H14S14727   3.074   5.389   3.375
    3OL    C11514728   2.974   5.277   3.522
    3OL    H15R14729   3.061   5.221   3.555
    3OL    H15S14730   2.895   5.201   3.522
    3OL    C11614731   2.937   5.399   3.607
    3OL    H16R14732   2.853   5.456   3.567
    3OL    H16S14733   3.021   5.469   3.606
    3OL    C11714734   2.893   5.366   3.750
    3OL    H17R14735   2.955   5.284   3.788
    3OL    H17S14736   2.794   5.320   3.742
    3OL    C11814737   2.881   5.493   3.834
    3OL    H18R14738   2.836   5.570   3.770
    3OL    H18S14739   2.975   5.540   3.863
    3OL    H18T14740   2.807   5.481   3.914
    1PA    C11614741   5.223  -0.019   3.932
    1PA    H16R14742   5.124  -0.061   3.952
    1PA    H16S14743   5.211   0.087   3.957
    1PA    H16T14744   5.302  -0.067   3.989
    1PA    C11514745   5.263  -0.022   3.784
    1PA    H15R14746   5.276  -0.125   3.752
    1PA    H15S14747   5.175   0.012   3.730
    1PA    C11414748   5.375   0.075   3.744
    1PA    H14R14749   5.339   0.178   3.757
    1PA    H14S14750   5.454   0.052   3.815
    1PA    C11314751   5.416   0.042   3.600
    1PA    H13R14752   5.443  -0.064   3.592
    1PA    H13S14753   5.328   0.059   3.538
    1PA    C11214754   5.537   0.128   3.560
    1PA    H12R14755   5.502   0.231   3.558
    1PA    H12S14756   5.609   0.121   3.641
    1PA    C11114757   5.586   0.082   3.422
    1PA    H11R14758   5.651  -0.004   3.441
    1PA    H11S14759   5.500   0.053   3.362
    1PA    C11014760   5.664   0.192   3.349
    1PA    H10R14761   5.590   0.263   3.311
    1PA    H10S14762   5.732   0.246   3.415
    1PA     C1914763   5.751   0.124   3.242
    1PA     H9R14764   5.829   0.074   3.299
    1PA     H9S14765   5.700   0.044   3.188
    1PA     C1814766   5.811   0.236   3.157
    1PA     H8R14767   5.823   0.325   3.219
    1PA     H8S14768   5.912   0.206   3.128
    1PA     C1714769   5.731   0.266   3.030
    1PA     H7R14770   5.733   0.180   2.962
    1PA     H7S14771   5.626   0.292   3.044
    1PA     C1614772   5.805   0.382   2.963
    1PA     H6R14773   5.805   0.467   3.032
    1PA     H6S14774   5.911   0.360   2.945
    1PA     C1514775   5.738   0.422   2.831
    1PA     H5R14776   5.723   0.340   2.761
    1PA     H5S14777   5.639   0.465   2.851
    1PA     C1414778   5.803   0.538   2.755
    1PA     H4R14779   5.733   0.593   2.693
    1PA     H4S14780   5.852   0.611   2.819
    1PA     C1314781   5.925   0.499   2.669
    1PA     H3R14782   6.000   0.577   2.656
    1PA     H3S14783   5.969   0.410   2.713
    1PA     C1214784   5.885   0.460   2.526
    1PA     H2R14785   5.958   0.390   2.486
    1PA     H2S14786   5.787   0.412   2.519
    2PC     C1114787   5.896   0.580   2.436
    2PC     O1214788   5.801   0.649   2.406
    2PC     O1114789   6.023   0.601   2.395
    2PC      C114790   6.057   0.721   2.325
    2PC      HR14791   5.995   0.721   2.235
    2PC      HS14792   6.030   0.815   2.375
    2PC      C214793   6.203   0.714   2.279
    2PC      HX14794   6.232   0.805   2.226
    2PC      C314795   6.225   0.593   2.187
    2PC      HA14796   6.194   0.506   2.245
    2PC      HB14797   6.166   0.598   2.095
    2PC     O3114798   6.364   0.591   2.152
    2PC     P3114799   6.432   0.678   2.035
    2PC     O3214800   6.578   0.692   2.098
    2PC     C3114801   6.592   0.753   2.227
    2PC     H1A14802   6.510   0.733   2.296
    2PC     H1B14803   6.684   0.710   2.269
    2PC     C3214804   6.602   0.906   2.230
    2PC     H2A14805   6.505   0.942   2.197
    2PC     H2B14806   6.605   0.936   2.334
    2PC     N3114807   6.709   0.973   2.149
    2PC     C3314808   6.704   0.939   2.003
    2PC     H3A14809   6.721   0.832   1.997
    2PC     H3B14810   6.602   0.958   1.971
    2PC     H3C14811   6.778   0.988   1.939
    2PC     C3414812   6.697   1.122   2.156
    2PC     H4A14813   6.611   1.165   2.103
    2PC     H4B14814   6.681   1.155   2.258
    2PC     H4C14815   6.792   1.164   2.124
    2PC     C3514816   6.848   0.950   2.198
    2PC     H5A14817   6.862   0.844   2.220
    2PC     H5B14818   6.855   1.008   2.290
    2PC     H5C14819   6.920   0.987   2.125
    2PC     O3314820   6.438   0.593   1.915
    2PC     O3414821   6.358   0.801   1.999
    2PC     O2114822   6.287   0.689   2.394
    2PC     C2114823   6.300   0.781   2.491
    2PC     O2214824   6.237   0.884   2.499
    3OL     C1214825   6.416   0.743   2.580
    3OL     H2R14826   6.489   0.823   2.595
    3OL     H2S14827   6.456   0.650   2.539
    3OL     C1314828   6.367   0.734   2.725
    3OL     H3R14829   6.300   0.651   2.748
    3OL     H3S14830   6.307   0.824   2.744
    3OL     C1414831   6.484   0.727   2.825
    3OL     H4R14832   6.438   0.715   2.924
    3OL     H4S14833   6.544   0.818   2.830
    3OL     C1514834   6.568   0.601   2.801
    3OL     H5R14835   6.613   0.601   2.701
    3OL     H5S14836   6.506   0.511   2.805
    3OL     C1614837   6.681   0.594   2.904
    3OL     H6R14838   6.735   0.689   2.900
    3OL     H6S14839   6.744   0.514   2.867
    3OL     C1714840   6.633   0.563   3.047
    3OL     H7R14841   6.613   0.456   3.046
    3OL     H7S14842   6.542   0.610   3.084
    3OL     C1814843   6.748   0.576   3.148
    3OL     H8R14844   6.723   0.534   3.245
    3OL     H8S14845   6.758   0.683   3.170
    3OL     C1914846   6.879   0.524   3.093
    3OL     H9R14847   6.917   0.560   2.998
    3OL    C11014848   6.955   0.426   3.138
    3OL    H10R14849   7.043   0.410   3.075
    3OL    C11114850   6.947   0.339   3.261
    3OL    H11R14851   6.863   0.379   3.319
    3OL    H11S14852   7.041   0.347   3.317
    3OL    C11214853   6.910   0.193   3.233
    3OL    H12R14854   6.991   0.148   3.176
    3OL    H12S14855   6.822   0.181   3.169
    3OL    C11314856   6.878   0.113   3.360
    3OL    H13R14857   6.858   0.007   3.343
    3OL    H13S14858   6.783   0.156   3.392
    3OL    C11414859   6.973   0.118   3.480
    3OL    H14R14860   6.994   0.219   3.518
    3OL    H14S14861   7.073   0.081   3.459
    3OL    C11514862   6.914   0.043   3.600
    3OL    H15R14863   6.808   0.064   3.614
    3OL    H15S14864   6.956   0.099   3.684
    3OL    C11614865   6.950  -0.106   3.606
    3OL    H16R14866   6.928  -0.161   3.514
    3OL    H16S14867   6.884  -0.161   3.672
    3OL    C11714868   7.098  -0.132   3.638
    3OL    H17R14869   7.140  -0.089   3.729
    3OL    H17S14870   7.163  -0.097   3.558
    3OL    C11814871   7.130  -0.282   3.650
    3OL    H18R14872   7.152  -0.330   3.555
    3OL    H18S14873   7.042  -0.329   3.693
    3OL    H18T14874   7.216  -0.293   3.717
    1PA    C11614875   4.797   4.922   3.862
    1PA    H16R14876   4.876   4.910   3.937
    1PA    H16S14877   4.739   4.832   3.887
    1PA    H16T14878   4.733   5.009   3.874
    1PA    C11514879   4.841   4.915   3.715
    1PA    H15R14880   4.926   4.846   3.709
    1PA    H15S14881   4.757   4.870   3.661
    1PA    C11414882   4.893   5.053   3.671
    1PA    H14R14883   4.942   5.113   3.748
    1PA    H14S14884   4.959   5.041   3.585
    1PA    C11314885   4.773   5.137   3.626
    1PA    H13R14886   4.724   5.091   3.541
    1PA    H13S14887   4.705   5.152   3.710
    1PA    C11214888   4.810   5.276   3.571
    1PA    H12R14889   4.735   5.354   3.591
    1PA    H12S14890   4.895   5.315   3.628
    1PA    C11114891   4.845   5.275   3.422
    1PA    H11R14892   4.943   5.228   3.409
    1PA    H11S14893   4.773   5.214   3.367
    1PA    C11014894   4.859   5.407   3.345
    1PA    H10R14895   4.770   5.470   3.352
    1PA    H10S14896   4.947   5.446   3.396
    1PA     C1914897   4.871   5.364   3.198
    1PA     H9R14898   4.771   5.335   3.166
    1PA     H9S14899   4.937   5.278   3.184
    1PA     C1814900   4.932   5.473   3.109
    1PA     H8R14901   4.862   5.556   3.108
    1PA     H8S14902   5.029   5.515   3.137
    1PA     C1714903   4.945   5.435   2.960
    1PA     H7R14904   4.998   5.339   2.951
    1PA     H7S14905   4.843   5.422   2.924
    1PA     C1614906   5.014   5.548   2.883
    1PA     H6R14907   4.961   5.643   2.890
    1PA     H6S14908   5.119   5.555   2.912
    1PA     C1514909   5.017   5.516   2.733
    1PA     H5R14910   5.047   5.412   2.721
    1PA     H5S14911   4.917   5.529   2.690
    1PA     C1414912   5.119   5.611   2.668
    1PA     H4R14913   5.097   5.710   2.707
    1PA     H4S14914   5.223   5.582   2.689
    1PA     C1314915   5.097   5.592   2.517
    1PA     H3R14916   5.127   5.487   2.504
    1PA     H3S14917   4.990   5.598   2.498
    1PA     C1214918   5.180   5.682   2.426
    1PA     H2R14919   5.151   5.787   2.439
    1PA     H2S14920   5.283   5.678   2.462
    2PC     C1114921   5.169   5.625   2.287
    2PC     O1214922   5.235   5.532   2.244
    2PC     O1114923   5.070   5.689   2.222
    2PC      C114924   5.016   5.642   2.096
    2PC      HR14925   4.937   5.707   2.058
    2PC      HS14926   5.105   5.632   2.034
    2PC      C214927   4.961   5.499   2.113
    2PC      HX14928   5.048   5.437   2.138
    2PC      C314929   4.890   5.434   1.994
    2PC      HA14930   4.967   5.426   1.917
    2PC      HB14931   4.863   5.333   2.027
    2PC     O3114932   4.766   5.487   1.943
    2PC     P3114933   4.680   5.412   1.831
    2PC     O3214934   4.544   5.496   1.839
    2PC     C3114935   4.447   5.474   1.735
    2PC     H1A14936   4.373   5.555   1.730
    2PC     H1B14937   4.499   5.468   1.639
    2PC     C3214938   4.380   5.338   1.757
    2PC     H2A14939   4.308   5.319   1.676
    2PC     H2B14940   4.455   5.260   1.769
    2PC     N3114941   4.298   5.318   1.881
    2PC     C3314942   4.188   5.419   1.898
    2PC     H3A14943   4.137   5.388   1.990
    2PC     H3B14944   4.233   5.518   1.904
    2PC     H3C14945   4.125   5.416   1.809
    2PC     C3414946   4.230   5.186   1.865
    2PC     H4A14947   4.164   5.176   1.951
    2PC     H4B14948   4.166   5.185   1.777
    2PC     H4C14949   4.307   5.108   1.867
    2PC     C3514950   4.379   5.312   2.007
    2PC     H5A14951   4.317   5.278   2.090
    2PC     H5B14952   4.438   5.402   2.024
    2PC     H5C14953   4.459   5.239   1.992
    2PC     O3314954   4.734   5.418   1.694
    2PC     O3414955   4.667   5.272   1.878
    2PC     O2114956   4.882   5.518   2.231
    2PC     C2114957   4.855   5.414   2.312
    2PC     O2214958   4.920   5.311   2.319
    3OL     C1214959   4.737   5.455   2.396
    3OL     H2R14960   4.646   5.467   2.336
    3OL     H2S14961   4.753   5.555   2.437
    3OL     C1314962   4.714   5.352   2.507
    3OL     H3R14963   4.812   5.314   2.537
    3OL     H3S14964   4.646   5.273   2.475
    3OL     C1414965   4.638   5.414   2.625
    3OL     H4R14966   4.552   5.468   2.584
    3OL     H4S14967   4.699   5.499   2.656
    3OL     C1514968   4.620   5.316   2.742
    3OL     H5R14969   4.597   5.375   2.831
    3OL     H5S14970   4.699   5.243   2.757
    3OL     C1614971   4.504   5.220   2.712
    3OL     H6R14972   4.531   5.160   2.624
    3OL     H6S14973   4.411   5.272   2.693
    3OL     C1714974   4.475   5.121   2.826
    3OL     H7R14975   4.384   5.063   2.807
    3OL     H7S14976   4.441   5.182   2.909
    3OL     C1814977   4.593   5.027   2.858
    3OL     H8R14978   4.671   5.088   2.904
    3OL     H8S14979   4.625   4.975   2.767
    3OL     C1914980   4.552   4.917   2.952
    3OL     H9R14981   4.522   4.824   2.903
    3OL    C11014982   4.552   4.930   3.083
    3OL    H10R14983   4.521   4.851   3.152
    3OL    C11114984   4.577   5.055   3.163
    3OL    H11R14985   4.585   5.151   3.112
    3OL    H11S14986   4.675   5.041   3.209
    3OL    C11214987   4.482   5.057   3.284
    3OL    H12R14988   4.535   5.007   3.366
    3OL    H12S14989   4.385   5.010   3.262
    3OL    C11314990   4.454   5.200   3.332
    3OL    H13R14991   4.413   5.245   3.241
    3OL    H13S14992   4.543   5.257   3.359
    3OL    C11414993   4.353   5.200   3.448
    3OL    H14R14994   4.394   5.156   3.539
    3OL    H14S14995   4.264   5.139   3.429
    3OL    C11514996   4.315   5.340   3.498
    3OL    H15R14997   4.304   5.410   3.414
    3OL    H15S14998   4.399   5.381   3.555
    3OL    C11614999   4.192   5.339   3.589
    3OL    H16R15000   4.208   5.414   3.666
    3OL    H16S15001   4.198   5.243   3.640
    3OL    C11715002   4.058   5.346   3.514
    3OL    H17R15003   4.054   5.266   3.440
    3OL    H17S15004   4.054   5.443   3.464
    3OL    C11815005   3.940   5.353   3.612
    3OL    H18R15006   3.845   5.349   3.559
    3OL    H18S15007   3.943   5.438   3.681
    3OL    H18T15008   3.942   5.261   3.672
    1PA    C11615009   3.429   4.772   4.048
    1PA    H16R15010   3.449   4.697   4.125
    1PA    H16S15011   3.334   4.819   4.073
    1PA    H16T15012   3.514   4.839   4.031
    1PA    C11515013   3.392   4.699   3.918
    1PA    H15R15014   3.480   4.645   3.884
    1PA    H15S15015   3.320   4.621   3.941
    1PA    C11415016   3.339   4.805   3.820
    1PA    H14R15017   3.255   4.855   3.868
    1PA    H14S15018   3.417   4.873   3.784
    1PA    C11315019   3.277   4.736   3.697
    1PA    H13R15020   3.350   4.679   3.639
    1PA    H13S15021   3.194   4.670   3.721
    1PA    C11215022   3.233   4.851   3.606
    1PA    H12R15023   3.143   4.890   3.654
    1PA    H12S15024   3.312   4.926   3.598
    1PA    C11115025   3.199   4.813   3.461
    1PA    H11R15026   3.154   4.714   3.457
    1PA    H11S15027   3.133   4.890   3.419
    1PA    C11015028   3.323   4.804   3.371
    1PA    H10R15029   3.389   4.730   3.417
    1PA    H10S15030   3.293   4.761   3.275
    1PA     C1915031   3.383   4.942   3.344
    1PA     H9R15032   3.312   5.017   3.309
    1PA     H9S15033   3.431   4.979   3.435
    1PA     C1815034   3.499   4.928   3.245
    1PA     H8R15035   3.547   5.026   3.240
    1PA     H8S15036   3.578   4.860   3.279
    1PA     C1715037   3.466   4.880   3.102
    1PA     H7R15038   3.420   4.782   3.113
    1PA     H7S15039   3.384   4.940   3.063
    1PA     C1615040   3.581   4.878   3.000
    1PA     H6R15041   3.671   4.869   3.061
    1PA     H6S15042   3.566   4.793   2.933
    1PA     C1515043   3.592   5.015   2.932
    1PA     H5R15044   3.496   5.051   2.894
    1PA     H5S15045   3.626   5.097   2.996
    1PA     C1415046   3.695   5.000   2.819
    1PA     H4R15047   3.788   4.967   2.865
    1PA     H4S15048   3.661   4.928   2.744
    1PA     C1315049   3.709   5.139   2.754
    1PA     H3R15050   3.611   5.172   2.720
    1PA     H3S15051   3.746   5.211   2.827
    1PA     C1215052   3.807   5.138   2.636
    1PA     H2R15053   3.908   5.108   2.666
    1PA     H2S15054   3.780   5.068   2.555
    2PC     C1115055   3.815   5.272   2.568
    2PC     O1215056   3.778   5.381   2.610
    2PC     O1115057   3.876   5.256   2.450
    2PC      C115058   3.910   5.373   2.373
    2PC      HR15059   3.825   5.442   2.366
    2PC      HS15060   3.979   5.441   2.424
    2PC      C215061   3.970   5.318   2.243
    2PC      HX15062   4.019   5.399   2.189
    2PC      C315063   3.869   5.252   2.149
    2PC      HA15064   3.840   5.151   2.182
    2PC      HB15065   3.779   5.314   2.152
    2PC     O3115066   3.924   5.249   2.016
    2PC     P3115067   3.826   5.210   1.896
    2PC     O3215068   3.876   5.302   1.775
    2PC     C3115069   3.791   5.308   1.660
    2PC     H1A15070   3.788   5.210   1.610
    2PC     H1B15071   3.691   5.346   1.681
    2PC     C3215072   3.856   5.410   1.566
    2PC     H2A15073   3.822   5.506   1.604
    2PC     H2B15074   3.963   5.419   1.586
    2PC     N3115075   3.823   5.395   1.420
    2PC     C3315076   3.880   5.516   1.351
    2PC     H3A15077   3.984   5.511   1.384
    2PC     H3B15078   3.873   5.513   1.243
    2PC     H3C15079   3.845   5.612   1.391
    2PC     C3415080   3.864   5.263   1.364
    2PC     H4A15081   3.970   5.247   1.387
    2PC     H4B15082   3.799   5.184   1.401
    2PC     H4C15083   3.846   5.271   1.256
    2PC     C3515084   3.677   5.403   1.391
    2PC     H5A15085   3.663   5.428   1.286
    2PC     H5B15086   3.640   5.482   1.457
    2PC     H5C15087   3.625   5.313   1.425
    2PC     O3315088   3.833   5.067   1.856
    2PC     O3415089   3.683   5.226   1.933
    2PC     O2115090   4.068   5.218   2.279
    2PC     C2115091   4.191   5.247   2.323
    2PC     O2215092   4.238   5.358   2.323
    3OL     C1215093   4.259   5.128   2.386
    3OL     H2R15094   4.361   5.150   2.417
    3OL     H2S15095   4.262   5.041   2.319
    3OL     C1315096   4.175   5.073   2.502
    3OL     H3R15097   4.073   5.052   2.471
    3OL     H3S15098   4.170   5.153   2.577
    3OL     C1415099   4.237   4.942   2.553
    3OL     H4R15100   4.337   4.963   2.593
    3OL     H4S15101   4.249   4.875   2.468
    3OL     C1515102   4.161   4.873   2.667
    3OL     H5R15103   4.068   4.841   2.620
    3OL     H5S15104   4.142   4.949   2.744
    3OL     C1615105   4.250   4.759   2.719
    3OL     H6R15106   4.337   4.805   2.766
    3OL     H6S15107   4.279   4.690   2.640
    3OL     C1715108   4.178   4.675   2.826
    3OL     H7R15109   4.241   4.594   2.862
    3OL     H7S15110   4.091   4.634   2.774
    3OL     C1815111   4.131   4.750   2.951
    3OL     H8R15112   4.096   4.672   3.019
    3OL     H8S15113   4.037   4.802   2.931
    3OL     C1915114   4.231   4.847   3.008
    3OL     H9R15115   4.327   4.801   3.031
    3OL    C11015116   4.198   4.967   3.054
    3OL    H10R15117   4.276   5.021   3.108
    3OL    C11115118   4.062   5.030   3.047
    3OL    H11R15119   4.019   5.017   2.947
    3OL    H11S15120   4.077   5.136   3.071
    3OL    C11215121   3.954   4.983   3.146
    3OL    H12R15122   3.927   4.881   3.119
    3OL    H12S15123   3.863   5.041   3.128
    3OL    C11315124   3.985   4.994   3.296
    3OL    H13R15125   4.037   5.089   3.311
    3OL    H13S15126   4.058   4.918   3.326
    3OL    C11415127   3.860   4.990   3.384
    3OL    H14R15128   3.799   4.912   3.338
    3OL    H14S15129   3.809   5.083   3.357
    3OL    C11515130   3.893   4.966   3.532
    3OL    H15R15131   3.979   5.030   3.555
    3OL    H15S15132   3.928   4.865   3.554
    3OL    C11615133   3.767   4.996   3.615
    3OL    H16R15134   3.710   5.081   3.578
    3OL    H16S15135   3.788   5.012   3.721
    3OL    C11715136   3.673   4.874   3.613
    3OL    H17R15137   3.702   4.808   3.531
    3OL    H17S15138   3.568   4.906   3.610
    3OL    C11815139   3.673   4.793   3.743
    3OL    H18R15140   3.609   4.704   3.742
    3OL    H18S15141   3.658   4.846   3.837
    3OL    H18T15142   3.774   4.760   3.766
    1PA    C11615143   0.171   3.390   4.230
    1PA    H16R15144   0.139   3.494   4.229
    1PA    H16S15145   0.280   3.394   4.229
    1PA    H16T15146   0.151   3.345   4.328
    1PA    C11515147   0.123   3.321   4.102
    1PA    H15R15148   0.015   3.323   4.086
    1PA    H15S15149   0.169   3.375   4.018
    1PA    C11415150   0.156   3.171   4.097
    1PA    H14R15151   0.259   3.155   4.067
    1PA    H14S15152   0.130   3.125   4.192
    1PA    C11315153   0.069   3.111   3.985
    1PA    H13R15154   0.078   3.002   3.972
    1PA    H13S15155  -0.034   3.134   4.012
    1PA    C11215156   0.110   3.166   3.848
    1PA    H12R15157   0.101   3.275   3.841
    1PA    H12S15158   0.214   3.141   3.830
    1PA    C11115159   0.025   3.099   3.739
    1PA    H11R15160   0.054   2.994   3.735
    1PA    H11S15161  -0.083   3.103   3.751
    1PA    C11015162   0.057   3.161   3.602
    1PA    H10R15163   0.057   3.270   3.605
    1PA    H10S15164   0.161   3.135   3.583
    1PA     C1915165  -0.046   3.115   3.498
    1PA     H9R15166  -0.043   3.005   3.502
    1PA     H9S15167  -0.147   3.142   3.531
    1PA     C1815168  -0.013   3.157   3.354
    1PA     H8R15169  -0.097   3.139   3.287
    1PA     H8S15170   0.018   3.262   3.355
    1PA     C1715171   0.097   3.073   3.286
    1PA     H7R15172   0.181   3.089   3.353
    1PA     H7S15173   0.075   2.967   3.301
    1PA     C1615174   0.115   3.111   3.139
    1PA     H6R15175   0.022   3.109   3.083
    1PA     H6S15176   0.153   3.214   3.132
    1PA     C1515177   0.217   3.014   3.076
    1PA     H5R15178   0.298   2.987   3.144
    1PA     H5S15179   0.149   2.929   3.066
    1PA     C1415180   0.262   3.047   2.933
    1PA     H4R15181   0.347   3.116   2.936
    1PA     H4S15182   0.306   2.956   2.892
    1PA     C1315183   0.151   3.088   2.836
    1PA     H3R15184   0.189   3.070   2.735
    1PA     H3S15185   0.052   3.044   2.846
    1PA     C1215186   0.132   3.241   2.837
    1PA     H2R15187   0.119   3.281   2.937
    1PA     H2S15188   0.227   3.284   2.807
    2PC     C1115189   0.015   3.294   2.757
    2PC     O1215190  -0.087   3.237   2.726
    2PC     O1115191   0.038   3.422   2.724
    2PC      C115192  -0.044   3.502   2.636
    2PC      HR15193  -0.079   3.445   2.550
    2PC      HS15194  -0.129   3.545   2.690
    2PC      C215195   0.034   3.620   2.576
    2PC      HX15196  -0.040   3.687   2.532
    2PC      C315197   0.135   3.581   2.468
    2PC      HA15198   0.220   3.541   2.525
    2PC      HB15199   0.093   3.498   2.410
    2PC     O3115200   0.175   3.698   2.395
    2PC     P3115201   0.105   3.738   2.256
    2PC     O3215202   0.102   3.898   2.253
    2PC     C3115203  -0.004   3.975   2.195
    2PC     H1A15204  -0.092   3.910   2.204
    2PC     H1B15205  -0.014   4.072   2.244
    2PC     C3215206   0.027   3.998   2.046
    2PC     H2A15207   0.123   4.045   2.025
    2PC     H2B15208   0.032   3.899   2.002
    2PC     N3115209  -0.056   4.090   1.961
    2PC     C3315210  -0.194   4.033   1.961
    2PC     H3A15211  -0.267   4.091   1.905
    2PC     H3B15212  -0.180   3.937   1.910
    2PC     H3C15213  -0.221   4.020   2.066
    2PC     C3415214  -0.048   4.228   2.021
    2PC     H4A15215  -0.105   4.216   2.114
    2PC     H4B15216   0.055   4.255   2.043
    2PC     H4C15217  -0.101   4.311   1.974
    2PC     C3515218   0.005   4.094   1.824
    2PC     H5A15219   0.032   3.995   1.785
    2PC     H5B15220   0.099   4.148   1.831
    2PC     H5C15221  -0.066   4.143   1.756
    2PC     O3315222   0.169   3.687   2.133
    2PC     O3415223  -0.026   3.673   2.232
    2PC     O2115224   0.106   3.672   2.689
    2PC     C2115225   0.045   3.718   2.799
    2PC     O2215226  -0.071   3.748   2.818
    3OL     C1215227   0.143   3.731   2.913
    3OL     H2R15228   0.101   3.807   2.980
    3OL     H2S15229   0.238   3.771   2.877
    3OL     C1315230   0.169   3.596   2.982
    3OL     H3R15231   0.206   3.528   2.906
    3OL     H3S15232   0.074   3.557   3.020
    3OL     C1415233   0.284   3.611   3.083
    3OL     H4R15234   0.252   3.683   3.159
    3OL     H4S15235   0.373   3.659   3.039
    3OL     C1515236   0.302   3.475   3.151
    3OL     H5R15237   0.317   3.388   3.087
    3OL     H5S15238   0.200   3.459   3.188
    3OL     C1615239   0.408   3.483   3.262
    3OL     H6R15240   0.388   3.560   3.338
    3OL     H6S15241   0.511   3.500   3.231
    3OL     C1715242   0.408   3.350   3.337
    3OL     H7R15243   0.446   3.273   3.269
    3OL     H7S15244   0.306   3.330   3.370
    3OL     C1815245   0.501   3.349   3.460
    3OL     H8R15246   0.491   3.433   3.530
    3OL     H8S15247   0.602   3.377   3.428
    3OL     C1915248   0.502   3.212   3.522
    3OL     H9R15249   0.475   3.127   3.459
    3OL    C11015250   0.520   3.193   3.652
    3OL    H10R15251   0.514   3.091   3.689
    3OL    C11115252   0.551   3.296   3.758
    3OL    H11R15253   0.638   3.354   3.727
    3OL    H11S15254   0.580   3.251   3.854
    3OL    C11215255   0.430   3.387   3.783
    3OL    H12R15256   0.354   3.318   3.820
    3OL    H12S15257   0.391   3.435   3.693
    3OL    C11315258   0.451   3.482   3.902
    3OL    H13R15259   0.547   3.532   3.889
    3OL    H13S15260   0.456   3.429   3.998
    3OL    C11415261   0.336   3.584   3.905
    3OL    H14R15262   0.249   3.520   3.893
    3OL    H14S15263   0.334   3.644   3.813
    3OL    C11515264   0.332   3.670   4.032
    3OL    H15R15265   0.430   3.718   4.036
    3OL    H15S15266   0.325   3.611   4.123
    3OL    C11615267   0.214   3.769   4.038
    3OL    H16R15268   0.198   3.792   4.144
    3OL    H16S15269   0.121   3.725   4.002
    3OL    C11715270   0.247   3.891   3.952
    3OL    H17R15271   0.273   3.849   3.855
    3OL    H17S15272   0.337   3.945   3.985
    3OL    C11815273   0.126   3.985   3.939
    3OL    H18R15274   0.105   4.046   4.026
    3OL    H18S15275   0.052   3.914   3.902
    3OL    H18T15276   0.142   4.041   3.847
    1PA    C11615277   5.518  -0.655   3.573
    1PA    H16R15278   5.602  -0.690   3.633
    1PA    H16S15279   5.521  -0.710   3.479
    1PA    H16T15280   5.429  -0.684   3.630
    1PA    C11515281   5.500  -0.503   3.556
    1PA    H15R15282   5.427  -0.480   3.478
    1PA    H15S15283   5.462  -0.468   3.653
    1PA    C11415284   5.632  -0.435   3.518
    1PA    H14R15285   5.606  -0.330   3.505
    1PA    H14S15286   5.707  -0.452   3.596
    1PA    C11315287   5.688  -0.480   3.383
    1PA    H13R15288   5.709  -0.587   3.390
    1PA    H13S15289   5.606  -0.470   3.311
    1PA    C11215290   5.804  -0.386   3.350
    1PA    H12R15291   5.765  -0.284   3.342
    1PA    H12S15292   5.879  -0.396   3.429
    1PA    C11115293   5.867  -0.423   3.215
    1PA    H11R15294   5.928  -0.513   3.215
    1PA    H11S15295   5.790  -0.435   3.137
    1PA    C11015296   5.961  -0.311   3.169
    1PA    H10R15297   5.914  -0.212   3.163
    1PA    H10S15298   6.044  -0.319   3.239
    1PA     C1915299   6.007  -0.351   3.028
    1PA     H9R15300   6.054  -0.449   3.036
    1PA     H9S15301   5.924  -0.351   2.957
    1PA     C1815302   6.106  -0.242   2.986
    1PA     H8R15303   6.073  -0.139   2.980
    1PA     H8S15304   6.191  -0.231   3.053
    1PA     C1715305   6.152  -0.283   2.845
    1PA     H7R15306   6.176  -0.390   2.855
    1PA     H7S15307   6.064  -0.272   2.781
    1PA     C1615308   6.264  -0.194   2.791
    1PA     H6R15309   6.229  -0.093   2.810
    1PA     H6S15310   6.358  -0.208   2.845
    1PA     C1515311   6.296  -0.231   2.645
    1PA     H5R15312   6.305  -0.339   2.635
    1PA     H5S15313   6.219  -0.196   2.576
    1PA     C1415314   6.433  -0.166   2.618
    1PA     H4R15315   6.429  -0.059   2.638
    1PA     H4S15316   6.510  -0.214   2.679
    1PA     C1315317   6.471  -0.183   2.470
    1PA     H3R15318   6.568  -0.135   2.456
    1PA     H3S15319   6.491  -0.288   2.447
    1PA     C1215320   6.368  -0.118   2.376
    1PA     H2R15321   6.277  -0.179   2.371
    1PA     H2S15322   6.345  -0.017   2.412
    2PC     C1115323   6.417  -0.117   2.234
    2PC     O1215324   6.530  -0.133   2.195
    2PC     O1115325   6.317  -0.110   2.144
    2PC      C115326   6.346  -0.066   2.010
    2PC      HR15327   6.445  -0.102   1.978
    2PC      HS15328   6.279  -0.106   1.933
    2PC      C215329   6.343   0.087   2.008
    2PC      HX15330   6.242   0.119   2.034
    2PC      C315331   6.385   0.139   1.870
    2PC      HA15332   6.336   0.082   1.790
    2PC      HB15333   6.364   0.244   1.848
    2PC     O3115334   6.526   0.115   1.853
    2PC     P3115335   6.600   0.167   1.720
    2PC     O3215336   6.526   0.092   1.599
    2PC     C3115337   6.431   0.156   1.512
    2PC     H1A15338   6.351   0.193   1.575
    2PC     H1B15339   6.463   0.255   1.480
    2PC     C3215340   6.389   0.066   1.395
    2PC     H2A15341   6.310   0.108   1.332
    2PC     H2B15342   6.468   0.045   1.322
    2PC     N3115343   6.324  -0.062   1.437
    2PC     C3315344   6.209  -0.037   1.530
    2PC     H3A15345   6.252   0.007   1.620
    2PC     H3B15346   6.142   0.036   1.484
    2PC     H3C15347   6.162  -0.135   1.536
    2PC     C3415348   6.270  -0.107   1.305
    2PC     H4A15349   6.346  -0.123   1.229
    2PC     H4B15350   6.215  -0.200   1.319
    2PC     H4C15351   6.194  -0.033   1.278
    2PC     C3515352   6.415  -0.160   1.505
    2PC     H5A15353   6.435  -0.125   1.606
    2PC     H5B15354   6.507  -0.165   1.447
    2PC     H5C15355   6.372  -0.259   1.523
    2PC     O3315356   6.606   0.314   1.718
    2PC     O3415357   6.738   0.119   1.739
    2PC     O2115358   6.433   0.135   2.109
    2PC     C2115359   6.398   0.255   2.159
    2PC     O2215360   6.287   0.302   2.146
    3OL     C1215361   6.506   0.308   2.250
    3OL     H2R15362   6.566   0.367   2.181
    3OL     H2S15363   6.567   0.232   2.299
    3OL     C1315364   6.452   0.388   2.370
    3OL     H3R15365   6.396   0.479   2.349
    3OL     H3S15366   6.541   0.418   2.425
    3OL     C1415367   6.371   0.300   2.466
    3OL     H4R15368   6.413   0.202   2.487
    3OL     H4S15369   6.272   0.271   2.430
    3OL     C1515370   6.346   0.366   2.602
    3OL     H5R15371   6.314   0.470   2.592
    3OL     H5S15372   6.443   0.383   2.650
    3OL     C1615373   6.259   0.279   2.694
    3OL     H6R15374   6.304   0.180   2.698
    3OL     H6S15375   6.167   0.269   2.636
    3OL     C1715376   6.246   0.342   2.833
    3OL     H7R15377   6.143   0.337   2.870
    3OL     H7S15378   6.252   0.451   2.828
    3OL     C1815379   6.351   0.292   2.933
    3OL     H8R15380   6.335   0.353   3.022
    3OL     H8S15381   6.452   0.319   2.900
    3OL     C1915382   6.349   0.145   2.969
    3OL     H9R15383   6.336   0.074   2.888
    3OL    C11015384   6.361   0.092   3.090
    3OL    H10R15385   6.353  -0.016   3.094
    3OL    C11115386   6.394   0.174   3.213
    3OL    H11R15387   6.458   0.259   3.191
    3OL    H11S15388   6.451   0.116   3.286
    3OL    C11215389   6.275   0.235   3.287
    3OL    H12R15390   6.208   0.289   3.219
    3OL    H12S15391   6.300   0.314   3.359
    3OL    C11315392   6.202   0.125   3.366
    3OL    H13R15393   6.266   0.078   3.440
    3OL    H13S15394   6.174   0.045   3.297
    3OL    C11415395   6.081   0.174   3.447
    3OL    H14R15396   6.029   0.083   3.478
    3OL    H14S15397   6.007   0.224   3.383
    3OL    C11515398   6.122   0.257   3.569
    3OL    H15R15399   6.198   0.332   3.550
    3OL    H15S15400   6.163   0.196   3.649
    3OL    C11615401   5.989   0.315   3.620
    3OL    H16R15402   5.940   0.348   3.528
    3OL    H16S15403   6.006   0.400   3.687
    3OL    C11715404   5.905   0.209   3.693
    3OL    H17R15405   5.972   0.143   3.748
    3OL    H17S15406   5.847   0.140   3.631
    3OL    C11815407   5.805   0.274   3.789
    3OL    H18R15408   5.714   0.312   3.741
    3OL    H18S15409   5.859   0.349   3.846
    3OL    H18T15410   5.773   0.204   3.866
    1PA    C11615411   2.933   1.368   3.941
    1PA    H16R15412   2.890   1.462   3.976
    1PA    H16S15413   3.017   1.392   3.876
    1PA    H16T15414   2.982   1.318   4.025
    1PA    C11515415   2.834   1.279   3.865
    1PA    H15R15416   2.815   1.327   3.768
    1PA    H15S15417   2.885   1.186   3.838
    1PA    C11415418   2.700   1.273   3.939
    1PA    H14R15419   2.725   1.241   4.040
    1PA    H14S15420   2.670   1.377   3.952
    1PA    C11315421   2.592   1.187   3.870
    1PA    H13R15422   2.501   1.166   3.925
    1PA    H13S15423   2.553   1.250   3.790
    1PA    C11215424   2.625   1.049   3.810
    1PA    H12R15425   2.706   1.055   3.736
    1PA    H12S15426   2.662   0.987   3.892
    1PA    C11115427   2.507   0.974   3.749
    1PA    H11R15428   2.508   0.866   3.764
    1PA    H11S15429   2.413   1.007   3.795
    1PA    C11015430   2.496   0.989   3.597
    1PA    H10R15431   2.480   1.095   3.576
    1PA    H10S15432   2.593   0.974   3.548
    1PA     C1915433   2.383   0.904   3.537
    1PA     H9R15434   2.404   0.799   3.555
    1PA     H9S15435   2.284   0.931   3.575
    1PA     C1815436   2.382   0.920   3.384
    1PA     H8R15437   2.373   1.024   3.353
    1PA     H8S15438   2.479   0.887   3.345
    1PA     C1715439   2.265   0.839   3.328
    1PA     H7R15440   2.278   0.731   3.340
    1PA     H7S15441   2.171   0.866   3.377
    1PA     C1615442   2.254   0.862   3.176
    1PA     H6R15443   2.273   0.969   3.167
    1PA     H6S15444   2.343   0.811   3.138
    1PA     C1515445   2.126   0.843   3.094
    1PA     H5R15446   2.108   0.736   3.082
    1PA     H5S15447   2.045   0.895   3.146
    1PA     C1415448   2.144   0.898   2.952
    1PA     H4R15449   2.155   1.005   2.971
    1PA     H4S15450   2.243   0.872   2.914
    1PA     C1315451   2.017   0.882   2.868
    1PA     H3R15452   1.931   0.893   2.934
    1PA     H3S15453   2.010   0.962   2.795
    1PA     C1215454   2.006   0.744   2.801
    1PA     H2R15455   2.104   0.699   2.785
    1PA     H2S15456   1.952   0.678   2.869
    2PC     C1115457   1.909   0.747   2.686
    2PC     O1215458   1.906   0.839   2.606
    2PC     O1115459   1.811   0.656   2.687
    2PC      C115460   1.732   0.643   2.567
    2PC      HR15461   1.649   0.576   2.593
    2PC      HS15462   1.686   0.730   2.520
    2PC      C215463   1.814   0.571   2.459
    2PC      HX15464   1.910   0.623   2.446
    2PC      C315465   1.731   0.563   2.330
    2PC      HA15466   1.660   0.481   2.320
    2PC      HB15467   1.668   0.651   2.311
    2PC     O3115468   1.822   0.577   2.219
    2PC     P3115469   1.758   0.570   2.073
    2PC     O3215470   1.701   0.421   2.068
    2PC     C3115471   1.797   0.314   2.062
    2PC     H1A15472   1.896   0.354   2.038
    2PC     H1B15473   1.807   0.277   2.165
    2PC     C3215474   1.745   0.196   1.978
    2PC     H2A15475   1.811   0.114   2.008
    2PC     H2B15476   1.642   0.162   1.987
    2PC     N3115477   1.756   0.203   1.829
    2PC     C3315478   1.875   0.284   1.786
    2PC     H3A15479   1.966   0.230   1.811
    2PC     H3B15480   1.876   0.287   1.677
    2PC     H3C15481   1.879   0.386   1.825
    2PC     C3415482   1.760   0.066   1.769
    2PC     H4A15483   1.684   0.003   1.817
    2PC     H4B15484   1.758   0.064   1.660
    2PC     H4C15485   1.860   0.038   1.802
    2PC     C3515486   1.632   0.264   1.770
    2PC     H5A15487   1.653   0.281   1.665
    2PC     H5B15488   1.622   0.357   1.827
    2PC     H5C15489   1.549   0.195   1.786
    2PC     O3315490   1.647   0.666   2.054
    2PC     O3415491   1.857   0.581   1.963
    2PC     O2115492   1.834   0.434   2.498
    2PC     C2115493   1.943   0.400   2.567
    2PC     O2215494   2.022   0.480   2.614
    3OL     C1215495   1.964   0.255   2.603
    3OL     H2R15496   1.978   0.254   2.712
    3OL     H2S15497   2.062   0.230   2.560
    3OL     C1315498   1.846   0.172   2.551
    3OL     H3R15499   1.841   0.190   2.444
    3OL     H3S15500   1.755   0.206   2.600
    3OL     C1415501   1.858   0.020   2.566
    3OL     H4R15502   1.964  -0.004   2.564
    3OL     H4S15503   1.803  -0.034   2.489
    3OL     C1515504   1.791  -0.029   2.696
    3OL     H5R15505   1.748  -0.129   2.695
    3OL     H5S15506   1.712   0.037   2.732
    3OL     C1615507   1.903  -0.050   2.800
    3OL     H6R15508   1.960   0.043   2.805
    3OL     H6S15509   1.966  -0.132   2.764
    3OL     C1715510   1.846  -0.096   2.935
    3OL     H7R15511   1.799  -0.194   2.924
    3OL     H7S15512   1.778  -0.018   2.968
    3OL     C1815513   1.954  -0.131   3.038
    3OL     H8R15514   2.023  -0.202   2.992
    3OL     H8S15515   1.905  -0.171   3.126
    3OL     C1915516   2.033  -0.008   3.076
    3OL     H9R15517   2.046   0.072   3.003
    3OL    C11015518   2.118  -0.003   3.177
    3OL    H10R15519   2.183   0.084   3.184
    3OL    C11115520   2.131  -0.107   3.286
    3OL    H11R15521   2.113  -0.210   3.258
    3OL    H11S15522   2.059  -0.079   3.364
    3OL    C11215523   2.267  -0.089   3.356
    3OL    H12R15524   2.267   0.013   3.396
    3OL    H12S15525   2.353  -0.097   3.290
    3OL    C11315526   2.281  -0.195   3.465
    3OL    H13R15527   2.272  -0.294   3.419
    3OL    H13S15528   2.194  -0.181   3.531
    3OL    C11415529   2.412  -0.191   3.545
    3OL    H14R15530   2.497  -0.194   3.476
    3OL    H14S15531   2.415  -0.280   3.608
    3OL    C11515532   2.429  -0.079   3.649
    3OL    H15R15533   2.335  -0.074   3.704
    3OL    H15S15534   2.445   0.011   3.589
    3OL    C11615535   2.556  -0.111   3.730
    3OL    H16R15536   2.540  -0.206   3.782
    3OL    H16S15537   2.555  -0.035   3.808
    3OL    C11715538   2.691  -0.112   3.657
    3OL    H17R15539   2.694  -0.023   3.594
    3OL    H17S15540   2.700  -0.198   3.591
    3OL    C11815541   2.801  -0.110   3.764
    3OL    H18R15542   2.887  -0.166   3.727
    3OL    H18S15543   2.772  -0.147   3.863
    3OL    H18T15544   2.833  -0.006   3.776
    1PA    C11615545   0.235   4.333   3.490
    1PA    H16R15546   0.232   4.414   3.563
    1PA    H16S15547   0.146   4.271   3.503
    1PA    H16T15548   0.230   4.378   3.390
    1PA    C11515549   0.363   4.249   3.496
    1PA    H15R15550   0.379   4.195   3.403
    1PA    H15S15551   0.450   4.316   3.502
    1PA    C11415552   0.356   4.155   3.617
    1PA    H14R15553   0.353   4.221   3.704
    1PA    H14S15554   0.258   4.107   3.606
    1PA    C11315555   0.471   4.054   3.611
    1PA    H13R15556   0.460   3.984   3.528
    1PA    H13S15557   0.566   4.109   3.609
    1PA    C11215558   0.474   3.972   3.741
    1PA    H12R15559   0.448   4.031   3.829
    1PA    H12S15560   0.395   3.901   3.713
    1PA    C11115561   0.606   3.896   3.759
    1PA    H11R15562   0.692   3.963   3.755
    1PA    H11S15563   0.609   3.856   3.861
    1PA    C11015564   0.623   3.781   3.659
    1PA    H10R15565   0.686   3.705   3.705
    1PA    H10S15566   0.528   3.733   3.634
    1PA     C1915567   0.698   3.825   3.533
    1PA     H9R15568   0.664   3.919   3.490
    1PA     H9S15569   0.807   3.829   3.543
    1PA     C1815570   0.684   3.716   3.425
    1PA     H8R15571   0.723   3.623   3.466
    1PA     H8S15572   0.580   3.691   3.402
    1PA     C1715573   0.760   3.748   3.296
    1PA     H7R15574   0.735   3.847   3.257
    1PA     H7S15575   0.868   3.737   3.306
    1PA     C1615576   0.721   3.653   3.182
    1PA     H6R15577   0.740   3.549   3.209
    1PA     H6S15578   0.614   3.670   3.174
    1PA     C1515579   0.801   3.669   3.051
    1PA     H5R15580   0.786   3.767   3.005
    1PA     H5S15581   0.907   3.653   3.073
    1PA     C1415582   0.744   3.572   2.948
    1PA     H4R15583   0.768   3.471   2.985
    1PA     H4S15584   0.635   3.571   2.950
    1PA     C1315585   0.784   3.590   2.801
    1PA     H3R15586   0.740   3.515   2.736
    1PA     H3S15587   0.748   3.689   2.770
    1PA     C1215588   0.937   3.583   2.788
    1PA     H2R15589   0.975   3.672   2.838
    1PA     H2S15590   0.967   3.488   2.833
    2PC     C1115591   0.984   3.580   2.644
    2PC     O1215592   0.925   3.527   2.552
    2PC     O1115593   1.095   3.652   2.623
    2PC      C115594   1.131   3.680   2.487
    2PC      HR15595   1.227   3.732   2.498
    2PC      HS15596   1.161   3.583   2.446
    2PC      C215597   1.027   3.763   2.410
    2PC      HX15598   0.926   3.724   2.422
    2PC      C315599   1.050   3.780   2.259
    2PC      HA15600   1.134   3.848   2.248
    2PC      HB15601   1.084   3.688   2.211
    2PC     O3115602   0.931   3.840   2.205
    2PC     P3115603   0.936   3.920   2.066
    2PC     O3215604   0.996   3.824   1.953
    2PC     C3115605   1.129   3.856   1.908
    2PC     H1A15606   1.126   3.951   1.855
    2PC     H1B15607   1.197   3.872   1.992
    2PC     C3215608   1.179   3.745   1.814
    2PC     H2A15609   1.182   3.657   1.879
    2PC     H2B15610   1.106   3.726   1.735
    2PC     N3115611   1.311   3.761   1.745
    2PC     C3315612   1.311   3.876   1.649
    2PC     H3A15613   1.412   3.912   1.629
    2PC     H3B15614   1.268   3.843   1.554
    2PC     H3C15615   1.252   3.960   1.687
    2PC     C3415616   1.419   3.781   1.847
    2PC     H4A15617   1.426   3.696   1.915
    2PC     H4B15618   1.519   3.806   1.809
    2PC     H4C15619   1.392   3.866   1.911
    2PC     C3515620   1.343   3.637   1.669
    2PC     H5A15621   1.339   3.551   1.737
    2PC     H5B15622   1.448   3.645   1.639
    2PC     H5C15623   1.282   3.639   1.579
    2PC     O3315624   0.805   3.978   2.031
    2PC     O3415625   1.020   4.038   2.098
    2PC     O2115626   1.035   3.895   2.468
    2PC     C2115627   0.959   3.929   2.573
    2PC     O2215628   0.870   3.858   2.613
    3OL     C1215629   0.987   4.068   2.625
    3OL     H2R15630   0.891   4.118   2.635
    3OL     H2S15631   1.033   4.107   2.534
    3OL     C1315632   1.074   4.079   2.751
    3OL     H3R15633   1.178   4.049   2.733
    3OL     H3S15634   1.037   4.011   2.829
    3OL     C1415635   1.079   4.221   2.809
    3OL     H4R15636   1.103   4.285   2.723
    3OL     H4S15637   1.154   4.235   2.888
    3OL     C1515638   0.943   4.254   2.872
    3OL     H5R15639   0.920   4.178   2.948
    3OL     H5S15640   0.864   4.263   2.798
    3OL     C1615641   0.963   4.389   2.942
    3OL     H6R15642   1.010   4.462   2.875
    3OL     H6S15643   1.031   4.375   3.026
    3OL     C1715644   0.833   4.437   3.008
    3OL     H7R15645   0.798   4.359   3.077
    3OL     H7S15646   0.757   4.455   2.931
    3OL     C1815647   0.869   4.568   3.080
    3OL     H8R15648   0.894   4.645   3.006
    3OL     H8S15649   0.952   4.546   3.147
    3OL     C1915650   0.764   4.612   3.178
    3OL     H9R15651   0.773   4.584   3.283
    3OL    C11015652   0.665   4.692   3.141
    3OL    H10R15653   0.593   4.720   3.218
    3OL    C11115654   0.622   4.737   3.004
    3OL    H11R15655   0.526   4.691   2.979
    3OL    H11S15656   0.696   4.713   2.928
    3OL    C11215657   0.591   4.887   2.994
    3OL    H12R15658   0.487   4.900   3.022
    3OL    H12S15659   0.602   4.908   2.887
    3OL    C11315660   0.684   4.979   3.075
    3OL    H13R15661   0.791   4.964   3.061
    3OL    H13S15662   0.661   4.961   3.180
    3OL    C11415663   0.673   5.131   3.049
    3OL    H14R15664   0.704   5.140   2.944
    3OL    H14S15665   0.748   5.186   3.106
    3OL    C11515666   0.529   5.183   3.059
    3OL    H15R15667   0.475   5.154   2.968
    3OL    H15S15668   0.543   5.292   3.055
    3OL    C11615669   0.454   5.146   3.187
    3OL    H16R15670   0.529   5.182   3.258
    3OL    H16S15671   0.446   5.037   3.191
    3OL    C11715672   0.312   5.203   3.201
    3OL    H17R15673   0.235   5.167   3.133
    3OL    H17S15674   0.330   5.310   3.190
    3OL    C11815675   0.260   5.166   3.340
    3OL    H18R15676   0.259   5.058   3.353
    3OL    H18S15677   0.161   5.211   3.358
    3OL    H18T15678   0.334   5.198   3.413
    1PA    C11615679   3.660   5.755   3.776
    1PA    H16R15680   3.572   5.815   3.798
    1PA    H16S15681   3.746   5.789   3.834
    1PA    H16T15682   3.642   5.659   3.827
    1PA    C11515683   3.697   5.760   3.627
    1PA    H15R15684   3.789   5.703   3.610
    1PA    H15S15685   3.619   5.712   3.569
    1PA    C11415686   3.720   5.904   3.577
    1PA    H14R15687   3.624   5.954   3.561
    1PA    H14S15688   3.772   5.963   3.653
    1PA    C11315689   3.814   5.910   3.456
    1PA    H13R15690   3.831   6.016   3.439
    1PA    H13S15691   3.911   5.868   3.481
    1PA    C11215692   3.739   5.845   3.338
    1PA    H12R15693   3.731   5.737   3.349
    1PA    H12S15694   3.640   5.892   3.336
    1PA    C11115695   3.810   5.894   3.212
    1PA    H11R15696   3.752   5.869   3.122
    1PA    H11S15697   3.804   6.003   3.217
    1PA    C11015698   3.951   5.834   3.202
    1PA    H10R15699   4.018   5.886   3.270
    1PA    H10S15700   3.952   5.729   3.231
    1PA     C1915701   4.009   5.829   3.060
    1PA     H9R15702   4.097   5.766   3.050
    1PA     H9S15703   3.932   5.787   2.995
    1PA     C1815704   4.035   5.969   3.001
    1PA     H8R15705   3.938   6.014   2.980
    1PA     H8S15706   4.098   6.032   3.065
    1PA     C1715707   4.094   5.947   2.861
    1PA     H7R15708   4.194   5.902   2.861
    1PA     H7S15709   4.026   5.888   2.800
    1PA     C1615710   4.126   6.084   2.800
    1PA     H6R15711   4.050   6.157   2.828
    1PA     H6S15712   4.213   6.128   2.850
    1PA     C1515713   4.161   6.074   2.651
    1PA     H5R15714   4.253   6.016   2.642
    1PA     H5S15715   4.092   6.016   2.589
    1PA     C1415716   4.183   6.217   2.600
    1PA     H4R15717   4.222   6.285   2.676
    1PA     H4S15718   4.257   6.212   2.520
    1PA     C1315719   4.058   6.280   2.537
    1PA     H3R15720   4.033   6.225   2.446
    1PA     H3S15721   3.979   6.280   2.611
    1PA     C1215722   4.083   6.423   2.486
    1PA     H2R15723   3.986   6.468   2.465
    1PA     H2S15724   4.123   6.479   2.571
    2PC     C1115725   4.169   6.446   2.364
    2PC     O1215726   4.271   6.511   2.370
    2PC     O1115727   4.127   6.378   2.256
    2PC      C115728   4.200   6.380   2.132
    2PC      HR15729   4.128   6.337   2.061
    2PC      HS15730   4.235   6.478   2.101
    2PC      C215731   4.324   6.291   2.147
    2PC      HX15732   4.391   6.344   2.215
    2PC      C315733   4.399   6.276   2.014
    2PC      HA15734   4.422   6.374   1.970
    2PC      HB15735   4.499   6.239   2.035
    2PC     O3115736   4.325   6.204   1.913
    2PC     P3115737   4.353   6.229   1.757
    2PC     O3215738   4.503   6.172   1.759
    2PC     C3115739   4.594   6.223   1.660
    2PC     H1A15740   4.606   6.331   1.651
    2PC     H1B15741   4.692   6.181   1.686
    2PC     C3215742   4.551   6.179   1.520
    2PC     H2A15743   4.519   6.076   1.536
    2PC     H2B15744   4.473   6.248   1.488
    2PC     N3115745   4.639   6.187   1.399
    2PC     C3315746   4.754   6.091   1.409
    2PC     H3A15747   4.715   5.990   1.406
    2PC     H3B15748   4.819   6.101   1.321
    2PC     H3C15749   4.805   6.098   1.505
    2PC     C3415750   4.567   6.135   1.279
    2PC     H4A15751   4.644   6.138   1.201
    2PC     H4B15752   4.529   6.036   1.307
    2PC     H4C15753   4.480   6.200   1.268
    2PC     C3515754   4.687   6.328   1.382
    2PC     H5A15755   4.750   6.354   1.467
    2PC     H5B15756   4.600   6.392   1.367
    2PC     H5C15757   4.746   6.330   1.290
    2PC     O3315758   4.257   6.157   1.671
    2PC     O3415759   4.345   6.374   1.728
    2PC     O2115760   4.276   6.171   2.209
    2PC     C2115761   4.356   6.069   2.244
    2PC     O2215762   4.477   6.082   2.249
    3OL     C1215763   4.286   5.940   2.275
    3OL     H2R15764   4.273   5.880   2.184
    3OL     H2S15765   4.184   5.970   2.301
    3OL     C1315766   4.351   5.866   2.393
    3OL     H3R15767   4.358   5.935   2.477
    3OL     H3S15768   4.445   5.819   2.361
    3OL     C1415769   4.266   5.761   2.466
    3OL     H4R15770   4.259   5.669   2.407
    3OL     H4S15771   4.161   5.788   2.472
    3OL     C1515772   4.330   5.708   2.595
    3OL     H5R15773   4.337   5.784   2.673
    3OL     H5S15774   4.420   5.650   2.575
    3OL     C1615775   4.230   5.611   2.661
    3OL     H6R15776   4.230   5.526   2.594
    3OL     H6S15777   4.126   5.642   2.670
    3OL     C1715778   4.272   5.560   2.800
    3OL     H7R15779   4.272   5.643   2.871
    3OL     H7S15780   4.375   5.523   2.797
    3OL     C1815781   4.180   5.449   2.854
    3OL     H8R15782   4.207   5.360   2.797
    3OL     H8S15783   4.075   5.470   2.833
    3OL     C1915784   4.203   5.433   3.002
    3OL     H9R15785   4.305   5.443   3.038
    3OL    C11015786   4.110   5.432   3.097
    3OL    H10R15787   4.139   5.417   3.200
    3OL    C11115788   3.962   5.438   3.066
    3OL    H11R15789   3.941   5.362   2.990
    3OL    H11S15790   3.934   5.538   3.033
    3OL    C11215791   3.867   5.404   3.181
    3OL    H12R15792   3.880   5.464   3.272
    3OL    H12S15793   3.902   5.303   3.205
    3OL    C11315794   3.719   5.402   3.139
    3OL    H13R15795   3.724   5.362   3.037
    3OL    H13S15796   3.671   5.499   3.124
    3OL    C11415797   3.626   5.312   3.221
    3OL    H14R15798   3.676   5.217   3.241
    3OL    H14S15799   3.538   5.281   3.165
    3OL    C11515800   3.600   5.367   3.362
    3OL    H15R15801   3.543   5.460   3.354
    3OL    H15S15802   3.696   5.379   3.412
    3OL    C11615803   3.504   5.267   3.428
    3OL    H16R15804   3.568   5.179   3.438
    3OL    H16S15805   3.423   5.244   3.359
    3OL    C11715806   3.445   5.308   3.564
    3OL    H17R15807   3.391   5.401   3.549
    3OL    H17S15808   3.527   5.326   3.633
    3OL    C11815809   3.365   5.192   3.627
    3OL    H18R15810   3.424   5.119   3.681
    3OL    H18S15811   3.317   5.132   3.549
    3OL    H18T15812   3.296   5.232   3.702
    1PA    C11615813   5.544   3.815   3.853
    1PA    H16R15814   5.542   3.881   3.940
    1PA    H16S15815   5.639   3.828   3.801
    1PA    H16T15816   5.537   3.710   3.882
    1PA    C11515817   5.437   3.853   3.750
    1PA    H15R15818   5.339   3.844   3.798
    1PA    H15S15819   5.438   3.962   3.744
    1PA    C11415820   5.449   3.776   3.617
    1PA    H14R15821   5.463   3.669   3.632
    1PA    H14S15822   5.357   3.785   3.560
    1PA    C11315823   5.563   3.828   3.528
    1PA    H13R15824   5.640   3.859   3.598
    1PA    H13S15825   5.604   3.750   3.465
    1PA    C11215826   5.518   3.956   3.456
    1PA    H12R15827   5.441   3.940   3.380
    1PA    H12S15828   5.478   4.016   3.537
    1PA    C11115829   5.644   4.013   3.388
    1PA    H11R15830   5.723   4.040   3.459
    1PA    H11S15831   5.681   3.939   3.316
    1PA    C11015832   5.582   4.134   3.317
    1PA    H10R15833   5.513   4.092   3.243
    1PA    H10S15834   5.520   4.197   3.381
    1PA     C1915835   5.704   4.213   3.267
    1PA     H9R15836   5.753   4.242   3.360
    1PA     H9S15837   5.776   4.157   3.206
    1PA     C1815838   5.665   4.340   3.190
    1PA     H8R15839   5.594   4.321   3.110
    1PA     H8S15840   5.604   4.399   3.259
    1PA     C1715841   5.793   4.417   3.154
    1PA     H7R15842   5.778   4.524   3.144
    1PA     H7S15843   5.860   4.403   3.240
    1PA     C1615844   5.864   4.363   3.029
    1PA     H6R15845   5.971   4.384   3.038
    1PA     H6S15846   5.856   4.254   3.024
    1PA     C1515847   5.806   4.423   2.900
    1PA     H5R15848   5.697   4.414   2.890
    1PA     H5S15849   5.823   4.531   2.902
    1PA     C1415850   5.878   4.361   2.780
    1PA     H4R15851   5.874   4.439   2.704
    1PA     H4S15852   5.982   4.332   2.799
    1PA     C1315853   5.814   4.227   2.743
    1PA     H3R15854   5.880   4.182   2.669
    1PA     H3S15855   5.814   4.158   2.828
    1PA     C1215856   5.671   4.240   2.688
    1PA     H2R15857   5.619   4.145   2.675
    1PA     H2S15858   5.606   4.292   2.760
    2PC     C1115859   5.668   4.312   2.556
    2PC     O1215860   5.744   4.291   2.464
    2PC     O1115861   5.564   4.397   2.557
    2PC      C115862   5.555   4.504   2.462
    2PC      HR15863   5.640   4.572   2.462
    2PC      HS15864   5.541   4.463   2.362
    2PC      C215865   5.425   4.583   2.489
    2PC      HX15866   5.355   4.503   2.512
    2PC      C315867   5.378   4.662   2.366
    2PC      HA15868   5.370   4.601   2.276
    2PC      HB15869   5.286   4.714   2.394
    2PC     O3115870   5.479   4.756   2.327
    2PC     P3115871   5.588   4.731   2.212
    2PC     O3215872   5.567   4.847   2.104
    2PC     C3115873   5.670   4.947   2.102
    2PC     H1A15874   5.676   5.009   2.192
    2PC     H1B15875   5.765   4.894   2.094
    2PC     C3215876   5.636   5.040   1.984
    2PC     H2A15877   5.534   5.076   2.001
    2PC     H2B15878   5.710   5.120   1.976
    2PC     N3115879   5.640   4.984   1.845
    2PC     C3315880   5.768   4.922   1.798
    2PC     H3A15881   5.852   4.992   1.809
    2PC     H3B15882   5.791   4.824   1.839
    2PC     H3C15883   5.756   4.900   1.692
    2PC     C3415884   5.527   4.889   1.818
    2PC     H4A15885   5.534   4.846   1.718
    2PC     H4B15886   5.540   4.810   1.891
    2PC     H4C15887   5.436   4.947   1.832
    2PC     C3515888   5.622   5.104   1.756
    2PC     H5A15889   5.631   5.077   1.651
    2PC     H5B15890   5.697   5.183   1.766
    2PC     H5C15891   5.521   5.142   1.770
    2PC     O3315892   5.724   4.719   2.270
    2PC     O3415893   5.579   4.592   2.162
    2PC     O2115894   5.457   4.662   2.605
    2PC     C2115895   5.356   4.717   2.675
    2PC     O2215896   5.242   4.719   2.636
    3OL     C1215897   5.384   4.754   2.819
    3OL     H2R15898   5.291   4.778   2.870
    3OL     H2S15899   5.466   4.826   2.825
    3OL     C1315900   5.432   4.625   2.888
    3OL     H3R15901   5.494   4.665   2.968
    3OL     H3S15902   5.503   4.570   2.826
    3OL     C1415903   5.312   4.549   2.947
    3OL     H4R15904   5.256   4.507   2.863
    3OL     H4S15905   5.256   4.624   3.003
    3OL     C1515906   5.341   4.433   3.043
    3OL     H5R15907   5.429   4.473   3.094
    3OL     H5S15908   5.383   4.348   2.988
    3OL     C1615909   5.220   4.404   3.132
    3OL     H6R15910   5.234   4.307   3.180
    3OL     H6S15911   5.130   4.395   3.070
    3OL     C1715912   5.188   4.509   3.239
    3OL     H7R15913   5.100   4.481   3.296
    3OL     H7S15914   5.168   4.605   3.192
    3OL     C1815915   5.301   4.522   3.341
    3OL     H8R15916   5.379   4.585   3.297
    3OL     H8S15917   5.341   4.422   3.360
    3OL     C1915918   5.243   4.586   3.465
    3OL     H9R15919   5.236   4.694   3.459
    3OL    C11015920   5.204   4.513   3.569
    3OL    H10R15921   5.170   4.562   3.659
    3OL    C11115922   5.197   4.362   3.562
    3OL    H11R15923   5.201   4.316   3.463
    3OL    H11S15924   5.105   4.327   3.608
    3OL    C11215925   5.324   4.314   3.633
    3OL    H12R15926   5.414   4.351   3.583
    3OL    H12S15927   5.334   4.205   3.635
    3OL    C11315928   5.328   4.350   3.782
    3OL    H13R15929   5.239   4.321   3.838
    3OL    H13S15930   5.333   4.458   3.795
    3OL    C11415931   5.451   4.275   3.836
    3OL    H14R15932   5.548   4.291   3.789
    3OL    H14S15933   5.429   4.168   3.835
    3OL    C11515934   5.479   4.302   3.985
    3OL    H15R15935   5.401   4.256   4.046
    3OL    H15S15936   5.462   4.410   3.992
    3OL    C11615937   5.612   4.246   4.036
    3OL    H16R15938   5.690   4.283   3.970
    3OL    H16S15939   5.606   4.137   4.039
    3OL    C11715940   5.638   4.304   4.176
    3OL    H17R15941   5.561   4.265   4.242
    3OL    H17S15942   5.618   4.411   4.186
    3OL    C11815943   5.771   4.265   4.241
    3OL    H18R15944   5.785   4.157   4.233
    3OL    H18S15945   5.773   4.284   4.348
    3OL    H18T15946   5.856   4.313   4.191
    1PA    C11615947  -0.105  -0.049   3.742
    1PA    H16R15948  -0.190  -0.052   3.810
    1PA    H16S15949  -0.140  -0.034   3.640
    1PA    H16T15950  -0.054   0.040   3.779
    1PA    C11515951  -0.020  -0.176   3.757
    1PA    H15R15952   0.028  -0.187   3.855
    1PA    H15S15953  -0.082  -0.262   3.732
    1PA    C11415954   0.101  -0.171   3.663
    1PA    H14R15955   0.152  -0.074   3.670
    1PA    H14S15956   0.171  -0.250   3.693
    1PA    C11315957   0.052  -0.202   3.520
    1PA    H13R15958   0.006  -0.301   3.526
    1PA    H13S15959  -0.019  -0.131   3.478
    1PA    C11215960   0.177  -0.207   3.430
    1PA    H12R15961   0.198  -0.105   3.397
    1PA    H12S15962   0.265  -0.248   3.480
    1PA    C11115963   0.145  -0.296   3.310
    1PA    H11R15964   0.110  -0.391   3.350
    1PA    H11S15965   0.062  -0.248   3.257
    1PA    C11015966   0.268  -0.316   3.219
    1PA    H10R15967   0.357  -0.346   3.274
    1PA    H10S15968   0.253  -0.392   3.142
    1PA     C1915969   0.290  -0.186   3.141
    1PA     H9R15970   0.196  -0.158   3.092
    1PA     H9S15971   0.307  -0.104   3.211
    1PA     C1815972   0.412  -0.205   3.050
    1PA     H8R15973   0.493  -0.233   3.118
    1PA     H8S15974   0.390  -0.287   2.982
    1PA     C1715975   0.451  -0.089   2.957
    1PA     H7R15976   0.498  -0.008   3.013
    1PA     H7S15977   0.520  -0.119   2.878
    1PA     C1615978   0.329  -0.030   2.885
    1PA     H6R15979   0.274  -0.110   2.834
    1PA     H6S15980   0.255   0.021   2.946
    1PA     C1515981   0.376   0.073   2.782
    1PA     H5R15982   0.433   0.148   2.837
    1PA     H5S15983   0.449   0.017   2.723
    1PA     C1415984   0.268   0.148   2.702
    1PA     H4R15985   0.197   0.075   2.661
    1PA     H4S15986   0.211   0.215   2.766
    1PA     C1315987   0.327   0.207   2.573
    1PA     H3R15988   0.392   0.144   2.512
    1PA     H3S15989   0.237   0.228   2.515
    1PA     C1215990   0.401   0.336   2.612
    1PA     H2R15991   0.337   0.420   2.640
    1PA     H2S15992   0.472   0.314   2.692
    2PC     C1115993   0.485   0.400   2.505
    2PC     O1215994   0.499   0.520   2.494
    2PC     O1115995   0.541   0.310   2.422
    2PC      C115996   0.607   0.347   2.300
    2PC      HR15997   0.601   0.260   2.234
    2PC      HS15998   0.549   0.419   2.241
    2PC      C215999   0.747   0.407   2.318
    2PC      HX16000   0.743   0.476   2.403
    2PC      C316001   0.794   0.477   2.190
    2PC      HA16002   0.844   0.414   2.115
    2PC      HB16003   0.713   0.531   2.140
    2PC     O3116004   0.886   0.582   2.223
    2PC     P3116005   0.929   0.701   2.124
    2PC     O3216006   0.795   0.786   2.102
    2PC     C3116007   0.772   0.856   1.978
    2PC     H1A16008   0.805   0.802   1.889
    2PC     H1B16009   0.665   0.872   1.963
    2PC     C3216010   0.848   0.988   1.987
    2PC     H2A16011   0.789   1.065   2.037
    2PC     H2B16012   0.942   0.968   2.039
    2PC     N3116013   0.896   1.057   1.863
    2PC     C3316014   0.781   1.114   1.787
    2PC     H3A16015   0.716   1.042   1.737
    2PC     H3B16016   0.727   1.177   1.857
    2PC     H3C16017   0.829   1.181   1.715
    2PC     C3416018   0.978   1.171   1.913
    2PC     H4A16019   1.019   1.220   1.825
    2PC     H4B16020   0.907   1.233   1.969
    2PC     H4C16021   1.052   1.130   1.983
    2PC     C3516022   0.974   0.968   1.770
    2PC     H5A16023   1.049   0.911   1.825
    2PC     H5B16024   1.022   1.033   1.698
    2PC     H5C16025   0.902   0.903   1.720
    2PC     O3316026   1.029   0.773   2.205
    2PC     O3416027   1.001   0.654   2.003
    2PC     O2116028   0.837   0.298   2.346
    2PC     C2116029   0.960   0.325   2.393
    2PC     O2216030   1.004   0.432   2.428
    3OL     C1216031   1.039   0.198   2.412
    3OL     H2R16032   1.032   0.143   2.318
    3OL     H2S16033   0.987   0.128   2.478
    3OL     C1316034   1.185   0.217   2.454
    3OL     H3R16035   1.185   0.238   2.562
    3OL     H3S16036   1.222   0.302   2.396
    3OL     C1416037   1.268   0.090   2.432
    3OL     H4R16038   1.363   0.127   2.395
    3OL     H4S16039   1.221   0.027   2.356
    3OL     C1516040   1.271  -0.005   2.553
    3OL     H5R16041   1.286  -0.107   2.517
    3OL     H5S16042   1.174  -0.004   2.602
    3OL     C1616043   1.386   0.029   2.649
    3OL     H6R16044   1.362   0.129   2.685
    3OL     H6S16045   1.487   0.041   2.610
    3OL     C1716046   1.406  -0.068   2.767
    3OL     H7R16047   1.482  -0.028   2.833
    3OL     H7S16048   1.430  -0.163   2.718
    3OL     C1816049   1.272  -0.076   2.841
    3OL     H8R16050   1.190  -0.100   2.773
    3OL     H8S16051   1.258   0.025   2.879
    3OL     C1916052   1.282  -0.170   2.959
    3OL     H9R16053   1.259  -0.270   2.923
    3OL    C11016054   1.310  -0.147   3.086
    3OL    H10R16055   1.296  -0.228   3.157
    3OL    C11116056   1.345  -0.014   3.148
    3OL    H11R16057   1.293   0.000   3.243
    3OL    H11S16058   1.332   0.073   3.082
    3OL    C11216059   1.496  -0.030   3.169
    3OL    H12R16060   1.549  -0.040   3.074
    3OL    H12S16061   1.517  -0.121   3.225
    3OL    C11316062   1.543   0.087   3.257
    3OL    H13R16063   1.482   0.091   3.348
    3OL    H13S16064   1.525   0.182   3.206
    3OL    C11416065   1.688   0.073   3.304
    3OL    H14R16066   1.754   0.072   3.217
    3OL    H14S16067   1.715  -0.022   3.351
    3OL    C11516068   1.730   0.185   3.400
    3OL    H15R16069   1.667   0.171   3.488
    3OL    H15S16070   1.697   0.282   3.365
    3OL    C11616071   1.878   0.178   3.443
    3OL    H16R16072   1.941   0.197   3.355
    3OL    H16S16073   1.901   0.080   3.485
    3OL    C11716074   1.920   0.280   3.550
    3OL    H17R16075   1.897   0.383   3.524
    3OL    H17S16076   2.029   0.274   3.552
    3OL    C11816077   1.869   0.248   3.691
    3OL    H18R16078   1.880   0.139   3.700
    3OL    H18S16079   1.762   0.269   3.700
    3OL    H18T16080   1.940   0.272   3.771
    1PA    C11616081   3.406   1.460   3.881
    1PA    H16R16082   3.430   1.542   3.949
    1PA    H16S16083   3.452   1.368   3.919
    1PA    H16T16084   3.297   1.458   3.869
    1PA    C11516085   3.481   1.462   3.748
    1PA    H15R16086   3.436   1.540   3.687
    1PA    H15S16087   3.586   1.487   3.763
    1PA    C11416088   3.475   1.331   3.668
    1PA    H14R16089   3.542   1.250   3.699
    1PA    H14S16090   3.376   1.285   3.676
    1PA    C11316091   3.511   1.352   3.520
    1PA    H13R16092   3.429   1.419   3.491
    1PA    H13S16093   3.609   1.400   3.510
    1PA    C11216094   3.511   1.214   3.454
    1PA    H12R16095   3.594   1.156   3.497
    1PA    H12S16096   3.420   1.164   3.486
    1PA    C11116097   3.516   1.219   3.301
    1PA    H11R16098   3.489   1.123   3.256
    1PA    H11S16099   3.449   1.297   3.265
    1PA    C11016100   3.654   1.263   3.248
    1PA    H10R16101   3.658   1.369   3.275
    1PA    H10S16102   3.735   1.205   3.292
    1PA     C1916103   3.661   1.256   3.095
    1PA     H9R16104   3.686   1.154   3.065
    1PA     H9S16105   3.574   1.296   3.043
    1PA     C1816106   3.784   1.338   3.054
    1PA     H8R16107   3.767   1.435   3.103
    1PA     H8S16108   3.876   1.289   3.086
    1PA     C1716109   3.796   1.341   2.901
    1PA     H7R16110   3.780   1.243   2.857
    1PA     H7S16111   3.712   1.396   2.858
    1PA     C1616112   3.924   1.413   2.857
    1PA     H6R16113   3.921   1.511   2.905
    1PA     H6S16114   4.003   1.364   2.915
    1PA     C1516115   3.965   1.426   2.710
    1PA     H5R16116   3.977   1.332   2.656
    1PA     H5S16117   3.878   1.468   2.659
    1PA     C1416118   4.096   1.503   2.689
    1PA     H4R16119   4.075   1.608   2.709
    1PA     H4S16120   4.179   1.475   2.754
    1PA     C1316121   4.134   1.495   2.541
    1PA     H3R16122   4.146   1.389   2.517
    1PA     H3S16123   4.050   1.522   2.476
    1PA     C1216124   4.260   1.578   2.511
    1PA     H2R16125   4.240   1.680   2.544
    1PA     H2S16126   4.345   1.547   2.571
    2PC     C1116127   4.297   1.583   2.365
    2PC     O1216128   4.302   1.686   2.301
    2PC     O1116129   4.314   1.459   2.317
    2PC      C116130   4.363   1.439   2.183
    2PC      HR16131   4.345   1.335   2.156
    2PC      HS16132   4.299   1.498   2.117
    2PC      C216133   4.510   1.476   2.164
    2PC      HX16134   4.537   1.564   2.224
    2PC      C316135   4.547   1.508   2.018
    2PC      HA16136   4.498   1.598   1.980
    2PC      HB16137   4.655   1.522   2.019
    2PC     O3116138   4.507   1.391   1.945
    2PC     P3116139   4.520   1.404   1.786
    2PC     O3216140   4.376   1.451   1.734
    2PC     C3116141   4.255   1.401   1.791
    2PC     H1A16142   4.239   1.295   1.768
    2PC     H1B16143   4.258   1.427   1.898
    2PC     C3216144   4.136   1.473   1.726
    2PC     H2A16145   4.039   1.430   1.751
    2PC     H2B16146   4.144   1.581   1.738
    2PC     N3116147   4.122   1.453   1.578
    2PC     C3316148   4.122   1.307   1.545
    2PC     H3A16149   4.225   1.281   1.571
    2PC     H3B16150   4.040   1.273   1.609
    2PC     H3C16151   4.111   1.281   1.440
    2PC     C3416152   3.994   1.519   1.534
    2PC     H4A16153   3.938   1.452   1.469
    2PC     H4B16154   3.937   1.543   1.624
    2PC     H4C16155   4.019   1.609   1.477
    2PC     C3516156   4.237   1.522   1.510
    2PC     H5A16157   4.337   1.481   1.508
    2PC     H5B16158   4.256   1.621   1.554
    2PC     H5C16159   4.203   1.537   1.408
    2PC     O3316160   4.626   1.501   1.747
    2PC     O3416161   4.571   1.282   1.719
    2PC     O2116162   4.591   1.364   2.204
    2PC     C2116163   4.721   1.380   2.232
    2PC     O2216164   4.773   1.489   2.217
    3OL     C1216165   4.790   1.258   2.286
    3OL     H2R16166   4.887   1.292   2.324
    3OL     H2S16167   4.814   1.187   2.206
    3OL     C1316168   4.714   1.188   2.400
    3OL     H3R16169   4.754   1.086   2.409
    3OL     H3S16170   4.609   1.168   2.378
    3OL     C1416171   4.727   1.242   2.543
    3OL     H4R16172   4.834   1.253   2.562
    3OL     H4S16173   4.691   1.169   2.616
    3OL     C1516174   4.653   1.375   2.561
    3OL     H5R16175   4.558   1.354   2.513
    3OL     H5S16176   4.703   1.448   2.497
    3OL     C1616177   4.647   1.431   2.704
    3OL     H6R16178   4.631   1.538   2.708
    3OL     H6S16179   4.750   1.428   2.742
    3OL     C1716180   4.560   1.359   2.808
    3OL     H7R16181   4.592   1.256   2.823
    3OL     H7S16182   4.459   1.348   2.768
    3OL     C1816183   4.553   1.422   2.948
    3OL     H8R16184   4.494   1.360   3.015
    3OL     H8S16185   4.493   1.513   2.937
    3OL     C1916186   4.691   1.457   2.998
    3OL     H9R16187   4.732   1.538   2.937
    3OL    C11016188   4.764   1.388   3.084
    3OL    H10R16189   4.866   1.419   3.105
    3OL    C11116190   4.722   1.257   3.146
    3OL    H11R16191   4.629   1.218   3.105
    3OL    H11S16192   4.714   1.271   3.254
    3OL    C11216193   4.836   1.154   3.135
    3OL    H12R16194   4.920   1.190   3.194
    3OL    H12S16195   4.864   1.155   3.029
    3OL    C11316196   4.789   1.011   3.167
    3OL    H13R16197   4.699   0.991   3.109
    3OL    H13S16198   4.757   0.995   3.270
    3OL    C11416199   4.907   0.923   3.127
    3OL    H14R16200   4.997   0.963   3.175
    3OL    H14S16201   4.923   0.913   3.019
    3OL    C11516202   4.888   0.782   3.185
    3OL    H15R16203   4.878   0.788   3.294
    3OL    H15S16204   4.981   0.726   3.180
    3OL    C11616205   4.774   0.702   3.121
    3OL    H16R16206   4.789   0.690   3.013
    3OL    H16S16207   4.672   0.737   3.138
    3OL    C11716208   4.773   0.557   3.172
    3OL    H17R16209   4.777   0.557   3.281
    3OL    H17S16210   4.861   0.508   3.131
    3OL    C11816211   4.636   0.500   3.133
    3OL    H18R16212   4.562   0.549   3.197
    3OL    H18S16213   4.629   0.394   3.158
    3OL    H18T16214   4.606   0.506   3.028
    1PA    C11616215   5.545   5.106   3.643
    1PA    H16R16216   5.496   5.019   3.598
    1PA    H16S16217   5.467   5.180   3.663
    1PA    H16T16218   5.583   5.076   3.741
    1PA    C11516219   5.657   5.160   3.554
    1PA    H15R16220   5.695   5.250   3.604
    1PA    H15S16221   5.743   5.093   3.545
    1PA    C11416222   5.612   5.193   3.410
    1PA    H14R16223   5.593   5.098   3.358
    1PA    H14S16224   5.520   5.251   3.416
    1PA    C11316225   5.711   5.272   3.323
    1PA    H13R16226   5.757   5.355   3.378
    1PA    H13S16227   5.797   5.207   3.303
    1PA    C11216228   5.643   5.328   3.198
    1PA    H12R16229   5.625   5.254   3.120
    1PA    H12S16230   5.546   5.376   3.216
    1PA    C11116231   5.734   5.430   3.128
    1PA    H11R16232   5.730   5.517   3.195
    1PA    H11S16233   5.839   5.402   3.126
    1PA    C11016234   5.690   5.475   2.987
    1PA    H10R16235   5.719   5.395   2.918
    1PA    H10S16236   5.584   5.496   2.976
    1PA     C1916237   5.776   5.596   2.949
    1PA     H9R16238   5.750   5.687   3.004
    1PA     H9S16239   5.878   5.592   2.987
    1PA     C1816240   5.764   5.626   2.798
    1PA     H8R16241   5.810   5.543   2.744
    1PA     H8S16242   5.658   5.624   2.775
    1PA     C1716243   5.828   5.762   2.769
    1PA     H7R16244   5.801   5.839   2.841
    1PA     H7S16245   5.935   5.744   2.778
    1PA     C1616246   5.810   5.805   2.622
    1PA     H6R16247   5.844   5.730   2.550
    1PA     H6S16248   5.704   5.810   2.596
    1PA     C1516249   5.878   5.932   2.570
    1PA     H5R16250   5.842   6.017   2.629
    1PA     H5S16251   5.980   5.921   2.609
    1PA     C1416252   5.876   5.953   2.418
    1PA     H4R16253   5.778   5.918   2.385
    1PA     H4S16254   5.899   6.056   2.390
    1PA     C1316255   5.983   5.875   2.341
    1PA     H3R16256   5.977   5.768   2.360
    1PA     H3S16257   5.967   5.892   2.234
    1PA     C1216258   6.126   5.926   2.367
    1PA     H2R16259   6.127   6.035   2.370
    1PA     H2S16260   6.142   5.894   2.470
    2PC     C1116261   6.227   5.877   2.267
    2PC     O1216262   6.206   5.782   2.195
    2PC     O1116263   6.327   5.967   2.261
    2PC      C116264   6.423   5.959   2.154
    2PC      HR16265   6.397   5.883   2.080
    2PC      HS16266   6.421   6.051   2.095
    2PC      C216267   6.567   5.931   2.198
    2PC      HX16268   6.585   6.002   2.279
    2PC      C316269   6.676   5.957   2.092
    2PC      HA16270   6.679   6.055   2.045
    2PC      HB16271   6.779   5.948   2.128
    2PC     O3116272   6.661   5.862   1.985
    2PC     P3116273   6.764   5.860   1.862
    2PC     O3216274   6.887   5.775   1.920
    2PC     C3116275   6.906   5.646   1.858
    2PC     H1A16276   6.814   5.588   1.866
    2PC     H1B16277   6.934   5.658   1.753
    2PC     C3216278   7.019   5.575   1.934
    2PC     H2A16279   7.078   5.642   1.996
    2PC     H2B16280   6.972   5.507   2.005
    2PC     N3116281   7.117   5.501   1.848
    2PC     C3316282   7.185   5.606   1.766
    2PC     H3A16283   7.204   5.701   1.816
    2PC     H3B16284   7.277   5.554   1.739
    2PC     H3C16285   7.130   5.626   1.674
    2PC     C3416286   7.215   5.433   1.939
    2PC     H4A16287   7.176   5.362   2.012
    2PC     H4B16288   7.273   5.380   1.863
    2PC     H4C16289   7.286   5.506   1.978
    2PC     C3516290   7.048   5.397   1.765
    2PC     H5A16291   6.987   5.445   1.688
    2PC     H5B16292   6.992   5.333   1.834
    2PC     H5C16293   7.126   5.335   1.722
    2PC     O3316294   6.687   5.812   1.745
    2PC     O3416295   6.825   5.984   1.811
    2PC     O2116296   6.573   5.793   2.239
    2PC     C2116297   6.646   5.767   2.349
    2PC     O2216298   6.722   5.848   2.398
    3OL     C1216299   6.609   5.636   2.412
    3OL     H2R16300   6.587   5.648   2.519
    3OL     H2S16301   6.693   5.566   2.400
    3OL     C1316302   6.503   5.546   2.347
    3OL     H3R16303   6.510   5.443   2.381
    3OL     H3S16304   6.530   5.554   2.242
    3OL     C1416305   6.362   5.587   2.393
    3OL     H4R16306   6.294   5.561   2.311
    3OL     H4S16307   6.344   5.693   2.411
    3OL     C1516308   6.320   5.501   2.513
    3OL     H5R16309   6.397   5.479   2.587
    3OL     H5S16310   6.299   5.398   2.483
    3OL     C1616311   6.191   5.558   2.574
    3OL     H6R16312   6.108   5.534   2.507
    3OL     H6S16313   6.187   5.667   2.576
    3OL     C1716314   6.151   5.490   2.706
    3OL     H7R16315   6.179   5.385   2.714
    3OL     H7S16316   6.042   5.484   2.713
    3OL     C1816317   6.221   5.558   2.824
    3OL     H8R16318   6.249   5.659   2.793
    3OL     H8S16319   6.314   5.506   2.847
    3OL     C1916320   6.121   5.577   2.936
    3OL     H9R16321   6.051   5.659   2.927
    3OL    C11016322   6.113   5.506   3.048
    3OL    H10R16323   6.039   5.534   3.122
    3OL    C11116324   6.187   5.377   3.074
    3OL    H11R16325   6.283   5.402   3.119
    3OL    H11S16326   6.215   5.329   2.980
    3OL    C11216327   6.115   5.281   3.170
    3OL    H12R16328   6.051   5.210   3.118
    3OL    H12S16329   6.046   5.333   3.236
    3OL    C11316330   6.217   5.209   3.261
    3OL    H13R16331   6.279   5.278   3.319
    3OL    H13S16332   6.287   5.167   3.189
    3OL    C11416333   6.166   5.092   3.346
    3OL    H14R16334   6.257   5.031   3.360
    3OL    H14S16335   6.113   5.025   3.277
    3OL    C11516336   6.092   5.120   3.477
    3OL    H15R16337   5.994   5.162   3.455
    3OL    H15S16338   6.159   5.197   3.517
    3OL    C11616339   6.093   5.004   3.578
    3OL    H16R16340   6.081   5.042   3.679
    3OL    H16S16341   6.193   4.959   3.578
    3OL    C11716342   5.985   4.899   3.549
    3OL    H17R16343   6.011   4.846   3.457
    3OL    H17S16344   5.885   4.941   3.534
    3OL    C11816345   5.978   4.799   3.665
    3OL    H18R16346   5.926   4.705   3.648
    3OL    H18S16347   5.931   4.846   3.752
    3OL    H18T16348   6.079   4.765   3.693
    1PA    C11616349   5.297   5.296   3.903
    1PA    H16R16350   5.290   5.217   3.978
    1PA    H16S16351   5.362   5.373   3.944
    1PA    H16T16352   5.340   5.251   3.813
    1PA    C11516353   5.163   5.357   3.861
    1PA    H15R16354   5.108   5.272   3.821
    1PA    H15S16355   5.115   5.404   3.948
    1PA    C11416356   5.165   5.474   3.761
    1PA    H14R16357   5.059   5.498   3.753
    1PA    H14S16358   5.207   5.563   3.809
    1PA    C11316359   5.214   5.442   3.619
    1PA    H13R16360   5.319   5.411   3.616
    1PA    H13S16361   5.160   5.353   3.584
    1PA    C11216362   5.201   5.569   3.533
    1PA    H12R16363   5.097   5.602   3.521
    1PA    H12S16364   5.252   5.650   3.584
    1PA    C11116365   5.264   5.552   3.394
    1PA    H11R16366   5.366   5.513   3.397
    1PA    H11S16367   5.211   5.470   3.345
    1PA    C11016368   5.244   5.672   3.301
    1PA    H10R16369   5.137   5.676   3.278
    1PA    H10S16370   5.279   5.763   3.351
    1PA     C1916371   5.313   5.658   3.165
    1PA     H9R16372   5.417   5.673   3.192
    1PA     H9S16373   5.294   5.560   3.120
    1PA     C1816374   5.273   5.765   3.062
    1PA     H8R16375   5.170   5.746   3.033
    1PA     H8S16376   5.294   5.865   3.103
    1PA     C1716377   5.368   5.744   2.944
    1PA     H7R16378   5.470   5.743   2.983
    1PA     H7S16379   5.347   5.646   2.901
    1PA     C1616380   5.346   5.855   2.840
    1PA     H6R16381   5.245   5.848   2.799
    1PA     H6S16382   5.360   5.954   2.885
    1PA     C1516383   5.441   5.840   2.720
    1PA     H5R16384   5.544   5.850   2.753
    1PA     H5S16385   5.427   5.744   2.671
    1PA     C1416386   5.401   5.951   2.621
    1PA     H4R16387   5.297   5.946   2.588
    1PA     H4S16388   5.411   6.046   2.674
    1PA     C1316389   5.479   5.946   2.489
    1PA     H3R16390   5.581   5.977   2.512
    1PA     H3S16391   5.483   5.846   2.444
    1PA     C1216392   5.416   6.039   2.385
    1PA     H2R16393   5.307   6.035   2.384
    1PA     H2S16394   5.448   6.141   2.407
    2PC     C1116395   5.456   5.993   2.247
    2PC     O1216396   5.562   6.032   2.202
    2PC     O1116397   5.381   5.897   2.191
    2PC      C116398   5.428   5.834   2.070
    2PC      HR16399   5.362   5.766   2.016
    2PC      HS16400   5.464   5.914   2.004
    2PC      C216401   5.551   5.754   2.113
    2PC      HX16402   5.624   5.811   2.170
    2PC      C316403   5.618   5.688   1.991
    2PC      HA16404   5.694   5.618   2.027
    2PC      HB16405   5.541   5.623   1.948
    2PC     O3116406   5.663   5.782   1.892
    2PC     P3116407   5.713   5.724   1.751
    2PC     O3216408   5.860   5.783   1.722
    2PC     C3116409   5.872   5.911   1.660
    2PC     H1A16410   5.818   5.980   1.725
    2PC     H1B16411   5.981   5.919   1.666
    2PC     C3216412   5.829   5.898   1.513
    2PC     H2A16413   5.908   5.870   1.443
    2PC     H2B16414   5.738   5.839   1.506
    2PC     N3116415   5.778   6.016   1.437
    2PC     C3316416   5.759   5.965   1.297
    2PC     H3A16417   5.859   5.936   1.265
    2PC     H3B16418   5.701   5.873   1.299
    2PC     H3C16419   5.708   6.028   1.224
    2PC     C3416420   5.644   6.058   1.491
    2PC     H4A16421   5.659   6.112   1.584
    2PC     H4B16422   5.604   6.118   1.409
    2PC     H4C16423   5.581   5.971   1.509
    2PC     C3516424   5.874   6.131   1.443
    2PC     H5A16425   5.969   6.101   1.398
    2PC     H5B16426   5.890   6.167   1.545
    2PC     H5C16427   5.833   6.217   1.390
    2PC     O3316428   5.731   5.578   1.732
    2PC     O3416429   5.613   5.763   1.650
    2PC     O2116430   5.491   5.651   2.194
    2PC     C2116431   5.573   5.589   2.281
    2PC     O2216432   5.693   5.611   2.280
    3OL     C1216433   5.514   5.500   2.387
    3OL     H2R16434   5.453   5.420   2.345
    3OL     H2S16435   5.446   5.558   2.450
    3OL     C1316436   5.621   5.437   2.477
    3OL     H3R16437   5.658   5.513   2.547
    3OL     H3S16438   5.705   5.406   2.416
    3OL     C1416439   5.574   5.316   2.559
    3OL     H4R16440   5.658   5.254   2.592
    3OL     H4S16441   5.520   5.247   2.494
    3OL     C1516442   5.491   5.351   2.684
    3OL     H5R16443   5.397   5.391   2.645
    3OL     H5S16444   5.538   5.437   2.732
    3OL     C1616445   5.470   5.241   2.789
    3OL     H6R16446   5.555   5.256   2.856
    3OL     H6S16447   5.469   5.141   2.746
    3OL     C1716448   5.345   5.267   2.874
    3OL     H7R16449   5.256   5.277   2.810
    3OL     H7S16450   5.359   5.365   2.921
    3OL     C1816451   5.339   5.170   2.993
    3OL     H8R16452   5.442   5.149   3.023
    3OL     H8S16453   5.297   5.076   2.958
    3OL     C1916454   5.265   5.232   3.109
    3OL     H9R16455   5.269   5.341   3.110
    3OL    C11016456   5.188   5.162   3.190
    3OL    H10R16457   5.130   5.215   3.265
    3OL    C11116458   5.166   5.013   3.192
    3OL    H11R16459   5.179   4.971   3.292
    3OL    H11S16460   5.243   4.962   3.133
    3OL    C11216461   5.021   4.974   3.157
    3OL    H12R16462   4.956   5.004   3.239
    3OL    H12S16463   5.010   4.866   3.160
    3OL    C11316464   4.965   5.025   3.023
    3OL    H13R16465   4.968   5.130   2.992
    3OL    H13S16466   4.858   5.006   3.012
    3OL    C11416467   5.033   4.937   2.918
    3OL    H14R16468   5.001   4.836   2.944
    3OL    H14S16469   5.141   4.947   2.925
    3OL    C11516470   4.984   4.977   2.778
    3OL    H15R16471   4.876   4.992   2.772
    3OL    H15S16472   5.005   4.883   2.726
    3OL    C11616473   5.081   5.075   2.711
    3OL    H16R16474   5.185   5.057   2.739
    3OL    H16S16475   5.055   5.167   2.764
    3OL    C11716476   5.069   5.082   2.558
    3OL    H17R16477   4.965   5.098   2.530
    3OL    H17S16478   5.100   4.984   2.522
    3OL    C11816479   5.157   5.197   2.507
    3OL    H18R16480   5.159   5.290   2.565
    3OL    H18S16481   5.143   5.216   2.400
    3OL    H18T16482   5.263   5.170   2.518
    1PA    C11616483   4.703   0.284   3.459
    1PA    H16R16484   4.736   0.274   3.562
    1PA    H16S16485   4.595   0.294   3.447
    1PA    H16T16486   4.755   0.368   3.413
    1PA    C11516487   4.755   0.159   3.385
    1PA    H15R16488   4.706   0.071   3.426
    1PA    H15S16489   4.713   0.175   3.286
    1PA    C11416490   4.908   0.151   3.371
    1PA    H14R16491   4.956   0.238   3.326
    1PA    H14S16492   4.952   0.129   3.468
    1PA    C11316493   4.932   0.025   3.286
    1PA    H13R16494   4.866  -0.057   3.315
    1PA    H13S16495   4.901   0.045   3.183
    1PA    C11216496   5.082  -0.006   3.294
    1PA    H12R16497   5.134   0.084   3.260
    1PA    H12S16498   5.109  -0.024   3.398
    1PA    C11116499   5.126  -0.122   3.204
    1PA    H11R16500   5.088  -0.220   3.233
    1PA    H11S16501   5.088  -0.098   3.104
    1PA    C11016502   5.279  -0.134   3.209
    1PA    H10R16503   5.321  -0.042   3.169
    1PA    H10S16504   5.314  -0.137   3.312
    1PA     C1916505   5.343  -0.251   3.132
    1PA     H9R16506   5.329  -0.332   3.203
    1PA     H9S16507   5.280  -0.269   3.044
    1PA     C1816508   5.488  -0.222   3.093
    1PA     H8R16509   5.532  -0.154   3.166
    1PA     H8S16510   5.544  -0.316   3.100
    1PA     C1716511   5.497  -0.154   2.956
    1PA     H7R16512   5.435  -0.205   2.882
    1PA     H7S16513   5.462  -0.050   2.959
    1PA     C1616514   5.642  -0.151   2.906
    1PA     H6R16515   5.699  -0.092   2.979
    1PA     H6S16516   5.679  -0.253   2.909
    1PA     C1516517   5.662  -0.081   2.771
    1PA     H5R16518   5.604  -0.135   2.697
    1PA     H5S16519   5.632   0.024   2.774
    1PA     C1416520   5.812  -0.097   2.739
    1PA     H4R16521   5.875  -0.043   2.810
    1PA     H4S16522   5.842  -0.202   2.733
    1PA     C1316523   5.842  -0.040   2.600
    1PA     H3R16524   5.781  -0.093   2.527
    1PA     H3S16525   5.825   0.068   2.593
    1PA     C1216526   5.992  -0.052   2.569
    1PA     H2R16527   6.061   0.001   2.635
    1PA     H2S16528   6.026  -0.155   2.567
    2PC     C1116529   6.018   0.014   2.436
    2PC     O1216530   6.027   0.134   2.424
    2PC     O1116531   6.031  -0.078   2.339
    2PC      C116532   6.019  -0.036   2.202
    2PC      HR16533   6.069   0.059   2.182
    2PC      HS16534   6.064  -0.119   2.147
    2PC      C216535   5.873  -0.025   2.156
    2PC      HX16536   5.821  -0.116   2.188
    2PC      C316537   5.865  -0.015   2.003
    2PC      HA16538   5.890  -0.113   1.962
    2PC      HB16539   5.763   0.016   1.980
    2PC     O3116540   5.955   0.087   1.958
    2PC     P3116541   5.963   0.135   1.805
    2PC     O3216542   6.066   0.258   1.801
    2PC     C3116543   6.011   0.369   1.875
    2PC     H1A16544   5.909   0.398   1.847
    2PC     H1B16545   6.005   0.335   1.979
    2PC     C3216546   6.103   0.485   1.834
    2PC     H2A16547   6.096   0.561   1.912
    2PC     H2B16548   6.206   0.454   1.817
    2PC     N3116549   6.061   0.555   1.709
    2PC     C3316550   6.158   0.669   1.696
    2PC     H3A16551   6.179   0.700   1.799
    2PC     H3B16552   6.250   0.649   1.641
    2PC     H3C16553   6.107   0.749   1.643
    2PC     C3416554   6.052   0.469   1.587
    2PC     H4A16555   5.976   0.393   1.607
    2PC     H4B16556   6.028   0.535   1.504
    2PC     H4C16557   6.147   0.418   1.572
    2PC     C3516558   5.929   0.623   1.734
    2PC     H5A16559   5.925   0.687   1.647
    2PC     H5B16560   5.949   0.695   1.813
    2PC     H5C16561   5.843   0.556   1.744
    2PC     O3316562   5.984   0.025   1.709
    2PC     O3416563   5.829   0.168   1.750
    2PC     O2116564   5.824   0.089   2.230
    2PC     C2116565   5.692   0.087   2.253
    2PC     O2216566   5.613   0.004   2.210
    3OL     C1216567   5.652   0.181   2.364
    3OL     H2R16568   5.628   0.275   2.313
    3OL     H2S16569   5.736   0.198   2.431
    3OL     C1316570   5.536   0.132   2.451
    3OL     H3R16571   5.560   0.033   2.491
    3OL     H3S16572   5.445   0.154   2.395
    3OL     C1416573   5.518   0.224   2.573
    3OL     H4R16574   5.508   0.330   2.548
    3OL     H4S16575   5.614   0.221   2.625
    3OL     C1516576   5.395   0.177   2.651
    3OL     H5R16577   5.409   0.070   2.666
    3OL     H5S16578   5.301   0.192   2.597
    3OL     C1616579   5.372   0.237   2.790
    3OL     H6R16580   5.349   0.344   2.790
    3OL     H6S16581   5.468   0.226   2.842
    3OL     C1716582   5.259   0.170   2.869
    3OL     H7R16583   5.294   0.067   2.870
    3OL     H7S16584   5.169   0.171   2.806
    3OL     C1816585   5.233   0.222   3.011
    3OL     H8R16586   5.323   0.188   3.062
    3OL     H8S16587   5.146   0.165   3.044
    3OL     C1916588   5.201   0.370   3.016
    3OL     H9R16589   5.117   0.406   2.958
    3OL    C11016590   5.261   0.457   3.096
    3OL    H10R16591   5.220   0.558   3.095
    3OL    C11116592   5.379   0.440   3.188
    3OL    H11R16593   5.461   0.500   3.148
    3OL    H11S16594   5.408   0.335   3.196
    3OL    C11216595   5.355   0.494   3.330
    3OL    H12R16596   5.307   0.591   3.318
    3OL    H12S16597   5.453   0.516   3.372
    3OL    C11316598   5.270   0.399   3.415
    3OL    H13R16599   5.312   0.298   3.425
    3OL    H13S16600   5.179   0.390   3.357
    3OL    C11416601   5.253   0.460   3.555
    3OL    H14R16602   5.339   0.512   3.596
    3OL    H14S16603   5.232   0.376   3.622
    3OL    C11516604   5.128   0.546   3.577
    3OL    H15R16605   5.124   0.623   3.500
    3OL    H15S16606   5.135   0.606   3.668
    3OL    C11616607   5.002   0.459   3.578
    3OL    H16R16608   5.006   0.359   3.621
    3OL    H16S16609   4.964   0.452   3.476
    3OL    C11716610   4.879   0.524   3.646
    3OL    H17R16611   4.795   0.468   3.604
    3OL    H17S16612   4.848   0.623   3.612
    3OL    C11816613   4.891   0.528   3.799
    3OL    H18R16614   4.976   0.584   3.838
    3OL    H18S16615   4.895   0.423   3.829
    3OL    H18T16616   4.801   0.571   3.842
    1PA    C11616617   4.771   5.606   3.812
    1PA    H16R16618   4.877   5.632   3.815
    1PA    H16S16619   4.755   5.504   3.777
    1PA    H16T16620   4.731   5.611   3.913
    1PA    C11516621   4.726   5.720   3.719
    1PA    H15R16622   4.618   5.713   3.702
    1PA    H15S16623   4.744   5.818   3.763
    1PA    C11416624   4.798   5.700   3.585
    1PA    H14R16625   4.907   5.694   3.599
    1PA    H14S16626   4.779   5.597   3.553
    1PA    C11316627   4.754   5.806   3.483
    1PA    H13R16628   4.647   5.793   3.467
    1PA    H13S16629   4.773   5.907   3.519
    1PA    C11216630   4.839   5.787   3.357
    1PA    H12R16631   4.941   5.786   3.395
    1PA    H12S16632   4.822   5.697   3.296
    1PA    C11116633   4.816   5.906   3.262
    1PA    H11R16634   4.715   5.900   3.221
    1PA    H11S16635   4.825   6.001   3.314
    1PA    C11016636   4.916   5.911   3.146
    1PA    H10R16637   5.019   5.912   3.184
    1PA    H10S16638   4.912   5.822   3.082
    1PA     C1916639   4.896   6.029   3.050
    1PA     H9R16640   4.790   6.027   3.022
    1PA     H9S16641   4.912   6.116   3.114
    1PA     C1816642   4.999   6.031   2.936
    1PA     H8R16643   5.100   6.036   2.975
    1PA     H8S16644   4.982   5.946   2.870
    1PA     C1716645   4.974   6.151   2.844
    1PA     H7R16646   4.881   6.138   2.787
    1PA     H7S16647   4.967   6.247   2.896
    1PA     C1616648   5.078   6.156   2.731
    1PA     H6R16649   5.171   6.152   2.788
    1PA     H6S16650   5.083   6.059   2.682
    1PA     C1516651   5.062   6.278   2.639
    1PA     H5R16652   4.960   6.269   2.601
    1PA     H5S16653   5.071   6.368   2.700
    1PA     C1416654   5.158   6.285   2.520
    1PA     H4R16655   5.264   6.308   2.539
    1PA     H4S16656   5.177   6.188   2.472
    1PA     C1316657   5.110   6.391   2.420
    1PA     H3R16658   5.009   6.357   2.398
    1PA     H3S16659   5.114   6.490   2.467
    1PA     C1216660   5.207   6.398   2.302
    1PA     H2R16661   5.175   6.487   2.246
    1PA     H2S16662   5.311   6.393   2.336
    2PC     C1116663   5.186   6.284   2.205
    2PC     O1216664   5.276   6.227   2.147
    2PC     O1116665   5.056   6.264   2.179
    2PC      C116666   5.031   6.187   2.059
    2PC      HR16667   4.929   6.216   2.033
    2PC      HS16668   5.094   6.227   1.979
    2PC      C216669   5.047   6.036   2.083
    2PC      HX16670   5.147   6.013   2.121
    2PC      C316671   5.056   5.971   1.944
    2PC      HA16672   5.129   6.025   1.884
    2PC      HB16673   5.090   5.867   1.953
    2PC     O3116674   4.927   5.980   1.882
    2PC     P3116675   4.911   5.918   1.735
    2PC     O3216676   4.753   5.927   1.713
    2PC     C3116677   4.665   5.818   1.747
    2PC     H1A16678   4.565   5.853   1.720
    2PC     H1B16679   4.694   5.731   1.687
    2PC     C3216680   4.671   5.776   1.894
    2PC     H2A16681   4.621   5.679   1.891
    2PC     H2B16682   4.770   5.761   1.936
    2PC     N3116683   4.595   5.853   1.999
    2PC     C3316684   4.452   5.881   1.964
    2PC     H3A16685   4.404   5.785   1.946
    2PC     H3B16686   4.400   5.923   2.050
    2PC     H3C16687   4.434   5.945   1.877
    2PC     C3416688   4.619   5.782   2.129
    2PC     H4A16689   4.725   5.773   2.153
    2PC     H4B16690   4.578   5.838   2.213
    2PC     H4C16691   4.589   5.679   2.107
    2PC     C3516692   4.656   5.989   2.005
    2PC     H5A16693   4.631   6.054   1.920
    2PC     H5B16694   4.762   5.966   1.999
    2PC     H5C16695   4.650   6.043   2.099
    2PC     O3316696   4.983   6.001   1.636
    2PC     O3416697   4.960   5.780   1.713
    2PC     O2116698   4.941   5.981   2.163
    2PC     C2116699   4.951   5.992   2.297
    2PC     O2216700   5.050   6.033   2.354
    3OL     C1216701   4.824   5.944   2.362
    3OL     H2R16702   4.813   5.838   2.339
    3OL     H2S16703   4.734   5.985   2.316
    3OL     C1316704   4.836   5.936   2.515
    3OL     H3R16705   4.869   6.032   2.555
    3OL     H3S16706   4.906   5.856   2.541
    3OL     C1416707   4.705   5.893   2.583
    3OL     H4R16708   4.656   5.820   2.517
    3OL     H4S16709   4.638   5.978   2.588
    3OL     C1516710   4.725   5.842   2.726
    3OL     H5R16711   4.758   5.926   2.788
    3OL     H5S16712   4.807   5.769   2.727
    3OL     C1616713   4.599   5.787   2.794
    3OL     H6R16714   4.569   5.695   2.744
    3OL     H6S16715   4.524   5.865   2.802
    3OL     C1716716   4.633   5.744   2.938
    3OL     H7R16717   4.672   5.830   2.992
    3OL     H7S16718   4.705   5.661   2.942
    3OL     C1816719   4.513   5.685   3.013
    3OL     H8R16720   4.493   5.591   2.960
    3OL     H8S16721   4.428   5.754   3.009
    3OL     C1916722   4.554   5.643   3.151
    3OL     H9R16723   4.657   5.607   3.160
    3OL    C11016724   4.476   5.629   3.257
    3OL    H10R16725   4.516   5.590   3.350
    3OL    C11116726   4.331   5.668   3.264
    3OL    H11R16727   4.271   5.589   3.310
    3OL    H11S16728   4.293   5.679   3.162
    3OL    C11216729   4.312   5.797   3.345
    3OL    H12R16730   4.211   5.837   3.332
    3OL    H12S16731   4.382   5.871   3.307
    3OL    C11316732   4.350   5.767   3.490
    3OL    H13R16733   4.417   5.844   3.529
    3OL    H13S16734   4.414   5.680   3.509
    3OL    C11416735   4.222   5.748   3.573
    3OL    H14R16736   4.161   5.662   3.544
    3OL    H14S16737   4.157   5.834   3.559
    3OL    C11516738   4.253   5.725   3.721
    3OL    H15R16739   4.298   5.818   3.758
    3OL    H15S16740   4.328   5.646   3.734
    3OL    C11616741   4.125   5.696   3.800
    3OL    H16R16742   4.067   5.614   3.757
    3OL    H16S16743   4.059   5.783   3.808
    3OL    C11716744   4.167   5.658   3.943
    3OL    H17R16745   4.241   5.729   3.980
    3OL    H17S16746   4.227   5.567   3.943
    3OL    C11816747   4.041   5.646   4.031
    3OL    H18R16748   3.963   5.590   3.980
    3OL    H18S16749   4.012   5.747   4.063
    3OL    H18T16750   4.058   5.597   4.127
    1PA    C11616751   4.481  -0.218   3.360
    1PA    H16R16752   4.449  -0.123   3.403
    1PA    H16S16753   4.590  -0.217   3.353
    1PA    H16T16754   4.456  -0.297   3.431
    1PA    C11516755   4.428  -0.238   3.217
    1PA    H15R16756   4.437  -0.346   3.205
    1PA    H15S16757   4.323  -0.212   3.201
    1PA    C11416758   4.512  -0.162   3.114
    1PA    H14R16759   4.514  -0.055   3.136
    1PA    H14S16760   4.620  -0.183   3.116
    1PA    C11316761   4.467  -0.178   2.968
    1PA    H13R16762   4.458  -0.281   2.931
    1PA    H13S16763   4.369  -0.132   2.954
    1PA    C11216764   4.570  -0.106   2.881
    1PA    H12R16765   4.572   0.000   2.906
    1PA    H12S16766   4.668  -0.145   2.911
    1PA    C11116767   4.537  -0.144   2.736
    1PA    H11R16768   4.520  -0.251   2.725
    1PA    H11S16769   4.442  -0.094   2.715
    1PA    C11016770   4.636  -0.094   2.630
    1PA    H10R16771   4.655   0.013   2.641
    1PA    H10S16772   4.732  -0.145   2.640
    1PA     C1916773   4.586  -0.123   2.488
    1PA     H9R16774   4.577  -0.232   2.480
    1PA     H9S16775   4.484  -0.084   2.481
    1PA     C1816776   4.671  -0.069   2.372
    1PA     H8R16777   4.777  -0.076   2.398
    1PA     H8S16778   4.641  -0.120   2.280
    1PA     C1716779   4.651   0.080   2.343
    1PA     H7R16780   4.549   0.089   2.306
    1PA     H7S16781   4.653   0.136   2.436
    1PA     C1616782   4.751   0.136   2.241
    1PA     H6R16783   4.850   0.143   2.285
    1PA     H6S16784   4.750   0.055   2.168
    1PA     C1516785   4.717   0.275   2.184
    1PA     H5R16786   4.803   0.311   2.126
    1PA     H5S16787   4.629   0.267   2.120
    1PA     C1416788   4.683   0.381   2.290
    1PA     H4R16789   4.577   0.363   2.309
    1PA     H4S16790   4.754   0.376   2.372
    1PA     C1316791   4.708   0.521   2.232
    1PA     H3R16792   4.814   0.538   2.253
    1PA     H3S16793   4.693   0.524   2.124
    1PA     C1216794   4.614   0.624   2.296
    1PA     H2R16795   4.512   0.597   2.269
    1PA     H2S16796   4.622   0.620   2.405
    2PC     C1116797   4.643   0.762   2.242
    2PC     O1216798   4.755   0.807   2.231
    2PC     O1116799   4.535   0.820   2.188
    2PC      C116800   4.538   0.947   2.120
    2PC      HR16801   4.614   1.018   2.153
    2PC      HS16802   4.557   0.917   2.017
    2PC      C216803   4.394   1.002   2.118
    2PC      HX16804   4.321   0.924   2.095
    2PC      C316805   4.375   1.113   2.013
    2PC      HA16806   4.435   1.196   2.051
    2PC      HB16807   4.409   1.072   1.918
    2PC     O3116808   4.236   1.149   2.002
    2PC     P3116809   4.136   1.068   1.906
    2PC     O3216810   4.080   0.952   2.001
    2PC     C3116811   3.958   0.977   2.073
    2PC     H1A16812   3.984   1.046   2.154
    2PC     H1B16813   3.888   1.029   2.008
    2PC     C3216814   3.899   0.852   2.140
    2PC     H2A16815   3.971   0.815   2.213
    2PC     H2B16816   3.819   0.894   2.202
    2PC     N3116817   3.851   0.731   2.066
    2PC     C3316818   3.973   0.673   2.000
    2PC     H3A16819   4.036   0.659   2.088
    2PC     H3B16820   3.949   0.583   1.943
    2PC     H3C16821   4.020   0.749   1.937
    2PC     C3416822   3.792   0.622   2.150
    2PC     H4A16823   3.701   0.665   2.191
    2PC     H4B16824   3.762   0.534   2.092
    2PC     H4C16825   3.857   0.588   2.231
    2PC     C3516826   3.756   0.761   1.955
    2PC     H5A16827   3.784   0.855   1.908
    2PC     H5B16828   3.659   0.788   1.999
    2PC     H5C16829   3.752   0.677   1.885
    2PC     O3316830   4.028   1.153   1.850
    2PC     O3416831   4.211   1.002   1.797
    2PC     O2116832   4.367   1.058   2.247
    2PC     C2116833   4.276   1.005   2.330
    2PC     O2216834   4.200   0.913   2.308
    3OL     C1216835   4.286   1.070   2.466
    3OL     H2R16836   4.243   1.170   2.456
    3OL     H2S16837   4.392   1.086   2.486
    3OL     C1316838   4.222   0.979   2.572
    3OL     H3R16839   4.258   0.877   2.551
    3OL     H3S16840   4.113   0.981   2.565
    3OL     C1416841   4.266   1.006   2.717
    3OL     H4R16842   4.374   1.005   2.731
    3OL     H4S16843   4.225   0.926   2.778
    3OL     C1516844   4.233   1.149   2.763
    3OL     H5R16845   4.132   1.188   2.752
    3OL     H5S16846   4.307   1.205   2.704
    3OL     C1616847   4.269   1.168   2.911
    3OL     H6R16848   4.276   1.277   2.917
    3OL     H6S16849   4.365   1.126   2.942
    3OL     C1716850   4.160   1.111   3.003
    3OL     H7R16851   4.173   1.003   2.992
    3OL     H7S16852   4.059   1.134   2.971
    3OL     C1816853   4.167   1.164   3.147
    3OL     H8R16854   4.112   1.098   3.213
    3OL     H8S16855   4.113   1.259   3.154
    3OL     C1916856   4.301   1.186   3.213
    3OL     H9R16857   4.359   1.096   3.232
    3OL    C11016858   4.357   1.302   3.243
    3OL    H10R16859   4.453   1.302   3.294
    3OL    C11116860   4.304   1.442   3.224
    3OL    H11R16861   4.235   1.435   3.139
    3OL    H11S16862   4.385   1.508   3.192
    3OL    C11216863   4.233   1.498   3.347
    3OL    H12R16864   4.166   1.418   3.380
    3OL    H12S16865   4.168   1.582   3.323
    3OL    C11316866   4.332   1.540   3.457
    3OL    H13R16867   4.393   1.622   3.418
    3OL    H13S16868   4.397   1.460   3.495
    3OL    C11416869   4.260   1.592   3.582
    3OL    H14R16870   4.185   1.514   3.598
    3OL    H14S16871   4.214   1.688   3.556
    3OL    C11516872   4.358   1.617   3.697
    3OL    H15R16873   4.416   1.707   3.675
    3OL    H15S16874   4.407   1.522   3.719
    3OL    C11616875   4.267   1.652   3.815
    3OL    H16R16876   4.215   1.559   3.841
    3OL    H16S16877   4.199   1.732   3.785
    3OL    C11716878   4.338   1.706   3.940
    3OL    H17R16879   4.404   1.788   3.912
    3OL    H17S16880   4.396   1.626   3.986
    3OL    C11816881   4.240   1.773   4.038
    3OL    H18R16882   4.185   1.849   3.981
    3OL    H18S16883   4.285   1.813   4.129
    3OL    H18T16884   4.167   1.701   4.074
    1PA    C11616885  -0.215   5.463   3.589
    1PA    H16R16886  -0.261   5.378   3.641
    1PA    H16S16887  -0.179   5.518   3.676
    1PA    H16T16888  -0.138   5.422   3.524
    1PA    C11516889  -0.329   5.547   3.529
    1PA    H15R16890  -0.406   5.478   3.496
    1PA    H15S16891  -0.384   5.607   3.602
    1PA    C11416892  -0.282   5.626   3.406
    1PA    H14R16893  -0.260   5.557   3.324
    1PA    H14S16894  -0.370   5.680   3.372
    1PA    C11316895  -0.183   5.737   3.444
    1PA    H13R16896  -0.222   5.775   3.538
    1PA    H13S16897  -0.087   5.690   3.467
    1PA    C11216898  -0.148   5.844   3.339
    1PA    H12R16899  -0.239   5.878   3.291
    1PA    H12S16900  -0.116   5.929   3.400
    1PA    C11116901  -0.036   5.791   3.248
    1PA    H11R16902   0.063   5.806   3.290
    1PA    H11S16903  -0.040   5.684   3.228
    1PA    C11016904  -0.051   5.858   3.111
    1PA    H10R16905  -0.143   5.820   3.067
    1PA    H10S16906  -0.057   5.967   3.115
    1PA     C1916907   0.066   5.819   3.020
    1PA     H9R16908   0.165   5.842   3.061
    1PA     H9S16909   0.062   5.712   2.998
    1PA     C1816910   0.051   5.912   2.898
    1PA     H8R16911  -0.050   5.897   2.861
    1PA     H8S16912   0.061   6.015   2.931
    1PA     C1716913   0.141   5.884   2.777
    1PA     H7R16914   0.133   5.783   2.737
    1PA     H7S16915   0.100   5.954   2.703
    1PA     C1616916   0.286   5.930   2.797
    1PA     H6R16917   0.288   6.035   2.829
    1PA     H6S16918   0.327   5.869   2.878
    1PA     C1516919   0.369   5.926   2.669
    1PA     H5R16920   0.371   5.823   2.632
    1PA     H5S16921   0.329   5.996   2.595
    1PA     C1416922   0.512   5.974   2.699
    1PA     H4R16923   0.512   6.060   2.767
    1PA     H4S16924   0.563   5.884   2.733
    1PA     C1316925   0.582   6.015   2.569
    1PA     H3R16926   0.535   5.954   2.491
    1PA     H3S16927   0.562   6.122   2.556
    1PA     C1216928   0.731   5.981   2.561
    1PA     H2R16929   0.789   6.012   2.649
    1PA     H2S16930   0.732   5.872   2.559
    2PC     C1116931   0.793   6.033   2.434
    2PC     O1216932   0.903   6.000   2.396
    2PC     O1116933   0.722   6.133   2.379
    2PC      C116934   0.784   6.204   2.271
    2PC      HR16935   0.893   6.201   2.277
    2PC      HS16936   0.758   6.150   2.180
    2PC      C216937   0.732   6.348   2.256
    2PC      HX16938   0.624   6.342   2.243
    2PC      C316939   0.790   6.428   2.139
    2PC      HA16940   0.736   6.402   2.048
    2PC      HB16941   0.777   6.536   2.152
    2PC     O3116942   0.930   6.401   2.123
    2PC     P3116943   1.001   6.454   1.989
    2PC     O3216944   1.019   6.607   2.035
    2PC     C3116945   1.157   6.647   2.038
    2PC     H1A16946   1.215   6.588   2.110
    2PC     H1B16947   1.196   6.619   1.940
    2PC     C3216948   1.179   6.798   2.053
    2PC     H2A16949   1.138   6.842   1.962
    2PC     H2B16950   1.126   6.831   2.142
    2PC     N3116951   1.320   6.847   2.071
    2PC     C3316952   1.389   6.802   2.196
    2PC     H3A16953   1.371   6.694   2.199
    2PC     H3B16954   1.494   6.832   2.190
    2PC     H3C16955   1.337   6.845   2.282
    2PC     C3416956   1.392   6.811   1.945
    2PC     H4A16957   1.408   6.703   1.940
    2PC     H4B16958   1.320   6.836   1.867
    2PC     H4C16959   1.488   6.860   1.926
    2PC     C3516960   1.316   6.996   2.088
    2PC     H5A16961   1.255   7.012   2.177
    2PC     H5B16962   1.286   7.040   1.993
    2PC     H5C16963   1.413   7.042   2.105
    2PC     O3316964   1.125   6.379   1.961
    2PC     O3416965   0.925   6.446   1.863
    2PC     O2116966   0.768   6.422   2.374
    2PC     C2116967   0.683   6.420   2.478
    2PC     O2216968   0.573   6.369   2.481
    3OL     C1216969   0.723   6.505   2.596
    3OL     H2R16970   0.627   6.547   2.628
    3OL     H2S16971   0.781   6.594   2.568
    3OL     C1316972   0.793   6.416   2.700
    3OL     H3R16973   0.853   6.341   2.649
    3OL     H3S16974   0.719   6.352   2.748
    3OL     C1416975   0.877   6.486   2.808
    3OL     H4R16976   0.840   6.587   2.823
    3OL     H4S16977   0.977   6.517   2.775
    3OL     C1516978   0.875   6.404   2.938
    3OL     H5R16979   0.912   6.304   2.917
    3OL     H5S16980   0.769   6.401   2.965
    3OL     C1616981   0.958   6.469   3.050
    3OL     H6R16982   1.065   6.459   3.031
    3OL     H6S16983   0.939   6.411   3.140
    3OL     C1716984   0.934   6.619   3.070
    3OL     H7R16985   0.827   6.626   3.092
    3OL     H7S16986   0.945   6.670   2.974
    3OL     C1816987   1.028   6.676   3.177
    3OL     H8R16988   1.016   6.616   3.267
    3OL     H8S16989   1.017   6.782   3.202
    3OL     C1916990   1.176   6.676   3.148
    3OL     H9R16991   1.210   6.651   3.047
    3OL    C11016992   1.265   6.721   3.235
    3OL    H10R16993   1.368   6.737   3.203
    3OL    C11116994   1.249   6.756   3.381
    3OL    H11R16995   1.244   6.666   3.443
    3OL    H11S16996   1.156   6.809   3.403
    3OL    C11216997   1.374   6.829   3.430
    3OL    H12R16998   1.390   6.924   3.378
    3OL    H12S16999   1.462   6.774   3.396
    3OL    C11317000   1.369   6.856   3.581
    3OL    H13R17001   1.359   6.757   3.627
    3OL    H13S17002   1.284   6.918   3.608
    3OL    C11417003   1.497   6.915   3.642
    3OL    H14R17004   1.522   7.002   3.581
    3OL    H14S17005   1.580   6.845   3.635
    3OL    C11517006   1.478   6.943   3.792
    3OL    H15R17007   1.467   6.849   3.846
    3OL    H15S17008   1.393   7.008   3.811
    3OL    C11617009   1.608   6.999   3.851
    3OL    H16R17010   1.630   7.097   3.807
    3OL    H16S17011   1.680   6.924   3.818
    3OL    C11717012   1.592   7.012   4.003
    3OL    H17R17013   1.576   6.914   4.047
    3OL    H17S17014   1.511   7.086   4.013
    3OL    C11817015   1.716   7.069   4.073
    3OL    H18R17016   1.690   7.105   4.173
    3OL    H18S17017   1.770   7.145   4.017
    3OL    H18T17018   1.787   6.986   4.077
    1PA    C11617019   5.031   1.221   3.644
    1PA    H16R17020   5.004   1.238   3.540
    1PA    H16S17021   5.132   1.256   3.662
    1PA    H16T17022   4.970   1.291   3.702
    1PA    C11517023   5.000   1.077   3.689
    1PA    H15R17024   5.044   1.062   3.788
    1PA    H15S17025   4.893   1.068   3.671
    1PA    C11417026   5.070   0.975   3.598
    1PA    H14R17027   5.044   0.872   3.621
    1PA    H14S17028   5.029   0.995   3.498
    1PA    C11317029   5.223   0.985   3.601
    1PA    H13R17030   5.259   1.076   3.554
    1PA    H13S17031   5.265   0.982   3.702
    1PA    C11217032   5.291   0.870   3.525
    1PA    H12R17033   5.397   0.890   3.538
    1PA    H12S17034   5.270   0.767   3.555
    1PA    C11117035   5.254   0.887   3.377
    1PA    H11R17036   5.167   0.825   3.354
    1PA    H11S17037   5.230   0.992   3.359
    1PA    C11017038   5.371   0.850   3.284
    1PA    H10R17039   5.447   0.927   3.298
    1PA    H10S17040   5.411   0.755   3.320
    1PA     C1917041   5.327   0.831   3.139
    1PA     H9R17042   5.247   0.757   3.130
    1PA     H9S17043   5.290   0.928   3.105
    1PA     C1817044   5.443   0.788   3.048
    1PA     H8R17045   5.524   0.861   3.056
    1PA     H8S17046   5.482   0.691   3.080
    1PA     C1717047   5.413   0.795   2.898
    1PA     H7R17048   5.359   0.886   2.872
    1PA     H7S17049   5.512   0.790   2.852
    1PA     C1617050   5.334   0.672   2.851
    1PA     H6R17051   5.386   0.581   2.883
    1PA     H6S17052   5.238   0.683   2.902
    1PA     C1517053   5.314   0.675   2.699
    1PA     H5R17054   5.235   0.603   2.675
    1PA     H5S17055   5.283   0.776   2.671
    1PA     C1417056   5.438   0.619   2.628
    1PA     H4R17057   5.528   0.664   2.670
    1PA     H4S17058   5.446   0.514   2.657
    1PA     C1317059   5.440   0.620   2.474
    1PA     H3R17060   5.531   0.563   2.456
    1PA     H3S17061   5.354   0.573   2.426
    1PA     C1217062   5.458   0.768   2.437
    1PA     H2R17063   5.379   0.828   2.481
    1PA     H2S17064   5.558   0.797   2.470
    2PC     C1117065   5.463   0.781   2.287
    2PC     O1217066   5.440   0.691   2.209
    2PC     O1117067   5.497   0.903   2.241
    2PC      C117068   5.511   0.937   2.102
    2PC      HR17069   5.543   1.040   2.087
    2PC      HS17070   5.585   0.873   2.053
    2PC      C217071   5.381   0.920   2.022
    2PC      HX17072   5.324   0.831   2.051
    2PC      C317073   5.413   0.917   1.872
    2PC      HA17074   5.462   1.008   1.837
    2PC      HB17075   5.473   0.827   1.856
    2PC     O3117076   5.292   0.920   1.795
    2PC     P3117077   5.195   0.793   1.786
    2PC     O3217078   5.110   0.821   1.653
    2PC     C3117079   4.970   0.789   1.657
    2PC     H1A17080   4.972   0.685   1.691
    2PC     H1B17081   4.927   0.848   1.738
    2PC     C3217082   4.908   0.806   1.518
    2PC     H2A17083   4.817   0.747   1.512
    2PC     H2B17084   4.881   0.911   1.507
    2PC     N3117085   4.980   0.772   1.391
    2PC     C3317086   5.064   0.649   1.408
    2PC     H3A17087   5.106   0.631   1.309
    2PC     H3B17088   5.143   0.671   1.479
    2PC     H3C17089   5.010   0.560   1.442
    2PC     C3417090   4.891   0.758   1.271
    2PC     H4A17091   4.954   0.762   1.182
    2PC     H4B17092   4.844   0.660   1.272
    2PC     H4C17093   4.817   0.838   1.265
    2PC     C3517094   5.074   0.886   1.364
    2PC     H5A17095   5.160   0.872   1.430
    2PC     H5B17096   5.032   0.984   1.384
    2PC     H5C17097   5.103   0.873   1.260
    2PC     O3317098   5.262   0.662   1.787
    2PC     O3417099   5.113   0.777   1.909
    2PC     O2117100   5.303   1.037   2.051
    2PC     C2117101   5.210   1.033   2.148
    2PC     O2217102   5.187   0.937   2.219
    3OL     C1217103   5.129   1.160   2.156
    3OL     H2R17104   5.053   1.160   2.234
    3OL     H2S17105   5.083   1.167   2.057
    3OL     C1317106   5.218   1.284   2.168
    3OL     H3R17107   5.155   1.373   2.158
    3OL     H3S17108   5.289   1.292   2.086
    3OL     C1417109   5.293   1.301   2.301
    3OL     H4R17110   5.248   1.232   2.372
    3OL     H4S17111   5.282   1.407   2.324
    3OL     C1517112   5.439   1.254   2.297
    3OL     H5R17113   5.456   1.163   2.239
    3OL     H5S17114   5.458   1.236   2.403
    3OL     C1617115   5.525   1.372   2.249
    3OL     H6R17116   5.487   1.420   2.159
    3OL     H6S17117   5.623   1.329   2.225
    3OL     C1717118   5.556   1.485   2.348
    3OL     H7R17119   5.465   1.512   2.402
    3OL     H7S17120   5.594   1.578   2.305
    3OL     C1817121   5.662   1.436   2.448
    3OL     H8R17122   5.743   1.389   2.392
    3OL     H8S17123   5.611   1.359   2.505
    3OL     C1917124   5.710   1.555   2.527
    3OL     H9R17125   5.785   1.611   2.472
    3OL    C11017126   5.695   1.578   2.657
    3OL    H10R17127   5.753   1.654   2.709
    3OL    C11117128   5.616   1.493   2.753
    3OL    H11R17129   5.524   1.455   2.709
    3OL    H11S17130   5.583   1.553   2.839
    3OL    C11217131   5.694   1.368   2.795
    3OL    H12R17132   5.797   1.397   2.814
    3OL    H12S17133   5.679   1.294   2.716
    3OL    C11317134   5.642   1.319   2.931
    3OL    H13R17135   5.633   1.407   2.995
    3OL    H13S17136   5.717   1.252   2.976
    3OL    C11417137   5.504   1.252   2.928
    3OL    H14R17138   5.508   1.167   2.861
    3OL    H14S17139   5.442   1.331   2.885
    3OL    C11517140   5.448   1.208   3.064
    3OL    H15R17141   5.528   1.197   3.138
    3OL    H15S17142   5.397   1.114   3.043
    3OL    C11617143   5.350   1.314   3.117
    3OL    H16R17144   5.267   1.325   3.047
    3OL    H16S17145   5.384   1.418   3.124
    3OL    C11717146   5.294   1.265   3.251
    3OL    H17R17147   5.375   1.262   3.324
    3OL    H17S17148   5.252   1.166   3.231
    3OL    C11817149   5.176   1.348   3.302
    3OL    H18R17150   5.135   1.310   3.395
    3OL    H18S17151   5.099   1.366   3.226
    3OL    H18T17152   5.214   1.449   3.323
    4SOL     OW17153   1.170   3.145   6.679
    4SOL    HW117154   1.125   3.064   6.655
    4SOL    HW217155   1.135   3.167   6.766
    5SOL     OW17156   2.250   4.823   1.677
    5SOL    HW117157   2.240   4.853   1.586
    5SOL    HW217158   2.274   4.902   1.725
    6SOL     OW17159   1.638   3.467   0.006
    6SOL    HW117160   1.612   3.445   0.095
    6SOL    HW217161   1.567   3.521  -0.028
    7SOL     OW17162   5.652   1.367   7.665
    7SOL    HW117163   5.633   1.461   7.658
    7SOL    HW217164   5.746   1.362   7.679
    8SOL     OW17165   5.552   4.928   6.156
    8SOL    HW117166   5.516   5.009   6.193
    8SOL    HW217167   5.584   4.953   6.070
    9SOL     OW17168   3.349   3.417   0.249
    9SOL    HW117169   3.417   3.377   0.303
    9SOL    HW217170   3.360   3.377   0.163
   10SOL     OW17171   6.167   2.193   0.399
   10SOL    HW117172   6.226   2.258   0.361
   10SOL    HW217173   6.218   2.112   0.401
   11SOL     OW17174   4.305   5.882   1.606
   11SOL    HW117175   4.276   5.971   1.630
   11SOL    HW217176   4.237   5.850   1.547
   12SOL     OW17177   2.080   4.406   5.671
   12SOL    HW117178   2.047   4.317   5.683
   12SOL    HW217179   2.062   4.426   5.579
   13SOL     OW17180   4.894   5.343   1.001
   13SOL    HW117181   4.883   5.253   0.969
   13SOL    HW217182   4.903   5.334   1.095
   14SOL     OW17183   5.720   2.006   7.865
   14SOL    HW117184   5.628   1.993   7.842
   14SOL    HW217185   5.718   2.071   7.935
   15SOL     OW17186   4.042   3.400   7.220
   15SOL    HW117187   4.103   3.329   7.196
   15SOL    HW217188   4.004   3.371   7.303
   16SOL     OW17189   4.671   4.871   7.878
   16SOL    HW117190   4.747   4.893   7.931
   16SOL    HW217191   4.632   4.956   7.856
   17SOL     OW17192   3.853   5.896   1.174
   17SOL    HW117193   3.904   5.946   1.239
   17SOL    HW217194   3.898   5.913   1.091
   18SOL     OW17195   2.757   1.068   0.428
   18SOL    HW117196   2.843   1.085   0.468
   18SOL    HW217197   2.778   1.038   0.340
   19SOL     OW17198   0.016   2.143   6.124
   19SOL    HW117199  -0.059   2.200   6.109
   19SOL    HW217200   0.013   2.080   6.052
   20SOL     OW17201   1.752   3.677   0.486
   20SOL    HW117202   1.742   3.765   0.523
   20SOL    HW217203   1.781   3.693   0.396
   21SOL     OW17204   0.546   1.242   7.853
   21SOL    HW117205   0.508   1.166   7.897
   21SOL    HW217206   0.582   1.295   7.923
   22SOL     OW17207   4.399   0.600   0.892
   22SOL    HW117208   4.312   0.580   0.857
   22SOL    HW217209   4.423   0.683   0.851
   23SOL     OW17210   6.190   0.231   0.031
   23SOL    HW117211   6.116   0.181   0.064
   23SOL    HW217212   6.244   0.247   0.109
   24SOL     OW17213   3.164   4.162   7.595
   24SOL    HW117214   3.233   4.146   7.660
   24SOL    HW217215   3.154   4.257   7.595
   25SOL     OW17216   0.822   2.320   5.916
   25SOL    HW117217   0.869   2.274   5.847
   25SOL    HW217218   0.758   2.374   5.869
   26SOL     OW17219   4.905   3.807   0.459
   26SOL    HW117220   4.899   3.725   0.507
   26SOL    HW217221   4.820   3.818   0.418
   27SOL     OW17222   3.036   0.237   1.683
   27SOL    HW117223   3.059   0.161   1.631
   27SOL    HW217224   3.045   0.209   1.774
   28SOL     OW17225   5.652   2.634   2.196
   28SOL    HW117226   5.733   2.611   2.150
   28SOL    HW217227   5.599   2.678   2.130
   29SOL     OW17228   2.752   2.591   7.913
   29SOL    HW117229   2.730   2.667   7.965
   29SOL    HW217230   2.816   2.542   7.964
   30SOL     OW17231   3.589   3.007   6.683
   30SOL    HW117232   3.520   3.018   6.618
   30SOL    HW217233   3.669   3.032   6.637
   31SOL     OW17234   2.918   1.805   6.609
   31SOL    HW117235   2.966   1.732   6.572
   31SOL    HW217236   2.838   1.765   6.643
   32SOL     OW17237   6.207   2.239   5.981
   32SOL    HW117238   6.200   2.335   5.985
   32SOL    HW217239   6.262   2.223   5.904
   33SOL     OW17240   4.387   6.126   6.654
   33SOL    HW117241   4.410   6.108   6.562
   33SOL    HW217242   4.447   6.071   6.704
   34SOL     OW17243   6.170   0.776   1.043
   34SOL    HW117244   6.223   0.855   1.056
   34SOL    HW217245   6.093   0.806   0.994
   35SOL     OW17246   4.932   0.316   1.183
   35SOL    HW117247   4.981   0.297   1.263
   35SOL    HW217248   4.850   0.355   1.214
   36SOL     OW17249   4.069   3.074   6.186
   36SOL    HW117250   4.041   3.017   6.114
   36SOL    HW217251   4.165   3.076   6.178
   37SOL     OW17252   2.090   2.916   7.410
   37SOL    HW117253   1.999   2.885   7.417
   37SOL    HW217254   2.106   2.962   7.493
   38SOL     OW17255   2.356   5.410   0.874
   38SOL    HW117256   2.368   5.339   0.937
   38SOL    HW217257   2.416   5.388   0.802
   39SOL     OW17258   5.318   4.914   7.527
   39SOL    HW117259   5.414   4.904   7.529
   39SOL    HW217260   5.286   4.827   7.505
   40SOL     OW17261   5.313   0.665   1.144
   40SOL    HW117262   5.337   0.578   1.113
   40SOL    HW217263   5.337   0.724   1.072
   41SOL     OW17264   3.062   5.914   0.602
   41SOL    HW117265   3.042   5.919   0.508
   41SOL    HW217266   3.100   5.999   0.623
   42SOL     OW17267   0.332   1.466   6.990
   42SOL    HW117268   0.362   1.500   7.074
   42SOL    HW217269   0.249   1.423   7.009
   43SOL     OW17270   6.294   2.131   7.763
   43SOL    HW117271   6.212   2.127   7.813
   43SOL    HW217272   6.297   2.220   7.729
   44SOL     OW17273   2.939   2.506   7.700
   44SOL    HW117274   3.006   2.543   7.756
   44SOL    HW217275   2.876   2.577   7.688
   45SOL     OW17276   0.935   1.623   0.280
   45SOL    HW117277   0.905   1.579   0.201
   45SOL    HW217278   0.854   1.655   0.321
   46SOL     OW17279   5.137   6.169   7.220
   46SOL    HW117280   5.155   6.076   7.207
   46SOL    HW217281   5.218   6.213   7.193
   47SOL     OW17282   5.088   0.511   6.573
   47SOL    HW117283   5.026   0.484   6.641
   47SOL    HW217284   5.086   0.439   6.509
   48SOL     OW17285   2.339   0.611   0.090
   48SOL    HW117286   2.259   0.597   0.141
   48SOL    HW217287   2.314   0.589   0.000
   49SOL     OW17288   0.232   5.808   0.332
   49SOL    HW117289   0.301   5.869   0.306
   49SOL    HW217290   0.272   5.753   0.399
   50SOL     OW17291   5.077   2.797   7.856
   50SOL    HW117292   5.106   2.831   7.940
   50SOL    HW217293   5.056   2.875   7.805
   51SOL     OW17294   0.139   2.141   0.341
   51SOL    HW117295   0.157   2.095   0.259
   51SOL    HW217296   0.132   2.072   0.407
   52SOL     OW17297   3.988   1.765   1.210
   52SOL    HW117298   3.908   1.764   1.262
   52SOL    HW217299   4.017   1.857   1.211
   53SOL     OW17300   2.228   1.171   7.345
   53SOL    HW117301   2.264   1.252   7.382
   53SOL    HW217302   2.260   1.170   7.255
   54SOL     OW17303   0.679   2.333   5.559
   54SOL    HW117304   0.732   2.395   5.610
   54SOL    HW217305   0.609   2.387   5.522
   55SOL     OW17306   0.399   6.250   5.742
   55SOL    HW117307   0.392   6.165   5.784
   55SOL    HW217308   0.361   6.237   5.655
   56SOL     OW17309   2.976   4.505   7.645
   56SOL    HW117310   3.047   4.488   7.584
   56SOL    HW217311   3.006   4.467   7.728
   57SOL     OW17312   3.305   5.446   7.003
   57SOL    HW117313   3.248   5.521   7.018
   57SOL    HW217314   3.340   5.423   7.089
   58SOL     OW17315   0.993   1.366   1.214
   58SOL    HW117316   0.999   1.390   1.307
   58SOL    HW217317   0.935   1.290   1.212
   59SOL     OW17318   2.988   1.263   2.242
   59SOL    HW117319   2.947   1.311   2.171
   59SOL    HW217320   2.979   1.171   2.217
   60SOL     OW17321   3.388   0.810   7.722
   60SOL    HW117322   3.339   0.886   7.753
   60SOL    HW217323   3.432   0.775   7.799
   61SOL     OW17324   3.231   4.949   0.805
   61SOL    HW117325   3.322   4.928   0.785
   61SOL    HW217326   3.195   4.980   0.722
   62SOL     OW17327   5.448   1.886   1.463
   62SOL    HW117328   5.409   1.950   1.522
   62SOL    HW217329   5.506   1.936   1.406
   63SOL     OW17330   6.365   1.366   0.540
   63SOL    HW117331   6.338   1.293   0.484
   63SOL    HW217332   6.453   1.387   0.511
   64SOL     OW17333   3.687   6.080   1.017
   64SOL    HW117334   3.598   6.045   1.012
   64SOL    HW217335   3.728   6.033   1.089
   65SOL     OW17336   5.762   3.920   0.712
   65SOL    HW117337   5.668   3.910   0.732
   65SOL    HW217338   5.782   3.847   0.653
   66SOL     OW17339   5.896   1.121   0.693
   66SOL    HW117340   5.810   1.101   0.732
   66SOL    HW217341   5.925   1.200   0.739
   67SOL     OW17342   3.921   5.112   5.568
   67SOL    HW117343   4.011   5.088   5.590
   67SOL    HW217344   3.928   5.202   5.534
   68SOL     OW17345   2.091   4.912   1.924
   68SOL    HW117346   2.151   4.983   1.904
   68SOL    HW217347   2.106   4.847   1.856
   69SOL     OW17348   6.318   5.003   1.128
   69SOL    HW117349   6.284   5.089   1.104
   69SOL    HW217350   6.273   4.941   1.070
   70SOL     OW17351   2.001   1.351   2.089
   70SOL    HW117352   2.055   1.276   2.064
   70SOL    HW217353   1.932   1.354   2.023
   71SOL     OW17354   6.184   0.590   7.703
   71SOL    HW117355   6.133   0.670   7.716
   71SOL    HW217356   6.180   0.575   7.608
   72SOL     OW17357   4.661   5.277   0.647
   72SOL    HW117358   4.572   5.253   0.671
   72SOL    HW217359   4.666   5.371   0.662
   73SOL     OW17360   0.916   0.304   0.724
   73SOL    HW117361   0.874   0.323   0.808
   73SOL    HW217362   0.855   0.247   0.679
   74SOL     OW17363   2.626   4.870   1.048
   74SOL    HW117364   2.715   4.841   1.027
   74SOL    HW217365   2.579   4.861   0.965
   75SOL     OW17366   5.728   5.300   7.624
   75SOL    HW117367   5.685   5.371   7.672
   75SOL    HW217368   5.783   5.344   7.560
   76SOL     OW17369   2.174   6.265   7.775
   76SOL    HW117370   2.122   6.186   7.759
   76SOL    HW217371   2.160   6.286   7.867
   77SOL     OW17372   1.673   4.133   7.461
   77SOL    HW117373   1.760   4.112   7.429
   77SOL    HW217374   1.629   4.173   7.386
   78SOL     OW17375   0.662   0.647   7.460
   78SOL    HW117376   0.684   0.740   7.449
   78SOL    HW217377   0.567   0.644   7.450
   79SOL     OW17378   5.393   0.831   0.927
   79SOL    HW117379   5.335   0.848   0.853
   79SOL    HW217380   5.481   0.832   0.890
   80SOL     OW17381   5.151   2.625   7.129
   80SOL    HW117382   5.231   2.572   7.138
   80SOL    HW217383   5.110   2.621   7.215
   81SOL     OW17384   2.590   2.674   6.990
   81SOL    HW117385   2.665   2.630   7.030
   81SOL    HW217386   2.616   2.687   6.899
   82SOL     OW17387   3.884   0.938   6.851
   82SOL    HW117388   3.919   0.899   6.931
   82SOL    HW217389   3.876   0.865   6.789
   83SOL     OW17390   1.088   5.325   0.140
   83SOL    HW117391   1.015   5.381   0.114
   83SOL    HW217392   1.118   5.360   0.224
   84SOL     OW17393   4.182   3.694   6.517
   84SOL    HW117394   4.188   3.674   6.423
   84SOL    HW217395   4.190   3.789   6.522
   85SOL     OW17396   6.030   4.915   1.530
   85SOL    HW117397   6.090   4.863   1.584
   85SOL    HW217398   5.987   4.851   1.473
   86SOL     OW17399   0.786   0.146   7.929
   86SOL    HW117400   0.792   0.199   8.008
   86SOL    HW217401   0.699   0.166   7.894
   87SOL     OW17402   0.790   6.279   5.982
   87SOL    HW117403   0.704   6.240   5.969
   87SOL    HW217404   0.845   6.239   5.914
   88SOL     OW17405   0.451   6.286   1.618
   88SOL    HW117406   0.544   6.276   1.640
   88SOL    HW217407   0.423   6.363   1.667
   89SOL     OW17408   1.555   3.264   6.323
   89SOL    HW117409   1.638   3.295   6.288
   89SOL    HW217410   1.546   3.175   6.290
   90SOL     OW17411   3.522   0.311   6.430
   90SOL    HW117412   3.559   0.315   6.519
   90SOL    HW217413   3.435   0.351   6.439
   91SOL     OW17414   1.196   2.674   1.888
   91SOL    HW117415   1.132   2.692   1.957
   91SOL    HW217416   1.280   2.693   1.929
   92SOL     OW17417   5.651   4.968   6.758
   92SOL    HW117418   5.608   5.041   6.713
   92SOL    HW217419   5.694   4.919   6.688
   93SOL     OW17420   3.895   1.883   6.879
   93SOL    HW117421   3.943   1.874   6.961
   93SOL    HW217422   3.804   1.897   6.905
   94SOL     OW17423   0.893   6.310   6.650
   94SOL    HW117424   0.884   6.346   6.562
   94SOL    HW217425   0.976   6.344   6.682
   95SOL     OW17426   6.137   0.535   5.295
   95SOL    HW117427   6.180   0.616   5.269
   95SOL    HW217428   6.046   0.546   5.268
   96SOL     OW17429   3.815   6.169   7.161
   96SOL    HW117430   3.891   6.221   7.134
   96SOL    HW217431   3.850   6.080   7.170
   97SOL     OW17432   1.714   0.612   6.465
   97SOL    HW117433   1.649   0.548   6.496
   97SOL    HW217434   1.729   0.669   6.540
   98SOL     OW17435   0.444   5.037   0.752
   98SOL    HW117436   0.540   5.031   0.753
   98SOL    HW217437   0.416   4.985   0.827
   99SOL     OW17438   5.462   2.948   0.733
   99SOL    HW117439   5.485   2.857   0.749
   99SOL    HW217440   5.486   2.994   0.814
  100SOL     OW17441   1.605   5.616   7.873
  100SOL    HW117442   1.516   5.649   7.854
  100SOL    HW217443   1.601   5.591   7.965
  101SOL     OW17444   1.159   0.636   2.391
  101SOL    HW117445   1.092   0.572   2.415
  101SOL    HW217446   1.111   0.703   2.341
  102SOL     OW17447   6.055   3.501   7.142
  102SOL    HW117448   5.990   3.430   7.141
  102SOL    HW217449   6.137   3.458   7.119
  103SOL     OW17450   0.273   4.617   5.306
  103SOL    HW117451   0.188   4.580   5.326
  103SOL    HW217452   0.272   4.705   5.345
  104SOL     OW17453   5.574   4.926   0.265
  104SOL    HW117454   5.617   4.911   0.181
  104SOL    HW217455   5.544   4.840   0.293
  105SOL     OW17456   2.428   5.027   1.387
  105SOL    HW117457   2.521   5.016   1.371
  105SOL    HW217458   2.400   4.945   1.427
  106SOL     OW17459   0.521   5.493   1.285
  106SOL    HW117460   0.445   5.478   1.229
  106SOL    HW217461   0.484   5.523   1.368
  107SOL     OW17462   1.844   1.012   1.113
  107SOL    HW117463   1.761   1.042   1.151
  107SOL    HW217464   1.901   0.997   1.188
  108SOL     OW17465   5.163   5.914   7.114
  108SOL    HW117466   5.155   5.926   7.019
  108SOL    HW217467   5.101   5.844   7.135
  109SOL     OW17468   3.394   1.431   6.588
  109SOL    HW117469   3.453   1.446   6.662
  109SOL    HW217470   3.356   1.344   6.604
  110SOL     OW17471   3.084   5.623   6.893
  110SOL    HW117472   3.018   5.554   6.889
  110SOL    HW217473   3.142   5.607   6.819
  111SOL     OW17474   2.275   5.322   0.542
  111SOL    HW117475   2.286   5.234   0.578
  111SOL    HW217476   2.362   5.362   0.549
  112SOL     OW17477   2.116   4.712   7.008
  112SOL    HW117478   2.063   4.670   6.940
  112SOL    HW217479   2.174   4.642   7.039
  113SOL     OW17480   0.963   1.920   0.802
  113SOL    HW117481   0.959   1.860   0.728
  113SOL    HW217482   0.964   2.007   0.763
  114SOL     OW17483   1.102   3.888   6.044
  114SOL    HW117484   1.193   3.863   6.026
  114SOL    HW217485   1.050   3.813   6.015
  115SOL     OW17486   5.150   0.460   2.247
  115SOL    HW117487   5.190   0.444   2.332
  115SOL    HW217488   5.107   0.545   2.256
  116SOL     OW17489   5.918   4.670   1.252
  116SOL    HW117490   5.917   4.748   1.196
  116SOL    HW217491   6.007   4.666   1.286
  117SOL     OW17492   6.329   5.219   7.346
  117SOL    HW117493   6.311   5.254   7.433
  117SOL    HW217494   6.254   5.248   7.293
  118SOL     OW17495   3.009   5.830   1.487
  118SOL    HW117496   2.991   5.917   1.451
  118SOL    HW217497   2.962   5.828   1.570
  119SOL     OW17498   2.497   4.226   1.395
  119SOL    HW117499   2.407   4.196   1.401
  119SOL    HW217500   2.501   4.275   1.313
  120SOL     OW17501   2.726   1.410   6.870
  120SOL    HW117502   2.713   1.492   6.918
  120SOL    HW217503   2.720   1.342   6.937
  121SOL     OW17504   6.088   3.291   1.089
  121SOL    HW117505   6.170   3.242   1.090
  121SOL    HW217506   6.044   3.262   1.008
  122SOL     OW17507   5.271   0.426   6.171
  122SOL    HW117508   5.197   0.484   6.188
  122SOL    HW217509   5.348   0.480   6.185
  123SOL     OW17510   2.756   5.866   2.073
  123SOL    HW117511   2.716   5.897   2.154
  123SOL    HW217512   2.682   5.851   2.014
  124SOL     OW17513   1.384   5.644   1.072
  124SOL    HW117514   1.450   5.695   1.119
  124SOL    HW217515   1.427   5.561   1.052
  125SOL     OW17516   6.072   0.758   6.277
  125SOL    HW117517   6.101   0.848   6.259
  125SOL    HW217518   6.115   0.735   6.359
  126SOL     OW17519   2.681   2.358   7.792
  126SOL    HW117520   2.741   2.325   7.859
  126SOL    HW217521   2.701   2.451   7.786
  127SOL     OW17522   5.223   3.015   0.622
  127SOL    HW117523   5.217   3.100   0.666
  127SOL    HW217524   5.308   2.981   0.649
  128SOL     OW17525   4.105   2.962   7.815
  128SOL    HW117526   4.169   2.941   7.882
  128SOL    HW217527   4.157   2.984   7.737
  129SOL     OW17528   3.353   0.933   0.186
  129SOL    HW117529   3.324   0.907   0.098
  129SOL    HW217530   3.271   0.952   0.233
  130SOL     OW17531   5.844   0.880   2.038
  130SOL    HW117532   5.939   0.871   2.029
  130SOL    HW217533   5.825   0.966   1.999
  131SOL     OW17534   3.513   3.008   1.653
  131SOL    HW117535   3.545   3.020   1.563
  131SOL    HW217536   3.460   2.929   1.649
  132SOL     OW17537   3.350   0.140   5.337
  132SOL    HW117538   3.399   0.095   5.405
  132SOL    HW217539   3.313   0.217   5.381
  133SOL     OW17540   2.575   3.640   7.247
  133SOL    HW117541   2.606   3.725   7.277
  133SOL    HW217542   2.554   3.592   7.327
  134SOL     OW17543   5.115   5.190   1.680
  134SOL    HW117544   5.121   5.155   1.591
  134SOL    HW217545   5.023   5.177   1.704
  135SOL     OW17546   3.088   4.846   5.586
  135SOL    HW117547   3.054   4.759   5.570
  135SOL    HW217548   3.175   4.832   5.624
  136SOL     OW17549   3.402   0.245   1.991
  136SOL    HW117550   3.448   0.199   2.062
  136SOL    HW217551   3.317   0.269   2.028
  137SOL     OW17552   1.114   2.009   7.147
  137SOL    HW117553   1.067   2.065   7.085
  137SOL    HW217554   1.046   1.966   7.198
  138SOL     OW17555   5.454   1.246   6.928
  138SOL    HW117556   5.462   1.151   6.919
  138SOL    HW217557   5.434   1.260   7.020
  139SOL     OW17558   5.134   4.812   0.579
  139SOL    HW117559   5.210   4.862   0.550
  139SOL    HW217560   5.169   4.727   0.605
  140SOL     OW17561   0.791   2.015   7.341
  140SOL    HW117562   0.861   1.950   7.333
  140SOL    HW217563   0.714   1.971   7.305
  141SOL     OW17564   5.171   5.530   6.335
  141SOL    HW117565   5.174   5.591   6.408
  141SOL    HW217566   5.091   5.480   6.349
  142SOL     OW17567   5.280   1.706   7.112
  142SOL    HW117568   5.360   1.670   7.073
  142SOL    HW217569   5.249   1.638   7.171
  143SOL     OW17570   6.065   1.383   0.702
  143SOL    HW117571   6.140   1.392   0.761
  143SOL    HW217572   6.101   1.403   0.615
  144SOL     OW17573   2.205   2.279   6.403
  144SOL    HW117574   2.294   2.251   6.424
  144SOL    HW217575   2.200   2.276   6.308
  145SOL     OW17576   0.079   4.929   7.681
  145SOL    HW117577   0.120   4.853   7.722
  145SOL    HW217578  -0.002   4.894   7.643
  146SOL     OW17579   4.136   6.206   5.283
  146SOL    HW117580   4.054   6.158   5.296
  146SOL    HW217581   4.156   6.194   5.191
  147SOL     OW17582   3.498   0.932   7.492
  147SOL    HW117583   3.408   0.965   7.493
  147SOL    HW217584   3.505   0.880   7.572
  148SOL     OW17585   2.483   0.569   6.227
  148SOL    HW117586   2.499   0.522   6.145
  148SOL    HW217587   2.563   0.557   6.278
  149SOL     OW17588   3.003   5.845   2.193
  149SOL    HW117589   3.018   5.932   2.231
  149SOL    HW217590   2.923   5.856   2.142
  150SOL     OW17591   0.534   3.618   0.934
  150SOL    HW117592   0.495   3.603   0.847
  150SOL    HW217593   0.467   3.665   0.983
  151SOL     OW17594   4.397   1.629   6.253
  151SOL    HW117595   4.315   1.638   6.205
  151SOL    HW217596   4.404   1.709   6.305
  152SOL     OW17597   6.152   2.552   5.661
  152SOL    HW117598   6.168   2.623   5.724
  152SOL    HW217599   6.230   2.497   5.666
  153SOL     OW17600   1.409   1.680   1.105
  153SOL    HW117601   1.327   1.639   1.079
  153SOL    HW217602   1.452   1.704   1.023
  154SOL     OW17603   2.939   4.082   0.034
  154SOL    HW117604   2.911   4.147   0.098
  154SOL    HW217605   3.017   4.043   0.071
  155SOL     OW17606   5.566   2.226   2.117
  155SOL    HW117607   5.530   2.254   2.201
  155SOL    HW217608   5.498   2.247   2.053
  156SOL     OW17609   4.814   2.176   0.106
  156SOL    HW117610   4.861   2.256   0.080
  156SOL    HW217611   4.768   2.201   0.186
  157SOL     OW17612   1.948   0.671   5.535
  157SOL    HW117613   1.969   0.578   5.537
  157SOL    HW217614   1.866   0.678   5.585
  158SOL     OW17615   5.161   1.860   0.667
  158SOL    HW117616   5.093   1.894   0.725
  158SOL    HW217617   5.163   1.922   0.594
  159SOL     OW17618   5.152   3.525   0.721
  159SOL    HW117619   5.158   3.605   0.773
  159SOL    HW217620   5.069   3.533   0.674
  160SOL     OW17621   4.509   2.882   7.338
  160SOL    HW117622   4.528   2.879   7.432
  160SOL    HW217623   4.553   2.804   7.303
  161SOL     OW17624   5.248   0.063   6.934
  161SOL    HW117625   5.169   0.098   6.894
  161SOL    HW217626   5.319   0.090   6.876
  162SOL     OW17627   3.466   3.295   1.458
  162SOL    HW117628   3.558   3.272   1.448
  162SOL    HW217629   3.461   3.341   1.541
  163SOL     OW17630   1.705   4.616   6.410
  163SOL    HW117631   1.702   4.520   6.404
  163SOL    HW217632   1.725   4.633   6.502
  164SOL     OW17633   3.122   2.214   0.447
  164SOL    HW117634   3.052   2.149   0.440
  164SOL    HW217635   3.115   2.248   0.536
  165SOL     OW17636   4.529   3.758   6.357
  165SOL    HW117637   4.590   3.701   6.403
  165SOL    HW217638   4.529   3.839   6.408
  166SOL     OW17639   3.845   5.654   6.520
  166SOL    HW117640   3.918   5.715   6.532
  166SOL    HW217641   3.781   5.702   6.468
  167SOL     OW17642   0.769   5.508   5.913
  167SOL    HW117643   0.726   5.471   5.989
  167SOL    HW217644   0.854   5.537   5.945
  168SOL     OW17645   2.190   5.640   1.438
  168SOL    HW117646   2.278   5.669   1.413
  168SOL    HW217647   2.147   5.621   1.355
  169SOL     OW17648   4.357   3.523   1.716
  169SOL    HW117649   4.273   3.551   1.678
  169SOL    HW217650   4.402   3.604   1.739
  170SOL     OW17651   5.739   3.680   6.493
  170SOL    HW117652   5.811   3.740   6.514
  170SOL    HW217653   5.665   3.737   6.473
  171SOL     OW17654   2.482   0.437   1.478
  171SOL    HW117655   2.515   0.414   1.391
  171SOL    HW217656   2.408   0.495   1.461
  172SOL     OW17657   0.262   4.873   5.795
  172SOL    HW117658   0.318   4.935   5.748
  172SOL    HW217659   0.323   4.813   5.838
  173SOL     OW17660   3.510   5.207   1.183
  173SOL    HW117661   3.540   5.282   1.132
  173SOL    HW217662   3.423   5.233   1.215
  174SOL     OW17663   4.974   3.058   7.746
  174SOL    HW117664   4.932   3.142   7.763
  174SOL    HW217665   4.916   3.013   7.684
  175SOL     OW17666   1.814   5.877   5.410
  175SOL    HW117667   1.838   5.970   5.410
  175SOL    HW217668   1.898   5.831   5.409
  176SOL     OW17669   0.612   5.476   7.381
  176SOL    HW117670   0.653   5.436   7.304
  176SOL    HW217671   0.641   5.423   7.455
  177SOL     OW17672   2.880   2.766   7.500
  177SOL    HW117673   2.803   2.724   7.539
  177SOL    HW217674   2.846   2.812   7.423
  178SOL     OW17675   5.201   3.825   0.792
  178SOL    HW117676   5.258   3.797   0.864
  178SOL    HW217677   5.153   3.900   0.828
  179SOL     OW17678   1.702   0.330   7.148
  179SOL    HW117679   1.793   0.358   7.163
  179SOL    HW217680   1.686   0.352   7.057
  180SOL     OW17681   1.073   2.680   6.418
  180SOL    HW117682   1.018   2.737   6.472
  180SOL    HW217683   1.162   2.707   6.438
  181SOL     OW17684   5.201   6.134   1.677
  181SOL    HW117685   5.128   6.075   1.658
  181SOL    HW217686   5.274   6.075   1.699
  182SOL     OW17687   0.161   2.094   2.144
  182SOL    HW117688   0.164   2.190   2.135
  182SOL    HW217689   0.101   2.080   2.217
  183SOL     OW17690   3.765   5.989   1.565
  183SOL    HW117691   3.769   6.071   1.518
  183SOL    HW217692   3.822   6.001   1.641
  184SOL     OW17693   4.137   5.942   6.860
  184SOL    HW117694   4.174   5.867   6.813
  184SOL    HW217695   4.102   5.998   6.790
  185SOL     OW17696   6.017   3.793   7.143
  185SOL    HW117697   5.924   3.806   7.123
  185SOL    HW217698   6.030   3.698   7.140
  186SOL     OW17699   2.962   2.533   1.161
  186SOL    HW117700   2.935   2.460   1.105
  186SOL    HW217701   3.046   2.505   1.196
  187SOL     OW17702   0.860   1.432   0.974
  187SOL    HW117703   0.911   1.400   0.899
  187SOL    HW217704   0.903   1.393   1.050
  188SOL     OW17705   5.656   3.143   1.352
  188SOL    HW117706   5.695   3.193   1.424
  188SOL    HW217707   5.695   3.180   1.273
  189SOL     OW17708   1.386   6.320   6.739
  189SOL    HW117709   1.305   6.297   6.785
  189SOL    HW217710   1.359   6.332   6.648
  190SOL     OW17711   0.315   1.277   1.734
  190SOL    HW117712   0.261   1.200   1.753
  190SOL    HW217713   0.313   1.328   1.815
  191SOL     OW17714   2.223   5.773   0.543
  191SOL    HW117715   2.198   5.681   0.552
  191SOL    HW217716   2.271   5.792   0.624
  192SOL     OW17717   2.549   2.127   1.344
  192SOL    HW117718   2.496   2.050   1.362
  192SOL    HW217719   2.564   2.166   1.431
  193SOL     OW17720   4.855   3.315   7.170
  193SOL    HW117721   4.927   3.276   7.120
  193SOL    HW217722   4.831   3.393   7.121
  194SOL     OW17723   1.090   4.865   7.629
  194SOL    HW117724   1.145   4.818   7.691
  194SOL    HW217725   1.000   4.847   7.657
  195SOL     OW17726   4.434   0.248   6.473
  195SOL    HW117727   4.467   0.197   6.399
  195SOL    HW217728   4.453   0.339   6.450
  196SOL     OW17729   4.748   1.658   1.094
  196SOL    HW117730   4.688   1.726   1.124
  196SOL    HW217731   4.806   1.642   1.168
  197SOL     OW17732   3.694   4.933   1.582
  197SOL    HW117733   3.657   4.974   1.504
  197SOL    HW217734   3.633   4.956   1.652
  198SOL     OW17735   6.069   5.980   5.678
  198SOL    HW117736   6.139   6.037   5.711
  198SOL    HW217737   6.023   5.951   5.757
  199SOL     OW17738   3.618   6.246   0.551
  199SOL    HW117739   3.678   6.171   0.551
  199SOL    HW217740   3.593   6.257   0.459
  200SOL     OW17741   5.139   6.168   7.551
  200SOL    HW117742   5.099   6.232   7.611
  200SOL    HW217743   5.120   6.202   7.464
  201SOL     OW17744   0.278   4.301   0.597
  201SOL    HW117745   0.277   4.386   0.640
  201SOL    HW217746   0.341   4.249   0.648
  202SOL     OW17747   2.559   0.335   6.026
  202SOL    HW117748   2.480   0.338   5.973
  202SOL    HW217749   2.631   0.342   5.964
  203SOL     OW17750   1.079   0.818   7.685
  203SOL    HW117751   1.014   0.748   7.680
  203SOL    HW217752   1.092   0.834   7.778
  204SOL     OW17753   0.425   4.356   0.373
  204SOL    HW117754   0.416   4.451   0.379
  204SOL    HW217755   0.385   4.322   0.452
  205SOL     OW17756   0.252   4.371   1.829
  205SOL    HW117757   0.342   4.406   1.832
  205SOL    HW217758   0.257   4.289   1.877
  206SOL     OW17759   0.568   3.966   7.499
  206SOL    HW117760   0.519   3.926   7.571
  206SOL    HW217761   0.521   3.939   7.420
  207SOL     OW17762   1.091   5.759   6.543
  207SOL    HW117763   1.007   5.716   6.559
  207SOL    HW217764   1.073   5.821   6.472
  208SOL     OW17765   4.025   4.464   1.398
  208SOL    HW117766   4.007   4.550   1.360
  208SOL    HW217767   4.040   4.407   1.323
  209SOL     OW17768   4.472   4.810   0.390
  209SOL    HW117769   4.561   4.810   0.355
  209SOL    HW217770   4.418   4.842   0.319
  210SOL     OW17771   0.578   6.356   7.928
  210SOL    HW117772   0.669   6.331   7.945
  210SOL    HW217773   0.531   6.330   8.008
  211SOL     OW17774   3.631   4.069   6.305
  211SOL    HW117775   3.592   4.117   6.232
  211SOL    HW217776   3.604   4.117   6.383
  212SOL     OW17777   1.055   0.997   0.314
  212SOL    HW117778   1.101   0.991   0.398
  212SOL    HW217779   0.985   0.932   0.321
  213SOL     OW17780   6.274   1.947   5.480
  213SOL    HW117781   6.341   2.016   5.474
  213SOL    HW217782   6.191   1.994   5.474
  214SOL     OW17783   5.288   6.126   6.482
  214SOL    HW117784   5.346   6.065   6.436
  214SOL    HW217785   5.339   6.206   6.491
  215SOL     OW17786   2.611   0.393   6.468
  215SOL    HW117787   2.522   0.371   6.441
  215SOL    HW217788   2.607   0.401   6.563
  216SOL     OW17789   0.804   1.557   7.230
  216SOL    HW117790   0.734   1.567   7.166
  216SOL    HW217791   0.876   1.518   7.181
  217SOL     OW17792   4.138   5.967   7.750
  217SOL    HW117793   4.095   5.916   7.681
  217SOL    HW217794   4.188   5.902   7.799
  218SOL     OW17795   5.398   5.247   0.855
  218SOL    HW117796   5.343   5.315   0.894
  218SOL    HW217797   5.340   5.171   0.847
  219SOL     OW17798   5.241   2.396   7.347
  219SOL    HW117799   5.214   2.368   7.260
  219SOL    HW217800   5.164   2.439   7.384
  220SOL     OW17801   5.134   1.849   0.316
  220SOL    HW117802   5.085   1.862   0.234
  220SOL    HW217803   5.193   1.776   0.297
  221SOL     OW17804   3.486   2.030   7.483
  221SOL    HW117805   3.574   2.049   7.450
  221SOL    HW217806   3.477   1.935   7.473
  222SOL     OW17807   4.532   1.731   6.724
  222SOL    HW117808   4.531   1.677   6.803
  222SOL    HW217809   4.547   1.670   6.652
  223SOL     OW17810   5.279   0.738   0.239
  223SOL    HW117811   5.218   0.665   0.230
  223SOL    HW217812   5.292   0.770   0.150
  224SOL     OW17813   3.195   1.469   0.659
  224SOL    HW117814   3.104   1.479   0.686
  224SOL    HW217815   3.238   1.549   0.688
  225SOL     OW17816   4.546   4.158   6.186
  225SOL    HW117817   4.527   4.144   6.279
  225SOL    HW217818   4.551   4.069   6.149
  226SOL     OW17819   1.092   1.610   6.282
  226SOL    HW117820   1.054   1.547   6.343
  226SOL    HW217821   1.118   1.684   6.337
  227SOL     OW17822   2.743   0.452   4.905
  227SOL    HW117823   2.758   0.446   4.999
  227SOL    HW217824   2.670   0.514   4.896
  228SOL     OW17825   5.528   6.027   5.271
  228SOL    HW117826   5.513   6.042   5.364
  228SOL    HW217827   5.478   6.095   5.227
  229SOL     OW17828   6.217   4.085   7.887
  229SOL    HW117829   6.239   4.015   7.826
  229SOL    HW217830   6.126   4.069   7.911
  230SOL     OW17831   1.506   5.930   5.875
  230SOL    HW117832   1.528   5.948   5.783
  230SOL    HW217833   1.531   5.839   5.888
  231SOL     OW17834   4.000   4.536   0.099
  231SOL    HW117835   3.909   4.545   0.072
  231SOL    HW217836   4.005   4.578   0.184
  232SOL     OW17837   1.508   3.020   6.237
  232SOL    HW117838   1.496   2.981   6.150
  232SOL    HW217839   1.551   2.951   6.288
  233SOL     OW17840   2.364   5.114   0.687
  233SOL    HW117841   2.442   5.132   0.739
  233SOL    HW217842   2.308   5.062   0.745
  234SOL     OW17843   3.913   1.671   5.618
  234SOL    HW117844   3.999   1.699   5.647
  234SOL    HW217845   3.857   1.680   5.696
  235SOL     OW17846   0.713   2.052   1.064
  235SOL    HW117847   0.625   2.014   1.068
  235SOL    HW217848   0.706   2.137   1.107
  236SOL     OW17849   3.069   0.982   1.291
  236SOL    HW117850   3.094   1.032   1.368
  236SOL    HW217851   2.993   0.931   1.320
  237SOL     OW17852   2.250   5.884   5.644
  237SOL    HW117853   2.321   5.821   5.657
  237SOL    HW217854   2.178   5.832   5.608
  238SOL     OW17855   1.660   4.608   0.196
  238SOL    HW117856   1.674   4.520   0.160
  238SOL    HW217857   1.566   4.614   0.209
  239SOL     OW17858   2.257   5.514   1.209
  239SOL    HW117859   2.332   5.563   1.174
  239SOL    HW217860   2.295   5.434   1.244
  240SOL     OW17861   3.472   0.132   1.483
  240SOL    HW117862   3.550   0.186   1.495
  240SOL    HW217863   3.442   0.113   1.573
  241SOL     OW17864   4.054   5.785   0.863
  241SOL    HW117865   3.971   5.802   0.819
  241SOL    HW217866   4.072   5.865   0.912
  242SOL     OW17867   2.137   3.699   1.067
  242SOL    HW117868   2.197   3.701   1.142
  242SOL    HW217869   2.146   3.611   1.031
  243SOL     OW17870   4.921   5.783   6.729
  243SOL    HW117871   4.854   5.744   6.785
  243SOL    HW217872   4.950   5.861   6.777
  244SOL     OW17873   4.369   1.516   7.914
  244SOL    HW117874   4.358   1.523   7.819
  244SOL    HW217875   4.303   1.453   7.941
  245SOL     OW17876   5.520   3.541   0.167
  245SOL    HW117877   5.551   3.630   0.185
  245SOL    HW217878   5.533   3.494   0.249
  246SOL     OW17879   1.138   1.015   5.477
  246SOL    HW117880   1.071   1.030   5.411
  246SOL    HW217881   1.134   1.092   5.534
  247SOL     OW17882   4.262   6.139   1.403
  247SOL    HW117883   4.239   6.150   1.495
  247SOL    HW217884   4.276   6.228   1.371
  248SOL     OW17885   3.065   2.310   1.969
  248SOL    HW117886   2.978   2.274   1.953
  248SOL    HW217887   3.063   2.397   1.931
  249SOL     OW17888   1.689   5.363   1.542
  249SOL    HW117889   1.635   5.395   1.614
  249SOL    HW217890   1.643   5.286   1.510
  250SOL     OW17891   2.257   3.057   2.016
  250SOL    HW117892   2.283   3.149   2.021
  250SOL    HW217893   2.194   3.046   2.087
  251SOL     OW17894   6.266   2.692   0.613
  251SOL    HW117895   6.310   2.776   0.628
  251SOL    HW217896   6.192   2.714   0.556
  252SOL     OW17897   5.639   0.026   6.310
  252SOL    HW117898   5.561   0.079   6.294
  252SOL    HW217899   5.628  -0.007   6.399
  253SOL     OW17900   1.635   3.321   6.735
  253SOL    HW117901   1.589   3.355   6.658
  253SOL    HW217902   1.680   3.243   6.704
  254SOL     OW17903   0.814   4.094   6.205
  254SOL    HW117904   0.815   4.022   6.141
  254SOL    HW217905   0.722   4.119   6.212
  255SOL     OW17906   1.133   4.889   5.848
  255SOL    HW117907   1.050   4.843   5.840
  255SOL    HW217908   1.194   4.838   5.794
  256SOL     OW17909   0.177   3.239   5.598
  256SOL    HW117910   0.255   3.267   5.646
  256SOL    HW217911   0.148   3.318   5.551
  257SOL     OW17912   5.163   3.499   6.515
  257SOL    HW117913   5.160   3.526   6.607
  257SOL    HW217914   5.232   3.554   6.476
  258SOL     OW17915   4.707   0.711   7.645
  258SOL    HW117916   4.787   0.658   7.645
  258SOL    HW217917   4.652   0.671   7.711
  259SOL     OW17918   1.610   6.046   1.494
  259SOL    HW117919   1.698   6.055   1.458
  259SOL    HW217920   1.553   6.047   1.417
  260SOL     OW17921   2.886   5.362   5.716
  260SOL    HW117922   2.876   5.319   5.632
  260SOL    HW217923   2.803   5.408   5.730
  261SOL     OW17924   5.749   4.779   0.605
  261SOL    HW117925   5.777   4.861   0.646
  261SOL    HW217926   5.831   4.733   0.586
  262SOL     OW17927   3.554   2.570   5.769
  262SOL    HW117928   3.594   2.655   5.783
  262SOL    HW217929   3.578   2.519   5.846
  263SOL     OW17930   0.583   2.384   7.701
  263SOL    HW117931   0.566   2.468   7.744
  263SOL    HW217932   0.583   2.404   7.607
  264SOL     OW17933   1.415   2.473   6.699
  264SOL    HW117934   1.500   2.487   6.656
  264SOL    HW217935   1.405   2.548   6.758
  265SOL     OW17936   5.647   6.204   0.037
  265SOL    HW117937   5.655   6.152  -0.042
  265SOL    HW217938   5.707   6.277   0.024
  266SOL     OW17939   4.064   3.475   2.019
  266SOL    HW117940   3.995   3.436   2.073
  266SOL    HW217941   4.021   3.493   1.935
  267SOL     OW17942   3.061   4.409   7.887
  267SOL    HW117943   3.085   4.325   7.927
  267SOL    HW217944   3.043   4.467   7.960
  268SOL     OW17945   5.235   4.568   6.543
  268SOL    HW117946   5.315   4.608   6.575
  268SOL    HW217947   5.172   4.580   6.614
  269SOL     OW17948   0.755   3.132   5.609
  269SOL    HW117949   0.818   3.204   5.601
  269SOL    HW217950   0.796   3.059   5.563
  270SOL     OW17951   4.923   5.032   1.052
  270SOL    HW117952   4.907   4.964   1.118
  270SOL    HW217953   4.982   4.991   0.989
  271SOL     OW17954   4.582   2.063   6.084
  271SOL    HW117955   4.662   2.010   6.087
  271SOL    HW217956   4.553   2.067   6.175
  272SOL     OW17957   4.888   1.020   7.252
  272SOL    HW117958   4.878   0.988   7.341
  272SOL    HW217959   4.811   1.075   7.237
  273SOL     OW17960   5.891   3.816   7.551
  273SOL    HW117961   5.861   3.746   7.493
  273SOL    HW217962   5.856   3.793   7.637
  274SOL     OW17963   4.479   5.718   7.545
  274SOL    HW117964   4.569   5.744   7.564
  274SOL    HW217965   4.429   5.745   7.623
  275SOL     OW17966   3.145   5.053   6.224
  275SOL    HW117967   3.131   4.976   6.279
  275SOL    HW217968   3.178   5.120   6.285
  276SOL     OW17969   3.108   2.281   0.191
  276SOL    HW117970   3.093   2.250   0.280
  276SOL    HW217971   3.155   2.209   0.148
  277SOL     OW17972   0.648   0.278   7.642
  277SOL    HW117973   0.603   0.336   7.702
  277SOL    HW217974   0.737   0.312   7.635
  278SOL     OW17975   0.452   4.242   5.893
  278SOL    HW117976   0.483   4.238   5.803
  278SOL    HW217977   0.373   4.296   5.890
  279SOL     OW17978   1.214   5.100   5.976
  279SOL    HW117979   1.183   5.022   5.930
  279SOL    HW217980   1.250   5.156   5.908
  280SOL     OW17981   4.764   3.052   7.057
  280SOL    HW117982   4.812   3.123   7.017
  280SOL    HW217983   4.711   3.094   7.125
  281SOL     OW17984   5.077   5.498   7.324
  281SOL    HW117985   5.163   5.470   7.294
  281SOL    HW217986   5.095   5.556   7.399
  282SOL     OW17987   0.499   5.304   6.293
  282SOL    HW117988   0.436   5.363   6.253
  282SOL    HW217989   0.496   5.324   6.387
  283SOL     OW17990   5.656   3.642   6.958
  283SOL    HW117991   5.694   3.579   6.898
  283SOL    HW217992   5.573   3.603   6.986
  284SOL     OW17993   2.371   0.347   1.768
  284SOL    HW117994   2.383   0.253   1.758
  284SOL    HW217995   2.371   0.381   1.678
  285SOL     OW17996   4.945   3.687   7.313
  285SOL    HW117997   4.869   3.637   7.341
  285SOL    HW217998   4.913   3.776   7.298
  286SOL     OW17999   1.748   2.379   1.111
  286SOL    HW118000   1.754   2.475   1.106
  286SOL    HW218001   1.665   2.363   1.155
  287SOL     OW18002   2.159   0.303   1.552
  287SOL    HW118003   2.071   0.288   1.519
  287SOL    HW218004   2.215   0.246   1.499
  288SOL     OW18005   6.104   0.891   7.265
  288SOL    HW118006   6.124   0.807   7.226
  288SOL    HW218007   6.008   0.896   7.264
  289SOL     OW18008   5.875   1.212   0.996
  289SOL    HW118009   5.962   1.174   0.982
  289SOL    HW218010   5.842   1.168   1.074
  290SOL     OW18011   1.077   0.037   1.658
  290SOL    HW118012   1.023   0.065   1.732
  290SOL    HW218013   1.119  -0.044   1.688
  291SOL     OW18014   2.567   0.125   1.487
  291SOL    HW118015   2.659   0.146   1.505
  291SOL    HW218016   2.522   0.143   1.570
  292SOL     OW18017   0.521   2.970   7.143
  292SOL    HW118018   0.546   2.953   7.052
  292SOL    HW218019   0.431   3.003   7.137
  293SOL     OW18020   4.853   0.870   7.494
  293SOL    HW118021   4.903   0.903   7.568
  293SOL    HW218022   4.790   0.810   7.533
  294SOL     OW18023   6.346   0.007   6.113
  294SOL    HW118024   6.382   0.012   6.202
  294SOL    HW218025   6.355   0.096   6.079
  295SOL     OW18026   0.293   2.787   6.597
  295SOL    HW118027   0.355   2.832   6.540
  295SOL    HW218028   0.309   2.823   6.684
  296SOL     OW18029   3.964   5.031   0.356
  296SOL    HW118030   3.933   5.061   0.271
  296SOL    HW218031   3.887   5.035   0.412
  297SOL     OW18032   0.452   4.092   1.756
  297SOL    HW118033   0.529   4.122   1.805
  297SOL    HW218034   0.378   4.111   1.813
  298SOL     OW18035   1.494   5.434   0.317
  298SOL    HW118036   1.513   5.410   0.226
  298SOL    HW218037   1.556   5.382   0.368
  299SOL     OW18038   3.112   2.061   7.293
  299SOL    HW118039   3.147   2.072   7.205
  299SOL    HW218040   3.173   2.109   7.349
  300SOL     OW18041   3.808   0.571   0.641
  300SOL    HW118042   3.742   0.634   0.668
  300SOL    HW218043   3.766   0.519   0.573
  301SOL     OW18044   2.815   0.290   1.078
  301SOL    HW118045   2.890   0.241   1.111
  301SOL    HW218046   2.772   0.231   1.017
  302SOL     OW18047   3.957   4.738   7.600
  302SOL    HW118048   3.869   4.699   7.609
  302SOL    HW218049   3.982   4.720   7.509
  303SOL     OW18050   0.990   4.475   7.103
  303SOL    HW118051   0.921   4.506   7.162
  303SOL    HW218052   0.983   4.531   7.026
  304SOL     OW18053   3.233   5.838   7.039
  304SOL    HW118054   3.278   5.875   6.963
  304SOL    HW218055   3.156   5.794   7.002
  305SOL     OW18056   0.930   1.914   5.615
  305SOL    HW118057   0.975   1.829   5.620
  305SOL    HW218058   0.869   1.905   5.542
  306SOL     OW18059   3.696   3.048   7.639
  306SOL    HW118060   3.747   2.972   7.668
  306SOL    HW218061   3.606   3.028   7.665
  307SOL     OW18062   0.825   0.306   6.176
  307SOL    HW118063   0.822   0.363   6.099
  307SOL    HW218064   0.893   0.242   6.155
  308SOL     OW18065   2.302   3.126   5.366
  308SOL    HW118066   2.377   3.108   5.310
  308SOL    HW218067   2.227   3.088   5.319
  309SOL     OW18068   1.914   4.070   7.414
  309SOL    HW118069   1.932   3.976   7.414
  309SOL    HW218070   1.979   4.107   7.354
  310SOL     OW18071   3.467   2.298   5.806
  310SOL    HW118072   3.416   2.256   5.737
  310SOL    HW218073   3.497   2.380   5.768
  311SOL     OW18074   0.879   4.324   6.079
  311SOL    HW118075   0.790   4.356   6.068
  311SOL    HW218076   0.871   4.250   6.139
  312SOL     OW18077   2.957   0.879   7.787
  312SOL    HW118078   2.913   0.940   7.846
  312SOL    HW218079   2.982   0.806   7.844
  313SOL     OW18080   5.733   0.500   6.045
  313SOL    HW118081   5.732   0.437   6.117
  313SOL    HW218082   5.813   0.551   6.058
  314SOL     OW18083   6.391   0.843   1.742
  314SOL    HW118084   6.468   0.795   1.713
  314SOL    HW218085   6.381   0.820   1.834
  315SOL     OW18086   4.352   0.083   0.628
  315SOL    HW118087   4.350   0.129   0.712
  315SOL    HW218088   4.441   0.096   0.596
  316SOL     OW18089   3.978   0.761   7.057
  316SOL    HW118090   3.925   0.681   7.056
  316SOL    HW218091   4.060   0.735   7.099
  317SOL     OW18092   4.343   5.162   7.549
  317SOL    HW118093   4.293   5.131   7.473
  317SOL    HW218094   4.371   5.250   7.524
  318SOL     OW18095   0.887   2.231   1.209
  318SOL    HW118096   0.959   2.186   1.166
  318SOL    HW218097   0.883   2.317   1.167
  319SOL     OW18098   1.898   3.868   7.721
  319SOL    HW118099   1.807   3.892   7.736
  319SOL    HW218100   1.908   3.867   7.626
  320SOL     OW18101   1.507   5.703   0.201
  320SOL    HW118102   1.475   5.645   0.270
  320SOL    HW218103   1.428   5.732   0.155
  321SOL     OW18104   5.607   3.811   0.023
  321SOL    HW118105   5.589   3.878  -0.042
  321SOL    HW218106   5.648   3.859   0.095
  322SOL     OW18107   4.147   0.979   0.102
  322SOL    HW118108   4.181   0.931   0.177
  322SOL    HW218109   4.225   1.005   0.053
  323SOL     OW18110   1.559   2.881   6.496
  323SOL    HW118111   1.642   2.840   6.521
  323SOL    HW218112   1.576   2.975   6.504
  324SOL     OW18113   3.064   1.457   2.481
  324SOL    HW118114   3.033   1.403   2.409
  324SOL    HW218115   3.032   1.545   2.460
  325SOL     OW18116   4.737   4.828   7.148
  325SOL    HW118117   4.754   4.738   7.120
  325SOL    HW218118   4.641   4.836   7.142
  326SOL     OW18119   4.592   5.036   6.808
  326SOL    HW118120   4.586   5.131   6.820
  326SOL    HW218121   4.504   5.010   6.781
  327SOL     OW18122   0.328   2.859   0.196
  327SOL    HW118123   0.298   2.790   0.137
  327SOL    HW218124   0.330   2.938   0.142
  328SOL     OW18125   4.667   0.541   0.794
  328SOL    HW118126   4.701   0.630   0.792
  328SOL    HW218127   4.584   0.547   0.841
  329SOL     OW18128   3.952   4.164   2.085
  329SOL    HW118129   3.877   4.224   2.081
  329SOL    HW218130   4.017   4.203   2.026
  330SOL     OW18131   0.508   1.372   0.905
  330SOL    HW118132   0.603   1.379   0.913
  330SOL    HW218133   0.491   1.372   0.811
  331SOL     OW18134   6.273   6.030   6.144
  331SOL    HW118135   6.366   6.049   6.127
  331SOL    HW218136   6.244   5.982   6.067
  332SOL     OW18137   6.223   0.661   0.690
  332SOL    HW118138   6.303   0.713   0.690
  332SOL    HW218139   6.225   0.614   0.774
  333SOL     OW18140   2.715   3.902   5.717
  333SOL    HW118141   2.805   3.900   5.684
  333SOL    HW218142   2.724   3.909   5.812
  334SOL     OW18143   6.150   6.315   7.584
  334SOL    HW118144   6.064   6.326   7.624
  334SOL    HW218145   6.207   6.288   7.656
  335SOL     OW18146   3.489   3.967   5.869
  335SOL    HW118147   3.432   4.041   5.891
  335SOL    HW218148   3.445   3.923   5.797
  336SOL     OW18149   1.517   2.262   1.220
  336SOL    HW118150   1.433   2.283   1.260
  336SOL    HW218151   1.565   2.215   1.288
  337SOL     OW18152   1.715   1.327   0.114
  337SOL    HW118153   1.636   1.328   0.059
  337SOL    HW218154   1.768   1.399   0.081
  338SOL     OW18155   0.042   2.250   6.692
  338SOL    HW118156   0.075   2.292   6.613
  338SOL    HW218157  -0.010   2.176   6.660
  339SOL     OW18158   0.924   5.204   6.996
  339SOL    HW118159   0.933   5.250   6.913
  339SOL    HW218160   1.014   5.194   7.028
  340SOL     OW18161   2.028   0.084   1.976
  340SOL    HW118162   2.085   0.162   1.981
  340SOL    HW218163   2.089   0.012   1.962
  341SOL     OW18164   2.520   2.107   6.955
  341SOL    HW118165   2.505   2.080   7.045
  341SOL    HW218166   2.564   2.191   6.962
  342SOL     OW18167   3.904   2.979   0.838
  342SOL    HW118168   3.923   2.927   0.916
  342SOL    HW218169   3.985   2.978   0.788
  343SOL     OW18170   6.152   1.007   7.581
  343SOL    HW118171   6.231   0.969   7.543
  343SOL    HW218172   6.165   1.102   7.571
  344SOL     OW18173   0.180   2.039   0.086
  344SOL    HW118174   0.207   1.979   0.016
  344SOL    HW218175   0.223   2.122   0.064
  345SOL     OW18176   2.401   0.150   0.889
  345SOL    HW118177   2.367   0.180   0.974
  345SOL    HW218178   2.388   0.225   0.831
  346SOL     OW18179   4.483   3.379   1.510
  346SOL    HW118180   4.576   3.400   1.512
  346SOL    HW218181   4.443   3.441   1.571
  347SOL     OW18182   2.149   0.952   7.008
  347SOL    HW118183   2.205   0.925   6.935
  347SOL    HW218184   2.169   1.044   7.022
  348SOL     OW18185   4.141   1.100   6.468
  348SOL    HW118186   4.118   1.117   6.559
  348SOL    HW218187   4.192   1.019   6.471
  349SOL     OW18188   2.916   0.549   1.010
  349SOL    HW118189   3.010   0.561   1.016
  349SOL    HW218190   2.901   0.462   1.048
  350SOL     OW18191   4.248   3.433   0.508
  350SOL    HW118192   4.178   3.465   0.450
  350SOL    HW218193   4.203   3.412   0.590
  351SOL     OW18194   4.234   5.507   6.409
  351SOL    HW118195   4.295   5.571   6.372
  351SOL    HW218196   4.291   5.439   6.446
  352SOL     OW18197   1.529   1.503   6.833
  352SOL    HW118198   1.589   1.517   6.906
  352SOL    HW218199   1.446   1.541   6.862
  353SOL     OW18200   5.323   2.226   0.865
  353SOL    HW118201   5.369   2.179   0.795
  353SOL    HW218202   5.257   2.278   0.819
  354SOL     OW18203   5.512   3.191   7.337
  354SOL    HW118204   5.436   3.211   7.282
  354SOL    HW218205   5.550   3.113   7.298
  355SOL     OW18206   1.576   1.913   6.852
  355SOL    HW118207   1.641   1.861   6.804
  355SOL    HW218208   1.507   1.851   6.873
  356SOL     OW18209   0.607   0.489   0.282
  356SOL    HW118210   0.536   0.552   0.291
  356SOL    HW218211   0.673   0.517   0.345
  357SOL     OW18212   0.520   2.993   7.452
  357SOL    HW118213   0.459   3.048   7.501
  357SOL    HW218214   0.486   2.991   7.363
  358SOL     OW18215   5.304   6.259   0.116
  358SOL    HW118216   5.317   6.307   0.034
  358SOL    HW218217   5.317   6.167   0.092
  359SOL     OW18218   2.228   1.625   1.014
  359SOL    HW118219   2.296   1.561   0.992
  359SOL    HW218220   2.228   1.628   1.109
  360SOL     OW18221   4.547   1.092   6.866
  360SOL    HW118222   4.476   1.131   6.816
  360SOL    HW218223   4.608   1.061   6.799
  361SOL     OW18224   1.142   1.432   0.328
  361SOL    HW118225   1.215   1.458   0.272
  361SOL    HW218226   1.076   1.499   0.315
  362SOL     OW18227   5.323   5.868   1.238
  362SOL    HW118228   5.304   5.784   1.198
  362SOL    HW218229   5.406   5.855   1.285
  363SOL     OW18230   2.204   4.091   7.583
  363SOL    HW118231   2.259   4.110   7.659
  363SOL    HW218232   2.201   4.173   7.534
  364SOL     OW18233   5.414   5.848   5.578
  364SOL    HW118234   5.367   5.930   5.564
  364SOL    HW218235   5.427   5.812   5.490
  365SOL     OW18236   5.687   2.414   0.490
  365SOL    HW118237   5.779   2.403   0.469
  365SOL    HW218238   5.666   2.503   0.462
  366SOL     OW18239   0.830   3.862   7.470
  366SOL    HW118240   0.735   3.867   7.466
  366SOL    HW218241   0.858   3.856   7.379
  367SOL     OW18242   5.904   5.623   6.349
  367SOL    HW118243   5.957   5.666   6.282
  367SOL    HW218244   5.819   5.665   6.343
  368SOL     OW18245   5.403   0.564   6.997
  368SOL    HW118246   5.406   0.535   7.088
  368SOL    HW218247   5.489   0.604   6.981
  369SOL     OW18248   2.171   4.921   1.077
  369SOL    HW118249   2.094   4.970   1.048
  369SOL    HW218250   2.242   4.985   1.077
  370SOL     OW18251   3.615   4.858   7.870
  370SOL    HW118252   3.578   4.815   7.794
  370SOL    HW218253   3.665   4.932   7.834
  371SOL     OW18254   2.899   5.225   7.287
  371SOL    HW118255   2.981   5.189   7.319
  371SOL    HW218256   2.893   5.194   7.196
  372SOL     OW18257   0.982   0.620   1.739
  372SOL    HW118258   0.978   0.528   1.713
  372SOL    HW218259   0.999   0.618   1.833
  373SOL     OW18260   3.094   4.337   7.300
  373SOL    HW118261   3.020   4.397   7.298
  373SOL    HW218262   3.107   4.311   7.209
  374SOL     OW18263   0.390   5.400   0.531
  374SOL    HW118264   0.413   5.350   0.453
  374SOL    HW218265   0.400   5.492   0.505
  375SOL     OW18266   3.367   4.734   6.707
  375SOL    HW118267   3.390   4.809   6.653
  375SOL    HW218268   3.329   4.671   6.646
  376SOL     OW18269   3.011   4.369   0.947
  376SOL    HW118270   3.043   4.319   1.022
  376SOL    HW218271   3.046   4.324   0.870
  377SOL     OW18272   5.744   0.935   0.358
  377SOL    HW118273   5.675   0.988   0.398
  377SOL    HW218274   5.707   0.907   0.274
  378SOL     OW18275   5.091   3.696   1.246
  378SOL    HW118276   4.996   3.711   1.244
  378SOL    HW218277   5.127   3.766   1.191
  379SOL     OW18278   4.305   4.212   1.755
  379SOL    HW118279   4.375   4.263   1.794
  379SOL    HW218280   4.225   4.258   1.780
  380SOL     OW18281   4.621   1.003   5.520
  380SOL    HW118282   4.661   0.948   5.453
  380SOL    HW218283   4.527   0.988   5.511
  381SOL     OW18284   4.678   0.565   1.821
  381SOL    HW118285   4.750   0.593   1.878
  381SOL    HW218286   4.650   0.645   1.777
  382SOL     OW18287   6.298   2.491   7.445
  382SOL    HW118288   6.332   2.580   7.449
  382SOL    HW218289   6.271   2.480   7.354
  383SOL     OW18290   3.700   3.764   5.922
  383SOL    HW118291   3.712   3.712   5.843
  383SOL    HW218292   3.634   3.829   5.898
  384SOL     OW18293   0.612   5.830   2.259
  384SOL    HW118294   0.544   5.850   2.324
  384SOL    HW218295   0.625   5.736   2.266
  385SOL     OW18296   1.731   2.096   7.304
  385SOL    HW118297   1.679   2.128   7.230
  385SOL    HW218298   1.683   2.020   7.336
  386SOL     OW18299   0.413   5.709   0.540
  386SOL    HW118300   0.500   5.747   0.528
  386SOL    HW218301   0.412   5.680   0.631
  387SOL     OW18302   5.387   0.835   1.389
  387SOL    HW118303   5.416   0.913   1.342
  387SOL    HW218304   5.342   0.782   1.323
  388SOL     OW18305   0.347   1.650   0.043
  388SOL    HW118306   0.431   1.688   0.069
  388SOL    HW218307   0.354   1.558   0.066
  389SOL     OW18308   2.221   5.877   7.235
  389SOL    HW118309   2.181   5.957   7.268
  389SOL    HW218310   2.298   5.906   7.187
  390SOL     OW18311   2.614   5.420   6.841
  390SOL    HW118312   2.648   5.415   6.930
  390SOL    HW218313   2.520   5.404   6.850
  391SOL     OW18314   5.697   2.586   6.100
  391SOL    HW118315   5.605   2.595   6.125
  391SOL    HW218316   5.745   2.594   6.182
  392SOL     OW18317   3.257   2.989   0.509
  392SOL    HW118318   3.271   2.895   0.511
  392SOL    HW218319   3.233   3.008   0.418
  393SOL     OW18320   2.272   2.161   0.593
  393SOL    HW118321   2.333   2.233   0.608
  393SOL    HW218322   2.325   2.091   0.557
  394SOL     OW18323   5.956   3.621   0.164
  394SOL    HW118324   5.879   3.669   0.195
  394SOL    HW218325   5.919   3.554   0.106
  395SOL     OW18326   5.894   1.314   5.641
  395SOL    HW118327   5.979   1.324   5.598
  395SOL    HW218328   5.830   1.332   5.572
  396SOL     OW18329   0.140   3.521   1.372
  396SOL    HW118330   0.197   3.576   1.426
  396SOL    HW218331   0.087   3.583   1.322
  397SOL     OW18332   2.200   2.215   6.832
  397SOL    HW118333   2.116   2.255   6.807
  397SOL    HW218334   2.265   2.262   6.780
  398SOL     OW18335   0.524   0.859   1.733
  398SOL    HW118336   0.613   0.848   1.702
  398SOL    HW218337   0.498   0.946   1.703
  399SOL     OW18338   1.440   0.579   2.458
  399SOL    HW118339   1.473   0.645   2.397
  399SOL    HW218340   1.351   0.608   2.478
  400SOL     OW18341   0.190   1.567   7.766
  400SOL    HW118342   0.239   1.638   7.807
  400SOL    HW218343   0.113   1.609   7.729
  401SOL     OW18344   5.540   2.078   0.197
  401SOL    HW118345   5.566   1.999   0.245
  401SOL    HW218346   5.453   2.058   0.163
  402SOL     OW18347   0.507   5.485   0.239
  402SOL    HW118348   0.491   5.549   0.170
  402SOL    HW218349   0.431   5.427   0.236
  403SOL     OW18350   2.176   5.922   7.731
  403SOL    HW118351   2.238   5.918   7.804
  403SOL    HW218352   2.093   5.946   7.771
  404SOL     OW18353   4.155   1.000   1.116
  404SOL    HW118354   4.178   1.007   1.023
  404SOL    HW218355   4.142   1.090   1.145
  405SOL     OW18356   2.494   1.726   1.710
  405SOL    HW118357   2.414   1.709   1.761
  405SOL    HW218358   2.495   1.821   1.699
  406SOL     OW18359   3.459   2.545   0.174
  406SOL    HW118360   3.370   2.575   0.156
  406SOL    HW218361   3.454   2.449   0.166
  407SOL     OW18362   0.781   3.621   1.625
  407SOL    HW118363   0.767   3.575   1.708
  407SOL    HW218364   0.693   3.627   1.586
  408SOL     OW18365   0.016   4.130   0.917
  408SOL    HW118366   0.073   4.105   0.845
  408SOL    HW218367  -0.051   4.062   0.921
  409SOL     OW18368   2.211   6.332   0.081
  409SOL    HW118369   2.299   6.326   0.118
  409SOL    HW218370   2.200   6.425   0.062
  410SOL     OW18371   5.063   5.610   0.280
  410SOL    HW118372   4.996   5.584   0.342
  410SOL    HW218373   5.143   5.617   0.332
  411SOL     OW18374   2.072   2.607   5.933
  411SOL    HW118375   2.037   2.539   5.876
  411SOL    HW218376   2.157   2.628   5.895
  412SOL     OW18377   4.905   5.543   0.479
  412SOL    HW118378   4.830   5.544   0.539
  412SOL    HW218379   4.975   5.501   0.530
  413SOL     OW18380   3.854   4.156   0.831
  413SOL    HW118381   3.880   4.112   0.912
  413SOL    HW218382   3.766   4.123   0.814
  414SOL     OW18383   4.273   2.375   0.583
  414SOL    HW118384   4.331   2.332   0.645
  414SOL    HW218385   4.202   2.411   0.637
  415SOL     OW18386   3.305   1.224   7.243
  415SOL    HW118387   3.215   1.254   7.258
  415SOL    HW218388   3.297   1.153   7.179
  416SOL     OW18389   0.357   5.984   5.855
  416SOL    HW118390   0.384   5.904   5.809
  416SOL    HW218391   0.332   5.954   5.942
  417SOL     OW18392   3.181   5.121   5.507
  417SOL    HW118393   3.229   5.124   5.589
  417SOL    HW218394   3.130   5.039   5.511
  418SOL     OW18395   2.711   6.322   0.076
  418SOL    HW118396   2.767   6.277   0.013
  418SOL    HW218397   2.715   6.414   0.051
  419SOL     OW18398   3.706   3.406   6.657
  419SOL    HW118399   3.776   3.466   6.630
  419SOL    HW218400   3.670   3.373   6.574
  420SOL     OW18401   5.607   5.201   7.291
  420SOL    HW118402   5.534   5.179   7.234
  420SOL    HW218403   5.682   5.209   7.231
  421SOL     OW18404   5.348   4.500   6.865
  421SOL    HW118405   5.362   4.503   6.960
  421SOL    HW218406   5.436   4.489   6.828
  422SOL     OW18407   1.155   1.164   2.219
  422SOL    HW118408   1.212   1.241   2.217
  422SOL    HW218409   1.066   1.200   2.219
  423SOL     OW18410   4.251   2.347   7.356
  423SOL    HW118411   4.189   2.420   7.345
  423SOL    HW218412   4.224   2.306   7.438
  424SOL     OW18413   3.836   4.245   7.241
  424SOL    HW118414   3.900   4.297   7.288
  424SOL    HW218415   3.825   4.290   7.157
  425SOL     OW18416   5.556   3.759   0.327
  425SOL    HW118417   5.506   3.783   0.405
  425SOL    HW218418   5.647   3.774   0.352
  426SOL     OW18419   2.231   0.051   7.584
  426SOL    HW118420   2.203  -0.010   7.652
  426SOL    HW218421   2.323   0.030   7.569
  427SOL     OW18422   2.249   4.144   1.431
  427SOL    HW118423   2.233   4.080   1.500
  427SOL    HW218424   2.194   4.116   1.358
  428SOL     OW18425   5.542   1.230   7.435
  428SOL    HW118426   5.567   1.295   7.502
  428SOL    HW218427   5.556   1.146   7.478
  429SOL     OW18428   5.311   0.121   7.936
  429SOL    HW118429   5.389   0.147   7.985
  429SOL    HW218430   5.344   0.098   7.850
  430SOL     OW18431   6.282   3.063   1.425
  430SOL    HW118432   6.196   3.075   1.465
  430SOL    HW218433   6.299   3.146   1.380
  431SOL     OW18434   5.589   1.916   6.018
  431SOL    HW118435   5.550   1.974   6.084
  431SOL    HW218436   5.554   1.948   5.935
  432SOL     OW18437   1.229   3.713   6.507
  432SOL    HW118438   1.174   3.790   6.521
  432SOL    HW218439   1.172   3.651   6.462
  433SOL     OW18440   6.239   2.944   1.142
  433SOL    HW118441   6.222   2.962   1.234
  433SOL    HW218442   6.261   3.029   1.104
  434SOL     OW18443   2.638   0.986   0.174
  434SOL    HW118444   2.613   0.908   0.124
  434SOL    HW218445   2.573   1.052   0.149
  435SOL     OW18446   2.445   2.939   6.983
  435SOL    HW118447   2.493   2.858   6.995
  435SOL    HW218448   2.459   2.962   6.891
  436SOL     OW18449   3.260   4.425   6.661
  436SOL    HW118450   3.259   4.331   6.644
  436SOL    HW218451   3.350   4.445   6.686
  437SOL     OW18452   2.036   5.875   6.102
  437SOL    HW118453   1.954   5.908   6.139
  437SOL    HW218454   2.104   5.906   6.162
  438SOL     OW18455   5.647   2.443   6.388
  438SOL    HW118456   5.692   2.412   6.309
  438SOL    HW218457   5.603   2.365   6.422
  439SOL     OW18458   0.461   3.411   6.259
  439SOL    HW118459   0.440   3.483   6.201
  439SOL    HW218460   0.455   3.447   6.347
  440SOL     OW18461   2.547   0.714   7.361
  440SOL    HW118462   2.625   0.726   7.306
  440SOL    HW218463   2.474   0.725   7.301
  441SOL     OW18464   3.478   1.641   7.244
  441SOL    HW118465   3.566   1.613   7.221
  441SOL    HW218466   3.428   1.638   7.162
  442SOL     OW18467   3.961   5.140   6.768
  442SOL    HW118468   3.874   5.142   6.726
  442SOL    HW218469   3.999   5.226   6.748
  443SOL     OW18470   3.935   3.741   6.083
  443SOL    HW118471   4.011   3.745   6.025
  443SOL    HW218472   3.863   3.777   6.032
  444SOL     OW18473   0.282   3.572   0.136
  444SOL    HW118474   0.337   3.545   0.063
  444SOL    HW218475   0.213   3.624   0.096
  445SOL     OW18476   4.236   4.122   7.036
  445SOL    HW118477   4.171   4.080   7.092
  445SOL    HW218478   4.313   4.065   7.043
  446SOL     OW18479   4.646   4.923   7.514
  446SOL    HW118480   4.636   4.962   7.601
  446SOL    HW218481   4.740   4.922   7.499
  447SOL     OW18482   5.971   5.549   2.257
  447SOL    HW118483   6.008   5.631   2.224
  447SOL    HW218484   5.882   5.571   2.285
  448SOL     OW18485   5.970   2.927   1.818
  448SOL    HW118486   5.929   2.936   1.905
  448SOL    HW218487   6.010   3.012   1.801
  449SOL     OW18488   2.709   5.689   0.959
  449SOL    HW118489   2.637   5.652   0.908
  449SOL    HW218490   2.737   5.766   0.909
  450SOL     OW18491   5.711   1.954   0.946
  450SOL    HW118492   5.771   2.019   0.981
  450SOL    HW218493   5.728   1.953   0.852
  451SOL     OW18494   2.288   1.636   7.487
  451SOL    HW118495   2.211   1.658   7.436
  451SOL    HW218496   2.341   1.715   7.487
  452SOL     OW18497   2.141   2.898   7.934
  452SOL    HW118498   2.211   2.839   7.908
  452SOL    HW218499   2.060   2.848   7.921
  453SOL     OW18500   3.200   2.453   1.266
  453SOL    HW118501   3.291   2.430   1.247
  453SOL    HW218502   3.196   2.461   1.362
  454SOL     OW18503   5.839   4.670   6.736
  454SOL    HW118504   5.832   4.589   6.686
  454SOL    HW218505   5.829   4.739   6.671
  455SOL     OW18506   3.034   0.199   6.629
  455SOL    HW118507   3.034   0.163   6.540
  455SOL    HW218508   3.126   0.216   6.648
  456SOL     OW18509   5.239   0.424   7.301
  456SOL    HW118510   5.174   0.475   7.349
  456SOL    HW218511   5.190   0.351   7.263
  457SOL     OW18512   5.719   4.851   7.145
  457SOL    HW118513   5.709   4.770   7.096
  457SOL    HW218514   5.640   4.901   7.125
  458SOL     OW18515   5.817   3.337   1.534
  458SOL    HW118516   5.864   3.334   1.617
  458SOL    HW218517   5.822   3.429   1.507
  459SOL     OW18518   1.410   1.632   6.553
  459SOL    HW118519   1.474   1.692   6.593
  459SOL    HW218520   1.439   1.545   6.580
  460SOL     OW18521   0.898   6.370   6.357
  460SOL    HW118522   0.962   6.301   6.374
  460SOL    HW218523   0.900   6.380   6.261
  461SOL     OW18524   4.869   1.496   6.381
  461SOL    HW118525   4.894   1.405   6.364
  461SOL    HW218526   4.891   1.511   6.473
  462SOL     OW18527   5.520   3.562   6.641
  462SOL    HW118528   5.609   3.582   6.611
  462SOL    HW218529   5.463   3.601   6.574
  463SOL     OW18530   1.348   6.185   5.906
  463SOL    HW118531   1.393   6.133   5.840
  463SOL    HW218532   1.409   6.255   5.928
  464SOL     OW18533   6.152   5.620   0.140
  464SOL    HW118534   6.104   5.555   0.191
  464SOL    HW218535   6.244   5.608   0.165
  465SOL     OW18536   2.114   1.720   0.243
  465SOL    HW118537   2.060   1.761   0.176
  465SOL    HW218538   2.062   1.727   0.323
  466SOL     OW18539   1.391   3.308   6.885
  466SOL    HW118540   1.468   3.349   6.845
  466SOL    HW218541   1.412   3.214   6.886
  467SOL     OW18542   0.448   0.791   7.365
  467SOL    HW118543   0.464   0.878   7.328
  467SOL    HW218544   0.441   0.806   7.459
  468SOL     OW18545   4.827   3.747   1.229
  468SOL    HW118546   4.745   3.720   1.189
  468SOL    HW218547   4.802   3.777   1.317
  469SOL     OW18548   6.337   0.932   7.400
  469SOL    HW118549   6.257   0.900   7.357
  469SOL    HW218550   6.408   0.881   7.360
  470SOL     OW18551   1.157   0.965   6.884
  470SOL    HW118552   1.220   0.907   6.926
  470SOL    HW218553   1.085   0.908   6.857
  471SOL     OW18554   0.527   6.109   0.504
  471SOL    HW118555   0.547   6.025   0.544
  471SOL    HW218556   0.575   6.109   0.421
  472SOL     OW18557   0.684   4.136   7.076
  472SOL    HW118558   0.730   4.133   6.992
  472SOL    HW218559   0.613   4.199   7.062
  473SOL     OW18560   1.702   0.436   5.934
  473SOL    HW118561   1.765   0.372   5.901
  473SOL    HW218562   1.692   0.414   6.027
  474SOL     OW18563   0.191   4.205   7.193
  474SOL    HW118564   0.140   4.127   7.170
  474SOL    HW218565   0.148   4.241   7.270
  475SOL     OW18566   0.788   3.618   0.400
  475SOL    HW118567   0.716   3.664   0.444
  475SOL    HW218568   0.801   3.667   0.319
  476SOL     OW18569   2.259   0.955   0.248
  476SOL    HW118570   2.312   1.033   0.263
  476SOL    HW218571   2.312   0.883   0.283
  477SOL     OW18572   1.084   0.181   6.648
  477SOL    HW118573   1.170   0.142   6.631
  477SOL    HW218574   1.055   0.215   6.563
  478SOL     OW18575   2.969   3.218   6.474
  478SOL    HW118576   2.916   3.154   6.521
  478SOL    HW218577   2.941   3.303   6.507
  479SOL     OW18578   4.077   2.110   6.788
  479SOL    HW118579   4.018   2.046   6.827
  479SOL    HW218580   4.027   2.147   6.715
  480SOL     OW18581   3.442   1.030   6.619
  480SOL    HW118582   3.519   1.076   6.587
  480SOL    HW218583   3.369   1.067   6.568
  481SOL     OW18584   3.081   0.084   0.439
  481SOL    HW118585   3.060   0.079   0.346
  481SOL    HW218586   3.084   0.177   0.458
  482SOL     OW18587   1.630   3.925   7.669
  482SOL    HW118588   1.563   3.865   7.635
  482SOL    HW218589   1.613   4.008   7.625
  483SOL     OW18590   1.254   4.168   2.122
  483SOL    HW118591   1.177   4.111   2.125
  483SOL    HW218592   1.220   4.256   2.135
  484SOL     OW18593   4.407   1.390   6.405
  484SOL    HW118594   4.452   1.454   6.351
  484SOL    HW218595   4.433   1.412   6.495
  485SOL     OW18596   2.616   4.883   0.309
  485SOL    HW118597   2.585   4.818   0.247
  485SOL    HW218598   2.549   4.951   0.310
  486SOL     OW18599   1.354   3.201   0.399
  486SOL    HW118600   1.320   3.115   0.424
  486SOL    HW218601   1.285   3.262   0.424
  487SOL     OW18602   5.235   0.154   5.119
  487SOL    HW118603   5.142   0.135   5.112
  487SOL    HW218604   5.243   0.209   5.197
  488SOL     OW18605   1.082   5.256   0.914
  488SOL    HW118606   1.012   5.271   0.851
  488SOL    HW218607   1.144   5.199   0.868
  489SOL     OW18608   1.656   2.790   1.698
  489SOL    HW118609   1.706   2.820   1.774
  489SOL    HW218610   1.672   2.857   1.631
  490SOL     OW18611   2.686   2.858   0.438
  490SOL    HW118612   2.636   2.930   0.476
  490SOL    HW218613   2.639   2.779   0.464
  491SOL     OW18614   4.458   2.642   6.254
  491SOL    HW118615   4.448   2.682   6.341
  491SOL    HW218616   4.401   2.565   6.257
  492SOL     OW18617   0.646   6.027   1.694
  492SOL    HW118618   0.692   6.020   1.778
  492SOL    HW218619   0.553   6.025   1.717
  493SOL     OW18620   3.891   6.308   0.243
  493SOL    HW118621   3.856   6.325   0.156
  493SOL    HW218622   3.845   6.370   0.300
  494SOL     OW18623   2.310   0.727   0.973
  494SOL    HW118624   2.405   0.731   0.975
  494SOL    HW218625   2.285   0.793   0.908
  495SOL     OW18626   4.344   3.486   1.229
  495SOL    HW118627   4.353   3.440   1.146
  495SOL    HW218628   4.433   3.502   1.258
  496SOL     OW18629   2.053   5.999   0.406
  496SOL    HW118630   2.041   6.069   0.470
  496SOL    HW218631   2.077   5.922   0.459
  497SOL     OW18632   2.822   2.898   7.826
  497SOL    HW118633   2.847   2.806   7.819
  497SOL    HW218634   2.790   2.907   7.916
  498SOL     OW18635   2.988   0.914   0.970
  498SOL    HW118636   3.051   0.957   0.912
  498SOL    HW218637   3.042   0.874   1.038
  499SOL     OW18638   4.487   4.698   6.301
  499SOL    HW118639   4.510   4.637   6.371
  499SOL    HW218640   4.411   4.659   6.258
  500SOL     OW18641   0.887   1.134   5.411
  500SOL    HW118642   0.899   1.203   5.346
  500SOL    HW218643   0.832   1.175   5.479
  501SOL     OW18644   5.620   4.426   7.547
  501SOL    HW118645   5.643   4.506   7.595
  501SOL    HW218646   5.684   4.421   7.476
  502SOL     OW18647   1.371   2.370   1.429
  502SOL    HW118648   1.381   2.359   1.524
  502SOL    HW218649   1.276   2.379   1.417
  503SOL     OW18650   0.179   0.769   7.297
  503SOL    HW118651   0.258   0.728   7.261
  503SOL    HW218652   0.153   0.711   7.368
  504SOL     OW18653   3.637   1.984   2.056
  504SOL    HW118654   3.700   1.988   1.984
  504SOL    HW218655   3.578   2.057   2.040
  505SOL     OW18656   2.731   0.762   7.135
  505SOL    HW118657   2.770   0.681   7.102
  505SOL    HW218658   2.676   0.793   7.063
  506SOL     OW18659   2.838   5.638   7.423
  506SOL    HW118660   2.838   5.718   7.477
  506SOL    HW218661   2.758   5.645   7.371
  507SOL     OW18662   3.777   6.347   5.491
  507SOL    HW118663   3.689   6.380   5.510
  507SOL    HW218664   3.763   6.272   5.434
  508SOL     OW18665   5.216   2.632   1.530
  508SOL    HW118666   5.308   2.657   1.541
  508SOL    HW218667   5.188   2.681   1.452
  509SOL     OW18668   2.832   1.358   2.019
  509SOL    HW118669   2.885   1.348   1.940
  509SOL    HW218670   2.823   1.452   2.031
  510SOL     OW18671   5.114   1.588   0.682
  510SOL    HW118672   5.155   1.674   0.693
  510SOL    HW218673   5.043   1.604   0.620
  511SOL     OW18674   5.478   1.651   5.740
  511SOL    HW118675   5.427   1.610   5.670
  511SOL    HW218676   5.485   1.743   5.714
  512SOL     OW18677   0.846   3.355   0.460
  512SOL    HW118678   0.842   3.450   0.447
  512SOL    HW218679   0.770   3.321   0.413
  513SOL     OW18680   0.549   1.097   7.623
  513SOL    HW118681   0.547   1.170   7.685
  513SOL    HW218682   0.583   1.023   7.674
  514SOL     OW18683   3.352   2.733   0.471
  514SOL    HW118684   3.349   2.640   0.491
  514SOL    HW218685   3.435   2.746   0.427
  515SOL     OW18686   1.730   4.620   1.820
  515SOL    HW118687   1.652   4.573   1.848
  515SOL    HW218688   1.774   4.645   1.902
  516SOL     OW18689   1.292   4.131   7.116
  516SOL    HW118690   1.341   4.108   7.036
  516SOL    HW218691   1.201   4.135   7.088
  517SOL     OW18692   6.399   3.133   6.429
  517SOL    HW118693   6.310   3.162   6.447
  517SOL    HW218694   6.432   3.195   6.364
  518SOL     OW18695   0.342   5.292   7.499
  518SOL    HW118696   0.431   5.322   7.517
  518SOL    HW218697   0.287   5.344   7.558
  519SOL     OW18698   5.036   0.187   0.040
  519SOL    HW118699   5.130   0.176   0.028
  519SOL    HW218700   5.009   0.110   0.090
  520SOL     OW18701   4.678   5.915   5.896
  520SOL    HW118702   4.608   5.977   5.877
  520SOL    HW218703   4.758   5.968   5.896
  521SOL     OW18704   4.427   2.392   1.675
  521SOL    HW118705   4.453   2.364   1.762
  521SOL    HW218706   4.427   2.488   1.679
  522SOL     OW18707   5.054   6.364   1.662
  522SOL    HW118708   5.115   6.290   1.667
  522SOL    HW218709   5.091   6.429   1.721
  523SOL     OW18710   1.735   3.619   7.499
  523SOL    HW118711   1.752   3.549   7.436
  523SOL    HW218712   1.639   3.629   7.499
  524SOL     OW18713   1.880   6.216   1.467
  524SOL    HW118714   1.815   6.285   1.479
  524SOL    HW218715   1.940   6.226   1.542
  525SOL     OW18716   3.319   3.416   5.544
  525SOL    HW118717   3.231   3.393   5.517
  525SOL    HW218718   3.310   3.441   5.636
  526SOL     OW18719   6.294   0.197   7.457
  526SOL    HW118720   6.280   0.110   7.496
  526SOL    HW218721   6.360   0.238   7.514
  527SOL     OW18722   5.638   0.897   1.138
  527SOL    HW118723   5.689   0.974   1.162
  527SOL    HW218724   5.581   0.927   1.068
  528SOL     OW18725   4.334   5.816   1.060
  528SOL    HW118726   4.327   5.908   1.084
  528SOL    HW218727   4.385   5.817   0.979
  529SOL     OW18728   0.788   4.762   6.771
  529SOL    HW118729   0.827   4.810   6.845
  529SOL    HW218730   0.711   4.814   6.747
  530SOL     OW18731   3.193   5.595   7.510
  530SOL    HW118732   3.199   5.655   7.435
  530SOL    HW218733   3.119   5.538   7.489
  531SOL     OW18734   3.931   1.952   5.943
  531SOL    HW118735   4.024   1.932   5.937
  531SOL    HW218736   3.927   2.048   5.943
  532SOL     OW18737   1.661   0.455   6.212
  532SOL    HW118738   1.730   0.520   6.214
  532SOL    HW218739   1.634   0.446   6.304
  533SOL     OW18740   5.923   0.051   1.458
  533SOL    HW118741   5.832   0.081   1.459
  533SOL    HW218742   5.943   0.032   1.549
  534SOL     OW18743   3.014   3.140   0.209
  534SOL    HW118744   3.050   3.199   0.143
  534SOL    HW218745   2.954   3.195   0.261
  535SOL     OW18746   1.684   6.338   2.155
  535SOL    HW118747   1.761   6.368   2.205
  535SOL    HW218748   1.714   6.259   2.111
  536SOL     OW18749   2.275   1.559   0.057
  536SOL    HW118750   2.213   1.611   0.109
  536SOL    HW218751   2.274   1.601  -0.029
  537SOL     OW18752   0.671   4.150   1.922
  537SOL    HW118753   0.598   4.170   1.981
  537SOL    HW218754   0.727   4.091   1.972
  538SOL     OW18755   2.923   4.703   0.023
  538SOL    HW118756   2.849   4.713  -0.035
  538SOL    HW218757   2.899   4.631   0.081
  539SOL     OW18758   0.204   1.119   0.078
  539SOL    HW118759   0.139   1.163   0.025
  539SOL    HW218760   0.194   1.026   0.056
  540SOL     OW18761   4.206   3.163   7.310
  540SOL    HW118762   4.287   3.166   7.360
  540SOL    HW218763   4.140   3.136   7.373
  541SOL     OW18764   3.702   1.619   0.607
  541SOL    HW118765   3.625   1.671   0.632
  541SOL    HW218766   3.776   1.679   0.616
  542SOL     OW18767   1.070   4.288   0.049
  542SOL    HW118768   1.030   4.343   0.116
  542SOL    HW218769   1.108   4.351  -0.013
  543SOL     OW18770   5.604   4.489   5.966
  543SOL    HW118771   5.603   4.579   5.934
  543SOL    HW218772   5.693   4.477   6.001
  544SOL     OW18773   3.638   4.270   1.009
  544SOL    HW118774   3.696   4.239   1.078
  544SOL    HW218775   3.695   4.320   0.950
  545SOL     OW18776   0.253   1.091   7.543
  545SOL    HW118777   0.278   1.018   7.599
  545SOL    HW218778   0.336   1.127   7.511
  546SOL     OW18779   1.435   2.446   7.185
  546SOL    HW118780   1.497   2.395   7.238
  546SOL    HW218781   1.378   2.380   7.145
  547SOL     OW18782   6.162   4.148   1.482
  547SOL    HW118783   6.194   4.233   1.452
  547SOL    HW218784   6.111   4.168   1.560
  548SOL     OW18785   2.857   0.517   6.081
  548SOL    HW118786   2.787   0.526   6.016
  548SOL    HW218787   2.870   0.605   6.114
  549SOL     OW18788   1.368   4.696   1.203
  549SOL    HW118789   1.392   4.744   1.282
  549SOL    HW218790   1.447   4.646   1.181
  550SOL     OW18791   6.367   6.213   6.830
  550SOL    HW118792   6.384   6.222   6.924
  550SOL    HW218793   6.285   6.165   6.825
  551SOL     OW18794   1.083   2.298   1.850
  551SOL    HW118795   1.053   2.211   1.876
  551SOL    HW218796   1.166   2.309   1.897
  552SOL     OW18797   0.628   4.810   1.177
  552SOL    HW118798   0.645   4.752   1.252
  552SOL    HW218799   0.711   4.856   1.163
  553SOL     OW18800   3.812   6.327   2.203
  553SOL    HW118801   3.890   6.296   2.156
  553SOL    HW218802   3.785   6.252   2.256
  554SOL     OW18803   2.456   2.811   1.403
  554SOL    HW118804   2.401   2.885   1.430
  554SOL    HW218805   2.540   2.828   1.444
  555SOL     OW18806   3.746   5.020   0.873
  555SOL    HW118807   3.661   5.010   0.829
  555SOL    HW218808   3.731   4.989   0.962
  556SOL     OW18809   1.016   1.055   6.141
  556SOL    HW118810   1.006   1.131   6.084
  556SOL    HW218811   1.071   0.994   6.091
  557SOL     OW18812   4.201   2.189   0.956
  557SOL    HW118813   4.272   2.252   0.942
  557SOL    HW218814   4.245   2.106   0.972
  558SOL     OW18815   3.269   1.762   1.645
  558SOL    HW118816   3.320   1.830   1.689
  558SOL    HW218817   3.211   1.810   1.586
  559SOL     OW18818   2.171   2.334   1.155
  559SOL    HW118819   2.248   2.369   1.109
  559SOL    HW218820   2.103   2.328   1.088
  560SOL     OW18821   1.305   2.749   6.506
  560SOL    HW118822   1.311   2.764   6.601
  560SOL    HW218823   1.392   2.771   6.473
  561SOL     OW18824   5.841   0.530   5.224
  561SOL    HW118825   5.855   0.621   5.247
  561SOL    HW218826   5.755   0.509   5.261
  562SOL     OW18827   4.177   4.095   7.817
  562SOL    HW118828   4.168   4.168   7.878
  562SOL    HW218829   4.268   4.066   7.827
  563SOL     OW18830   1.687   0.071   1.396
  563SOL    HW118831   1.632   0.138   1.357
  563SOL    HW218832   1.667  -0.009   1.347
  564SOL     OW18833   0.064   2.876   6.303
  564SOL    HW118834   0.064   2.968   6.329
  564SOL    HW218835   0.150   2.861   6.264
  565SOL     OW18836   1.639   2.165   6.839
  565SOL    HW118837   1.692   2.199   6.768
  565SOL    HW218838   1.635   2.070   6.823
  566SOL     OW18839   4.997   2.176   6.963
  566SOL    HW118840   4.950   2.181   6.880
  566SOL    HW218841   4.967   2.094   7.003
  567SOL     OW18842   4.137   4.005   0.426
  567SOL    HW118843   4.073   4.018   0.496
  567SOL    HW218844   4.206   4.068   0.443
  568SOL     OW18845   5.025   3.869   7.652
  568SOL    HW118846   5.057   3.930   7.719
  568SOL    HW218847   4.988   3.925   7.584
  569SOL     OW18848   3.078   1.840   0.011
  569SOL    HW118849   3.137   1.881  -0.051
  569SOL    HW218850   2.993   1.882  -0.005
  570SOL     OW18851   0.699   1.918   5.422
  570SOL    HW118852   0.736   1.998   5.384
  570SOL    HW218853   0.622   1.899   5.368
  571SOL     OW18854   1.647   2.625   7.582
  571SOL    HW118855   1.583   2.620   7.511
  571SOL    HW218856   1.605   2.581   7.656
  572SOL     OW18857   0.022   1.165   2.323
  572SOL    HW118858   0.003   1.107   2.250
  572SOL    HW218859   0.033   1.252   2.284
  573SOL     OW18860   0.542   4.630   2.199
  573SOL    HW118861   0.447   4.623   2.200
  573SOL    HW218862   0.573   4.540   2.206
  574SOL     OW18863   2.376   3.409   5.947
  574SOL    HW118864   2.419   3.401   5.861
  574SOL    HW218865   2.425   3.478   5.992
  575SOL     OW18866   1.541   0.485   7.776
  575SOL    HW118867   1.469   0.520   7.725
  575SOL    HW218868   1.590   0.563   7.805
  576SOL     OW18869   5.863   3.139   0.474
  576SOL    HW118870   5.911   3.097   0.546
  576SOL    HW218871   5.770   3.126   0.497
  577SOL     OW18872   4.588   2.180   6.350
  577SOL    HW118873   4.682   2.191   6.338
  577SOL    HW218874   4.572   2.204   6.441
  578SOL     OW18875   1.731   4.721   0.693
  578SOL    HW118876   1.768   4.809   0.694
  578SOL    HW218877   1.660   4.725   0.757
  579SOL     OW18878   2.195   0.947   6.276
  579SOL    HW118879   2.205   0.966   6.370
  579SOL    HW218880   2.219   0.855   6.267
  580SOL     OW18881   4.694   0.619   6.770
  580SOL    HW118882   4.625   0.637   6.835
  580SOL    HW218883   4.695   0.696   6.713
  581SOL     OW18884   5.321   4.017   7.403
  581SOL    HW118885   5.324   4.055   7.491
  581SOL    HW218886   5.413   4.015   7.375
  582SOL     OW18887   3.718   0.302   1.510
  582SOL    HW118888   3.736   0.281   1.601
  582SOL    HW218889   3.801   0.286   1.465
  583SOL     OW18890   0.278   0.113   0.325
  583SOL    HW118891   0.243   0.119   0.414
  583SOL    HW218892   0.218   0.167   0.273
  584SOL     OW18893   3.618   2.022   7.824
  584SOL    HW118894   3.631   2.116   7.821
  584SOL    HW218895   3.702   1.985   7.798
  585SOL     OW18896   2.484   2.042   0.465
  585SOL    HW118897   2.457   2.095   0.390
  585SOL    HW218898   2.460   1.952   0.442
  586SOL     OW18899   4.640   5.649   6.772
  586SOL    HW118900   4.573   5.665   6.839
  586SOL    HW218901   4.670   5.559   6.789
  587SOL     OW18902   4.971   1.344   1.057
  587SOL    HW118903   4.982   1.316   0.966
  587SOL    HW218904   4.999   1.268   1.109
  588SOL     OW18905   0.687   1.467   1.712
  588SOL    HW118906   0.750   1.455   1.641
  588SOL    HW218907   0.741   1.478   1.791
  589SOL     OW18908   1.542   5.899   7.619
  589SOL    HW118909   1.489   5.880   7.696
  589SOL    HW218910   1.630   5.911   7.653
  590SOL     OW18911   0.786   6.112   7.720
  590SOL    HW118912   0.820   6.024   7.702
  590SOL    HW218913   0.708   6.119   7.666
  591SOL     OW18914   1.129   2.502   2.200
  591SOL    HW118915   1.112   2.593   2.173
  591SOL    HW218916   1.044   2.459   2.195
  592SOL     OW18917   0.531   4.268   1.193
  592SOL    HW118918   0.613   4.248   1.239
  592SOL    HW218919   0.558   4.286   1.103
  593SOL     OW18920   4.018   0.460   6.614
  593SOL    HW118921   4.054   0.383   6.656
  593SOL    HW218922   3.934   0.431   6.578
  594SOL     OW18923   2.994   2.007   5.981
  594SOL    HW118924   2.961   2.023   6.069
  594SOL    HW218925   2.925   1.960   5.936
  595SOL     OW18926   1.599   2.332   6.092
  595SOL    HW118927   1.678   2.300   6.048
  595SOL    HW218928   1.577   2.413   6.046
  596SOL     OW18929   2.524   1.214   0.084
  596SOL    HW118930   2.448   1.219   0.026
  596SOL    HW218931   2.549   1.305   0.099
  597SOL     OW18932   1.050   3.053   5.561
  597SOL    HW118933   0.990   3.007   5.503
  597SOL    HW218934   1.100   2.983   5.605
  598SOL     OW18935   0.007   4.966   2.027
  598SOL    HW118936  -0.063   5.024   2.058
  598SOL    HW218937   0.078   5.026   2.004
  599SOL     OW18938   5.908   3.348   6.536
  599SOL    HW118939   5.891   3.435   6.500
  599SOL    HW218940   5.823   3.305   6.537
  600SOL     OW18941   1.245   3.217   1.120
  600SOL    HW118942   1.327   3.170   1.103
  600SOL    HW218943   1.191   3.201   1.042
  601SOL     OW18944   1.081   1.419   2.055
  601SOL    HW118945   1.015   1.388   2.116
  601SOL    HW218946   1.161   1.426   2.107
  602SOL     OW18947   6.094   2.068   0.018
  602SOL    HW118948   6.037   2.144   0.030
  602SOL    HW218949   6.041   1.993   0.044
  603SOL     OW18950   3.715   6.179   6.665
  603SOL    HW118951   3.651   6.152   6.599
  603SOL    HW218952   3.680   6.145   6.747
  604SOL     OW18953   1.000   5.420   1.121
  604SOL    HW118954   1.041   5.386   1.042
  604SOL    HW218955   0.929   5.476   1.090
  605SOL     OW18956   5.764   0.309   6.945
  605SOL    HW118957   5.797   0.266   7.024
  605SOL    HW218958   5.737   0.396   6.975
  606SOL     OW18959   2.168   0.983   6.568
  606SOL    HW118960   2.158   0.906   6.623
  606SOL    HW218961   2.218   1.045   6.621
  607SOL     OW18962   3.944   4.147   5.600
  607SOL    HW118963   3.852   4.124   5.609
  607SOL    HW218964   3.991   4.076   5.645
  608SOL     OW18965   4.950   0.935   6.403
  608SOL    HW118966   4.900   1.014   6.424
  608SOL    HW218967   5.034   0.947   6.446
  609SOL     OW18968   0.702   5.355   6.828
  609SOL    HW118969   0.639   5.307   6.882
  609SOL    HW218970   0.711   5.440   6.872
  610SOL     OW18971   3.801   0.069   7.531
  610SOL    HW118972   3.760   0.151   7.558
  610SOL    HW218973   3.885   0.067   7.577
  611SOL     OW18974   1.932   4.473   5.458
  611SOL    HW118975   1.904   4.560   5.430
  611SOL    HW218976   1.853   4.430   5.488
  612SOL     OW18977   6.081   5.255   0.929
  612SOL    HW118978   6.010   5.240   0.992
  612SOL    HW218979   6.039   5.244   0.844
  613SOL     OW18980   5.552   1.039   0.146
  613SOL    HW118981   5.540   1.117   0.092
  613SOL    HW218982   5.521   1.065   0.233
  614SOL     OW18983   3.611   0.656   1.480
  614SOL    HW118984   3.652   0.628   1.562
  614SOL    HW218985   3.681   0.648   1.415
  615SOL     OW18986   5.063   2.665   0.745
  615SOL    HW118987   5.104   2.691   0.662
  615SOL    HW218988   5.056   2.569   0.739
  616SOL     OW18989   0.535   4.384   2.452
  616SOL    HW118990   0.560   4.405   2.362
  616SOL    HW218991   0.572   4.455   2.504
  617SOL     OW18992   1.101   1.245   5.619
  617SOL    HW118993   1.017   1.268   5.580
  617SOL    HW218994   1.148   1.328   5.625
  618SOL     OW18995   5.448   2.352   7.722
  618SOL    HW118996   5.489   2.318   7.643
  618SOL    HW218997   5.357   2.322   7.717
  619SOL     OW18998   1.327   0.560   6.652
  619SOL    HW118999   1.293   0.642   6.616
  619SOL    HW219000   1.389   0.588   6.719
  620SOL     OW19001   2.562   0.907   5.977
  620SOL    HW119002   2.592   0.979   5.922
  620SOL    HW219003   2.528   0.949   6.056
  621SOL     OW19004   1.843   2.455   0.003
  621SOL    HW119005   1.908   2.436  -0.064
  621SOL    HW219006   1.854   2.548   0.021
  622SOL     OW19007   5.338   1.000   7.647
  622SOL    HW119008   5.297   0.920   7.614
  622SOL    HW219009   5.429   0.995   7.617
  623SOL     OW19010   5.923   0.050   6.345
  623SOL    HW119011   5.942  -0.028   6.292
  623SOL    HW219012   5.830   0.041   6.367
  624SOL     OW19013   3.578   3.378   1.149
  624SOL    HW119014   3.498   3.430   1.139
  624SOL    HW219015   3.581   3.324   1.070
  625SOL     OW19016   5.434   2.492   7.049
  625SOL    HW119017   5.494   2.459   6.981
  625SOL    HW219018   5.404   2.413   7.094
  626SOL     OW19019   4.770   0.897   5.317
  626SOL    HW119020   4.709   0.824   5.310
  626SOL    HW219021   4.854   0.860   5.289
  627SOL     OW19022   0.556   3.243   7.238
  627SOL    HW119023   0.575   3.149   7.229
  627SOL    HW219024   0.479   3.257   7.184
  628SOL     OW19025   2.932   1.628   6.240
  628SOL    HW119026   2.900   1.715   6.262
  628SOL    HW219027   2.888   1.606   6.157
  629SOL     OW19028   4.926   2.821   7.164
  629SOL    HW119029   4.970   2.780   7.089
  629SOL    HW219030   4.864   2.882   7.124
  630SOL     OW19031   6.221   3.927   0.889
  630SOL    HW119032   6.208   3.853   0.829
  630SOL    HW219033   6.203   3.891   0.975
  631SOL     OW19034   0.672   1.795   1.365
  631SOL    HW119035   0.712   1.761   1.285
  631SOL    HW219036   0.672   1.890   1.354
  632SOL     OW19037   3.355   2.372   1.548
  632SOL    HW119038   3.390   2.292   1.588
  632SOL    HW219039   3.329   2.427   1.622
  633SOL     OW19040   1.256   4.147   0.677
  633SOL    HW119041   1.264   4.131   0.771
  633SOL    HW219042   1.309   4.078   0.637
  634SOL     OW19043   1.855   6.039   6.219
  634SOL    HW119044   1.767   6.074   6.207
  634SOL    HW219045   1.865   6.029   6.313
  635SOL     OW19046   0.133   4.505   7.122
  635SOL    HW119047   0.147   4.439   7.191
  635SOL    HW219048   0.215   4.555   7.122
  636SOL     OW19049   1.129   0.377   6.032
  636SOL    HW119050   1.137   0.317   5.958
  636SOL    HW219051   1.205   0.359   6.086
  637SOL     OW19052   4.012   4.675   1.243
  637SOL    HW119053   3.928   4.718   1.261
  637SOL    HW219054   4.069   4.747   1.215
  638SOL     OW19055   4.664   1.064   1.801
  638SOL    HW119056   4.625   1.148   1.778
  638SOL    HW219057   4.756   1.085   1.819
  639SOL     OW19058   3.251   5.819   1.205
  639SOL    HW119059   3.243   5.852   1.295
  639SOL    HW219060   3.341   5.838   1.181
  640SOL     OW19061   5.556   4.494   6.228
  640SOL    HW119062   5.566   4.506   6.134
  640SOL    HW219063   5.593   4.574   6.266
  641SOL     OW19064   3.250   3.454   5.796
  641SOL    HW119065   3.280   3.364   5.787
  641SOL    HW219066   3.160   3.446   5.827
  642SOL     OW19067   1.841   5.759   7.871
  642SOL    HW119068   1.754   5.730   7.898
  642SOL    HW219069   1.880   5.682   7.830
  643SOL     OW19070   3.594   2.732   7.445
  643SOL    HW119071   3.650   2.781   7.385
  643SOL    HW219072   3.627   2.755   7.532
  644SOL     OW19073   4.025   1.301   7.015
  644SOL    HW119074   4.044   1.386   7.055
  644SOL    HW219075   3.930   1.293   7.020
  645SOL     OW19076   0.315   2.990   5.845
  645SOL    HW119077   0.376   3.046   5.796
  645SOL    HW219078   0.297   2.917   5.786
  646SOL     OW19079   6.275   4.860   7.533
  646SOL    HW119080   6.193   4.907   7.519
  646SOL    HW219081   6.302   4.830   7.446
  647SOL     OW19082   2.006   3.493   1.649
  647SOL    HW119083   2.027   3.404   1.675
  647SOL    HW219084   1.937   3.520   1.710
  648SOL     OW19085   5.146   5.251   6.526
  648SOL    HW119086   5.132   5.172   6.578
  648SOL    HW219087   5.206   5.304   6.579
  649SOL     OW19088   5.641   0.103   0.332
  649SOL    HW119089   5.565   0.065   0.377
  649SOL    HW219090   5.610   0.121   0.243
  650SOL     OW19091   4.290   4.816   7.669
  650SOL    HW119092   4.251   4.765   7.740
  650SOL    HW219093   4.312   4.752   7.602
  651SOL     OW19094   0.453   1.617   1.045
  651SOL    HW119095   0.472   1.584   1.134
  651SOL    HW219096   0.458   1.539   0.990
  652SOL     OW19097   1.061   4.793  -0.002
  652SOL    HW119098   0.984   4.742  -0.027
  652SOL    HW219099   1.044   4.819   0.089
  653SOL     OW19100   5.746   0.327   1.281
  653SOL    HW119101   5.755   0.316   1.376
  653SOL    HW219102   5.717   0.418   1.270
  654SOL     OW19103   4.707   6.389   7.326
  654SOL    HW119104   4.710   6.312   7.383
  654SOL    HW219105   4.613   6.408   7.317
  655SOL     OW19106   3.511   4.264   6.169
  655SOL    HW119107   3.531   4.328   6.238
  655SOL    HW219108   3.480   4.318   6.096
  656SOL     OW19109   0.683   1.387   6.937
  656SOL    HW119110   0.777   1.376   6.928
  656SOL    HW219111   0.645   1.311   6.892
  657SOL     OW19112   1.813   4.479   0.838
  657SOL    HW119113   1.721   4.502   0.825
  657SOL    HW219114   1.861   4.537   0.780
  658SOL     OW19115   0.611   1.635   7.017
  658SOL    HW119116   0.625   1.677   6.932
  658SOL    HW219117   0.606   1.542   6.998
  659SOL     OW19118   0.341   3.809   6.746
  659SOL    HW119119   0.340   3.879   6.811
  659SOL    HW219120   0.346   3.855   6.662
  660SOL     OW19121   5.171   3.001   1.173
  660SOL    HW119122   5.181   2.905   1.174
  660SOL    HW219123   5.249   3.033   1.219
  661SOL     OW19124   2.445   1.840   0.721
  661SOL    HW119125   2.400   1.890   0.789
  661SOL    HW219126   2.522   1.892   0.700
  662SOL     OW19127   3.245   3.915   6.951
  662SOL    HW119128   3.328   3.934   6.996
  662SOL    HW219129   3.193   3.995   6.961
  663SOL     OW19130   4.856   2.261   6.313
  663SOL    HW119131   4.813   2.244   6.229
  663SOL    HW219132   4.886   2.351   6.306
  664SOL     OW19133   6.008   5.084   0.228
  664SOL    HW119134   5.967   5.009   0.272
  664SOL    HW219135   5.937   5.146   0.214
  665SOL     OW19136   3.145   5.122   7.383
  665SOL    HW119137   3.224   5.176   7.388
  665SOL    HW219138   3.162   5.048   7.441
  666SOL     OW19139   2.733   3.634   5.842
  666SOL    HW119140   2.740   3.542   5.817
  666SOL    HW219141   2.679   3.673   5.773
  667SOL     OW19142   1.269   3.954   1.238
  667SOL    HW119143   1.183   3.920   1.213
  667SOL    HW219144   1.250   4.034   1.287
  668SOL     OW19145   5.365   2.291   1.928
  668SOL    HW119146   5.288   2.242   1.899
  668SOL    HW219147   5.409   2.317   1.847
  669SOL     OW19148   2.208   1.213   7.011
  669SOL    HW119149   2.168   1.298   7.028
  669SOL    HW219150   2.288   1.234   6.962
  670SOL     OW19151   3.703   0.714   5.906
  670SOL    HW119152   3.715   0.672   5.992
  670SOL    HW219153   3.630   0.667   5.866
  671SOL     OW19154   3.124   0.303   5.663
  671SOL    HW119155   3.044   0.282   5.616
  671SOL    HW219156   3.186   0.328   5.595
  672SOL     OW19157   4.143   3.245   7.811
  672SOL    HW119158   4.200   3.169   7.824
  672SOL    HW219159   4.189   3.298   7.746
  673SOL     OW19160   4.639   5.474   1.435
  673SOL    HW119161   4.701   5.434   1.496
  673SOL    HW219162   4.624   5.562   1.471
  674SOL     OW19163   5.436   3.266   6.661
  674SOL    HW119164   5.434   3.361   6.652
  674SOL    HW219165   5.515   3.239   6.613
  675SOL     OW19166   5.342   0.113   6.628
  675SOL    HW119167   5.354   0.188   6.685
  675SOL    HW219168   5.291   0.146   6.554
  676SOL     OW19169   0.268   0.595   1.062
  676SOL    HW119170   0.296   0.655   0.993
  676SOL    HW219171   0.280   0.644   1.143
  677SOL     OW19172   1.790   5.301   6.641
  677SOL    HW119173   1.879   5.328   6.620
  677SOL    HW219174   1.737   5.333   6.568
  678SOL     OW19175   6.191   0.805   5.204
  678SOL    HW119176   6.172   0.857   5.126
  678SOL    HW219177   6.108   0.803   5.252
  679SOL     OW19178   4.361   5.787   6.688
  679SOL    HW119179   4.425   5.813   6.622
  679SOL    HW219180   4.414   5.764   6.765
  680SOL     OW19181   4.040   6.303   1.186
  680SOL    HW119182   4.029   6.267   1.098
  680SOL    HW219183   4.098   6.240   1.230
  681SOL     OW19184   0.624   2.587   6.444
  681SOL    HW119185   0.640   2.509   6.391
  681SOL    HW219186   0.604   2.552   6.532
  682SOL     OW19187   2.362   5.019   0.441
  682SOL    HW119188   2.414   5.083   0.391
  682SOL    HW219189   2.368   5.048   0.532
  683SOL     OW19190   4.842   2.669   1.194
  683SOL    HW119191   4.769   2.725   1.222
  683SOL    HW219192   4.845   2.679   1.099
  684SOL     OW19193   1.227   2.633   7.126
  684SOL    HW119194   1.308   2.583   7.137
  684SOL    HW219195   1.160   2.567   7.109
  685SOL     OW19196   5.383   4.142   2.422
  685SOL    HW119197   5.335   4.194   2.486
  685SOL    HW219198   5.403   4.204   2.352
  686SOL     OW19199   2.544   3.581   5.552
  686SOL    HW119200   2.576   3.553   5.466
  686SOL    HW219201   2.540   3.502   5.604
  687SOL     OW19202   4.335   5.262   0.663
  687SOL    HW119203   4.287   5.228   0.739
  687SOL    HW219204   4.282   5.237   0.588
  688SOL     OW19205   0.588   3.975   1.429
  688SOL    HW119206   0.650   4.047   1.417
  688SOL    HW219207   0.643   3.899   1.446
  689SOL     OW19208   2.990   2.571   5.536
  689SOL    HW119209   3.022   2.489   5.574
  689SOL    HW219210   3.024   2.571   5.447
  690SOL     OW19211   4.113   2.234   1.380
  690SOL    HW119212   4.080   2.179   1.450
  690SOL    HW219213   4.146   2.312   1.424
  691SOL     OW19214   4.542   6.359   6.546
  691SOL    HW119215   4.480   6.320   6.484
  691SOL    HW219216   4.518   6.321   6.631
  692SOL     OW19217   2.125   4.185   7.251
  692SOL    HW119218   2.129   4.147   7.164
  692SOL    HW219219   2.208   4.231   7.261
  693SOL     OW19220   4.965   4.797   1.219
  693SOL    HW119221   4.922   4.788   1.304
  693SOL    HW219222   4.932   4.724   1.168
  694SOL     OW19223   0.874   1.111   1.201
  694SOL    HW119224   0.801   1.112   1.139
  694SOL    HW219225   0.838   1.070   1.280
  695SOL     OW19226   3.518   1.747   1.534
  695SOL    HW119227   3.530   1.836   1.567
  695SOL    HW219228   3.437   1.717   1.576
  696SOL     OW19229   3.573   2.454   0.538
  696SOL    HW119230   3.639   2.385   0.529
  696SOL    HW219231   3.613   2.531   0.498
  697SOL     OW19232   2.557   1.361   6.485
  697SOL    HW119233   2.643   1.403   6.483
  697SOL    HW219234   2.557   1.310   6.566
  698SOL     OW19235   0.212   0.937   1.358
  698SOL    HW119236   0.123   0.916   1.329
  698SOL    HW219237   0.236   0.865   1.416
  699SOL     OW19238   3.851   5.504   7.047
  699SOL    HW119239   3.781   5.557   7.085
  699SOL    HW219240   3.813   5.468   6.967
  700SOL     OW19241   4.234   4.685   7.916
  700SOL    HW119242   4.164   4.626   7.942
  700SOL    HW219243   4.308   4.661   7.973
  701SOL     OW19244   0.898   2.259   0.865
  701SOL    HW119245   0.933   2.306   0.941
  701SOL    HW219246   0.826   2.207   0.901
  702SOL     OW19247   0.286   4.572   2.092
  702SOL    HW119248   0.318   4.502   2.035
  702SOL    HW219249   0.223   4.620   2.037
  703SOL     OW19250   4.838   1.642   0.215
  703SOL    HW119251   4.787   1.596   0.149
  703SOL    HW219252   4.886   1.709   0.166
  704SOL     OW19253   4.544   3.258   0.467
  704SOL    HW119254   4.524   3.351   0.459
  704SOL    HW219255   4.639   3.253   0.451
  705SOL     OW19256   6.146   4.091   5.952
  705SOL    HW119257   6.230   4.130   5.927
  705SOL    HW219258   6.101   4.161   5.999
  706SOL     OW19259   5.168   3.907   0.296
  706SOL    HW119260   5.085   3.914   0.345
  706SOL    HW219261   5.165   3.820   0.257
  707SOL     OW19262   6.053   5.895   0.017
  707SOL    HW119263   6.000   5.869   0.093
  707SOL    HW219264   6.061   5.815  -0.034
  708SOL     OW19265   5.786   1.136   1.239
  708SOL    HW119266   5.859   1.131   1.300
  708SOL    HW219267   5.723   1.194   1.282
  709SOL     OW19268   2.212   4.656   5.715
  709SOL    HW119269   2.216   4.696   5.628
  709SOL    HW219270   2.173   4.571   5.700
  710SOL     OW19271   4.808   0.002   1.767
  710SOL    HW119272   4.824   0.089   1.730
  710SOL    HW219273   4.886  -0.048   1.742
  711SOL     OW19274   3.730   2.976   7.365
  711SOL    HW119275   3.674   3.035   7.312
  711SOL    HW219276   3.708   2.998   7.455
  712SOL     OW19277   4.935   1.003   0.792
  712SOL    HW119278   4.933   1.024   0.699
  712SOL    HW219279   5.012   1.049   0.826
  713SOL     OW19280   5.426   5.872   7.244
  713SOL    HW119281   5.364   5.901   7.177
  713SOL    HW219282   5.406   5.926   7.320
  714SOL     OW19283   0.957   0.766   6.003
  714SOL    HW119284   0.973   0.703   6.074
  714SOL    HW219285   1.037   0.819   6.000
  715SOL     OW19286   0.098   4.070   7.546
  715SOL    HW119287   0.002   4.076   7.546
  715SOL    HW219288   0.128   4.160   7.542
  716SOL     OW19289   5.204   1.425   0.466
  716SOL    HW119290   5.126   1.423   0.412
  716SOL    HW219291   5.185   1.490   0.534
  717SOL     OW19292   3.876   0.176   6.822
  717SOL    HW119293   3.898   0.083   6.811
  717SOL    HW219294   3.844   0.182   6.912
  718SOL     OW19295   4.823   4.294   0.836
  718SOL    HW119296   4.766   4.343   0.895
  718SOL    HW219297   4.778   4.297   0.752
  719SOL     OW19298   4.026   2.496   6.208
  719SOL    HW119299   4.010   2.433   6.277
  719SOL    HW219300   3.976   2.463   6.133
  720SOL     OW19301   5.133   1.085   5.548
  720SOL    HW119302   5.144   1.127   5.633
  720SOL    HW219303   5.040   1.094   5.528
  721SOL     OW19304   2.316   3.769   0.446
  721SOL    HW119305   2.237   3.800   0.491
  721SOL    HW219306   2.306   3.674   0.442
  722SOL     OW19307   2.658   6.027   2.264
  722SOL    HW119308   2.683   6.109   2.307
  722SOL    HW219309   2.602   6.054   2.191
  723SOL     OW19310   2.218   1.621   1.295
  723SOL    HW119311   2.281   1.631   1.366
  723SOL    HW219312   2.170   1.540   1.316
  724SOL     OW19313   2.502   2.227   0.132
  724SOL    HW119314   2.592   2.201   0.114
  724SOL    HW219315   2.449   2.154   0.099
  725SOL     OW19316   2.228   5.172   1.582
  725SOL    HW119317   2.235   5.122   1.663
  725SOL    HW219318   2.244   5.107   1.513
  726SOL     OW19319   3.054   1.117   1.526
  726SOL    HW119320   3.079   1.196   1.575
  726SOL    HW219321   2.981   1.081   1.575
  727SOL     OW19322   0.799   6.139   7.021
  727SOL    HW119323   0.830   6.230   7.025
  727SOL    HW219324   0.827   6.107   6.936
  728SOL     OW19325   3.632   4.490   6.319
  728SOL    HW119326   3.723   4.515   6.330
  728SOL    HW219327   3.602   4.541   6.243
  729SOL     OW19328   0.847   5.174   7.650
  729SOL    HW119329   0.912   5.183   7.720
  729SOL    HW219330   0.898   5.155   7.572
  730SOL     OW19331   0.827   4.139   0.880
  730SOL    HW119332   0.865   4.081   0.814
  730SOL    HW219333   0.788   4.080   0.944
  731SOL     OW19334   4.685   6.172   7.769
  731SOL    HW119335   4.616   6.147   7.708
  731SOL    HW219336   4.726   6.249   7.729
  732SOL     OW19337   2.111   3.594   6.168
  732SOL    HW119338   2.150   3.656   6.229
  732SOL    HW219339   2.162   3.513   6.180
  733SOL     OW19340   3.205   4.449   7.520
  733SOL    HW119341   3.287   4.399   7.510
  733SOL    HW219342   3.168   4.450   7.432
  734SOL     OW19343   0.882   1.711   1.544
  734SOL    HW119344   0.827   1.732   1.469
  734SOL    HW219345   0.840   1.755   1.618
  735SOL     OW19346   0.339   4.641   7.229
  735SOL    HW119347   0.370   4.570   7.285
  735SOL    HW219348   0.400   4.713   7.246
  736SOL     OW19349   6.077   4.117   6.245
  736SOL    HW119350   6.172   4.121   6.240
  736SOL    HW219351   6.047   4.190   6.191
  737SOL     OW19352   2.621   2.377   7.493
  737SOL    HW119353   2.527   2.377   7.474
  737SOL    HW219354   2.626   2.373   7.588
  738SOL     OW19355   0.076   5.906   6.757
  738SOL    HW119356   0.137   5.979   6.753
  738SOL    HW219357   0.132   5.828   6.757
  739SOL     OW19358   5.605   1.857   0.314
  739SOL    HW119359   5.663   1.783   0.294
  739SOL    HW219360   5.520   1.816   0.334
  740SOL     OW19361   3.884   0.279   6.408
  740SOL    HW119362   3.822   0.300   6.338
  740SOL    HW219363   3.829   0.260   6.484
  741SOL     OW19364   5.927   3.036   7.644
  741SOL    HW119365   5.842   3.069   7.675
  741SOL    HW219366   5.941   2.956   7.694
  742SOL     OW19367   3.247   1.049   7.471
  742SOL    HW119368   3.191   1.084   7.539
  742SOL    HW219369   3.272   1.125   7.418
  743SOL     OW19370   6.291   5.028   7.084
  743SOL    HW119371   6.322   5.102   7.137
  743SOL    HW219372   6.339   5.035   7.001
  744SOL     OW19373   1.701   0.080   0.013
  744SOL    HW119374   1.734  -0.001  -0.026
  744SOL    HW219375   1.662   0.128  -0.060
  745SOL     OW19376   0.219   0.803   6.928
  745SOL    HW119377   0.149   0.764   6.981
  745SOL    HW219378   0.289   0.820   6.991
  746SOL     OW19379   1.455   3.792   2.327
  746SOL    HW119380   1.518   3.828   2.264
  746SOL    HW219381   1.403   3.867   2.355
  747SOL     OW19382   6.279   4.628   7.700
  747SOL    HW119383   6.265   4.718   7.671
  747SOL    HW219384   6.368   4.608   7.672
  748SOL     OW19385   0.353   4.293   0.107
  748SOL    HW119386   0.259   4.275   0.107
  748SOL    HW219387   0.375   4.308   0.199
  749SOL     OW19388   5.296   2.169   5.937
  749SOL    HW119389   5.356   2.119   5.882
  749SOL    HW219390   5.313   2.260   5.914
  750SOL     OW19391   1.018   5.922   6.324
  750SOL    HW119392   0.970   5.878   6.254
  750SOL    HW219393   1.058   5.998   6.281
  751SOL     OW19394   1.395   6.261   0.505
  751SOL    HW119395   1.375   6.331   0.443
  751SOL    HW219396   1.444   6.304   0.575
  752SOL     OW19397   4.742   4.605   0.595
  752SOL    HW119398   4.792   4.625   0.674
  752SOL    HW219399   4.685   4.533   0.620
  753SOL     OW19400   2.063   3.640   1.422
  753SOL    HW119401   2.002   3.607   1.356
  753SOL    HW219402   2.037   3.595   1.502
  754SOL     OW19403   5.870   4.812   0.251
  754SOL    HW119404   5.794   4.757   0.268
  754SOL    HW219405   5.878   4.813   0.156
  755SOL     OW19406   4.666   0.285   1.447
  755SOL    HW119407   4.640   0.358   1.503
  755SOL    HW219408   4.744   0.249   1.489
  756SOL     OW19409   2.741   1.192   6.640
  756SOL    HW119410   2.778   1.148   6.563
  756SOL    HW219411   2.766   1.283   6.630
  757SOL     OW19412   3.419   4.111   1.410
  757SOL    HW119413   3.414   4.121   1.505
  757SOL    HW219414   3.341   4.155   1.377
  758SOL     OW19415   2.607   5.172   0.811
  758SOL    HW119416   2.671   5.231   0.849
  758SOL    HW219417   2.658   5.113   0.755
  759SOL     OW19418   6.335   1.342   0.831
  759SOL    HW119419   6.365   1.359   0.742
  759SOL    HW219420   6.336   1.247   0.840
  760SOL     OW19421   3.258   3.345   1.112
  760SOL    HW119422   3.235   3.379   1.198
  760SOL    HW219423   3.191   3.381   1.053
  761SOL     OW19424   1.351   4.032   2.388
  761SOL    HW119425   1.301   4.089   2.447
  761SOL    HW219426   1.359   4.084   2.308
  762SOL     OW19427   1.627   3.849   2.113
  762SOL    HW119428   1.717   3.817   2.111
  762SOL    HW219429   1.619   3.903   2.034
  763SOL     OW19430   5.381   4.278   1.472
  763SOL    HW119431   5.348   4.354   1.520
  763SOL    HW219432   5.311   4.256   1.411
  764SOL     OW19433   2.701   1.263   0.960
  764SOL    HW119434   2.772   1.294   1.016
  764SOL    HW219435   2.648   1.207   1.017
  765SOL     OW19436   1.269   4.177   0.223
  765SOL    HW119437   1.219   4.219   0.154
  765SOL    HW219438   1.356   4.216   0.218
  766SOL     OW19439   0.602   3.269   0.936
  766SOL    HW119440   0.655   3.320   0.997
  766SOL    HW219441   0.649   3.273   0.853
  767SOL     OW19442   0.406   1.476   7.392
  767SOL    HW119443   0.344   1.453   7.461
  767SOL    HW219444   0.469   1.404   7.391
  768SOL     OW19445   6.094   2.214   7.242
  768SOL    HW119446   6.182   2.177   7.252
  768SOL    HW219447   6.103   2.305   7.270
  769SOL     OW19448   5.909   1.163   0.313
  769SOL    HW119449   5.974   1.150   0.382
  769SOL    HW219450   5.857   1.082   0.313
  770SOL     OW19451   1.351   2.261   6.521
  770SOL    HW119452   1.369   2.335   6.579
  770SOL    HW219453   1.259   2.272   6.497
  771SOL     OW19454   5.217   2.630   7.645
  771SOL    HW119455   5.203   2.721   7.619
  771SOL    HW219456   5.203   2.580   7.565
  772SOL     OW19457   3.274   3.861   0.084
  772SOL    HW119458   3.361   3.893   0.110
  772SOL    HW219459   3.281   3.766   0.089
  773SOL     OW19460   2.368   1.841   1.209
  773SOL    HW119461   2.315   1.765   1.234
  773SOL    HW219462   2.447   1.834   1.264
  774SOL     OW19463   0.496   2.404   0.386
  774SOL    HW119464   0.558   2.374   0.453
  774SOL    HW219465   0.423   2.442   0.436
  775SOL     OW19466   2.289   0.343   7.045
  775SOL    HW119467   2.351   0.416   7.039
  775SOL    HW219468   2.277   0.330   7.139
  776SOL     OW19469   2.639   6.202   5.857
  776SOL    HW119470   2.606   6.112   5.856
  776SOL    HW219471   2.705   6.204   5.787
  777SOL     OW19472   0.885   3.775   0.177
  777SOL    HW119473   0.882   3.860   0.220
  777SOL    HW219474   0.816   3.779   0.110
  778SOL     OW19475   4.403   5.871   0.385
  778SOL    HW119476   4.310   5.892   0.374
  778SOL    HW219477   4.415   5.790   0.336
  779SOL     OW19478   1.711   1.490   6.494
  779SOL    HW119479   1.725   1.560   6.431
  779SOL    HW219480   1.782   1.428   6.477
  780SOL     OW19481   3.885   6.332   1.813
  780SOL    HW119482   3.901   6.426   1.806
  780SOL    HW219483   3.807   6.325   1.868
  781SOL     OW19484   5.050   4.891   6.551
  781SOL    HW119485   5.009   4.805   6.545
  781SOL    HW219486   5.047   4.913   6.644
  782SOL     OW19487   2.908   1.316   0.704
  782SOL    HW119488   2.895   1.410   0.691
  782SOL    HW219489   2.819   1.280   0.710
  783SOL     OW19490   5.638   2.978   6.775
  783SOL    HW119491   5.684   2.894   6.778
  783SOL    HW219492   5.547   2.955   6.755
  784SOL     OW19493   6.327   4.438   6.963
  784SOL    HW119494   6.399   4.463   7.021
  784SOL    HW219495   6.259   4.404   7.021
  785SOL     OW19496   2.333   0.752   6.074
  785SOL    HW119497   2.368   0.689   6.135
  785SOL    HW219498   2.409   0.803   6.045
  786SOL     OW19499   4.780   4.064   1.114
  786SOL    HW119500   4.787   3.984   1.061
  786SOL    HW219501   4.718   4.041   1.184
  787SOL     OW19502   2.079   1.733   7.356
  787SOL    HW119503   2.091   1.787   7.278
  787SOL    HW219504   1.996   1.763   7.393
  788SOL     OW19505   0.803   0.246   5.839
  788SOL    HW119506   0.814   0.263   5.746
  788SOL    HW219507   0.728   0.188   5.845
  789SOL     OW19508   4.988   6.403   7.237
  789SOL    HW119509   5.043   6.328   7.215
  789SOL    HW219510   4.900   6.368   7.242
  790SOL     OW19511   5.130   1.010   0.076
  790SOL    HW119512   5.167   0.936   0.027
  790SOL    HW219513   5.198   1.076   0.075
  791SOL     OW19514   6.107   3.511   7.506
  791SOL    HW119515   6.109   3.416   7.519
  791SOL    HW219516   6.081   3.546   7.591
  792SOL     OW19517   0.826   0.039   7.179
  792SOL    HW119518   0.867   0.124   7.196
  792SOL    HW219519   0.825  -0.004   7.265
  793SOL     OW19520   0.886   4.726   1.207
  793SOL    HW119521   0.936   4.739   1.126
  793SOL    HW219522   0.915   4.642   1.240
  794SOL     OW19523   4.144   5.779   1.906
  794SOL    HW119524   4.125   5.869   1.934
  794SOL    HW219525   4.093   5.767   1.826
  795SOL     OW19526   3.920   2.403   0.100
  795SOL    HW119527   3.842   2.427   0.149
  795SOL    HW219528   3.991   2.408   0.164
  796SOL     OW19529   3.244   0.968   6.808
  796SOL    HW119530   3.262   0.875   6.823
  796SOL    HW219531   3.323   1.001   6.766
  797SOL     OW19532   1.824   1.092   2.562
  797SOL    HW119533   1.753   1.086   2.498
  797SOL    HW219534   1.836   1.001   2.591
  798SOL     OW19535   0.343   5.344   1.721
  798SOL    HW119536   0.354   5.293   1.802
  798SOL    HW219537   0.255   5.380   1.727
  799SOL     OW19538   5.779   1.595   0.426
  799SOL    HW119539   5.817   1.634   0.505
  799SOL    HW219540   5.848   1.538   0.392
  800SOL     OW19541   4.261   5.925   0.113
  800SOL    HW119542   4.203   5.857   0.148
  800SOL    HW219543   4.226   6.006   0.148
  801SOL     OW19544   3.610   1.624   6.032
  801SOL    HW119545   3.657   1.579   6.103
  801SOL    HW219546   3.554   1.687   6.077
  802SOL     OW19547   2.966   1.647   5.684
  802SOL    HW119548   2.919   1.715   5.636
  802SOL    HW219549   3.057   1.656   5.653
  803SOL     OW19550   4.265   1.502   5.720
  803SOL    HW119551   4.218   1.577   5.754
  803SOL    HW219552   4.260   1.511   5.625
  804SOL     OW19553   2.714   1.880   6.942
  804SOL    HW119554   2.788   1.942   6.945
  804SOL    HW219555   2.639   1.933   6.970
  805SOL     OW19556   1.330   3.971   0.492
  805SOL    HW119557   1.261   3.948   0.430
  805SOL    HW219558   1.398   4.012   0.439
  806SOL     OW19559   3.173   5.744   7.292
  806SOL    HW119560   3.137   5.815   7.345
  806SOL    HW219561   3.188   5.783   7.206
  807SOL     OW19562   1.085   2.793   6.865
  807SOL    HW119563   1.038   2.717   6.898
  807SOL    HW219564   1.128   2.830   6.943
  808SOL     OW19565   2.308   0.857   1.296
  808SOL    HW119566   2.351   0.859   1.210
  808SOL    HW219567   2.298   0.764   1.315
  809SOL     OW19568   1.490   0.520   7.310
  809SOL    HW119569   1.492   0.610   7.343
  809SOL    HW219570   1.565   0.477   7.351
  810SOL     OW19571   4.751   2.123   7.151
  810SOL    HW119572   4.690   2.162   7.088
  810SOL    HW219573   4.787   2.048   7.105
  811SOL     OW19574   0.870   4.631   6.153
  811SOL    HW119575   0.789   4.636   6.103
  811SOL    HW219576   0.843   4.596   6.238
  812SOL     OW19577   2.860   5.882   6.399
  812SOL    HW119578   2.940   5.848   6.359
  812SOL    HW219579   2.851   5.834   6.481
  813SOL     OW19580   1.972   0.851   6.093
  813SOL    HW119581   1.928   0.931   6.064
  813SOL    HW219582   2.064   0.877   6.104
  814SOL     OW19583   5.042   3.226   1.254
  814SOL    HW119584   5.086   3.154   1.208
  814SOL    HW219585   5.101   3.301   1.244
  815SOL     OW19586   3.675   4.945   2.320
  815SOL    HW119587   3.671   5.029   2.274
  815SOL    HW219588   3.642   4.964   2.407
  816SOL     OW19589   0.583   1.202   1.216
  816SOL    HW119590   0.512   1.163   1.266
  816SOL    HW219591   0.574   1.297   1.231
  817SOL     OW19592   0.943   3.292   7.380
  817SOL    HW119593   0.919   3.383   7.363
  817SOL    HW219594   1.012   3.297   7.446
  818SOL     OW19595   3.922   5.968   0.300
  818SOL    HW119596   3.841   5.970   0.248
  818SOL    HW219597   3.959   6.056   0.289
  819SOL     OW19598   0.807   2.548   6.121
  819SOL    HW119599   0.799   2.494   6.043
  819SOL    HW219600   0.718   2.552   6.156
  820SOL     OW19601   5.231   3.622   0.156
  820SOL    HW119602   5.319   3.652   0.131
  820SOL    HW219603   5.246   3.536   0.194
  821SOL     OW19604   2.227   6.048   0.071
  821SOL    HW119605   2.247   6.124   0.126
  821SOL    HW219606   2.296   6.047   0.005
  822SOL     OW19607   3.046   3.059   6.082
  822SOL    HW119608   3.040   3.086   5.991
  822SOL    HW219609   3.119   3.110   6.117
  823SOL     OW19610   3.304   1.663   7.036
  823SOL    HW119611   3.266   1.722   6.971
  823SOL    HW219612   3.269   1.577   7.014
  824SOL     OW19613   0.042   1.316   7.862
  824SOL    HW119614   0.079   1.389   7.911
  824SOL    HW219615  -0.052   1.319   7.882
  825SOL     OW19616   0.247   3.097   0.043
  825SOL    HW119617   0.233   3.149   0.122
  825SOL    HW219618   0.165   3.050   0.030
  826SOL     OW19619   6.231   2.686   2.476
  826SOL    HW119620   6.253   2.690   2.383
  826SOL    HW219621   6.309   2.649   2.518
  827SOL     OW19622   0.361   6.390   1.181
  827SOL    HW119623   0.362   6.325   1.252
  827SOL    HW219624   0.438   6.368   1.128
  828SOL     OW19625   2.937   5.712   1.757
  828SOL    HW119626   2.961   5.642   1.697
  828SOL    HW219627   2.868   5.674   1.811
  829SOL     OW19628   2.632   0.633   5.911
  829SOL    HW119629   2.618   0.719   5.951
  829SOL    HW219630   2.544   0.598   5.899
  830SOL     OW19631   1.631   5.072   7.573
  830SOL    HW119632   1.653   4.978   7.579
  830SOL    HW219633   1.536   5.074   7.575
  831SOL     OW19634   3.844   1.757   6.611
  831SOL    HW119635   3.832   1.848   6.585
  831SOL    HW219636   3.873   1.760   6.701
  832SOL     OW19637   4.499   3.462   7.225
  832SOL    HW119638   4.455   3.507   7.153
  832SOL    HW219639   4.446   3.481   7.302
  833SOL     OW19640   5.063   5.135   1.373
  833SOL    HW119641   5.006   5.204   1.409
  833SOL    HW219642   5.006   5.086   1.314
  834SOL     OW19643   0.248   1.378   0.506
  834SOL    HW119644   0.281   1.452   0.456
  834SOL    HW219645   0.252   1.304   0.445
  835SOL     OW19646   6.317   5.297   6.890
  835SOL    HW119647   6.385   5.294   6.957
  835SOL    HW219648   6.336   5.223   6.833
  836SOL     OW19649   0.701   1.742   0.394
  836SOL    HW119650   0.621   1.770   0.440
  836SOL    HW219651   0.737   1.823   0.359
  837SOL     OW19652   6.387   2.359   0.363
  837SOL    HW119653   6.369   2.390   0.452
  837SOL    HW219654   6.452   2.290   0.374
  838SOL     OW19655   2.427   4.043   0.872
  838SOL    HW119656   2.425   4.004   0.960
  838SOL    HW219657   2.517   4.074   0.862
  839SOL     OW19658   1.913   3.090   7.837
  839SOL    HW119659   1.973   3.089   7.762
  839SOL    HW219660   1.908   3.183   7.861
  840SOL     OW19661   6.164   1.718   6.700
  840SOL    HW119662   6.155   1.639   6.646
  840SOL    HW219663   6.204   1.782   6.641
  841SOL     OW19664   1.463   1.336   1.008
  841SOL    HW119665   1.440   1.353   1.099
  841SOL    HW219666   1.483   1.242   1.005
  842SOL     OW19667   5.705   4.362   2.148
  842SOL    HW119668   5.658   4.445   2.142
  842SOL    HW219669   5.791   4.380   2.110
  843SOL     OW19670   1.045   1.416   7.631
  843SOL    HW119671   1.075   1.460   7.710
  843SOL    HW219672   0.954   1.445   7.620
  844SOL     OW19673   0.956   5.319   6.739
  844SOL    HW119674   0.901   5.241   6.736
  844SOL    HW219675   0.895   5.392   6.732
  845SOL     OW19676   6.229   0.052   6.741
  845SOL    HW119677   6.255  -0.028   6.787
  845SOL    HW219678   6.296   0.116   6.765
  846SOL     OW19679   2.775   2.553   7.141
  846SOL    HW119680   2.870   2.562   7.133
  846SOL    HW219681   2.761   2.524   7.231
  847SOL     OW19682   0.410   4.459   1.332
  847SOL    HW119683   0.445   4.396   1.269
  847SOL    HW219684   0.332   4.494   1.290
  848SOL     OW19685   5.319   4.977   1.311
  848SOL    HW119686   5.285   5.062   1.340
  848SOL    HW219687   5.325   4.925   1.392
  849SOL     OW19688   4.358   4.123   0.535
  849SOL    HW119689   4.319   4.199   0.578
  849SOL    HW219690   4.347   4.051   0.598
  850SOL     OW19691   5.922   1.838   7.398
  850SOL    HW119692   5.910   1.806   7.309
  850SOL    HW219693   5.910   1.932   7.392
  851SOL     OW19694   3.302   5.810   5.773
  851SOL    HW119695   3.357   5.733   5.790
  851SOL    HW219696   3.237   5.809   5.843
  852SOL     OW19697   1.900   4.232   7.015
  852SOL    HW119698   1.957   4.199   6.946
  852SOL    HW219699   1.859   4.310   6.978
  853SOL     OW19700   0.424   2.151   7.655
  853SOL    HW119701   0.403   2.103   7.735
  853SOL    HW219702   0.452   2.237   7.685
  854SOL     OW19703   4.898   3.695   0.892
  854SOL    HW119704   4.935   3.781   0.870
  854SOL    HW219705   4.819   3.716   0.942
  855SOL     OW19706   5.884   0.584   7.541
  855SOL    HW119707   5.960   0.641   7.553
  855SOL    HW219708   5.809   0.644   7.538
  856SOL     OW19709   0.649   5.349   7.616
  856SOL    HW119710   0.617   5.386   7.698
  856SOL    HW219711   0.720   5.290   7.643
  857SOL     OW19712   1.492   4.167   1.335
  857SOL    HW119713   1.405   4.204   1.323
  857SOL    HW219714   1.512   4.124   1.252
  858SOL     OW19715   3.449   2.339   6.998
  858SOL    HW119716   3.370   2.388   7.022
  858SOL    HW219717   3.520   2.403   7.007
  859SOL     OW19718   3.733   2.632   7.738
  859SOL    HW119719   3.662   2.570   7.753
  859SOL    HW219720   3.699   2.715   7.771
  860SOL     OW19721   2.979   5.394   7.461
  860SOL    HW119722   2.944   5.325   7.405
  860SOL    HW219723   2.922   5.469   7.445
  861SOL     OW19724   3.959   1.613   7.148
  861SOL    HW119725   3.997   1.563   7.220
  861SOL    HW219726   3.909   1.682   7.191
  862SOL     OW19727   0.448   6.273   0.205
  862SOL    HW119728   0.382   6.336   0.234
  862SOL    HW219729   0.496   6.251   0.285
  863SOL     OW19730   5.003   4.624   6.676
  863SOL    HW119731   4.970   4.562   6.612
  863SOL    HW219732   4.963   4.597   6.759
  864SOL     OW19733   5.220   5.593   1.475
  864SOL    HW119734   5.125   5.588   1.473
  864SOL    HW219735   5.247   5.592   1.383
  865SOL     OW19736   4.468   1.034   1.267
  865SOL    HW119737   4.478   1.122   1.304
  865SOL    HW219738   4.479   1.046   1.173
  866SOL     OW19739   6.380   3.232   5.797
  866SOL    HW119740   6.458   3.268   5.756
  866SOL    HW219741   6.413   3.169   5.861
  867SOL     OW19742   5.567   2.199   1.668
  867SOL    HW119743   5.556   2.270   1.605
  867SOL    HW219744   5.489   2.145   1.658
  868SOL     OW19745   2.936   2.561   0.644
  868SOL    HW119746   2.936   2.646   0.688
  868SOL    HW219747   2.953   2.498   0.714
  869SOL     OW19748   2.005   5.713   5.530
  869SOL    HW119749   1.970   5.689   5.616
  869SOL    HW219750   2.034   5.630   5.492
  870SOL     OW19751   4.985   2.088   6.509
  870SOL    HW119752   4.968   2.150   6.439
  870SOL    HW219753   4.933   2.120   6.583
  871SOL     OW19754   0.782   0.697   7.061
  871SOL    HW119755   0.824   0.741   7.135
  871SOL    HW219756   0.853   0.683   6.998
  872SOL     OW19757   1.043   3.520   0.115
  872SOL    HW119758   1.019   3.520   0.023
  872SOL    HW219759   0.960   3.503   0.161
  873SOL     OW19760   5.910   5.032   6.212
  873SOL    HW119761   5.992   5.066   6.176
  873SOL    HW219762   5.869   4.985   6.139
  874SOL     OW19763   2.709   0.197   0.298
  874SOL    HW119764   2.738   0.189   0.388
  874SOL    HW219765   2.651   0.121   0.285
  875SOL     OW19766   1.523   3.645   0.916
  875SOL    HW119767   1.514   3.687   0.831
  875SOL    HW219768   1.538   3.718   0.977
  876SOL     OW19769   4.298   2.579   0.007
  876SOL    HW119770   4.265   2.654   0.055
  876SOL    HW219771   4.256   2.585  -0.079
  877SOL     OW19772   4.330   6.250   0.056
  877SOL    HW119773   4.279   6.216   0.130
  877SOL    HW219774   4.419   6.260   0.090
  878SOL     OW19775   1.962   4.914   5.484
  878SOL    HW119776   2.000   4.897   5.570
  878SOL    HW219777   1.953   4.828   5.444
  879SOL     OW19778   0.298   2.897   6.184
  879SOL    HW119779   0.263   2.910   6.096
  879SOL    HW219780   0.357   2.971   6.197
  880SOL     OW19781   3.136   6.215   7.155
  880SOL    HW119782   3.162   6.211   7.063
  880SOL    HW219783   3.214   6.245   7.201
  881SOL     OW19784   2.035   1.011   7.475
  881SOL    HW119785   2.072   1.090   7.435
  881SOL    HW219786   1.941   1.028   7.478
  882SOL     OW19787   1.561   2.082   6.221
  882SOL    HW119788   1.585   2.156   6.277
  882SOL    HW219789   1.635   2.074   6.160
  883SOL     OW19790   0.429   3.880   0.362
  883SOL    HW119791   0.483   3.804   0.340
  883SOL    HW219792   0.470   3.954   0.317
  884SOL     OW19793   1.428   4.042   7.899
  884SOL    HW119794   1.343   3.999   7.884
  884SOL    HW219795   1.409   4.135   7.889
  885SOL     OW19796   0.535   2.472   5.859
  885SOL    HW119797   0.532   2.520   5.776
  885SOL    HW219798   0.534   2.539   5.927
  886SOL     OW19799   0.370   2.192   6.449
  886SOL    HW119800   0.335   2.123   6.506
  886SOL    HW219801   0.433   2.238   6.504
  887SOL     OW19802   6.370   3.680   6.699
  887SOL    HW119803   6.350   3.587   6.694
  887SOL    HW219804   6.427   3.689   6.776
  888SOL     OW19805   5.990   4.738   6.359
  888SOL    HW119806   5.936   4.782   6.293
  888SOL    HW219807   5.957   4.648   6.361
  889SOL     OW19808   2.929   5.645   1.318
  889SOL    HW119809   2.953   5.713   1.381
  889SOL    HW219810   2.869   5.689   1.258
  890SOL     OW19811   0.566   3.968   5.365
  890SOL    HW119812   0.555   3.930   5.453
  890SOL    HW219813   0.622   3.906   5.319
  891SOL     OW19814   6.061   5.402   0.251
  891SOL    HW119815   5.977   5.382   0.291
  891SOL    HW219816   6.049   5.381   0.158
  892SOL     OW19817   2.697   0.169   7.891
  892SOL    HW119818   2.612   0.190   7.929
  892SOL    HW219819   2.747   0.250   7.895
  893SOL     OW19820   5.815   3.794   0.389
  893SOL    HW119821   5.861   3.752   0.461
  893SOL    HW219822   5.862   3.876   0.374
  894SOL     OW19823   2.403   5.092   1.059
  894SOL    HW119824   2.451   5.169   1.089
  894SOL    HW219825   2.466   5.019   1.064
  895SOL     OW19826   3.347   0.749   6.053
  895SOL    HW119827   3.425   0.774   6.104
  895SOL    HW219828   3.274   0.759   6.115
  896SOL     OW19829   2.333   3.008   6.190
  896SOL    HW119830   2.283   2.931   6.161
  896SOL    HW219831   2.283   3.083   6.159
  897SOL     OW19832   3.312   4.133   6.650
  897SOL    HW119833   3.315   4.168   6.739
  897SOL    HW219834   3.241   4.069   6.651
  898SOL     OW19835   3.777   5.572   7.471
  898SOL    HW119836   3.715   5.554   7.401
  898SOL    HW219837   3.728   5.621   7.536
  899SOL     OW19838   0.620   1.096   0.985
  899SOL    HW119839   0.598   1.129   1.072
  899SOL    HW219840   0.538   1.099   0.937
  900SOL     OW19841   5.324   4.938   6.612
  900SOL    HW119842   5.370   5.007   6.565
  900SOL    HW219843   5.240   4.930   6.567
  901SOL     OW19844   0.689   3.076   6.413
  901SOL    HW119845   0.662   3.135   6.484
  901SOL    HW219846   0.781   3.057   6.432
  902SOL     OW19847   0.644   5.039   1.699
  902SOL    HW119848   0.581   5.037   1.627
  902SOL    HW219849   0.603   4.986   1.768
  903SOL     OW19850   1.081   3.928   6.574
  903SOL    HW119851   1.107   3.958   6.488
  903SOL    HW219852   1.086   4.006   6.630
  904SOL     OW19853   2.914   0.758   6.192
  904SOL    HW119854   2.899   0.840   6.145
  904SOL    HW219855   2.854   0.761   6.267
  905SOL     OW19856   4.287   1.202   0.644
  905SOL    HW119857   4.246   1.283   0.675
  905SOL    HW219858   4.366   1.231   0.597
  906SOL     OW19859   4.224   2.011   6.165
  906SOL    HW119860   4.210   1.974   6.078
  906SOL    HW219861   4.142   1.996   6.211
  907SOL     OW19862   4.213   0.177   1.856
  907SOL    HW119863   4.118   0.171   1.846
  907SOL    HW219864   4.247   0.094   1.823
  908SOL     OW19865   4.783   0.276   5.322
  908SOL    HW119866   4.708   0.265   5.263
  908SOL    HW219867   4.765   0.358   5.369
  909SOL     OW19868   2.201   1.331   1.453
  909SOL    HW119869   2.114   1.311   1.489
  909SOL    HW219870   2.260   1.323   1.528
  910SOL     OW19871   5.511   1.881   6.382
  910SOL    HW119872   5.419   1.901   6.364
  910SOL    HW219873   5.559   1.949   6.336
  911SOL     OW19874   2.138   0.695   2.199
  911SOL    HW119875   2.169   0.616   2.242
  911SOL    HW219876   2.067   0.727   2.255
  912SOL     OW19877   0.566   5.004   6.839
  912SOL    HW119878   0.487   4.962   6.872
  912SOL    HW219879   0.544   5.033   6.751
  913SOL     OW19880   3.937   0.412   0.345
  913SOL    HW119881   4.006   0.441   0.285
  913SOL    HW219882   3.973   0.334   0.386
  914SOL     OW19883   4.613   3.986   6.500
  914SOL    HW119884   4.705   4.009   6.506
  914SOL    HW219885   4.567   4.069   6.513
  915SOL     OW19886   0.732   5.303   0.466
  915SOL    HW119887   0.676   5.310   0.389
  915SOL    HW219888   0.671   5.310   0.540
  916SOL     OW19889   2.879   1.995   1.227
  916SOL    HW119890   2.853   1.912   1.185
  916SOL    HW219891   2.848   2.063   1.167
  917SOL     OW19892   0.055   2.779   1.075
  917SOL    HW119893   0.015   2.692   1.080
  917SOL    HW219894  -0.018   2.840   1.081
  918SOL     OW19895   5.222   0.850   0.744
  918SOL    HW119896   5.145   0.889   0.704
  918SOL    HW219897   5.212   0.756   0.730
  919SOL     OW19898   2.238   4.760   0.372
  919SOL    HW119899   2.146   4.762   0.397
  919SOL    HW219900   2.278   4.834   0.418
  920SOL     OW19901   5.322   1.183   0.229
  920SOL    HW119902   5.382   1.245   0.270
  920SOL    HW219903   5.267   1.152   0.301
  921SOL     OW19904   2.103   6.288   0.917
  921SOL    HW119905   2.074   6.371   0.955
  921SOL    HW219906   2.023   6.247   0.885
  922SOL     OW19907   1.160   1.527   7.862
  922SOL    HW119908   1.201   1.604   7.821
  922SOL    HW219909   1.207   1.516   7.944
  923SOL     OW19910   4.833   2.849   0.438
  923SOL    HW119911   4.887   2.924   0.463
  923SOL    HW219912   4.889   2.796   0.382
  924SOL     OW19913   0.741   1.419   0.577
  924SOL    HW119914   0.651   1.407   0.606
  924SOL    HW219915   0.752   1.358   0.504
  925SOL     OW19916   1.859   3.714   6.174
  925SOL    HW119917   1.950   3.684   6.174
  925SOL    HW219918   1.826   3.693   6.261
  926SOL     OW19919   2.550   1.532   5.849
  926SOL    HW119920   2.513   1.447   5.872
  926SOL    HW219921   2.600   1.516   5.769
  927SOL     OW19922   2.353   2.559   7.489
  927SOL    HW119923   2.404   2.555   7.408
  927SOL    HW219924   2.353   2.651   7.513
  928SOL     OW19925   1.558   2.116   7.096
  928SOL    HW119926   1.488   2.051   7.097
  928SOL    HW219927   1.578   2.129   7.003
  929SOL     OW19928   0.882   3.169   7.148
  929SOL    HW119929   0.828   3.226   7.094
  929SOL    HW219930   0.903   3.221   7.225
  930SOL     OW19931   0.158   6.080   0.697
  930SOL    HW119932   0.127   6.124   0.618
  930SOL    HW219933   0.232   6.133   0.727
  931SOL     OW19934   3.596   5.502   0.531
  931SOL    HW119935   3.643   5.583   0.514
  931SOL    HW219936   3.658   5.433   0.508
  932SOL     OW19937   2.781   5.586   1.957
  932SOL    HW119938   2.770   5.676   1.987
  932SOL    HW219939   2.841   5.546   2.020
  933SOL     OW19940   5.875   2.530   0.846
  933SOL    HW119941   5.956   2.498   0.807
  933SOL    HW219942   5.811   2.460   0.829
  934SOL     OW19943   3.296   6.007   6.805
  934SOL    HW119944   3.290   5.956   6.725
  934SOL    HW219945   3.358   6.077   6.784
  935SOL     OW19946   0.420   4.452   5.457
  935SOL    HW119947   0.343   4.397   5.467
  935SOL    HW219948   0.400   4.510   5.384
  936SOL     OW19949   1.569   1.711   7.857
  936SOL    HW119950   1.483   1.745   7.832
  936SOL    HW219951   1.563   1.697   7.951
  937SOL     OW19952   3.506   4.290   7.405
  937SOL    HW119953   3.504   4.205   7.448
  937SOL    HW219954   3.534   4.272   7.315
  938SOL     OW19955   4.354   1.061   5.544
  938SOL    HW119956   4.372   1.109   5.625
  938SOL    HW219957   4.263   1.083   5.522
  939SOL     OW19958   0.458   4.492   6.353
  939SOL    HW119959   0.540   4.538   6.338
  939SOL    HW219960   0.394   4.535   6.296
  940SOL     OW19961   3.272   1.972   5.924
  940SOL    HW119962   3.281   1.934   5.836
  940SOL    HW219963   3.178   1.987   5.934
  941SOL     OW19964   5.122   0.597   0.752
  941SOL    HW119965   5.051   0.566   0.696
  941SOL    HW219966   5.099   0.566   0.840
  942SOL     OW19967   5.026   3.406   0.349
  942SOL    HW119968   5.121   3.399   0.355
  942SOL    HW219969   5.010   3.443   0.263
  943SOL     OW19970   2.215   3.465   7.031
  943SOL    HW119971   2.140   3.480   7.089
  943SOL    HW219972   2.178   3.426   6.952
  944SOL     OW19973   0.183   4.119   6.048
  944SOL    HW119974   0.200   4.206   6.084
  944SOL    HW219975   0.143   4.136   5.962
  945SOL     OW19976   1.764   4.282   0.185
  945SOL    HW119977   1.700   4.212   0.168
  945SOL    HW219978   1.798   4.304   0.098
  946SOL     OW19979   2.964   4.875   6.938
  946SOL    HW119980   2.925   4.835   7.016
  946SOL    HW219981   2.913   4.841   6.865
  947SOL     OW19982   4.088   0.598   1.015
  947SOL    HW119983   4.054   0.683   0.987
  947SOL    HW219984   4.059   0.537   0.947
  948SOL     OW19985   3.725   1.391   7.215
  948SOL    HW119986   3.654   1.369   7.155
  948SOL    HW219987   3.759   1.475   7.182
  949SOL     OW19988   0.484   2.620   1.314
  949SOL    HW119989   0.529   2.612   1.398
  949SOL    HW219990   0.529   2.693   1.270
  950SOL     OW19991   5.932   0.125   0.562
  950SOL    HW119992   5.912   0.175   0.482
  950SOL    HW219993   5.849   0.120   0.608
  951SOL     OW19994   2.908   0.612   0.286
  951SOL    HW119995   2.848   0.542   0.313
  951SOL    HW219996   2.884   0.631   0.195
  952SOL     OW19997   0.354   5.413   1.050
  952SOL    HW119998   0.281   5.418   1.111
  952SOL    HW219999   0.327   5.347   0.986
  953SOL     OW20000   5.289   3.257   7.188
  953SOL    HW120001   5.317   3.263   7.096
  953SOL    HW220002   5.218   3.321   7.196
  954SOL     OW20003   3.533   2.888   0.678
  954SOL    HW120004   3.602   2.841   0.726
  954SOL    HW220005   3.477   2.819   0.643
  955SOL     OW20006   0.295   3.240   1.314
  955SOL    HW120007   0.357   3.231   1.242
  955SOL    HW220008   0.246   3.320   1.293
  956SOL     OW20009   1.087   5.535   1.352
  956SOL    HW120010   1.080   5.515   1.259
  956SOL    HW220011   1.075   5.630   1.357
  957SOL     OW20012   3.952   2.805   7.386
  957SOL    HW120013   3.912   2.891   7.375
  957SOL    HW220014   3.945   2.787   7.480
  958SOL     OW20015   5.764   3.340   7.331
  958SOL    HW120016   5.672   3.315   7.341
  958SOL    HW220017   5.806   3.262   7.295
  959SOL     OW20018   3.279   1.412   7.669
  959SOL    HW120019   3.313   1.358   7.597
  959SOL    HW220020   3.339   1.396   7.742
  960SOL     OW20021   5.935   5.932   0.339
  960SOL    HW120022   5.876   5.926   0.414
  960SOL    HW220023   5.881   5.907   0.264
  961SOL     OW20024   3.728   5.724   0.510
  961SOL    HW120025   3.798   5.698   0.449
  961SOL    HW220026   3.772   5.779   0.574
  962SOL     OW20027   1.444   0.830   6.309
  962SOL    HW120028   1.396   0.748   6.319
  962SOL    HW220029   1.430   0.855   6.217
  963SOL     OW20030   5.504   4.707   6.599
  963SOL    HW120031   5.584   4.680   6.644
  963SOL    HW220032   5.476   4.785   6.647
  964SOL     OW20033   5.511   1.369   0.324
  964SOL    HW120034   5.562   1.398   0.249
  964SOL    HW220035   5.500   1.447   0.377
  965SOL     OW20036   1.726   3.227   7.569
  965SOL    HW120037   1.720   3.133   7.583
  965SOL    HW220038   1.678   3.266   7.642
  966SOL     OW20039   5.541   0.855   7.123
  966SOL    HW120040   5.581   0.941   7.139
  966SOL    HW220041   5.541   0.845   7.028
  967SOL     OW20042   0.762   4.590   7.227
  967SOL    HW120043   0.779   4.619   7.317
  967SOL    HW220044   0.699   4.654   7.193
  968SOL     OW20045   6.222   1.722   0.744
  968SOL    HW120046   6.256   1.780   0.675
  968SOL    HW220047   6.291   1.657   0.757
  969SOL     OW20048   2.009   0.438   5.902
  969SOL    HW120049   1.967   0.458   5.818
  969SOL    HW220050   2.025   0.344   5.899
  970SOL     OW20051   4.607   4.026   0.706
  970SOL    HW120052   4.699   4.050   0.690
  970SOL    HW220053   4.598   4.026   0.801
  971SOL     OW20054   0.380   5.099   0.128
  971SOL    HW120055   0.351   5.022   0.078
  971SOL    HW220056   0.365   5.173   0.069
  972SOL     OW20057   5.282   4.257   1.028
  972SOL    HW120058   5.369   4.264   1.067
  972SOL    HW220059   5.281   4.172   0.985
  973SOL     OW20060   3.921   1.408   0.630
  973SOL    HW120061   3.851   1.471   0.615
  973SOL    HW220062   3.935   1.409   0.724
  974SOL     OW20063   0.279   6.095   0.062
  974SOL    HW120064   0.345   6.146   0.109
  974SOL    HW220065   0.197   6.114   0.107
  975SOL     OW20066   3.018   0.342   6.203
  975SOL    HW120067   3.066   0.304   6.129
  975SOL    HW220068   2.951   0.396   6.162
  976SOL     OW20069   1.735   1.753   6.400
  976SOL    HW120070   1.769   1.780   6.315
  976SOL    HW220071   1.642   1.740   6.385
  977SOL     OW20072   5.048   2.616   2.379
  977SOL    HW120073   5.003   2.694   2.348
  977SOL    HW220074   4.996   2.543   2.346
  978SOL     OW20075   1.692   4.374   5.552
  978SOL    HW120076   1.691   4.317   5.629
  978SOL    HW220077   1.599   4.387   5.531
  979SOL     OW20078   0.540   4.436   7.364
  979SOL    HW120079   0.599   4.489   7.310
  979SOL    HW220080   0.595   4.364   7.395
  980SOL     OW20081   3.463   5.609   6.726
  980SOL    HW120082   3.368   5.606   6.735
  980SOL    HW220083   3.485   5.539   6.665
  981SOL     OW20084   6.221   1.055   5.008
  981SOL    HW120085   6.184   1.135   4.968
  981SOL    HW220086   6.242   1.081   5.098
  982SOL     OW20087   0.205   5.689   6.807
  982SOL    HW120088   0.276   5.687   6.871
  982SOL    HW220089   0.184   5.597   6.791
  983SOL     OW20090   2.722   4.826   7.811
  983SOL    HW120091   2.629   4.846   7.810
  983SOL    HW220092   2.743   4.800   7.721
  984SOL     OW20093   4.973   3.993   0.858
  984SOL    HW120094   4.952   4.086   0.852
  984SOL    HW220095   5.010   3.983   0.946
  985SOL     OW20096   0.754   1.413   7.588
  985SOL    HW120097   0.689   1.456   7.643
  985SOL    HW220098   0.743   1.453   7.502
  986SOL     OW20099   5.406   5.892   6.723
  986SOL    HW120100   5.405   5.841   6.642
  986SOL    HW220101   5.350   5.844   6.783
  987SOL     OW20102   4.915   5.216   7.472
  987SOL    HW120103   4.854   5.177   7.534
  987SOL    HW220104   4.998   5.173   7.489
  988SOL     OW20105   3.361   5.365   7.241
  988SOL    HW120106   3.385   5.434   7.302
  988SOL    HW220107   3.393   5.285   7.282
  989SOL     OW20108   0.087   2.599   0.325
  989SOL    HW120109   0.161   2.623   0.381
  989SOL    HW220110   0.070   2.507   0.346
  990SOL     OW20111   2.006   1.059   0.922
  990SOL    HW120112   2.002   1.153   0.935
  990SOL    HW220113   1.929   1.025   0.968
  991SOL     OW20114   5.439   4.714   1.247
  991SOL    HW120115   5.525   4.752   1.232
  991SOL    HW220116   5.382   4.788   1.266
  992SOL     OW20117   1.893   4.849   1.442
  992SOL    HW120118   1.828   4.779   1.450
  992SOL    HW220119   1.845   4.920   1.399
  993SOL     OW20120   1.657   4.675   7.126
  993SOL    HW120121   1.562   4.680   7.117
  993SOL    HW220122   1.679   4.747   7.186
  994SOL     OW20123   6.089   4.061   5.581
  994SOL    HW120124   6.138   4.133   5.623
  994SOL    HW220125   6.030   4.030   5.650
  995SOL     OW20126   0.146   2.889   7.713
  995SOL    HW120127   0.090   2.921   7.783
  995SOL    HW220128   0.195   2.966   7.684
  996SOL     OW20129   2.065   0.534   1.663
  996SOL    HW120130   2.108   0.451   1.639
  996SOL    HW220131   2.091   0.548   1.754
  997SOL     OW20132   5.864   2.192   0.892
  997SOL    HW120133   5.786   2.232   0.854
  997SOL    HW220134   5.901   2.139   0.821
  998SOL     OW20135   4.590   5.437   1.055
  998SOL    HW120136   4.681   5.415   1.039
  998SOL    HW220137   4.593   5.508   1.119
  999SOL     OW20138   2.244   5.667   6.868
  999SOL    HW120139   2.150   5.653   6.876
  999SOL    HW220140   2.281   5.578   6.871
 1000SOL     OW20141   2.872   2.077   7.048
 1000SOL    HW120142   2.839   2.105   7.133
 1000SOL    HW220143   2.964   2.100   7.049
 1001SOL     OW20144   0.092   4.529   0.651
 1001SOL    HW120145   0.161   4.556   0.712
 1001SOL    HW220146   0.104   4.585   0.575
 1002SOL     OW20147   5.210   1.959   6.619
 1002SOL    HW120148   5.276   2.027   6.630
 1002SOL    HW220149   5.134   2.004   6.582
 1003SOL     OW20150   3.389   1.440   0.269
 1003SOL    HW120151   3.415   1.377   0.336
 1003SOL    HW220152   3.334   1.390   0.209
 1004SOL     OW20153   3.667   0.899   6.460
 1004SOL    HW120154   3.670   0.995   6.453
 1004SOL    HW220155   3.752   0.870   6.425
 1005SOL     OW20156   2.424   1.240   6.256
 1005SOL    HW120157   2.464   1.285   6.330
 1005SOL    HW220158   2.355   1.300   6.227
 1006SOL     OW20159   0.973   2.907   7.638
 1006SOL    HW120160   0.905   2.845   7.663
 1006SOL    HW220161   0.929   2.970   7.581
 1007SOL     OW20162   4.875   2.798   2.256
 1007SOL    HW120163   4.793   2.824   2.214
 1007SOL    HW220164   4.911   2.880   2.291
 1008SOL     OW20165   4.841   1.394   1.876
 1008SOL    HW120166   4.769   1.430   1.824
 1008SOL    HW220167   4.862   1.464   1.939
 1009SOL     OW20168   4.258   1.999   1.246
 1009SOL    HW120169   4.317   1.984   1.320
 1009SOL    HW220170   4.189   2.056   1.282
 1010SOL     OW20171   3.110   6.271   0.259
 1010SOL    HW120172   3.161   6.192   0.242
 1010SOL    HW220173   3.139   6.300   0.346
 1011SOL     OW20174   0.855   5.801   0.755
 1011SOL    HW120175   0.834   5.740   0.826
 1011SOL    HW220176   0.849   5.888   0.795
 1012SOL     OW20177   6.287   5.413   6.310
 1012SOL    HW120178   6.195   5.420   6.338
 1012SOL    HW220179   6.282   5.388   6.218
 1013SOL     OW20180   0.726   3.575   6.364
 1013SOL    HW120181   0.737   3.651   6.422
 1013SOL    HW220182   0.666   3.518   6.412
 1014SOL     OW20183   4.633   0.801   1.676
 1014SOL    HW120184   4.538   0.792   1.687
 1014SOL    HW220185   4.651   0.893   1.696
 1015SOL     OW20186   2.454   3.025   7.233
 1015SOL    HW120187   2.460   3.120   7.224
 1015SOL    HW220188   2.457   2.991   7.144
 1016SOL     OW20189   1.472   1.386   7.868
 1016SOL    HW120190   1.561   1.400   7.834
 1016SOL    HW220191   1.458   1.292   7.861
 1017SOL     OW20192   6.173   1.771   5.159
 1017SOL    HW120193   6.146   1.863   5.150
 1017SOL    HW220194   6.106   1.722   5.113
 1018SOL     OW20195   0.536   4.647   0.918
 1018SOL    HW120196   0.524   4.696   1.000
 1018SOL    HW220197   0.618   4.681   0.882
 1019SOL     OW20198   1.992   3.046   2.160
 1019SOL    HW120199   2.000   2.951   2.156
 1019SOL    HW220200   1.908   3.065   2.116
 1020SOL     OW20201   5.489   1.634   1.354
 1020SOL    HW120202   5.460   1.710   1.404
 1020SOL    HW220203   5.519   1.669   1.271
 1021SOL     OW20204   1.263   0.303   1.157
 1021SOL    HW120205   1.264   0.365   1.084
 1021SOL    HW220206   1.234   0.355   1.232
 1022SOL     OW20207   3.758   0.744   6.697
 1022SOL    HW120208   3.697   0.798   6.646
 1022SOL    HW220209   3.796   0.684   6.632
 1023SOL     OW20210   2.038   3.496   6.480
 1023SOL    HW120211   1.967   3.497   6.544
 1023SOL    HW220212   2.066   3.405   6.477
 1024SOL     OW20213   4.794   0.653   0.270
 1024SOL    HW120214   4.750   0.716   0.213
 1024SOL    HW220215   4.732   0.638   0.342
 1025SOL     OW20216   4.672   3.151   1.104
 1025SOL    HW120217   4.735   3.211   1.063
 1025SOL    HW220218   4.666   3.077   1.044
 1026SOL     OW20219   0.689   0.870   7.767
 1026SOL    HW120220   0.752   0.912   7.827
 1026SOL    HW220221   0.743   0.811   7.714
 1027SOL     OW20222   1.476   4.925   7.930
 1027SOL    HW120223   1.419   4.853   7.903
 1027SOL    HW220224   1.462   4.931   8.025
 1028SOL     OW20225   3.828   5.180   6.451
 1028SOL    HW120226   3.786   5.134   6.523
 1028SOL    HW220227   3.756   5.205   6.393
 1029SOL     OW20228   5.377   5.291   1.556
 1029SOL    HW120229   5.402   5.383   1.563
 1029SOL    HW220230   5.298   5.283   1.610
 1030SOL     OW20231   0.923   0.275   7.249
 1030SOL    HW120232   0.856   0.325   7.203
 1030SOL    HW220233   1.005   0.296   7.204
 1031SOL     OW20234   0.580   6.332   1.035
 1031SOL    HW120235   0.644   6.334   1.107
 1031SOL    HW220236   0.609   6.402   0.977
 1032SOL     OW20237   2.514   3.724   7.597
 1032SOL    HW120238   2.457   3.650   7.576
 1032SOL    HW220239   2.462   3.801   7.577
 1033SOL     OW20240   2.248   1.300   0.972
 1033SOL    HW120241   2.254   1.304   1.067
 1033SOL    HW220242   2.157   1.320   0.952
 1034SOL     OW20243   3.378   0.101   2.419
 1034SOL    HW120244   3.466   0.092   2.454
 1034SOL    HW220245   3.371   0.192   2.392
 1035SOL     OW20246   4.771   3.499   7.438
 1035SOL    HW120247   4.702   3.461   7.384
 1035SOL    HW220248   4.843   3.437   7.433
 1036SOL     OW20249   4.464   4.900   7.331
 1036SOL    HW120250   4.520   4.923   7.405
 1036SOL    HW220251   4.493   4.958   7.260
 1037SOL     OW20252   5.198   6.176   6.013
 1037SOL    HW120253   5.210   6.115   6.086
 1037SOL    HW220254   5.166   6.122   5.941
 1038SOL     OW20255   2.056   4.677   6.053
 1038SOL    HW120256   1.962   4.686   6.071
 1038SOL    HW220257   2.063   4.593   6.006
 1039SOL     OW20258   3.978   4.918   1.996
 1039SOL    HW120259   3.914   4.867   2.045
 1039SOL    HW220260   3.926   4.978   1.943
 1040SOL     OW20261   3.338   5.628   6.259
 1040SOL    HW120262   3.428   5.648   6.233
 1040SOL    HW220263   3.292   5.613   6.176
 1041SOL     OW20264   4.767   1.513   7.003
 1041SOL    HW120265   4.676   1.503   6.976
 1041SOL    HW220266   4.796   1.423   7.021
 1042SOL     OW20267   1.970   2.317   0.978
 1042SOL    HW120268   1.984   2.224   0.963
 1042SOL    HW220269   1.880   2.323   1.011
 1043SOL     OW20270   2.838   3.682   2.167
 1043SOL    HW120271   2.915   3.679   2.223
 1043SOL    HW220272   2.782   3.748   2.206
 1044SOL     OW20273   5.675   5.784   6.844
 1044SOL    HW120274   5.645   5.855   6.788
 1044SOL    HW220275   5.731   5.730   6.788
 1045SOL     OW20276   3.463   5.041   7.043
 1045SOL    HW120277   3.407   4.973   7.005
 1045SOL    HW220278   3.412   5.076   7.117
 1046SOL     OW20279   1.415   2.200   5.590
 1046SOL    HW120280   1.465   2.266   5.542
 1046SOL    HW220281   1.390   2.136   5.524
 1047SOL     OW20282   2.986   5.161   0.161
 1047SOL    HW120283   2.955   5.137   0.074
 1047SOL    HW220284   2.915   5.212   0.199
 1048SOL     OW20285   0.088   5.259   6.116
 1048SOL    HW120286   0.003   5.286   6.081
 1048SOL    HW220287   0.116   5.334   6.169
 1049SOL     OW20288   4.849   3.600   1.682
 1049SOL    HW120289   4.794   3.638   1.750
 1049SOL    HW220290   4.787   3.572   1.614
 1050SOL     OW20291   5.429   5.610   7.390
 1050SOL    HW120292   5.408   5.681   7.330
 1050SOL    HW220293   5.422   5.531   7.337
 1051SOL     OW20294   0.860   3.798   5.420
 1051SOL    HW120295   0.906   3.877   5.392
 1051SOL    HW220296   0.818   3.765   5.341
 1052SOL     OW20297   4.823   6.129   7.407
 1052SOL    HW120298   4.883   6.056   7.421
 1052SOL    HW220299   4.842   6.190   7.478
 1053SOL     OW20300   5.799   2.246   7.729
 1053SOL    HW120301   5.878   2.202   7.760
 1053SOL    HW220302   5.741   2.248   7.805
 1054SOL     OW20303   4.946   1.122   1.814
 1054SOL    HW120304   4.936   1.054   1.881
 1054SOL    HW220305   4.935   1.204   1.862
 1055SOL     OW20306   2.975   0.977   6.803
 1055SOL    HW120307   3.071   0.979   6.800
 1055SOL    HW220308   2.954   1.003   6.893
 1056SOL     OW20309   6.203   4.080   0.448
 1056SOL    HW120310   6.133   4.058   0.509
 1056SOL    HW220311   6.248   3.998   0.433
 1057SOL     OW20312   1.528   6.044   0.123
 1057SOL    HW120313   1.601   5.991   0.154
 1057SOL    HW220314   1.464   6.042   0.194
 1058SOL     OW20315   2.668   1.320   0.447
 1058SOL    HW120316   2.637   1.334   0.537
 1058SOL    HW220317   2.697   1.228   0.446
 1059SOL     OW20318   3.584   0.456   7.225
 1059SOL    HW120319   3.605   0.549   7.209
 1059SOL    HW220320   3.527   0.457   7.301
 1060SOL     OW20321   1.504   5.599   5.543
 1060SOL    HW120322   1.561   5.576   5.469
 1060SOL    HW220323   1.516   5.527   5.605
 1061SOL     OW20324   2.023   5.226   6.920
 1061SOL    HW120325   2.024   5.279   7.000
 1061SOL    HW220326   1.954   5.161   6.936
 1062SOL     OW20327   0.252   0.441   1.924
 1062SOL    HW120328   0.247   0.392   1.842
 1062SOL    HW220329   0.181   0.506   1.917
 1063SOL     OW20330   5.806   2.735   5.861
 1063SOL    HW120331   5.771   2.701   5.944
 1063SOL    HW220332   5.901   2.730   5.872
 1064SOL     OW20333   4.409   2.772   6.477
 1064SOL    HW120334   4.437   2.753   6.567
 1064SOL    HW220335   4.471   2.839   6.447
 1065SOL     OW20336   1.036   2.032   1.905
 1065SOL    HW120337   1.044   1.987   1.989
 1065SOL    HW220338   0.966   1.986   1.859
 1066SOL     OW20339   3.687   1.511   6.252
 1066SOL    HW120340   3.763   1.490   6.306
 1066SOL    HW220341   3.618   1.530   6.315
 1067SOL     OW20342   0.204   0.136   6.640
 1067SOL    HW120343   0.299   0.137   6.656
 1067SOL    HW220344   0.190   0.208   6.578
 1068SOL     OW20345   4.321   0.779   1.161
 1068SOL    HW120346   4.283   0.847   1.105
 1068SOL    HW220347   4.341   0.707   1.101
 1069SOL     OW20348   3.229   0.205   1.354
 1069SOL    HW120349   3.233   0.290   1.399
 1069SOL    HW220350   3.297   0.153   1.396
 1070SOL     OW20351   3.885   5.065   7.461
 1070SOL    HW120352   3.931   5.106   7.535
 1070SOL    HW220353   3.954   5.046   7.398
 1071SOL     OW20354   6.113   1.917   6.001
 1071SOL    HW120355   6.074   1.963   6.075
 1071SOL    HW220356   6.085   1.827   6.011
 1072SOL     OW20357   1.744   3.200   5.839
 1072SOL    HW120358   1.690   3.123   5.819
 1072SOL    HW220359   1.771   3.233   5.753
 1073SOL     OW20360   5.229   3.165   0.018
 1073SOL    HW120361   5.239   3.118  -0.064
 1073SOL    HW220362   5.316   3.163   0.058
 1074SOL     OW20363   3.528   6.309   7.713
 1074SOL    HW120364   3.495   6.394   7.685
 1074SOL    HW220365   3.623   6.317   7.703
 1075SOL     OW20366   4.303   3.610   6.976
 1075SOL    HW120367   4.259   3.620   6.891
 1075SOL    HW220368   4.366   3.539   6.961
 1076SOL     OW20369   1.259   4.616   0.775
 1076SOL    HW120370   1.167   4.604   0.799
 1076SOL    HW220371   1.274   4.550   0.707
 1077SOL     OW20372   5.732   4.223   6.914
 1077SOL    HW120373   5.813   4.271   6.895
 1077SOL    HW220374   5.717   4.237   7.008
 1078SOL     OW20375   1.672   2.183   1.477
 1078SOL    HW120376   1.632   2.170   1.563
 1078SOL    HW220377   1.740   2.248   1.492
 1079SOL     OW20378   1.332   5.871   0.812
 1079SOL    HW120379   1.352   5.959   0.843
 1079SOL    HW220380   1.376   5.813   0.875
 1080SOL     OW20381   1.800   1.083   0.473
 1080SOL    HW120382   1.866   1.140   0.431
 1080SOL    HW220383   1.819   0.996   0.439
 1081SOL     OW20384   1.748   2.029   2.308
 1081SOL    HW120385   1.780   1.973   2.237
 1081SOL    HW220386   1.826   2.051   2.358
 1082SOL     OW20387   4.967   3.292   0.082
 1082SOL    HW120388   5.055   3.259   0.061
 1082SOL    HW220389   4.962   3.377   0.038
 1083SOL     OW20390   1.622   5.528   1.016
 1083SOL    HW120391   1.684   5.601   1.019
 1083SOL    HW220392   1.623   5.492   1.105
 1084SOL     OW20393   2.401   2.129   5.878
 1084SOL    HW120394   2.326   2.079   5.910
 1084SOL    HW220395   2.453   2.065   5.829
 1085SOL     OW20396   1.705   5.311   0.875
 1085SOL    HW120397   1.792   5.329   0.838
 1085SOL    HW220398   1.682   5.393   0.919
 1086SOL     OW20399   0.834   1.799   6.111
 1086SOL    HW120400   0.929   1.803   6.109
 1086SOL    HW220401   0.806   1.889   6.126
 1087SOL     OW20402   5.979   0.806   7.652
 1087SOL    HW120403   6.045   0.875   7.643
 1087SOL    HW220404   5.897   0.852   7.668
 1088SOL     OW20405   1.631   3.306   1.256
 1088SOL    HW120406   1.618   3.249   1.180
 1088SOL    HW220407   1.578   3.383   1.238
 1089SOL     OW20408   5.758   0.116   7.546
 1089SOL    HW120409   5.817   0.045   7.571
 1089SOL    HW220410   5.790   0.192   7.594
 1090SOL     OW20411   5.361   5.420   0.065
 1090SOL    HW120412   5.420   5.350   0.094
 1090SOL    HW220413   5.370   5.488   0.131
 1091SOL     OW20414   5.950   4.975   5.658
 1091SOL    HW120415   6.042   4.969   5.630
 1091SOL    HW220416   5.937   4.898   5.713
 1092SOL     OW20417   1.964   3.349   0.794
 1092SOL    HW120418   1.907   3.280   0.760
 1092SOL    HW220419   1.993   3.397   0.716
 1093SOL     OW20420   3.160   3.002   1.381
 1093SOL    HW120421   3.224   3.051   1.329
 1093SOL    HW220422   3.145   3.057   1.458
 1094SOL     OW20423   0.964   5.476   7.390
 1094SOL    HW120424   1.043   5.476   7.337
 1094SOL    HW220425   0.983   5.537   7.462
 1095SOL     OW20426   3.391   3.044   7.528
 1095SOL    HW120427   3.328   2.988   7.482
 1095SOL    HW220428   3.460   3.059   7.463
 1096SOL     OW20429   4.975   1.404   1.542
 1096SOL    HW120430   4.929   1.407   1.458
 1096SOL    HW220431   4.963   1.314   1.573
 1097SOL     OW20432   0.516   0.433   7.874
 1097SOL    HW120433   0.497   0.386   7.954
 1097SOL    HW220434   0.563   0.511   7.902
 1098SOL     OW20435   1.673   6.078   1.761
 1098SOL    HW120436   1.587   6.086   1.802
 1098SOL    HW220437   1.654   6.048   1.672
 1099SOL     OW20438   3.969   0.179   1.427
 1099SOL    HW120439   4.009   0.124   1.360
 1099SOL    HW220440   4.004   0.145   1.510
 1100SOL     OW20441   5.911   2.469   6.457
 1100SOL    HW120442   5.828   2.513   6.439
 1100SOL    HW220443   5.965   2.486   6.380
 1101SOL     OW20444   4.879   2.726   5.906
 1101SOL    HW120445   4.813   2.716   5.976
 1101SOL    HW220446   4.920   2.639   5.899
 1102SOL     OW20447   3.029   1.322   7.232
 1102SOL    HW120448   2.971   1.342   7.307
 1102SOL    HW220449   2.977   1.264   7.177
 1103SOL     OW20450   6.174   3.156   0.038
 1103SOL    HW120451   6.138   3.086   0.092
 1103SOL    HW220452   6.099   3.192  -0.009
 1104SOL     OW20453   4.294   6.085   1.128
 1104SOL    HW120454   4.336   6.168   1.104
 1104SOL    HW220455   4.296   6.085   1.224
 1105SOL     OW20456   3.424   0.764   7.120
 1105SOL    HW120457   3.484   0.776   7.193
 1105SOL    HW220458   3.480   0.739   7.047
 1106SOL     OW20459   5.767   5.877   0.550
 1106SOL    HW120460   5.686   5.837   0.582
 1106SOL    HW220461   5.826   5.803   0.534
 1107SOL     OW20462   0.841   0.798   0.290
 1107SOL    HW120463   0.802   0.731   0.346
 1107SOL    HW220464   0.766   0.849   0.259
 1108SOL     OW20465   2.276   0.306   0.734
 1108SOL    HW120466   2.254   0.231   0.678
 1108SOL    HW220467   2.262   0.383   0.679
 1109SOL     OW20468   1.290   3.595   1.081
 1109SOL    HW120469   1.199   3.568   1.080
 1109SOL    HW220470   1.315   3.601   0.989
 1110SOL     OW20471   1.554   2.580   5.849
 1110SOL    HW120472   1.621   2.549   5.788
 1110SOL    HW220473   1.496   2.635   5.795
 1111SOL     OW20474   5.968   3.947   5.819
 1111SOL    HW120475   6.038   3.989   5.869
 1111SOL    HW220476   5.972   3.855   5.844
 1112SOL     OW20477   3.472   0.752   6.618
 1112SOL    HW120478   3.473   0.848   6.618
 1112SOL    HW220479   3.533   0.727   6.549
 1113SOL     OW20480   3.767   2.251   0.896
 1113SOL    HW120481   3.800   2.162   0.912
 1113SOL    HW220482   3.819   2.306   0.954
 1114SOL     OW20483   2.433   2.273   6.681
 1114SOL    HW120484   2.506   2.327   6.710
 1114SOL    HW220485   2.453   2.251   6.590
 1115SOL     OW20486   1.239   2.267   7.166
 1115SOL    HW120487   1.209   2.194   7.112
 1115SOL    HW220488   1.250   2.228   7.253
 1116SOL     OW20489   5.109   5.724   6.527
 1116SOL    HW120490   5.103   5.813   6.493
 1116SOL    HW220491   5.066   5.727   6.612
 1117SOL     OW20492   1.719   1.969   1.297
 1117SOL    HW120493   1.633   1.937   1.322
 1117SOL    HW220494   1.729   2.051   1.345
 1118SOL     OW20495   4.444   5.597   0.578
 1118SOL    HW120496   4.425   5.573   0.669
 1118SOL    HW220497   4.380   5.665   0.557
 1119SOL     OW20498   5.907   1.854   0.057
 1119SOL    HW120499   5.829   1.906   0.039
 1119SOL    HW220500   5.878   1.763   0.049
 1120SOL     OW20501   0.625   4.092   0.290
 1120SOL    HW120502   0.603   4.086   0.197
 1120SOL    HW220503   0.719   4.109   0.291
 1121SOL     OW20504   0.446   0.326   0.531
 1121SOL    HW120505   0.441   0.400   0.591
 1121SOL    HW220506   0.362   0.281   0.540
 1122SOL     OW20507   4.046   5.573   6.202
 1122SOL    HW120508   4.017   5.649   6.252
 1122SOL    HW220509   4.098   5.521   6.263
 1123SOL     OW20510   0.346   3.737   1.107
 1123SOL    HW120511   0.411   3.806   1.120
 1123SOL    HW220512   0.270   3.766   1.157
 1124SOL     OW20513   0.107   2.451   6.387
 1124SOL    HW120514   0.094   2.543   6.409
 1124SOL    HW220515   0.186   2.451   6.332
 1125SOL     OW20516   1.782   2.346   6.983
 1125SOL    HW120517   1.730   2.269   7.008
 1125SOL    HW220518   1.717   2.408   6.950
 1126SOL     OW20519   3.430   6.200   0.830
 1126SOL    HW120520   3.362   6.147   0.872
 1126SOL    HW220521   3.449   6.154   0.749
 1127SOL     OW20522   4.842   4.487   6.834
 1127SOL    HW120523   4.771   4.548   6.817
 1127SOL    HW220524   4.809   4.403   6.803
 1128SOL     OW20525   5.630   4.552   1.899
 1128SOL    HW120526   5.607   4.574   1.989
 1128SOL    HW220527   5.724   4.567   1.894
 1129SOL     OW20528   0.728   4.860   2.212
 1129SOL    HW120529   0.816   4.842   2.178
 1129SOL    HW220530   0.680   4.778   2.197
 1130SOL     OW20531   0.524   0.628   7.176
 1130SOL    HW120532   0.476   0.685   7.235
 1130SOL    HW220533   0.593   0.684   7.139
 1131SOL     OW20534   1.184   6.358   6.055
 1131SOL    HW120535   1.233   6.287   6.013
 1131SOL    HW220536   1.252   6.417   6.088
 1132SOL     OW20537   1.875   2.727   6.133
 1132SOL    HW120538   1.861   2.671   6.209
 1132SOL    HW220539   1.968   2.714   6.111
 1133SOL     OW20540   0.127   5.972   7.456
 1133SOL    HW120541   0.146   6.066   7.450
 1133SOL    HW220542   0.103   5.958   7.548
 1134SOL     OW20543   3.455   5.995   6.004
 1134SOL    HW120544   3.409   5.934   5.946
 1134SOL    HW220545   3.515   5.940   6.054
 1135SOL     OW20546   3.680   5.752   1.621
 1135SOL    HW120547   3.734   5.727   1.697
 1135SOL    HW220548   3.712   5.840   1.598
 1136SOL     OW20549   3.674   5.767   5.714
 1136SOL    HW120550   3.621   5.836   5.673
 1136SOL    HW220551   3.610   5.711   5.758
 1137SOL     OW20552   1.611   5.562   2.110
 1137SOL    HW120553   1.658   5.485   2.077
 1137SOL    HW220554   1.518   5.541   2.096
 1138SOL     OW20555   3.113   3.216   1.538
 1138SOL    HW120556   3.177   3.225   1.608
 1138SOL    HW220557   3.122   3.295   1.486
 1139SOL     OW20558   0.507   2.042   6.175
 1139SOL    HW120559   0.412   2.037   6.171
 1139SOL    HW220560   0.531   1.988   6.250
 1140SOL     OW20561   4.030   1.330   2.285
 1140SOL    HW120562   4.117   1.302   2.255
 1140SOL    HW220563   3.981   1.347   2.204
 1141SOL     OW20564   1.052   5.369   6.135
 1141SOL    HW120565   1.023   5.455   6.103
 1141SOL    HW220566   1.146   5.378   6.144
 1142SOL     OW20567   3.246   4.632   6.466
 1142SOL    HW120568   3.243   4.543   6.501
 1142SOL    HW220569   3.300   4.626   6.388
 1143SOL     OW20570   4.127   5.404   0.345
 1143SOL    HW120571   4.099   5.315   0.365
 1143SOL    HW220572   4.221   5.396   0.327
 1144SOL     OW20573   4.244   0.904   1.396
 1144SOL    HW120574   4.282   0.987   1.424
 1144SOL    HW220575   4.286   0.886   1.312
 1145SOL     OW20576   4.750   1.063   0.418
 1145SOL    HW120577   4.800   1.071   0.336
 1145SOL    HW220578   4.746   0.969   0.434
 1146SOL     OW20579   3.459   0.777   0.965
 1146SOL    HW120580   3.517   0.851   0.981
 1146SOL    HW220581   3.375   0.803   1.002
 1147SOL     OW20582   0.785   0.630   1.348
 1147SOL    HW120583   0.861   0.576   1.368
 1147SOL    HW220584   0.804   0.668   1.262
 1148SOL     OW20585   6.385   4.151   6.613
 1148SOL    HW120586   6.411   4.201   6.536
 1148SOL    HW220587   6.467   4.112   6.645
 1149SOL     OW20588   4.376   3.052   7.938
 1149SOL    HW120589   4.413   3.138   7.961
 1149SOL    HW220590   4.451   3.002   7.905
 1150SOL     OW20591   5.797   3.374   2.330
 1150SOL    HW120592   5.823   3.464   2.348
 1150SOL    HW220593   5.815   3.327   2.412
 1151SOL     OW20594   4.142   1.382   6.404
 1151SOL    HW120595   4.236   1.394   6.395
 1151SOL    HW220596   4.132   1.289   6.426
 1152SOL     OW20597   2.134   1.200   1.701
 1152SOL    HW120598   2.060   1.261   1.696
 1152SOL    HW220599   2.210   1.256   1.717
 1153SOL     OW20600   0.725   0.478   1.665
 1153SOL    HW120601   0.762   0.398   1.704
 1153SOL    HW220602   0.640   0.488   1.708
 1154SOL     OW20603   3.432   2.627   5.528
 1154SOL    HW120604   3.478   2.600   5.608
 1154SOL    HW220605   3.485   2.699   5.494
 1155SOL     OW20606   0.683   1.049   5.696
 1155SOL    HW120607   0.622   1.004   5.637
 1155SOL    HW220608   0.705   1.130   5.651
 1156SOL     OW20609   0.792   4.444   6.848
 1156SOL    HW120610   0.743   4.434   6.767
 1156SOL    HW220611   0.882   4.461   6.820
 1157SOL     OW20612   1.043   2.552   7.799
 1157SOL    HW120613   1.041   2.594   7.886
 1157SOL    HW220614   1.004   2.617   7.740
 1158SOL     OW20615   1.231   0.730   1.703
 1158SOL    HW120616   1.235   0.764   1.792
 1158SOL    HW220617   1.147   0.684   1.699
 1159SOL     OW20618   6.265   3.402   0.123
 1159SOL    HW120619   6.241   3.391   0.215
 1159SOL    HW220620   6.231   3.324   0.080
 1160SOL     OW20621   1.199   3.475   6.714
 1160SOL    HW120622   1.201   3.410   6.643
 1160SOL    HW220623   1.251   3.435   6.784
 1161SOL     OW20624   1.042   5.863   1.589
 1161SOL    HW120625   1.023   5.833   1.678
 1161SOL    HW220626   0.958   5.854   1.543
 1162SOL     OW20627   5.684   4.669   6.965
 1162SOL    HW120628   5.733   4.697   6.888
 1162SOL    HW220629   5.641   4.588   6.938
 1163SOL     OW20630   4.446   0.254   1.244
 1163SOL    HW120631   4.485   0.232   1.329
 1163SOL    HW220632   4.517   0.293   1.194
 1164SOL     OW20633   3.260   2.224   5.329
 1164SOL    HW120634   3.209   2.174   5.266
 1164SOL    HW220635   3.249   2.315   5.302
 1165SOL     OW20636   4.861   0.690   7.274
 1165SOL    HW120637   4.870   0.771   7.325
 1165SOL    HW220638   4.936   0.638   7.301
 1166SOL     OW20639   2.799   0.496   7.069
 1166SOL    HW120640   2.868   0.472   7.131
 1166SOL    HW220641   2.846   0.545   7.001
 1167SOL     OW20642   4.087   4.357   1.161
 1167SOL    HW120643   4.140   4.437   1.169
 1167SOL    HW220644   4.012   4.384   1.108
 1168SOL     OW20645   3.675   5.870   5.276
 1168SOL    HW120646   3.582   5.865   5.299
 1168SOL    HW220647   3.717   5.805   5.333
 1169SOL     OW20648   5.239   2.304   0.161
 1169SOL    HW120649   5.157   2.322   0.115
 1169SOL    HW220650   5.300   2.370   0.130
 1170SOL     OW20651   5.139   6.048   1.210
 1170SOL    HW120652   5.207   5.981   1.209
 1170SOL    HW220653   5.099   6.041   1.297
 1171SOL     OW20654   5.248   3.681   1.464
 1171SOL    HW120655   5.308   3.611   1.440
 1171SOL    HW220656   5.179   3.678   1.397
 1172SOL     OW20657   2.300   6.106   5.792
 1172SOL    HW120658   2.375   6.081   5.846
 1172SOL    HW220659   2.269   6.023   5.755
 1173SOL     OW20660   0.568   1.849   6.349
 1173SOL    HW120661   0.511   1.772   6.347
 1173SOL    HW220662   0.650   1.817   6.387
 1174SOL     OW20663   3.580   1.164   6.000
 1174SOL    HW120664   3.497   1.115   5.997
 1174SOL    HW220665   3.599   1.183   5.908
 1175SOL     OW20666   1.923   2.761   5.341
 1175SOL    HW120667   1.866   2.738   5.268
 1175SOL    HW220668   1.899   2.700   5.411
 1176SOL     OW20669   3.471   3.481   1.925
 1176SOL    HW120670   3.418   3.560   1.912
 1176SOL    HW220671   3.408   3.414   1.951
 1177SOL     OW20672   4.917   5.849   0.473
 1177SOL    HW120673   4.904   5.808   0.559
 1177SOL    HW220674   4.895   5.779   0.411
 1178SOL     OW20675   0.556   4.186   6.249
 1178SOL    HW120676   0.571   4.246   6.177
 1178SOL    HW220677   0.492   4.231   6.305
 1179SOL     OW20678   4.584   4.569   6.514
 1179SOL    HW120679   4.603   4.475   6.520
 1179SOL    HW220680   4.603   4.603   6.601
 1180SOL     OW20681   1.201   1.405   0.888
 1180SOL    HW120682   1.187   1.354   0.808
 1180SOL    HW220683   1.250   1.346   0.946
 1181SOL     OW20684   2.267   2.172   7.666
 1181SOL    HW120685   2.295   2.085   7.694
 1181SOL    HW220686   2.310   2.232   7.727
 1182SOL     OW20687   2.094   4.449   7.776
 1182SOL    HW120688   2.030   4.501   7.825
 1182SOL    HW220689   2.054   4.436   7.690
 1183SOL     OW20690   3.539   2.780   0.243
 1183SOL    HW120691   3.624   2.788   0.200
 1183SOL    HW220692   3.505   2.696   0.214
 1184SOL     OW20693   3.308   0.882   5.652
 1184SOL    HW120694   3.231   0.918   5.695
 1184SOL    HW220695   3.379   0.943   5.674
 1185SOL     OW20696   2.771   4.353   7.475
 1185SOL    HW120697   2.731   4.277   7.519
 1185SOL    HW220698   2.831   4.389   7.540
 1186SOL     OW20699   6.089   0.181   1.279
 1186SOL    HW120700   6.026   0.142   1.340
 1186SOL    HW220701   6.038   0.246   1.230
 1187SOL     OW20702   0.333   2.160   1.427
 1187SOL    HW120703   0.362   2.112   1.505
 1187SOL    HW220704   0.407   2.215   1.403
 1188SOL     OW20705   1.983   4.858   0.476
 1188SOL    HW120706   2.011   4.791   0.539
 1188SOL    HW220707   1.976   4.938   0.528
 1189SOL     OW20708   5.662   1.471   7.190
 1189SOL    HW120709   5.588   1.501   7.136
 1189SOL    HW220710   5.739   1.486   7.135
 1190SOL     OW20711   3.257   0.470   6.972
 1190SOL    HW120712   3.193   0.400   6.960
 1190SOL    HW220713   3.285   0.461   7.064
 1191SOL     OW20714   3.860   2.577   7.228
 1191SOL    HW120715   3.934   2.522   7.201
 1191SOL    HW220716   3.900   2.662   7.247
 1192SOL     OW20717   0.261   2.767   5.678
 1192SOL    HW120718   0.347   2.726   5.692
 1192SOL    HW220719   0.222   2.718   5.606
 1193SOL     OW20720   4.755   5.564   7.151
 1193SOL    HW120721   4.755   5.567   7.247
 1193SOL    HW220722   4.779   5.652   7.124
 1194SOL     OW20723   2.705   6.085   0.465
 1194SOL    HW120724   2.778   6.110   0.410
 1194SOL    HW220725   2.645   6.159   0.461
 1195SOL     OW20726   3.908   4.177   0.566
 1195SOL    HW120727   3.944   4.265   0.576
 1195SOL    HW220728   3.885   4.150   0.654
 1196SOL     OW20729   5.006   2.055   0.394
 1196SOL    HW120730   5.048   1.981   0.351
 1196SOL    HW220731   4.981   2.022   0.480
 1197SOL     OW20732   5.122   1.875   7.438
 1197SOL    HW120733   5.204   1.826   7.446
 1197SOL    HW220734   5.119   1.929   7.517
 1198SOL     OW20735   1.878   3.164   6.101
 1198SOL    HW120736   1.930   3.228   6.053
 1198SOL    HW220737   1.813   3.133   6.038
 1199SOL     OW20738   1.783   2.734   0.300
 1199SOL    HW120739   1.843   2.661   0.283
 1199SOL    HW220740   1.838   2.812   0.294
 1200SOL     OW20741   0.215   3.312   2.225
 1200SOL    HW120742   0.309   3.300   2.207
 1200SOL    HW220743   0.195   3.247   2.292
 1201SOL     OW20744   1.038   5.789   1.873
 1201SOL    HW120745   1.079   5.727   1.934
 1201SOL    HW220746   0.967   5.828   1.924
 1202SOL     OW20747   0.103   4.984   6.591
 1202SOL    HW120748   0.178   4.936   6.556
 1202SOL    HW220749   0.096   5.061   6.535
 1203SOL     OW20750   4.882   1.062   0.193
 1203SOL    HW120751   4.867   1.146   0.149
 1203SOL    HW220752   4.971   1.037   0.167
 1204SOL     OW20753   2.695   5.992   6.147
 1204SOL    HW120754   2.736   6.056   6.206
 1204SOL    HW220755   2.631   5.947   6.202
 1205SOL     OW20756   3.828   0.636   1.329
 1205SOL    HW120757   3.870   0.721   1.317
 1205SOL    HW220758   3.818   0.601   1.240
 1206SOL     OW20759   1.720   1.170   6.414
 1206SOL    HW120760   1.783   1.100   6.397
 1206SOL    HW220761   1.767   1.250   6.396
 1207SOL     OW20762   4.245   5.034   6.406
 1207SOL    HW120763   4.282   4.978   6.338
 1207SOL    HW220764   4.193   4.975   6.460
 1208SOL     OW20765   1.953   4.285   2.564
 1208SOL    HW120766   1.978   4.375   2.586
 1208SOL    HW220767   2.009   4.262   2.490
 1209SOL     OW20768   3.713   5.210   7.839
 1209SOL    HW120769   3.743   5.267   7.768
 1209SOL    HW220770   3.635   5.254   7.873
 1210SOL     OW20771   5.989   1.010   6.133
 1210SOL    HW120772   5.958   0.965   6.055
 1210SOL    HW220773   6.008   1.099   6.104
 1211SOL     OW20774   1.475   4.196   7.621
 1211SOL    HW120775   1.402   4.164   7.569
 1211SOL    HW220776   1.552   4.184   7.565
 1212SOL     OW20777   1.504   0.806   2.268
 1212SOL    HW120778   1.413   0.832   2.252
 1212SOL    HW220779   1.538   0.785   2.181
 1213SOL     OW20780   0.243   6.215   6.666
 1213SOL    HW120781   0.283   6.298   6.640
 1213SOL    HW220782   0.157   6.215   6.625
 1214SOL     OW20783   1.862   3.710   0.235
 1214SOL    HW120784   1.951   3.677   0.228
 1214SOL    HW220785   1.869   3.803   0.211
 1215SOL     OW20786   0.702   6.140   0.313
 1215SOL    HW120787   0.774   6.131   0.375
 1215SOL    HW220788   0.743   6.164   0.230
 1216SOL     OW20789   5.901   4.454   6.329
 1216SOL    HW120790   5.995   4.445   6.314
 1216SOL    HW220791   5.861   4.444   6.243
 1217SOL     OW20792   1.296   2.600   0.063
 1217SOL    HW120793   1.391   2.599   0.073
 1217SOL    HW220794   1.279   2.551  -0.017
 1218SOL     OW20795   3.861   0.757   7.629
 1218SOL    HW120796   3.928   0.785   7.691
 1218SOL    HW220797   3.906   0.696   7.571
 1219SOL     OW20798   2.953   1.323   1.076
 1219SOL    HW120799   3.003   1.241   1.075
 1219SOL    HW220800   2.961   1.355   1.166
 1220SOL     OW20801   5.884   6.354   7.246
 1220SOL    HW120802   5.948   6.340   7.177
 1220SOL    HW220803   5.908   6.291   7.314
 1221SOL     OW20804   2.716   0.736   7.754
 1221SOL    HW120805   2.706   0.829   7.733
 1221SOL    HW220806   2.808   0.725   7.776
 1222SOL     OW20807   5.360   4.130   1.790
 1222SOL    HW120808   5.375   4.069   1.717
 1222SOL    HW220809   5.300   4.083   1.848
 1223SOL     OW20810   3.585   0.817   6.189
 1223SOL    HW120811   3.669   0.852   6.218
 1223SOL    HW220812   3.534   0.806   6.269
 1224SOL     OW20813   5.517   1.616   0.426
 1224SOL    HW120814   5.470   1.625   0.509
 1224SOL    HW220815   5.609   1.615   0.451
 1225SOL     OW20816   5.889   1.524   7.068
 1225SOL    HW120817   5.921   1.479   6.991
 1225SOL    HW220818   5.933   1.609   7.067
 1226SOL     OW20819   1.136   3.094   7.337
 1226SOL    HW120820   1.050   3.078   7.376
 1226SOL    HW220821   1.186   3.014   7.354
 1227SOL     OW20822   0.697   4.221   7.451
 1227SOL    HW120823   0.735   4.255   7.531
 1227SOL    HW220824   0.641   4.148   7.479
 1228SOL     OW20825   5.249   5.647   6.845
 1228SOL    HW120826   5.318   5.667   6.909
 1228SOL    HW220827   5.170   5.635   6.898
 1229SOL     OW20828   4.185   0.372   0.641
 1229SOL    HW120829   4.242   0.323   0.700
 1229SOL    HW220830   4.143   0.305   0.587
 1230SOL     OW20831   4.582   4.011   7.332
 1230SOL    HW120832   4.526   4.089   7.333
 1230SOL    HW220833   4.570   3.971   7.418
 1231SOL     OW20834   0.543   1.848   7.656
 1231SOL    HW120835   0.553   1.916   7.590
 1231SOL    HW220836   0.600   1.777   7.627
 1232SOL     OW20837   5.709   4.671   7.627
 1232SOL    HW120838   5.760   4.725   7.567
 1232SOL    HW220839   5.774   4.628   7.682
 1233SOL     OW20840   5.565   1.697   1.673
 1233SOL    HW120841   5.648   1.659   1.646
 1233SOL    HW220842   5.547   1.765   1.608
 1234SOL     OW20843   3.344   2.957   0.170
 1234SOL    HW120844   3.410   2.890   0.190
 1234SOL    HW220845   3.260   2.913   0.185
 1235SOL     OW20846   4.861   3.687   2.052
 1235SOL    HW120847   4.799   3.670   1.981
 1235SOL    HW220848   4.810   3.676   2.132
 1236SOL     OW20849   1.624   4.845   7.724
 1236SOL    HW120850   1.575   4.869   7.803
 1236SOL    HW220851   1.614   4.750   7.718
 1237SOL     OW20852   4.186   5.571   5.957
 1237SOL    HW120853   4.119   5.579   6.025
 1237SOL    HW220854   4.137   5.568   5.875
 1238SOL     OW20855   2.044   5.248   7.364
 1238SOL    HW120856   2.116   5.186   7.355
 1238SOL    HW220857   2.075   5.311   7.430
 1239SOL     OW20858   1.740   5.075   1.728
 1239SOL    HW120859   1.666   5.066   1.668
 1239SOL    HW220860   1.790   4.994   1.718
 1240SOL     OW20861   3.449   3.431   6.033
 1240SOL    HW120862   3.401   3.473   5.962
 1240SOL    HW220863   3.406   3.346   6.045
 1241SOL     OW20864   2.721   3.987   5.997
 1241SOL    HW120865   2.780   4.035   6.057
 1241SOL    HW220866   2.633   4.006   6.030
 1242SOL     OW20867   3.557   5.412   0.989
 1242SOL    HW120868   3.478   5.427   0.937
 1242SOL    HW220869   3.629   5.428   0.929
 1243SOL     OW20870   3.447   0.676   0.340
 1243SOL    HW120871   3.534   0.709   0.315
 1243SOL    HW220872   3.399   0.754   0.368
 1244SOL     OW20873   3.263   5.006   6.689
 1244SOL    HW120874   3.279   4.990   6.782
 1244SOL    HW220875   3.180   5.053   6.687
 1245SOL     OW20876   5.487   0.494   7.263
 1245SOL    HW120877   5.402   0.488   7.307
 1245SOL    HW220878   5.531   0.413   7.287
 1246SOL     OW20879   3.524   2.906   7.864
 1246SOL    HW120880   3.599   2.906   7.924
 1246SOL    HW220881   3.449   2.883   7.919
 1247SOL     OW20882   0.780   4.074   6.497
 1247SOL    HW120883   0.846   4.137   6.528
 1247SOL    HW220884   0.778   4.085   6.402
 1248SOL     OW20885   2.574   1.251   5.658
 1248SOL    HW120886   2.633   1.320   5.627
 1248SOL    HW220887   2.487   1.280   5.630
 1249SOL     OW20888   3.375   6.087   7.738
 1249SOL    HW120889   3.408   6.057   7.654
 1249SOL    HW220890   3.406   6.177   7.747
 1250SOL     OW20891   2.578   4.485   7.800
 1250SOL    HW120892   2.548   4.420   7.864
 1250SOL    HW220893   2.630   4.434   7.737
 1251SOL     OW20894   2.839   1.623   2.057
 1251SOL    HW120895   2.799   1.705   2.028
 1251SOL    HW220896   2.890   1.647   2.134
 1252SOL     OW20897   1.932   3.825   5.859
 1252SOL    HW120898   1.910   3.735   5.883
 1252SOL    HW220899   1.848   3.864   5.835
 1253SOL     OW20900   2.741   1.169   7.110
 1253SOL    HW120901   2.823   1.122   7.095
 1253SOL    HW220902   2.675   1.100   7.119
 1254SOL     OW20903   1.098   4.184   0.451
 1254SOL    HW120904   1.157   4.165   0.524
 1254SOL    HW220905   1.157   4.196   0.376
 1255SOL     OW20906   2.003   5.254   0.844
 1255SOL    HW120907   1.955   5.208   0.912
 1255SOL    HW220908   2.030   5.336   0.884
 1256SOL     OW20909   1.055   6.284   0.690
 1256SOL    HW120910   1.077   6.191   0.702
 1256SOL    HW220911   1.060   6.298   0.595
 1257SOL     OW20912   2.381   1.931   7.721
 1257SOL    HW120913   2.347   1.843   7.738
 1257SOL    HW220914   2.446   1.918   7.652
 1258SOL     OW20915   3.287   4.557   0.082
 1258SOL    HW120916   3.302   4.651   0.076
 1258SOL    HW220917   3.315   4.522  -0.003
 1259SOL     OW20918   2.320   3.300   2.155
 1259SOL    HW120919   2.395   3.360   2.156
 1259SOL    HW220920   2.249   3.352   2.117
 1260SOL     OW20921   1.078   0.389   0.271
 1260SOL    HW120922   1.147   0.341   0.225
 1260SOL    HW220923   0.997   0.357   0.230
 1261SOL     OW20924   4.985   5.715   6.189
 1261SOL    HW120925   5.027   5.707   6.274
 1261SOL    HW220926   4.914   5.651   6.192
 1262SOL     OW20927   3.131   6.170   0.672
 1262SOL    HW120928   3.050   6.222   0.675
 1262SOL    HW220929   3.195   6.229   0.632
 1263SOL     OW20930   4.688   4.857   6.188
 1263SOL    HW120931   4.621   4.811   6.238
 1263SOL    HW220932   4.723   4.791   6.128
 1264SOL     OW20933   1.363   5.773   7.808
 1264SOL    HW120934   1.297   5.733   7.752
 1264SOL    HW220935   1.326   5.768   7.896
 1265SOL     OW20936   4.356   2.669   0.736
 1265SOL    HW120937   4.363   2.735   0.805
 1265SOL    HW220938   4.370   2.717   0.655
 1266SOL     OW20939   1.484   1.212   7.494
 1266SOL    HW120940   1.542   1.146   7.531
 1266SOL    HW220941   1.416   1.225   7.560
 1267SOL     OW20942   1.924   6.048   0.956
 1267SOL    HW120943   1.853   5.985   0.945
 1267SOL    HW220944   1.944   6.046   1.049
 1268SOL     OW20945   3.327   1.416   5.168
 1268SOL    HW120946   3.332   1.451   5.256
 1268SOL    HW220947   3.411   1.373   5.153
 1269SOL     OW20948   3.379   6.229   7.294
 1269SOL    HW120949   3.429   6.208   7.215
 1269SOL    HW220950   3.426   6.185   7.365
 1270SOL     OW20951   0.079   2.799   7.204
 1270SOL    HW120952   0.055   2.767   7.291
 1270SOL    HW220953   0.051   2.890   7.204
 1271SOL     OW20954   3.001   1.578   0.938
 1271SOL    HW120955   2.993   1.487   0.967
 1271SOL    HW220956   2.994   1.574   0.843
 1272SOL     OW20957   0.750   0.243   0.490
 1272SOL    HW120958   0.726   0.171   0.549
 1272SOL    HW220959   0.685   0.311   0.507
 1273SOL     OW20960   1.304   1.375   1.899
 1273SOL    HW120961   1.218   1.376   1.940
 1273SOL    HW220962   1.364   1.402   1.969
 1274SOL     OW20963   2.889   3.706   0.532
 1274SOL    HW120964   2.930   3.792   0.523
 1274SOL    HW220965   2.806   3.724   0.576
 1275SOL     OW20966   1.119   3.255   1.364
 1275SOL    HW120967   1.202   3.243   1.409
 1275SOL    HW220968   1.140   3.248   1.271
 1276SOL     OW20969   4.515   5.727   1.475
 1276SOL    HW120970   4.479   5.712   1.388
 1276SOL    HW220971   4.448   5.779   1.520
 1277SOL     OW20972   5.511   2.723   7.727
 1277SOL    HW120973   5.499   2.772   7.809
 1277SOL    HW220974   5.423   2.694   7.703
 1278SOL     OW20975   1.878   1.083   6.965
 1278SOL    HW120976   1.864   1.077   6.870
 1278SOL    HW220977   1.967   1.049   6.978
 1279SOL     OW20978   2.294   4.126   6.996
 1279SOL    HW120979   2.369   4.144   6.939
 1279SOL    HW220980   2.240   4.065   6.946
 1280SOL     OW20981   3.275   3.347   7.317
 1280SOL    HW120982   3.196   3.315   7.274
 1280SOL    HW220983   3.272   3.442   7.306
 1281SOL     OW20984   0.862   0.987   7.928
 1281SOL    HW120985   0.955   0.962   7.931
 1281SOL    HW220986   0.860   1.064   7.871
 1282SOL     OW20987   5.052   4.299   7.641
 1282SOL    HW120988   5.127   4.329   7.590
 1282SOL    HW220989   4.985   4.366   7.627
 1283SOL     OW20990   2.330   5.406   6.898
 1283SOL    HW120991   2.371   5.414   6.983
 1283SOL    HW220992   2.349   5.316   6.871
 1284SOL     OW20993   4.537   3.514   0.415
 1284SOL    HW120994   4.556   3.581   0.481
 1284SOL    HW220995   4.446   3.530   0.390
 1285SOL     OW20996   4.342   6.386   1.331
 1285SOL    HW120997   4.357   6.452   1.399
 1285SOL    HW220998   4.334   6.437   1.250
 1286SOL     OW20999   5.889   6.167   6.254
 1286SOL    HW121000   5.963   6.130   6.301
 1286SOL    HW221001   5.910   6.153   6.161
 1287SOL     OW21002   6.366   5.811   0.336
 1287SOL    HW121003   6.343   5.730   0.382
 1287SOL    HW221004   6.461   5.815   0.340
 1288SOL     OW21005   3.316   4.178   5.893
 1288SOL    HW121006   3.225   4.205   5.887
 1288SOL    HW221007   3.360   4.250   5.939
 1289SOL     OW21008   2.855   4.351   1.751
 1289SOL    HW121009   2.893   4.344   1.663
 1289SOL    HW221010   2.930   4.342   1.810
 1290SOL     OW21011   1.190   1.240   7.101
 1290SOL    HW121012   1.113   1.183   7.093
 1290SOL    HW221013   1.169   1.298   7.174
 1291SOL     OW21014   0.073   1.000   5.977
 1291SOL    HW121015   0.137   0.929   5.971
 1291SOL    HW221016   0.099   1.062   5.909
 1292SOL     OW21017   1.987   4.146   5.774
 1292SOL    HW121018   2.017   4.065   5.733
 1292SOL    HW221019   1.997   4.132   5.868
 1293SOL     OW21020   0.329   1.880   2.170
 1293SOL    HW121021   0.264   1.949   2.186
 1293SOL    HW221022   0.412   1.927   2.162
 1294SOL     OW21023   1.352   0.088   0.361
 1294SOL    HW121024   1.262   0.059   0.343
 1294SOL    HW221025   1.389   0.104   0.274
 1295SOL     OW21026   6.286   3.141   0.934
 1295SOL    HW121027   6.316   3.212   0.991
 1295SOL    HW221028   6.361   3.123   0.877
 1296SOL     OW21029   3.620   5.489   7.244
 1296SOL    HW121030   3.654   5.399   7.246
 1296SOL    HW221031   3.602   5.505   7.151
 1297SOL     OW21032   5.525   4.510   0.776
 1297SOL    HW121033   5.498   4.558   0.855
 1297SOL    HW221034   5.550   4.424   0.807
 1298SOL     OW21035   2.548   1.501   0.071
 1298SOL    HW121036   2.457   1.529   0.080
 1298SOL    HW221037   2.580   1.548  -0.006
 1299SOL     OW21038   3.662   2.524   7.025
 1299SOL    HW121039   3.719   2.546   7.099
 1299SOL    HW221040   3.625   2.608   6.998
 1300SOL     OW21041   1.921   5.012   6.316
 1300SOL    HW121042   1.998   4.999   6.261
 1300SOL    HW221043   1.861   4.941   6.292
 1301SOL     OW21044   1.128   0.196   7.555
 1301SOL    HW121045   1.048   0.210   7.504
 1301SOL    HW221046   1.195   0.179   7.488
 1302SOL     OW21047   4.401   2.857   0.520
 1302SOL    HW121048   4.446   2.912   0.456
 1302SOL    HW221049   4.309   2.863   0.498
 1303SOL     OW21050   1.121   1.578   1.093
 1303SOL    HW121051   1.075   1.519   1.153
 1303SOL    HW221052   1.132   1.528   1.013
 1304SOL     OW21053   5.474   4.688   7.877
 1304SOL    HW121054   5.459   4.657   7.787
 1304SOL    HW221055   5.560   4.731   7.874
 1305SOL     OW21056   2.481   2.167   0.939
 1305SOL    HW121057   2.523   2.162   0.853
 1305SOL    HW221058   2.422   2.091   0.941
 1306SOL     OW21059   0.295   5.972   6.509
 1306SOL    HW121060   0.252   6.050   6.543
 1306SOL    HW221061   0.385   5.977   6.542
 1307SOL     OW21062   2.619   2.463   6.741
 1307SOL    HW121063   2.704   2.419   6.742
 1307SOL    HW221064   2.639   2.556   6.738
 1308SOL     OW21065   5.750   2.151   1.931
 1308SOL    HW121066   5.711   2.071   1.896
 1308SOL    HW221067   5.693   2.176   2.004
 1309SOL     OW21068   3.222   1.192   0.531
 1309SOL    HW121069   3.205   1.285   0.550
 1309SOL    HW221070   3.167   1.145   0.593
 1310SOL     OW21071   5.135   0.471   1.674
 1310SOL    HW121072   5.144   0.385   1.715
 1310SOL    HW221073   5.187   0.530   1.729
 1311SOL     OW21074   4.794   1.704   6.252
 1311SOL    HW121075   4.828   1.627   6.297
 1311SOL    HW221076   4.772   1.765   6.323
 1312SOL     OW21077   0.173   3.162   6.016
 1312SOL    HW121078   0.205   3.253   6.018
 1312SOL    HW221079   0.237   3.115   5.963
 1313SOL     OW21080   5.735   2.355   7.507
 1313SOL    HW121081   5.762   2.299   7.579
 1313SOL    HW221082   5.642   2.339   7.497
 1314SOL     OW21083   3.676   4.088   5.720
 1314SOL    HW121084   3.706   4.009   5.677
 1314SOL    HW221085   3.616   4.057   5.788
 1315SOL     OW21086   4.382   5.429   1.352
 1315SOL    HW121087   4.462   5.471   1.382
 1315SOL    HW221088   4.411   5.349   1.310
 1316SOL     OW21089   1.112   2.307   7.677
 1316SOL    HW121090   1.034   2.275   7.632
 1316SOL    HW221091   1.088   2.394   7.710
 1317SOL     OW21092   4.039   0.029   5.513
 1317SOL    HW121093   3.944   0.022   5.511
 1317SOL    HW221094   4.068  -0.022   5.437
 1318SOL     OW21095   0.285   5.289   7.924
 1318SOL    HW121096   0.266   5.354   7.856
 1318SOL    HW221097   0.227   5.216   7.904
 1319SOL     OW21098   5.022   0.518   7.448
 1319SOL    HW121099   4.979   0.435   7.427
 1319SOL    HW221100   4.995   0.537   7.538
 1320SOL     OW21101   6.266   0.395   1.341
 1320SOL    HW121102   6.229   0.463   1.284
 1320SOL    HW221103   6.213   0.318   1.324
 1321SOL     OW21104   0.496   3.077   5.665
 1321SOL    HW121105   0.582   3.099   5.627
 1321SOL    HW221106   0.459   3.162   5.691
 1322SOL     OW21107   3.606   4.294   0.651
 1322SOL    HW121108   3.635   4.304   0.561
 1322SOL    HW221109   3.562   4.209   0.653
 1323SOL     OW21110   1.308   6.180   1.541
 1323SOL    HW121111   1.229   6.219   1.579
 1323SOL    HW221112   1.277   6.103   1.495
 1324SOL     OW21113   5.342   5.999   7.467
 1324SOL    HW121114   5.253   6.032   7.475
 1324SOL    HW221115   5.357   5.949   7.547
 1325SOL     OW21116   2.450   4.742   1.376
 1325SOL    HW121117   2.367   4.729   1.330
 1325SOL    HW221118   2.516   4.708   1.316
 1326SOL     OW21119   1.465   1.069   6.463
 1326SOL    HW121120   1.556   1.094   6.450
 1326SOL    HW221121   1.451   0.995   6.404
 1327SOL     OW21122   4.605   1.269   7.648
 1327SOL    HW121123   4.538   1.228   7.592
 1327SOL    HW221124   4.565   1.351   7.677
 1328SOL     OW21125   2.333   0.459   5.835
 1328SOL    HW121126   2.336   0.445   5.741
 1328SOL    HW221127   2.241   0.478   5.853
 1329SOL     OW21128   6.120   4.735   0.207
 1329SOL    HW121129   6.027   4.752   0.218
 1329SOL    HW221130   6.161   4.778   0.283
 1330SOL     OW21131   5.795   4.752   6.122
 1330SOL    HW121132   5.713   4.761   6.171
 1330SOL    HW221133   5.797   4.660   6.096
 1331SOL     OW21134   2.186   4.430   0.810
 1331SOL    HW121135   2.129   4.425   0.733
 1331SOL    HW221136   2.174   4.519   0.842
 1332SOL     OW21137   2.446   0.205   0.068
 1332SOL    HW121138   2.397   0.229  -0.010
 1332SOL    HW221139   2.391   0.234   0.141
 1333SOL     OW21140   5.034   2.335   1.222
 1333SOL    HW121141   5.096   2.331   1.149
 1333SOL    HW221142   5.089   2.352   1.298
 1334SOL     OW21143   4.673   6.066   6.229
 1334SOL    HW121144   4.749   6.029   6.185
 1334SOL    HW221145   4.621   6.106   6.159
 1335SOL     OW21146   3.004   5.501   7.860
 1335SOL    HW121147   3.044   5.430   7.810
 1335SOL    HW221148   3.025   5.482   7.950
 1336SOL     OW21149   5.334   1.022   6.286
 1336SOL    HW121150   5.267   1.010   6.219
 1336SOL    HW221151   5.331   0.942   6.338
 1337SOL     OW21152   3.470   4.861   1.833
 1337SOL    HW121153   3.561   4.840   1.855
 1337SOL    HW221154   3.431   4.891   1.915
 1338SOL     OW21155   1.356   2.709   1.526
 1338SOL    HW121156   1.433   2.670   1.485
 1338SOL    HW221157   1.302   2.635   1.552
 1339SOL     OW21158   0.480   3.108   6.212
 1339SOL    HW121159   0.530   3.079   6.288
 1339SOL    HW221160   0.469   3.203   6.225
 1340SOL     OW21161   1.964   2.524   0.294
 1340SOL    HW121162   2.014   2.479   0.362
 1340SOL    HW221163   1.909   2.456   0.256
 1341SOL     OW21164   3.128   3.475   1.768
 1341SOL    HW121165   3.198   3.412   1.750
 1341SOL    HW221166   3.131   3.487   1.863
 1342SOL     OW21167   1.743   0.813   6.285
 1342SOL    HW121168   1.651   0.832   6.271
 1342SOL    HW221169   1.745   0.747   6.354
 1343SOL     OW21170   6.040   2.938   6.725
 1343SOL    HW121171   6.113   2.881   6.700
 1343SOL    HW221172   5.964   2.879   6.727
 1344SOL     OW21173   3.105   0.207   4.767
 1344SOL    HW121174   3.074   0.287   4.809
 1344SOL    HW221175   3.192   0.193   4.804
 1345SOL     OW21176   2.646   2.694   7.626
 1345SOL    HW121177   2.614   2.783   7.616
 1345SOL    HW221178   2.601   2.660   7.703
 1346SOL     OW21179   0.151   1.452   6.319
 1346SOL    HW121180   0.066   1.433   6.359
 1346SOL    HW221181   0.131   1.472   6.228
 1347SOL     OW21182   6.146   1.121   0.102
 1347SOL    HW121183   6.113   1.043   0.057
 1347SOL    HW221184   6.078   1.144   0.165
 1348SOL     OW21185   4.419   1.079   0.021
 1348SOL    HW121186   4.469   1.025  -0.040
 1348SOL    HW221187   4.445   1.169   0.000
 1349SOL     OW21188   1.100   2.626   0.883
 1349SOL    HW121189   1.112   2.683   0.807
 1349SOL    HW221190   1.189   2.601   0.908
 1350SOL     OW21191   1.759   4.638   6.699
 1350SOL    HW121192   1.829   4.597   6.750
 1350SOL    HW221193   1.797   4.718   6.665
 1351SOL     OW21194   0.352   1.025   6.348
 1351SOL    HW121195   0.405   0.970   6.405
 1351SOL    HW221196   0.284   0.966   6.314
 1352SOL     OW21197   4.673   3.915   0.341
 1352SOL    HW121198   4.581   3.915   0.314
 1352SOL    HW221199   4.722   3.902   0.260
 1353SOL     OW21200   0.343   5.938   6.161
 1353SOL    HW121201   0.342   5.842   6.170
 1353SOL    HW221202   0.436   5.962   6.167
 1354SOL     OW21203   5.712   0.865   1.747
 1354SOL    HW121204   5.732   0.941   1.801
 1354SOL    HW221205   5.709   0.792   1.809
 1355SOL     OW21206   0.888   2.387   7.524
 1355SOL    HW121207   0.871   2.477   7.497
 1355SOL    HW221208   0.856   2.333   7.451
 1356SOL     OW21209   3.329   1.707   0.220
 1356SOL    HW121210   3.356   1.617   0.238
 1356SOL    HW221211   3.388   1.736   0.151
 1357SOL     OW21212   0.251   0.060   0.847
 1357SOL    HW121213   0.301  -0.003   0.900
 1357SOL    HW221214   0.182   0.008   0.807
 1358SOL     OW21215   5.169   6.342   1.062
 1358SOL    HW121216   5.164   6.253   1.028
 1358SOL    HW221217   5.187   6.332   1.155
 1359SOL     OW21218   3.028   3.643   7.454
 1359SOL    HW121219   2.940   3.650   7.489
 1359SOL    HW221220   3.085   3.645   7.531
 1360SOL     OW21221   2.584   1.935   5.803
 1360SOL    HW121222   2.622   1.968   5.722
 1360SOL    HW221223   2.654   1.884   5.843
 1361SOL     OW21224   0.463   3.504   2.771
 1361SOL    HW121225   0.383   3.453   2.758
 1361SOL    HW221226   0.526   3.465   2.710
 1362SOL     OW21227   0.663   5.077   0.143
 1362SOL    HW121228   0.681   5.066   0.050
 1362SOL    HW221229   0.567   5.084   0.148
 1363SOL     OW21230   5.888   3.698   0.629
 1363SOL    HW121231   5.980   3.714   0.650
 1363SOL    HW221232   5.850   3.662   0.709
 1364SOL     OW21233   0.803   3.532   6.116
 1364SOL    HW121234   0.730   3.555   6.059
 1364SOL    HW221235   0.767   3.541   6.205
 1365SOL     OW21236   5.001   1.636   6.903
 1365SOL    HW121237   5.062   1.674   6.965
 1365SOL    HW221238   4.942   1.582   6.956
 1366SOL     OW21239   1.594   3.720   0.191
 1366SOL    HW121240   1.681   3.683   0.205
 1366SOL    HW221241   1.567   3.686   0.105
 1367SOL     OW21242   5.755   3.473   6.332
 1367SOL    HW121243   5.796   3.510   6.253
 1367SOL    HW221244   5.759   3.544   6.396
 1368SOL     OW21245   3.317   0.625   2.294
 1368SOL    HW121246   3.408   0.617   2.268
 1368SOL    HW221247   3.317   0.692   2.363
 1369SOL     OW21248   1.123   4.370   5.970
 1369SOL    HW121249   1.168   4.321   6.038
 1369SOL    HW221250   1.031   4.372   5.999
 1370SOL     OW21251   2.161   3.660   7.530
 1370SOL    HW121252   2.217   3.737   7.540
 1370SOL    HW221253   2.190   3.619   7.449
 1371SOL     OW21254   3.431   1.376   1.732
 1371SOL    HW121255   3.516   1.413   1.708
 1371SOL    HW221256   3.438   1.356   1.825
 1372SOL     OW21257   5.279   1.968   7.199
 1372SOL    HW121258   5.288   1.882   7.158
 1372SOL    HW221259   5.209   1.957   7.264
 1373SOL     OW21260   4.433   5.543   7.904
 1373SOL    HW121261   4.506   5.537   7.843
 1373SOL    HW221262   4.417   5.453   7.931
 1374SOL     OW21263   3.306   2.456   0.487
 1374SOL    HW121264   3.260   2.406   0.420
 1374SOL    HW221265   3.394   2.418   0.489
 1375SOL     OW21266   2.167   3.417   0.943
 1375SOL    HW121267   2.151   3.366   1.022
 1375SOL    HW221268   2.096   3.391   0.884
 1376SOL     OW21269   0.053   1.090   6.275
 1376SOL    HW121270   0.111   1.024   6.239
 1376SOL    HW221271   0.042   1.154   6.204
 1377SOL     OW21272   6.086   2.590   1.480
 1377SOL    HW121273   6.064   2.682   1.465
 1377SOL    HW221274   6.096   2.584   1.575
 1378SOL     OW21275   5.057   0.573   0.209
 1378SOL    HW121276   4.970   0.602   0.234
 1378SOL    HW221277   5.045   0.532   0.123
 1379SOL     OW21278   1.497   3.453   1.903
 1379SOL    HW121279   1.531   3.371   1.939
 1379SOL    HW221280   1.420   3.472   1.956
 1380SOL     OW21281   1.515   0.765   1.221
 1380SOL    HW121282   1.426   0.734   1.205
 1380SOL    HW221283   1.564   0.739   1.142
 1381SOL     OW21284   4.875   4.905   7.380
 1381SOL    HW121285   4.841   4.929   7.294
 1381SOL    HW221286   4.962   4.947   7.384
 1382SOL     OW21287   2.351   2.036   0.027
 1382SOL    HW121288   2.259   2.013   0.037
 1382SOL    HW221289   2.378   1.993  -0.054
 1383SOL     OW21290   0.892   1.173   7.732
 1383SOL    HW121291   0.873   1.262   7.702
 1383SOL    HW221292   0.916   1.126   7.653
 1384SOL     OW21293   1.576   5.682   5.857
 1384SOL    HW121294   1.617   5.646   5.779
 1384SOL    HW221295   1.560   5.606   5.913
 1385SOL     OW21296   0.743   3.907   6.016
 1385SOL    HW121297   0.649   3.915   6.030
 1385SOL    HW221298   0.756   3.816   5.988
 1386SOL     OW21299   3.085   1.965   2.306
 1386SOL    HW121300   3.113   2.049   2.343
 1386SOL    HW221301   3.078   1.981   2.212
 1387SOL     OW21302   3.364   2.046   0.721
 1387SOL    HW121303   3.291   2.029   0.781
 1387SOL    HW221304   3.403   2.127   0.754
 1388SOL     OW21305   4.134   6.079   6.092
 1388SOL    HW121306   4.148   6.168   6.058
 1388SOL    HW221307   4.209   6.029   6.060
 1389SOL     OW21308   1.710   4.042   7.132
 1389SOL    HW121309   1.763   4.113   7.096
 1389SOL    HW221310   1.630   4.084   7.163
 1390SOL     OW21311   4.791   3.115   0.177
 1390SOL    HW121312   4.836   3.180   0.124
 1390SOL    HW221313   4.799   3.148   0.267
 1391SOL     OW21314   3.049   0.023   1.532
 1391SOL    HW121315   3.129  -0.020   1.561
 1391SOL    HW221316   3.038  -0.005   1.441
 1392SOL     OW21317   5.431   1.130   6.526
 1392SOL    HW121318   5.506   1.090   6.482
 1392SOL    HW221319   5.355   1.104   6.474
 1393SOL     OW21320   6.125   5.453   7.328
 1393SOL    HW121321   6.130   5.417   7.239
 1393SOL    HW221322   6.206   5.503   7.338
 1394SOL     OW21323   4.573   4.386   1.655
 1394SOL    HW121324   4.546   4.404   1.745
 1394SOL    HW221325   4.648   4.444   1.640
 1395SOL     OW21326   6.215   0.370   6.723
 1395SOL    HW121327   6.133   0.344   6.765
 1395SOL    HW221328   6.282   0.316   6.765
 1396SOL     OW21329   3.215   2.397   5.641
 1396SOL    HW121330   3.260   2.316   5.617
 1396SOL    HW221331   3.266   2.466   5.599
 1397SOL     OW21332   2.167   1.140   5.918
 1397SOL    HW121333   2.101   1.143   5.987
 1397SOL    HW221334   2.119   1.156   5.837
 1398SOL     OW21335   1.813   4.283   6.137
 1398SOL    HW121336   1.854   4.201   6.109
 1398SOL    HW221337   1.828   4.342   6.063
 1399SOL     OW21338   0.715   2.077   1.363
 1399SOL    HW121339   0.792   2.112   1.319
 1399SOL    HW221340   0.646   2.142   1.349
 1400SOL     OW21341   6.167   5.280   7.117
 1400SOL    HW121342   6.125   5.194   7.112
 1400SOL    HW221343   6.205   5.293   7.030
 1401SOL     OW21344   3.860   5.685   2.132
 1401SOL    HW121345   3.791   5.746   2.160
 1401SOL    HW221346   3.935   5.707   2.188
 1402SOL     OW21347   5.574   3.416   1.875
 1402SOL    HW121348   5.514   3.470   1.927
 1402SOL    HW221349   5.558   3.326   1.904
 1403SOL     OW21350   3.886   4.766   1.505
 1403SOL    HW121351   3.851   4.694   1.454
 1403SOL    HW221352   3.810   4.819   1.528
 1404SOL     OW21353   0.499   3.380   2.087
 1404SOL    HW121354   0.538   3.330   2.015
 1404SOL    HW221355   0.489   3.316   2.157
 1405SOL     OW21356   2.219   2.248   6.110
 1405SOL    HW121357   2.209   2.162   6.070
 1405SOL    HW221358   2.275   2.296   6.049
 1406SOL     OW21359   4.838   4.128   0.521
 1406SOL    HW121360   4.909   4.170   0.471
 1406SOL    HW221361   4.878   4.050   0.558
 1407SOL     OW21362   2.698   2.879   7.344
 1407SOL    HW121363   2.769   2.920   7.294
 1407SOL    HW221364   2.619   2.923   7.312
 1408SOL     OW21365   4.226   4.381   0.387
 1408SOL    HW121366   4.295   4.428   0.433
 1408SOL    HW221367   4.271   4.309   0.343
 1409SOL     OW21368   4.676   1.497   0.030
 1409SOL    HW121369   4.589   1.534   0.042
 1409SOL    HW221370   4.688   1.493  -0.064
 1410SOL     OW21371   5.238   0.291   6.460
 1410SOL    HW121372   5.148   0.261   6.446
 1410SOL    HW221373   5.275   0.297   6.372
 1411SOL     OW21374   5.518   2.851   7.424
 1411SOL    HW121375   5.562   2.768   7.403
 1411SOL    HW221376   5.519   2.855   7.520
 1412SOL     OW21377   2.536   5.183   7.097
 1412SOL    HW121378   2.535   5.105   7.153
 1412SOL    HW221379   2.503   5.153   7.013
 1413SOL     OW21380   2.829   1.877   6.319
 1413SOL    HW121381   2.829   1.968   6.290
 1413SOL    HW221382   2.834   1.882   6.414
 1414SOL     OW21383   1.927   4.883   7.867
 1414SOL    HW121384   1.910   4.977   7.865
 1414SOL    HW221385   2.013   4.876   7.909
 1415SOL     OW21386   5.786   3.789   2.355
 1415SOL    HW121387   5.765   3.706   2.397
 1415SOL    HW221388   5.722   3.851   2.391
 1416SOL     OW21389   5.774   3.207   2.116
 1416SOL    HW121390   5.687   3.202   2.075
 1416SOL    HW221391   5.762   3.265   2.191
 1417SOL     OW21392   6.143   3.447   2.050
 1417SOL    HW121393   6.132   3.501   2.129
 1417SOL    HW221394   6.237   3.431   2.044
 1418SOL     OW21395   4.411   2.295   7.756
 1418SOL    HW121396   4.464   2.374   7.772
 1418SOL    HW221397   4.360   2.285   7.836
 1419SOL     OW21398   1.244   1.073   0.996
 1419SOL    HW121399   1.244   0.984   1.031
 1419SOL    HW221400   1.288   1.065   0.911
 1420SOL     OW21401   3.036   4.817   0.637
 1420SOL    HW121402   2.965   4.821   0.572
 1420SOL    HW221403   3.021   4.736   0.685
 1421SOL     OW21404   2.718   1.559   6.060
 1421SOL    HW121405   2.710   1.475   6.106
 1421SOL    HW221406   2.657   1.553   5.987
 1422SOL     OW21407   6.353   1.699   0.483
 1422SOL    HW121408   6.377   1.662   0.398
 1422SOL    HW221409   6.433   1.695   0.535
 1423SOL     OW21410   3.707   5.422   6.545
 1423SOL    HW121411   3.790   5.374   6.539
 1423SOL    HW221412   3.731   5.514   6.533
 1424SOL     OW21413   3.477   3.030   1.375
 1424SOL    HW121414   3.498   3.028   1.282
 1424SOL    HW221415   3.476   3.123   1.397
 1425SOL     OW21416   4.562   2.066   7.348
 1425SOL    HW121417   4.631   2.082   7.284
 1425SOL    HW221418   4.609   2.047   7.430
 1426SOL     OW21419   3.632   4.437   0.424
 1426SOL    HW121420   3.684   4.502   0.472
 1426SOL    HW221421   3.576   4.490   0.367
 1427SOL     OW21422   6.195   0.601   5.903
 1427SOL    HW121423   6.182   0.521   5.852
 1427SOL    HW221424   6.286   0.597   5.931
 1428SOL     OW21425   3.537   4.478   2.101
 1428SOL    HW121426   3.524   4.556   2.155
 1428SOL    HW221427   3.451   4.462   2.062
 1429SOL     OW21428   0.798   3.081   7.497
 1429SOL    HW121429   0.704   3.072   7.481
 1429SOL    HW221430   0.824   3.157   7.446
 1430SOL     OW21431   2.953   4.214   0.496
 1430SOL    HW121432   2.953   4.309   0.484
 1430SOL    HW221433   2.873   4.196   0.545
 1431SOL     OW21434   2.754   3.737   1.673
 1431SOL    HW121435   2.781   3.680   1.746
 1431SOL    HW221436   2.702   3.680   1.617
 1432SOL     OW21437   0.778   3.336   1.164
 1432SOL    HW121438   0.855   3.368   1.117
 1432SOL    HW221439   0.807   3.253   1.203
 1433SOL     OW21440   5.080   4.863   6.995
 1433SOL    HW121441   5.142   4.841   6.926
 1433SOL    HW221442   5.000   4.889   6.948
 1434SOL     OW21443   0.761   3.875   7.174
 1434SOL    HW121444   0.763   3.959   7.128
 1434SOL    HW221445   0.841   3.830   7.145
 1435SOL     OW21446   5.976   1.154   6.765
 1435SOL    HW121447   6.007   1.063   6.758
 1435SOL    HW221448   5.896   1.156   6.713
 1436SOL     OW21449   4.296   4.584   1.193
 1436SOL    HW121450   4.262   4.660   1.240
 1436SOL    HW221451   4.270   4.598   1.102
 1437SOL     OW21452   4.975   3.085   6.334
 1437SOL    HW121453   4.971   3.164   6.388
 1437SOL    HW221454   5.056   3.041   6.360
 1438SOL     OW21455   3.050   1.437   0.027
 1438SOL    HW121456   3.089   1.514  -0.015
 1438SOL    HW221457   2.976   1.471   0.077
 1439SOL     OW21458   6.097   4.224   0.246
 1439SOL    HW121459   6.146   4.305   0.235
 1439SOL    HW221460   6.154   4.168   0.299
 1440SOL     OW21461   2.737   3.979   7.803
 1440SOL    HW121462   2.664   3.953   7.860
 1440SOL    HW221463   2.811   3.988   7.862
 1441SOL     OW21464   2.360   0.473   1.053
 1441SOL    HW121465   2.321   0.554   1.023
 1441SOL    HW221466   2.453   0.482   1.033
 1442SOL     OW21467   2.870   3.333   7.426
 1442SOL    HW121468   2.782   3.308   7.396
 1442SOL    HW221469   2.854   3.398   7.494
 1443SOL     OW21470   1.833   1.868   0.088
 1443SOL    HW121471   1.840   1.939   0.152
 1443SOL    HW221472   1.745   1.833   0.101
 1444SOL     OW21473   5.425   5.922   7.735
 1444SOL    HW121474   5.396   6.007   7.768
 1444SOL    HW221475   5.373   5.858   7.784
 1445SOL     OW21476   5.741   2.947   7.109
 1445SOL    HW121477   5.762   2.981   7.196
 1445SOL    HW221478   5.825   2.920   7.074
 1446SOL     OW21479   3.753   3.275   1.374
 1446SOL    HW121480   3.847   3.293   1.365
 1446SOL    HW221481   3.718   3.287   1.286
 1447SOL     OW21482   5.389   4.349   5.829
 1447SOL    HW121483   5.462   4.394   5.870
 1447SOL    HW221484   5.419   4.259   5.818
 1448SOL     OW21485   2.708   3.223   6.859
 1448SOL    HW121486   2.686   3.290   6.924
 1448SOL    HW221487   2.783   3.258   6.813
 1449SOL     OW21488   0.991   1.338   6.820
 1449SOL    HW121489   0.941   1.272   6.771
 1449SOL    HW221490   1.078   1.301   6.828
 1450SOL     OW21491   5.618   0.506   1.678
 1450SOL    HW121492   5.613   0.544   1.766
 1450SOL    HW221493   5.541   0.541   1.633
 1451SOL     OW21494   1.243   1.241   6.844
 1451SOL    HW121495   1.274   1.250   6.934
 1451SOL    HW221496   1.196   1.157   6.843
 1452SOL     OW21497   1.085   5.463   7.034
 1452SOL    HW121498   1.093   5.433   6.944
 1452SOL    HW221499   1.007   5.519   7.034
 1453SOL     OW21500   0.019   2.467   5.690
 1453SOL    HW121501   0.076   2.504   5.757
 1453SOL    HW221502   0.047   2.509   5.608
 1454SOL     OW21503   3.432   5.421   6.508
 1454SOL    HW121504   3.512   5.381   6.541
 1454SOL    HW221505   3.435   5.404   6.413
 1455SOL     OW21506   5.600   4.452   6.814
 1455SOL    HW121507   5.613   4.453   6.719
 1455SOL    HW221508   5.640   4.370   6.843
 1456SOL     OW21509   5.513   1.260   1.170
 1456SOL    HW121510   5.420   1.274   1.188
 1456SOL    HW221511   5.527   1.300   1.084
 1457SOL     OW21512   6.254   2.715   6.187
 1457SOL    HW121513   6.287   2.747   6.102
 1457SOL    HW221514   6.319   2.746   6.250
 1458SOL     OW21515   3.273   1.136   2.260
 1458SOL    HW121516   3.225   1.187   2.325
 1458SOL    HW221517   3.237   1.164   2.176
 1459SOL     OW21518   6.088   3.498   6.818
 1459SOL    HW121519   6.034   3.577   6.816
 1459SOL    HW221520   6.137   3.501   6.736
 1460SOL     OW21521   5.823   5.165   1.327
 1460SOL    HW121522   5.739   5.189   1.368
 1460SOL    HW221523   5.888   5.183   1.395
 1461SOL     OW21524   2.086   1.564   1.956
 1461SOL    HW121525   2.121   1.629   2.018
 1461SOL    HW221526   2.038   1.502   2.011
 1462SOL     OW21527   5.676   6.230   6.940
 1462SOL    HW121528   5.744   6.231   6.873
 1462SOL    HW221529   5.594   6.220   6.891
 1463SOL     OW21530   1.184   6.250   6.906
 1463SOL    HW121531   1.103   6.286   6.942
 1463SOL    HW221532   1.184   6.158   6.935
 1464SOL     OW21533   5.636   1.413   6.366
 1464SOL    HW121534   5.593   1.344   6.316
 1464SOL    HW221535   5.565   1.454   6.416
 1465SOL     OW21536   5.022   5.112   5.620
 1465SOL    HW121537   5.011   5.029   5.573
 1465SOL    HW221538   4.966   5.104   5.697
 1466SOL     OW21539   6.057   6.076   2.043
 1466SOL    HW121540   5.967   6.043   2.037
 1466SOL    HW221541   6.065   6.138   1.971
 1467SOL     OW21542   2.595   1.623   7.746
 1467SOL    HW121543   2.603   1.696   7.684
 1467SOL    HW221544   2.669   1.633   7.805
 1468SOL     OW21545   5.390   0.196   1.266
 1468SOL    HW121546   5.374   0.288   1.287
 1468SOL    HW221547   5.398   0.153   1.351
 1469SOL     OW21548   0.659   1.753   6.756
 1469SOL    HW121549   0.714   1.691   6.710
 1469SOL    HW221550   0.718   1.823   6.783
 1470SOL     OW21551   5.620   2.620   7.269
 1470SOL    HW121552   5.691   2.669   7.228
 1470SOL    HW221553   5.570   2.584   7.196
 1471SOL     OW21554   1.509   1.761   6.173
 1471SOL    HW121555   1.582   1.768   6.111
 1471SOL    HW221556   1.452   1.835   6.152
 1472SOL     OW21557   0.954   2.957   6.711
 1472SOL    HW121558   0.996   2.882   6.753
 1472SOL    HW221559   0.918   2.921   6.630
 1473SOL     OW21560   1.962   4.387   7.526
 1473SOL    HW121561   1.995   4.414   7.440
 1473SOL    HW221562   1.913   4.306   7.509
 1474SOL     OW21563   2.833   5.763   6.954
 1474SOL    HW121564   2.861   5.825   7.022
 1474SOL    HW221565   2.885   5.685   6.970
 1475SOL     OW21566   1.973   1.929   1.833
 1475SOL    HW121567   1.974   1.978   1.751
 1475SOL    HW221568   2.046   1.966   1.884
 1476SOL     OW21569   3.279   3.248   6.872
 1476SOL    HW121570   3.316   3.335   6.884
 1476SOL    HW221571   3.242   3.249   6.784
 1477SOL     OW21572   3.810   5.245   1.009
 1477SOL    HW121573   3.771   5.305   0.946
 1477SOL    HW221574   3.822   5.164   0.960
 1478SOL     OW21575   1.389   4.085   1.906
 1478SOL    HW121576   1.464   4.140   1.882
 1478SOL    HW221577   1.337   4.139   1.965
 1479SOL     OW21578   0.177   2.540   7.325
 1479SOL    HW121579   0.179   2.467   7.388
 1479SOL    HW221580   0.208   2.615   7.375
 1480SOL     OW21581   0.488   5.954   7.942
 1480SOL    HW121582   0.527   5.989   7.862
 1480SOL    HW221583   0.401   5.994   7.946
 1481SOL     OW21584   4.366   5.136   0.332
 1481SOL    HW121585   4.349   5.080   0.256
 1481SOL    HW221586   4.459   5.157   0.326
 1482SOL     OW21587   2.172   3.204   0.021
 1482SOL    HW121588   2.097   3.264   0.025
 1482SOL    HW221589   2.141   3.125   0.066
 1483SOL     OW21590   3.878   6.058   2.176
 1483SOL    HW121591   3.837   5.975   2.201
 1483SOL    HW221592   3.955   6.033   2.124
 1484SOL     OW21593   5.020   5.178   6.801
 1484SOL    HW121594   5.086   5.246   6.794
 1484SOL    HW221595   4.969   5.202   6.879
 1485SOL     OW21596   4.073   0.596   0.707
 1485SOL    HW121597   4.118   0.517   0.676
 1485SOL    HW221598   3.985   0.590   0.668
 1486SOL     OW21599   6.065   5.417   6.445
 1486SOL    HW121600   6.019   5.352   6.499
 1486SOL    HW221601   6.001   5.487   6.432
 1487SOL     OW21602   3.879   5.090   0.090
 1487SOL    HW121603   3.887   5.007   0.042
 1487SOL    HW221604   3.835   5.149   0.029
 1488SOL     OW21605   2.571   0.038   6.794
 1488SOL    HW121606   2.656   0.029   6.837
 1488SOL    HW221607   2.551  -0.049   6.760
 1489SOL     OW21608   0.154   2.300   1.779
 1489SOL    HW121609   0.114   2.386   1.765
 1489SOL    HW221610   0.081   2.238   1.770
 1490SOL     OW21611   2.307   5.540   6.437
 1490SOL    HW121612   2.226   5.569   6.477
 1490SOL    HW221613   2.296   5.561   6.344
 1491SOL     OW21614   4.535   5.685   1.188
 1491SOL    HW121615   4.469   5.729   1.135
 1491SOL    HW221616   4.615   5.692   1.137
 1492SOL     OW21617   0.291   2.228   7.072
 1492SOL    HW121618   0.226   2.297   7.084
 1492SOL    HW221619   0.243   2.157   7.028
 1493SOL     OW21620   0.214   0.193   0.603
 1493SOL    HW121621   0.229   0.161   0.692
 1493SOL    HW221622   0.121   0.218   0.602
 1494SOL     OW21623   0.490   1.965   1.580
 1494SOL    HW121624   0.463   1.883   1.538
 1494SOL    HW221625   0.470   1.953   1.672
 1495SOL     OW21626   5.030   0.714   2.261
 1495SOL    HW121627   4.942   0.748   2.240
 1495SOL    HW221628   5.087   0.790   2.254
 1496SOL     OW21629   5.317   6.173   7.789
 1496SOL    HW121630   5.224   6.184   7.768
 1496SOL    HW221631   5.361   6.240   7.738
 1497SOL     OW21632   0.064   1.732   0.169
 1497SOL    HW121633   0.156   1.759   0.169
 1497SOL    HW221634   0.015   1.814   0.171
 1498SOL     OW21635   3.692   4.945   1.130
 1498SOL    HW121636   3.641   5.018   1.164
 1498SOL    HW221637   3.651   4.867   1.168
 1499SOL     OW21638   0.100   2.402   7.606
 1499SOL    HW121639   0.040   2.445   7.545
 1499SOL    HW221640   0.081   2.443   7.691
 1500SOL     OW21641   0.371   3.766   2.614
 1500SOL    HW121642   0.394   3.687   2.663
 1500SOL    HW221643   0.283   3.748   2.580
 1501SOL     OW21644   3.634   1.220   6.458
 1501SOL    HW121645   3.713   1.273   6.469
 1501SOL    HW221646   3.576   1.276   6.405
 1502SOL     OW21647   0.585   4.212   5.255
 1502SOL    HW121648   0.585   4.131   5.307
 1502SOL    HW221649   0.493   4.238   5.252
 1503SOL     OW21650   2.242   3.365   7.700
 1503SOL    HW121651   2.147   3.364   7.692
 1503SOL    HW221652   2.261   3.307   7.774
 1504SOL     OW21653   0.530   2.884   7.765
 1504SOL    HW121654   0.528   2.875   7.670
 1504SOL    HW221655   0.530   2.793   7.797
 1505SOL     OW21656   2.439   5.411   7.473
 1505SOL    HW121657   2.383   5.334   7.478
 1505SOL    HW221658   2.527   5.377   7.457
 1506SOL     OW21659   0.471   3.819   6.464
 1506SOL    HW121660   0.453   3.725   6.463
 1506SOL    HW221661   0.562   3.825   6.491
 1507SOL     OW21662   0.734   0.486   5.948
 1507SOL    HW121663   0.779   0.545   5.888
 1507SOL    HW221664   0.751   0.398   5.913
 1508SOL     OW21665   2.868   2.300   6.838
 1508SOL    HW121666   2.856   2.209   6.868
 1508SOL    HW221667   2.952   2.326   6.874
 1509SOL     OW21668   5.040   1.042   0.525
 1509SOL    HW121669   5.009   1.130   0.549
 1509SOL    HW221670   4.966   0.985   0.547
 1510SOL     OW21671   5.809   1.865   6.165
 1510SOL    HW121672   5.789   1.775   6.190
 1510SOL    HW221673   5.745   1.885   6.096
 1511SOL     OW21674   5.378   5.437   5.679
 1511SOL    HW121675   5.460   5.447   5.631
 1511SOL    HW221676   5.319   5.395   5.618
 1512SOL     OW21677   0.051   1.924   0.839
 1512SOL    HW121678   0.020   1.861   0.905
 1512SOL    HW221679   0.101   1.871   0.777
 1513SOL     OW21680   5.423   4.508   7.129
 1513SOL    HW121681   5.395   4.598   7.143
 1513SOL    HW221682   5.518   4.513   7.115
 1514SOL     OW21683   1.236   4.426   7.179
 1514SOL    HW121684   1.144   4.429   7.152
 1514SOL    HW221685   1.257   4.332   7.181
 1515SOL     OW21686   5.409   3.271   6.932
 1515SOL    HW121687   5.494   3.229   6.942
 1515SOL    HW221688   5.393   3.272   6.838
 1516SOL     OW21689   6.213   6.187   5.840
 1516SOL    HW121690   6.266   6.259   5.806
 1516SOL    HW221691   6.277   6.128   5.882
 1517SOL     OW21692   1.379   3.247   1.460
 1517SOL    HW121693   1.398   3.155   1.445
 1517SOL    HW221694   1.455   3.294   1.427
 1518SOL     OW21695   2.841   4.448   6.626
 1518SOL    HW121696   2.749   4.472   6.640
 1518SOL    HW221697   2.888   4.531   6.623
 1519SOL     OW21698   4.806   6.339   7.589
 1519SOL    HW121699   4.838   6.412   7.642
 1519SOL    HW221700   4.792   6.376   7.502
 1520SOL     OW21701   4.066   1.639   0.416
 1520SOL    HW121702   4.116   1.684   0.349
 1520SOL    HW221703   4.034   1.709   0.473
 1521SOL     OW21704   0.607   1.051   6.775
 1521SOL    HW121705   0.519   1.086   6.769
 1521SOL    HW221706   0.655   1.095   6.705
 1522SOL     OW21707   1.357   6.240   6.388
 1522SOL    HW121708   1.364   6.332   6.416
 1522SOL    HW221709   1.395   6.239   6.301
 1523SOL     OW21710   3.090   0.443   7.504
 1523SOL    HW121711   3.108   0.378   7.572
 1523SOL    HW221712   3.132   0.523   7.536
 1524SOL     OW21713   1.751   4.413   7.270
 1524SOL    HW121714   1.839   4.401   7.235
 1524SOL    HW221715   1.736   4.508   7.264
 1525SOL     OW21716   0.176   2.919   0.605
 1525SOL    HW121717   0.091   2.959   0.622
 1525SOL    HW221718   0.215   2.909   0.692
 1526SOL     OW21719   0.534   5.844   6.851
 1526SOL    HW121720   0.613   5.891   6.877
 1526SOL    HW221721   0.469   5.912   6.837
 1527SOL     OW21722   5.978   6.049   6.602
 1527SOL    HW121723   6.000   6.052   6.509
 1527SOL    HW221724   6.056   6.015   6.644
 1528SOL     OW21725   6.152   0.928   6.769
 1528SOL    HW121726   6.209   0.939   6.845
 1528SOL    HW221727   6.202   0.961   6.695
 1529SOL     OW21728   2.786   5.456   6.608
 1529SOL    HW121729   2.737   5.442   6.689
 1529SOL    HW221730   2.722   5.495   6.548
 1530SOL     OW21731   3.608   1.859   5.107
 1530SOL    HW121732   3.605   1.781   5.163
 1530SOL    HW221733   3.537   1.847   5.044
 1531SOL     OW21734   1.550   1.614   0.621
 1531SOL    HW121735   1.612   1.573   0.561
 1531SOL    HW221736   1.497   1.670   0.565
 1532SOL     OW21737   0.221   1.377   7.556
 1532SOL    HW121738   0.225   1.284   7.579
 1532SOL    HW221739   0.203   1.421   7.639
 1533SOL     OW21740   5.677   3.105   7.755
 1533SOL    HW121741   5.667   3.180   7.814
 1533SOL    HW221742   5.669   3.029   7.812
 1534SOL     OW21743   3.953   3.470   7.825
 1534SOL    HW121744   3.878   3.413   7.813
 1534SOL    HW221745   4.029   3.413   7.813
 1535SOL     OW21746   6.309   1.914   7.482
 1535SOL    HW121747   6.377   1.968   7.523
 1535SOL    HW221748   6.316   1.829   7.525
 1536SOL     OW21749   5.857   4.637   2.036
 1536SOL    HW121750   5.911   4.708   2.071
 1536SOL    HW221751   5.807   4.607   2.111
 1537SOL     OW21752   3.625   2.382   7.343
 1537SOL    HW121753   3.652   2.474   7.340
 1537SOL    HW221754   3.703   2.335   7.372
 1538SOL     OW21755   4.359   1.350   7.096
 1538SOL    HW121756   4.399   1.299   7.166
 1538SOL    HW221757   4.327   1.285   7.034
 1539SOL     OW21758   2.607   6.328   0.394
 1539SOL    HW121759   2.543   6.398   0.407
 1539SOL    HW221760   2.686   6.359   0.439
 1540SOL     OW21761   3.157   4.190   1.090
 1540SOL    HW121762   3.144   4.178   1.184
 1540SOL    HW221763   3.213   4.268   1.084
 1541SOL     OW21764   3.203   0.631   0.868
 1541SOL    HW121765   3.274   0.641   0.804
 1541SOL    HW221766   3.140   0.698   0.843
 1542SOL     OW21767   6.014   4.157   1.731
 1542SOL    HW121768   5.994   4.069   1.699
 1542SOL    HW221769   5.932   4.187   1.770
 1543SOL     OW21770   3.758   1.258   0.326
 1543SOL    HW121771   3.819   1.221   0.263
 1543SOL    HW221772   3.701   1.184   0.350
 1544SOL     OW21773   3.615   2.296   7.846
 1544SOL    HW121774   3.579   2.369   7.796
 1544SOL    HW221775   3.563   2.294   7.926
 1545SOL     OW21776   1.750   2.404   0.656
 1545SOL    HW121777   1.680   2.373   0.713
 1545SOL    HW221778   1.708   2.471   0.602
 1546SOL     OW21779   3.213   1.705   6.180
 1546SOL    HW121780   3.121   1.701   6.207
 1546SOL    HW221781   3.259   1.655   6.247
 1547SOL     OW21782   6.107   2.529   5.260
 1547SOL    HW121783   6.119   2.436   5.275
 1547SOL    HW221784   6.049   2.534   5.184
 1548SOL     OW21785   1.937   6.136   5.429
 1548SOL    HW121786   1.967   6.169   5.345
 1548SOL    HW221787   1.853   6.179   5.444
 1549SOL     OW21788   3.282   1.170   6.192
 1549SOL    HW121789   3.324   1.123   6.120
 1549SOL    HW221790   3.198   1.199   6.157
 1550SOL     OW21791   2.018   4.602   0.297
 1550SOL    HW121792   1.963   4.535   0.336
 1550SOL    HW221793   1.988   4.684   0.336
 1551SOL     OW21794   3.953   3.787   0.515
 1551SOL    HW121795   3.889   3.846   0.477
 1551SOL    HW221796   4.021   3.779   0.448
 1552SOL     OW21797   1.028   1.231   0.193
 1552SOL    HW121798   1.070   1.293   0.252
 1552SOL    HW221799   1.034   1.147   0.239
 1553SOL     OW21800   2.820   3.301   0.370
 1553SOL    HW121801   2.743   3.357   0.357
 1553SOL    HW221802   2.875   3.350   0.431
 1554SOL     OW21803   0.746   5.731   5.745
 1554SOL    HW121804   0.747   5.652   5.799
 1554SOL    HW221805   0.794   5.708   5.666
 1555SOL     OW21806   4.935   3.187   7.417
 1555SOL    HW121807   4.916   3.263   7.363
 1555SOL    HW221808   5.004   3.216   7.477
 1556SOL     OW21809   5.470   2.080   0.691
 1556SOL    HW121810   5.513   1.994   0.696
 1556SOL    HW221811   5.485   2.108   0.600
 1557SOL     OW21812   3.231   0.797   1.193
 1557SOL    HW121813   3.246   0.737   1.266
 1557SOL    HW221814   3.190   0.873   1.233
 1558SOL     OW21815   0.400   6.194   1.374
 1558SOL    HW121816   0.407   6.216   1.467
 1558SOL    HW221817   0.440   6.107   1.367
 1559SOL     OW21818   2.613   1.822   2.018
 1559SOL    HW121819   2.519   1.826   2.003
 1559SOL    HW221820   2.622   1.837   2.112
 1560SOL     OW21821   1.011   2.417   7.146
 1560SOL    HW121822   1.090   2.364   7.153
 1560SOL    HW221823   0.947   2.372   7.202
 1561SOL     OW21824   1.108   1.675   7.485
 1561SOL    HW121825   1.178   1.630   7.533
 1561SOL    HW221826   1.072   1.737   7.549
 1562SOL     OW21827   3.579   5.139   2.161
 1562SOL    HW121828   3.530   5.059   2.139
 1562SOL    HW221829   3.609   5.173   2.076
 1563SOL     OW21830   0.674   5.647   0.362
 1563SOL    HW121831   0.599   5.594   0.336
 1563SOL    HW221832   0.645   5.737   0.351
 1564SOL     OW21833   2.966   1.844   7.702
 1564SOL    HW121834   3.004   1.762   7.735
 1564SOL    HW221835   2.959   1.830   7.607
 1565SOL     OW21836   3.880   0.444   0.871
 1565SOL    HW121837   3.838   0.360   0.849
 1565SOL    HW221838   3.885   0.490   0.788
 1566SOL     OW21839   3.887   0.120   7.267
 1566SOL    HW121840   3.843   0.084   7.344
 1566SOL    HW221841   3.966   0.067   7.257
 1567SOL     OW21842   2.636   4.149   6.264
 1567SOL    HW121843   2.723   4.141   6.226
 1567SOL    HW221844   2.577   4.110   6.199
 1568SOL     OW21845   6.047   0.666   5.545
 1568SOL    HW121846   6.073   0.580   5.512
 1568SOL    HW221847   6.036   0.720   5.467
 1569SOL     OW21848   0.917   1.142   6.407
 1569SOL    HW121849   0.956   1.139   6.319
 1569SOL    HW221850   0.955   1.066   6.452
 1570SOL     OW21851   6.186   1.831   6.445
 1570SOL    HW121852   6.094   1.852   6.425
 1570SOL    HW221853   6.209   1.762   6.383
 1571SOL     OW21854   1.707   5.534   6.158
 1571SOL    HW121855   1.639   5.507   6.097
 1571SOL    HW221856   1.778   5.566   6.103
 1572SOL     OW21857   5.920   1.164   7.077
 1572SOL    HW121858   5.999   1.170   7.130
 1572SOL    HW221859   5.935   1.224   7.004
 1573SOL     OW21860   4.211   5.246   0.939
 1573SOL    HW121861   4.148   5.228   1.009
 1573SOL    HW221862   4.176   5.323   0.894
 1574SOL     OW21863   2.593   2.350   7.028
 1574SOL    HW121864   2.669   2.394   7.066
 1574SOL    HW221865   2.580   2.394   6.943
 1575SOL     OW21866   2.654   5.248   7.392
 1575SOL    HW121867   2.730   5.242   7.334
 1575SOL    HW221868   2.609   5.165   7.381
 1576SOL     OW21869   1.466   5.225   6.385
 1576SOL    HW121870   1.517   5.302   6.411
 1576SOL    HW221871   1.384   5.233   6.433
 1577SOL     OW21872   5.448   2.768   1.601
 1577SOL    HW121873   5.492   2.799   1.522
 1577SOL    HW221874   5.430   2.847   1.651
 1578SOL     OW21875   3.249   5.415   6.030
 1578SOL    HW121876   3.285   5.441   5.945
 1578SOL    HW221877   3.169   5.368   6.008
 1579SOL     OW21878   6.096   3.893   1.257
 1579SOL    HW121879   6.099   3.987   1.240
 1579SOL    HW221880   6.100   3.885   1.352
 1580SOL     OW21881   6.207   5.566   5.940
 1580SOL    HW121882   6.227   5.485   5.986
 1580SOL    HW221883   6.180   5.538   5.853
 1581SOL     OW21884   4.783   2.646   7.566
 1581SOL    HW121885   4.688   2.641   7.559
 1581SOL    HW221886   4.800   2.651   7.660
 1582SOL     OW21887   6.181   0.393   5.728
 1582SOL    HW121888   6.239   0.324   5.760
 1582SOL    HW221889   6.106   0.347   5.690
 1583SOL     OW21890   4.073   4.786   7.337
 1583SOL    HW121891   4.106   4.848   7.402
 1583SOL    HW221892   4.151   4.753   7.292
 1584SOL     OW21893   0.353   0.744   2.522
 1584SOL    HW121894   0.411   0.802   2.570
 1584SOL    HW221895   0.401   0.661   2.517
 1585SOL     OW21896   5.242   1.881   5.749
 1585SOL    HW121897   5.334   1.876   5.724
 1585SOL    HW221898   5.232   1.969   5.786
 1586SOL     OW21899   3.117   4.585   7.108
 1586SOL    HW121900   3.122   4.589   7.013
 1586SOL    HW221901   3.024   4.595   7.128
 1587SOL     OW21902   3.792   5.914   7.856
 1587SOL    HW121903   3.738   5.888   7.781
 1587SOL    HW221904   3.880   5.884   7.833
 1588SOL     OW21905   3.326   6.276   1.076
 1588SOL    HW121906   3.371   6.336   1.136
 1588SOL    HW221907   3.388   6.265   1.003
 1589SOL     OW21908   2.480   1.498   0.967
 1589SOL    HW121909   2.504   1.419   1.017
 1589SOL    HW221910   2.490   1.471   0.876
 1590SOL     OW21911   0.764   1.537   6.205
 1590SOL    HW121912   0.789   1.626   6.181
 1590SOL    HW221913   0.799   1.525   6.294
 1591SOL     OW21914   4.043   0.867   0.705
 1591SOL    HW121915   4.049   0.771   0.706
 1591SOL    HW221916   3.954   0.885   0.676
 1592SOL     OW21917   2.720   4.795   6.733
 1592SOL    HW121918   2.668   4.717   6.752
 1592SOL    HW221919   2.658   4.857   6.695
 1593SOL     OW21920   3.097   5.384   5.431
 1593SOL    HW121921   3.149   5.304   5.433
 1593SOL    HW221922   3.007   5.354   5.422
 1594SOL     OW21923   5.367   6.030   0.949
 1594SOL    HW121924   5.366   6.036   1.045
 1594SOL    HW221925   5.301   5.963   0.929
 1595SOL     OW21926   5.563   2.863   1.370
 1595SOL    HW121927   5.608   2.948   1.366
 1595SOL    HW221928   5.541   2.845   1.279
 1596SOL     OW21929   5.846   4.433   6.608
 1596SOL    HW121930   5.853   4.434   6.512
 1596SOL    HW221931   5.880   4.348   6.634
 1597SOL     OW21932   2.700   1.632   5.382
 1597SOL    HW121933   2.793   1.629   5.362
 1597SOL    HW221934   2.672   1.719   5.354
 1598SOL     OW21935   6.036   4.840   2.001
 1598SOL    HW121936   6.096   4.868   2.070
 1598SOL    HW221937   6.039   4.910   1.936
 1599SOL     OW21938   0.129   4.237   6.917
 1599SOL    HW121939   0.168   4.263   7.001
 1599SOL    HW221940   0.049   4.290   6.911
 1600SOL     OW21941   2.603   4.064   7.102
 1600SOL    HW121942   2.619   4.007   7.177
 1600SOL    HW221943   2.519   4.105   7.120
 1601SOL     OW21944   0.796   3.327   0.721
 1601SOL    HW121945   0.834   3.250   0.764
 1601SOL    HW221946   0.811   3.312   0.628
 1602SOL     OW21947   6.323   2.206   5.696
 1602SOL    HW121948   6.283   2.224   5.611
 1602SOL    HW221949   6.384   2.278   5.709
 1603SOL     OW21950   4.086   5.376   7.334
 1603SOL    HW121951   4.118   5.437   7.401
 1603SOL    HW221952   3.991   5.387   7.335
 1604SOL     OW21953   2.453   4.202   7.325
 1604SOL    HW121954   2.411   4.237   7.404
 1604SOL    HW221955   2.523   4.145   7.359
 1605SOL     OW21956   5.771   4.829   7.943
 1605SOL    HW121957   5.759   4.920   7.916
 1605SOL    HW221958   5.853   4.803   7.903
 1606SOL     OW21959   0.943   0.453   1.490
 1606SOL    HW121960   0.921   0.362   1.469
 1606SOL    HW221961   0.880   0.477   1.559
 1607SOL     OW21962   0.948   3.565   7.315
 1607SOL    HW121963   0.999   3.544   7.237
 1607SOL    HW221964   0.857   3.569   7.283
 1608SOL     OW21965   5.457   2.013   7.832
 1608SOL    HW121966   5.403   2.043   7.904
 1608SOL    HW221967   5.411   2.042   7.753
 1609SOL     OW21968   5.287   3.007   7.738
 1609SOL    HW121969   5.252   2.946   7.673
 1609SOL    HW221970   5.353   3.057   7.690
 1610SOL     OW21971   4.092   0.022   1.618
 1610SOL    HW121972   4.059   0.072   1.693
 1610SOL    HW221973   4.178  -0.009   1.645
 1611SOL     OW21974   3.466   5.730   0.710
 1611SOL    HW121975   3.491   5.703   0.622
 1611SOL    HW221976   3.488   5.823   0.713
 1612SOL     OW21977   3.930   5.597   1.013
 1612SOL    HW121978   3.846   5.641   1.026
 1612SOL    HW221979   3.986   5.663   0.972
 1613SOL     OW21980   5.774   1.090   5.694
 1613SOL    HW121981   5.851   1.146   5.692
 1613SOL    HW221982   5.792   1.021   5.629
 1614SOL     OW21983   1.272   1.960   5.928
 1614SOL    HW121984   1.214   1.985   5.856
 1614SOL    HW221985   1.357   1.996   5.903
 1615SOL     OW21986   2.701   4.506   0.650
 1615SOL    HW121987   2.665   4.554   0.575
 1615SOL    HW221988   2.794   4.496   0.631
 1616SOL     OW21989   1.747   4.597   7.485
 1616SOL    HW121990   1.661   4.568   7.516
 1616SOL    HW221991   1.784   4.519   7.443
 1617SOL     OW21992   1.845   2.845   7.292
 1617SOL    HW121993   1.898   2.865   7.215
 1617SOL    HW221994   1.832   2.750   7.288
 1618SOL     OW21995   3.560   4.179   6.559
 1618SOL    HW121996   3.471   4.145   6.565
 1618SOL    HW221997   3.555   4.267   6.596
 1619SOL     OW21998   6.223   5.990   1.070
 1619SOL    HW121999   6.208   5.964   0.979
 1619SOL    HW222000   6.300   6.048   1.065
 1620SOL     OW22001   4.406   3.838   1.523
 1620SOL    HW122002   4.433   3.786   1.599
 1620SOL    HW222003   4.323   3.798   1.495
 1621SOL     OW22004   2.019   5.668   7.192
 1621SOL    HW122005   2.000   5.729   7.263
 1621SOL    HW222006   2.111   5.684   7.170
 1622SOL     OW22007   1.369   4.675   7.888
 1622SOL    HW122008   1.302   4.615   7.920
 1622SOL    HW222009   1.449   4.623   7.889
 1623SOL     OW22010   4.708   2.152   1.701
 1623SOL    HW122011   4.710   2.091   1.628
 1623SOL    HW222012   4.799   2.183   1.709
 1624SOL     OW22013   2.842   0.882   1.413
 1624SOL    HW122014   2.777   0.849   1.351
 1624SOL    HW222015   2.813   0.850   1.499
 1625SOL     OW22016   3.619   3.296   6.387
 1625SOL    HW122017   3.567   3.217   6.372
 1625SOL    HW222018   3.587   3.358   6.321
 1626SOL     OW22019   3.492   4.807   0.488
 1626SOL    HW122020   3.519   4.723   0.527
 1626SOL    HW222021   3.407   4.789   0.449
 1627SOL     OW22022   4.597   3.912   1.355
 1627SOL    HW122023   4.527   3.884   1.415
 1627SOL    HW222024   4.660   3.958   1.410
 1628SOL     OW22025   5.939   3.201   0.864
 1628SOL    HW122026   5.927   3.108   0.843
 1628SOL    HW222027   5.874   3.246   0.811
 1629SOL     OW22028   3.362   1.794   7.711
 1629SOL    HW122029   3.423   1.769   7.641
 1629SOL    HW222030   3.367   1.890   7.713
 1630SOL     OW22031   2.364   3.008   0.875
 1630SOL    HW122032   2.381   2.922   0.915
 1630SOL    HW222033   2.441   3.026   0.822
 1631SOL     OW22034   0.001   0.465   1.695
 1631SOL    HW122035   0.016   0.514   1.776
 1631SOL    HW222036   0.075   0.404   1.690
 1632SOL     OW22037   1.447   6.060   7.422
 1632SOL    HW122038   1.498   6.005   7.482
 1632SOL    HW222039   1.393   5.998   7.373
 1633SOL     OW22040   3.747   3.994   0.434
 1633SOL    HW122041   3.787   4.061   0.489
 1633SOL    HW222042   3.747   4.032   0.346
 1634SOL     OW22043   0.457   5.679   0.014
 1634SOL    HW122044   0.370   5.711   0.039
 1634SOL    HW222045   0.509   5.758   0.003
 1635SOL     OW22046   2.215   3.405   1.303
 1635SOL    HW122047   2.270   3.469   1.258
 1635SOL    HW222048   2.146   3.457   1.344
 1636SOL     OW22049   0.701   6.342   1.311
 1636SOL    HW122050   0.668   6.411   1.368
 1636SOL    HW222051   0.719   6.269   1.370
 1637SOL     OW22052   2.391   1.381   7.426
 1637SOL    HW122053   2.349   1.468   7.428
 1637SOL    HW222054   2.428   1.370   7.513
 1638SOL     OW22055   1.985   2.967   6.542
 1638SOL    HW122056   2.021   2.966   6.454
 1638SOL    HW222057   1.978   2.875   6.567
 1639SOL     OW22058   2.965   4.487   0.541
 1639SOL    HW122059   3.027   4.475   0.613
 1639SOL    HW222060   3.012   4.542   0.479
 1640SOL     OW22061   1.161   3.766   0.037
 1640SOL    HW122062   1.162   3.821   0.116
 1640SOL    HW222063   1.103   3.693   0.060
 1641SOL     OW22064   5.367   0.330   6.793
 1641SOL    HW122065   5.397   0.291   6.875
 1641SOL    HW222066   5.437   0.392   6.770
 1642SOL     OW22067   1.051   0.391   6.852
 1642SOL    HW122068   1.077   0.354   6.767
 1642SOL    HW222069   1.105   0.345   6.916
 1643SOL     OW22070   1.603   1.063   0.960
 1643SOL    HW122071   1.683   1.073   0.908
 1643SOL    HW222072   1.633   1.036   1.046
 1644SOL     OW22073   4.919   3.543   0.549
 1644SOL    HW122074   4.858   3.477   0.583
 1644SOL    HW222075   4.951   3.506   0.467
 1645SOL     OW22076   1.245   5.556   1.801
 1645SOL    HW122077   1.246   5.534   1.894
 1645SOL    HW222078   1.156   5.536   1.773
 1646SOL     OW22079   0.825   6.045   0.879
 1646SOL    HW122080   0.763   6.024   0.949
 1646SOL    HW222081   0.798   6.132   0.848
 1647SOL     OW22082   0.387   1.645   6.335
 1647SOL    HW122083   0.424   1.577   6.391
 1647SOL    HW222084   0.293   1.635   6.344
 1648SOL     OW22085   0.401   1.597   0.390
 1648SOL    HW122086   0.489   1.573   0.358
 1648SOL    HW222087   0.415   1.679   0.438
 1649SOL     OW22088   2.951   4.859   7.358
 1649SOL    HW122089   2.996   4.941   7.340
 1649SOL    HW222090   2.939   4.819   7.272
 1650SOL     OW22091   4.148   3.654   7.187
 1650SOL    HW122092   4.098   3.576   7.214
 1650SOL    HW222093   4.211   3.622   7.123
 1651SOL     OW22094   1.034   1.495   1.477
 1651SOL    HW122095   1.073   1.498   1.564
 1651SOL    HW222096   0.973   1.569   1.475
 1652SOL     OW22097   1.824   4.442   0.426
 1652SOL    HW122098   1.822   4.377   0.356
 1652SOL    HW222099   1.732   4.467   0.438
 1653SOL     OW22100   0.902   5.538   2.249
 1653SOL    HW122101   0.940   5.587   2.323
 1653SOL    HW222102   0.966   5.548   2.179
 1654SOL     OW22103   0.799   3.743   1.397
 1654SOL    HW122104   0.810   3.685   1.472
 1654SOL    HW222105   0.748   3.692   1.334
 1655SOL     OW22106   1.717   0.861   7.419
 1655SOL    HW122107   1.729   0.933   7.357
 1655SOL    HW222108   1.786   0.799   7.396
 1656SOL     OW22109   2.882   4.179   1.328
 1656SOL    HW122110   2.826   4.225   1.265
 1656SOL    HW222111   2.828   4.105   1.358
 1657SOL     OW22112   5.832   0.878   0.610
 1657SOL    HW122113   5.785   0.859   0.528
 1657SOL    HW222114   5.854   0.971   0.604
 1658SOL     OW22115   2.668   6.282   7.371
 1658SOL    HW122116   2.745   6.313   7.324
 1658SOL    HW222117   2.619   6.362   7.391
 1659SOL     OW22118   3.852   1.757   1.667
 1659SOL    HW122119   3.826   1.793   1.582
 1659SOL    HW222120   3.791   1.685   1.682
 1660SOL     OW22121   6.011   0.333   2.256
 1660SOL    HW122122   6.107   0.342   2.250
 1660SOL    HW222123   5.998   0.260   2.317
 1661SOL     OW22124   0.559   6.007   6.550
 1661SOL    HW122125   0.641   5.958   6.542
 1661SOL    HW222126   0.586   6.098   6.557
 1662SOL     OW22127   1.275   3.559   1.373
 1662SOL    HW122128   1.248   3.551   1.282
 1662SOL    HW222129   1.194   3.550   1.423
 1663SOL     OW22130   0.795   1.656   1.143
 1663SOL    HW122131   0.791   1.589   1.075
 1663SOL    HW222132   0.856   1.721   1.109
 1664SOL     OW22133   0.246   2.011   6.180
 1664SOL    HW122134   0.217   1.950   6.248
 1664SOL    HW222135   0.166   2.055   6.152
 1665SOL     OW22136   2.551   3.598   6.064
 1665SOL    HW122137   2.563   3.672   6.124
 1665SOL    HW222138   2.620   3.608   5.999
 1666SOL     OW22139   2.435   5.075   7.373
 1666SOL    HW122140   2.447   4.986   7.406
 1666SOL    HW222141   2.369   5.066   7.304
 1667SOL     OW22142   5.919   5.720   6.664
 1667SOL    HW122143   5.892   5.787   6.601
 1667SOL    HW222144   5.924   5.639   6.613
 1668SOL     OW22145   0.369   3.468   0.767
 1668SOL    HW122146   0.312   3.510   0.831
 1668SOL    HW222147   0.354   3.515   0.686
 1669SOL     OW22148   5.525   4.141   0.055
 1669SOL    HW122149   5.503   4.234   0.062
 1669SOL    HW222150   5.464   4.097   0.114
 1670SOL     OW22151   1.108   5.998   0.710
 1670SOL    HW122152   1.062   5.993   0.794
 1670SOL    HW222153   1.189   5.949   0.724
 1671SOL     OW22154   1.814   3.607   1.246
 1671SOL    HW122155   1.795   3.546   1.175
 1671SOL    HW222156   1.797   3.693   1.209
 1672SOL     OW22157   0.708   5.042   0.764
 1672SOL    HW122158   0.766   5.006   0.696
 1672SOL    HW222159   0.732   5.134   0.770
 1673SOL     OW22160   2.073   2.552   7.441
 1673SOL    HW122161   2.062   2.645   7.461
 1673SOL    HW222162   2.164   2.533   7.461
 1674SOL     OW22163   1.581   5.098   1.001
 1674SOL    HW122164   1.627   5.174   0.967
 1674SOL    HW222165   1.508   5.134   1.050
 1675SOL     OW22166   5.712   3.791   7.303
 1675SOL    HW122167   5.619   3.782   7.282
 1675SOL    HW222168   5.737   3.706   7.338
 1676SOL     OW22169   3.149   4.144   7.121
 1676SOL    HW122170   3.168   4.079   7.188
 1676SOL    HW222171   3.073   4.109   7.075
 1677SOL     OW22172   6.320   1.033   6.544
 1677SOL    HW122173   6.340   1.060   6.454
 1677SOL    HW222174   6.376   1.088   6.598
 1678SOL     OW22175   2.415   6.285   6.107
 1678SOL    HW122176   2.332   6.284   6.060
 1678SOL    HW222177   2.475   6.235   6.051
 1679SOL     OW22178   4.224   5.767   0.631
 1679SOL    HW122179   4.154   5.757   0.695
 1679SOL    HW222180   4.179   5.779   0.547
 1680SOL     OW22181   2.776   3.656   7.587
 1680SOL    HW122182   2.683   3.679   7.580
 1680SOL    HW222183   2.822   3.738   7.566
 1681SOL     OW22184   5.028   4.708   7.908
 1681SOL    HW122185   5.040   4.697   7.813
 1681SOL    HW222186   4.963   4.642   7.931
 1682SOL     OW22187   2.299   3.877   6.587
 1682SOL    HW122188   2.376   3.875   6.644
 1682SOL    HW222189   2.310   3.957   6.535
 1683SOL     OW22190   2.014   4.109   1.819
 1683SOL    HW122191   2.083   4.069   1.873
 1683SOL    HW222192   1.973   4.035   1.775
 1684SOL     OW22193   5.575   3.146   0.556
 1684SOL    HW122194   5.548   3.067   0.604
 1684SOL    HW222195   5.513   3.152   0.484
 1685SOL     OW22196   5.675   3.562   0.764
 1685SOL    HW122197   5.587   3.531   0.745
 1685SOL    HW222198   5.729   3.483   0.759
 1686SOL     OW22199   4.487   3.999   0.956
 1686SOL    HW122200   4.530   4.080   0.984
 1686SOL    HW222201   4.444   3.967   1.035
 1687SOL     OW22202   1.043   2.183   6.921
 1687SOL    HW122203   1.116   2.180   6.860
 1687SOL    HW222204   1.014   2.275   6.920
 1688SOL     OW22205   5.163   2.371   1.474
 1688SOL    HW122206   5.154   2.322   1.555
 1688SOL    HW222207   5.185   2.460   1.502
 1689SOL     OW22208   4.892   0.175   7.693
 1689SOL    HW122209   4.966   0.226   7.726
 1689SOL    HW222210   4.840   0.239   7.644
 1690SOL     OW22211   0.154   5.756   1.159
 1690SOL    HW122212   0.150   5.660   1.160
 1690SOL    HW222213   0.216   5.776   1.089
 1691SOL     OW22214   3.193   2.568   0.863
 1691SOL    HW122215   3.279   2.571   0.906
 1691SOL    HW222216   3.158   2.656   0.874
 1692SOL     OW22217   1.947   4.352   6.367
 1692SOL    HW122218   2.016   4.410   6.333
 1692SOL    HW222219   1.893   4.331   6.291
 1693SOL     OW22220   0.137   3.819   1.605
 1693SOL    HW122221   0.212   3.874   1.626
 1693SOL    HW222222   0.160   3.733   1.639
 1694SOL     OW22223   2.515   5.448   0.548
 1694SOL    HW122224   2.530   5.483   0.460
 1694SOL    HW222225   2.554   5.513   0.607
 1695SOL     OW22226   0.461   3.250   4.936
 1695SOL    HW122227   0.539   3.233   4.990
 1695SOL    HW222228   0.408   3.309   4.990
 1696SOL     OW22229   5.633   2.954   6.368
 1696SOL    HW122230   5.630   3.000   6.452
 1696SOL    HW222231   5.584   3.011   6.308
 1697SOL     OW22232   0.885   0.641   5.779
 1697SOL    HW122233   0.916   0.698   5.850
 1697SOL    HW222234   0.928   0.676   5.700
 1698SOL     OW22235   3.352   5.413   0.583
 1698SOL    HW122236   3.330   5.446   0.670
 1698SOL    HW222237   3.439   5.448   0.565
 1699SOL     OW22238   6.207   3.415   0.361
 1699SOL    HW122239   6.249   3.471   0.426
 1699SOL    HW222240   6.114   3.438   0.366
 1700SOL     OW22241   2.415   6.104   1.723
 1700SOL    HW122242   2.422   6.195   1.751
 1700SOL    HW222243   2.377   6.059   1.799
 1701SOL     OW22244   2.019   2.908   1.748
 1701SOL    HW122245   2.099   2.954   1.723
 1701SOL    HW222246   1.956   2.977   1.769
 1702SOL     OW22247   0.991   2.018   6.537
 1702SOL    HW122248   1.060   1.953   6.533
 1702SOL    HW222249   1.031   2.098   6.502
 1703SOL     OW22250   2.794   6.205   7.022
 1703SOL    HW122251   2.806   6.116   7.055
 1703SOL    HW222252   2.822   6.201   6.930
 1704SOL     OW22253   6.096   4.427   1.234
 1704SOL    HW122254   6.006   4.436   1.268
 1704SOL    HW222255   6.143   4.501   1.272
 1705SOL     OW22256   2.191   5.059   7.230
 1705SOL    HW122257   2.182   5.092   7.141
 1705SOL    HW222258   2.105   5.020   7.250
 1706SOL     OW22259   4.998   3.275   6.521
 1706SOL    HW122260   5.064   3.343   6.537
 1706SOL    HW222261   4.914   3.321   6.532
 1707SOL     OW22262   3.418   3.171   5.985
 1707SOL    HW122263   3.375   3.183   5.901
 1707SOL    HW222264   3.494   3.117   5.966
 1708SOL     OW22265   6.158   4.261   6.657
 1708SOL    HW122266   6.231   4.205   6.630
 1708SOL    HW222267   6.196   4.349   6.663
 1709SOL     OW22268   1.402   4.611   0.264
 1709SOL    HW122269   1.384   4.549   0.334
 1709SOL    HW222270   1.339   4.681   0.277
 1710SOL     OW22271   3.102   1.552   5.134
 1710SOL    HW122272   3.186   1.510   5.151
 1710SOL    HW222273   3.036   1.484   5.149
 1711SOL     OW22274   4.397   0.174   7.014
 1711SOL    HW122275   4.388   0.080   7.002
 1711SOL    HW222276   4.490   0.191   7.000
 1712SOL     OW22277   1.268   5.770   0.125
 1712SOL    HW122278   1.202   5.703   0.140
 1712SOL    HW222279   1.232   5.849   0.167
 1713SOL     OW22280   4.814   4.521   1.695
 1713SOL    HW122281   4.887   4.552   1.642
 1713SOL    HW222282   4.844   4.529   1.785
 1714SOL     OW22283   5.498   2.208   7.192
 1714SOL    HW122284   5.517   2.115   7.179
 1714SOL    HW222285   5.411   2.221   7.154
 1715SOL     OW22286   5.493   1.386   0.931
 1715SOL    HW122287   5.527   1.463   0.886
 1715SOL    HW222288   5.406   1.410   0.960
 1716SOL     OW22289   2.401   6.114   6.336
 1716SOL    HW122290   2.458   6.162   6.396
 1716SOL    HW222291   2.383   6.176   6.265
 1717SOL     OW22292   0.479   1.431   1.536
 1717SOL    HW122293   0.557   1.414   1.589
 1717SOL    HW222294   0.413   1.372   1.571
 1718SOL     OW22295   1.977   0.547   6.382
 1718SOL    HW122296   1.895   0.574   6.421
 1718SOL    HW222297   1.969   0.571   6.289
 1719SOL     OW22298   4.944   0.892   6.729
 1719SOL    HW122299   4.904   0.858   6.809
 1719SOL    HW222300   4.876   0.886   6.663
 1720SOL     OW22301   1.238   0.475   0.926
 1720SOL    HW122302   1.243   0.388   0.885
 1720SOL    HW222303   1.269   0.535   0.859
 1721SOL     OW22304   4.509   1.984   6.795
 1721SOL    HW122305   4.530   1.894   6.767
 1721SOL    HW222306   4.444   1.973   6.864
 1722SOL     OW22307   1.937   1.223   6.049
 1722SOL    HW122308   1.863   1.197   6.104
 1722SOL    HW222309   1.901   1.292   5.993
 1723SOL     OW22310   3.108   5.304   7.680
 1723SOL    HW122311   3.088   5.211   7.693
 1723SOL    HW222312   3.084   5.321   7.588
 1724SOL     OW22313   3.032   1.666   0.225
 1724SOL    HW122314   3.067   1.716   0.151
 1724SOL    HW222315   3.107   1.616   0.258
 1725SOL     OW22316   3.522   0.580   1.135
 1725SOL    HW122317   3.477   0.638   1.074
 1725SOL    HW222318   3.473   0.590   1.217
 1726SOL     OW22319   1.343   1.129   2.462
 1726SOL    HW122320   1.367   1.220   2.442
 1726SOL    HW222321   1.287   1.103   2.389
 1727SOL     OW22322   4.283   1.386   0.923
 1727SOL    HW122323   4.301   1.366   1.015
 1727SOL    HW222324   4.325   1.471   0.908
 1728SOL     OW22325   3.221   6.009   0.212
 1728SOL    HW122326   3.191   5.923   0.240
 1728SOL    HW222327   3.261   5.995   0.126
 1729SOL     OW22328   1.476   0.945   1.716
 1729SOL    HW122329   1.464   0.863   1.763
 1729SOL    HW222330   1.441   0.928   1.629
 1730SOL     OW22331   4.722   0.444   0.090
 1730SOL    HW122332   4.725   0.513   0.155
 1730SOL    HW222333   4.694   0.366   0.138
 1731SOL     OW22334   4.902   1.189   6.221
 1731SOL    HW122335   4.819   1.141   6.220
 1731SOL    HW222336   4.937   1.179   6.132
 1732SOL     OW22337   3.651   0.325   6.673
 1732SOL    HW122338   3.590   0.356   6.740
 1732SOL    HW222339   3.729   0.300   6.721
 1733SOL     OW22340   3.315   3.874   0.397
 1733SOL    HW122341   3.285   3.785   0.420
 1733SOL    HW222342   3.382   3.860   0.330
 1734SOL     OW22343   5.511   3.354   1.073
 1734SOL    HW122344   5.557   3.284   1.027
 1734SOL    HW222345   5.578   3.419   1.093
 1735SOL     OW22346   0.044   1.914   5.170
 1735SOL    HW122347  -0.020   1.953   5.230
 1735SOL    HW222348  -0.006   1.850   5.120
 1736SOL     OW22349   1.852   0.784   0.896
 1736SOL    HW122350   1.926   0.740   0.854
 1736SOL    HW222351   1.892   0.844   0.959
 1737SOL     OW22352   1.056   3.163   6.930
 1737SOL    HW122353   1.046   3.068   6.932
 1737SOL    HW222354   1.007   3.193   7.007
 1738SOL     OW22355   1.417   4.500   2.201
 1738SOL    HW122356   1.393   4.480   2.111
 1738SOL    HW222357   1.466   4.582   2.196
 1739SOL     OW22358   6.026   0.923   7.944
 1739SOL    HW122359   5.934   0.937   7.966
 1739SOL    HW222360   6.032   0.943   7.851
 1740SOL     OW22361   3.834   0.029   0.597
 1740SOL    HW122362   3.908  -0.029   0.616
 1740SOL    HW222363   3.759  -0.030   0.587
 1741SOL     OW22364   5.773   0.355   0.068
 1741SOL    HW122365   5.835   0.391   0.004
 1741SOL    HW222366   5.809   0.381   0.153
 1742SOL     OW22367   2.079   2.906   7.126
 1742SOL    HW122368   2.141   2.839   7.098
 1742SOL    HW222369   2.095   2.915   7.220
 1743SOL     OW22370   2.157   1.380   7.637
 1743SOL    HW122371   2.080   1.381   7.693
 1743SOL    HW222372   2.138   1.444   7.568
 1744SOL     OW22373   6.215   1.378   6.299
 1744SOL    HW122374   6.266   1.311   6.252
 1744SOL    HW222375   6.128   1.340   6.306
 1745SOL     OW22376   3.752   1.288   1.433
 1745SOL    HW122377   3.756   1.273   1.527
 1745SOL    HW222378   3.714   1.375   1.424
 1746SOL     OW22379   3.868   3.785   7.364
 1746SOL    HW122380   3.831   3.716   7.309
 1746SOL    HW222381   3.859   3.865   7.311
 1747SOL     OW22382   0.189   5.418   6.740
 1747SOL    HW122383   0.237   5.426   6.658
 1747SOL    HW222384   0.105   5.380   6.715
 1748SOL     OW22385   4.311   1.496   6.750
 1748SOL    HW122386   4.376   1.544   6.801
 1748SOL    HW222387   4.226   1.531   6.778
 1749SOL     OW22388   2.049   0.613   0.774
 1749SOL    HW122389   2.000   0.572   0.703
 1749SOL    HW222390   2.115   0.666   0.730
 1750SOL     OW22391   6.160   4.422   2.159
 1750SOL    HW122392   6.206   4.488   2.210
 1750SOL    HW222393   6.081   4.404   2.210
 1751SOL     OW22394   2.986   3.809   1.371
 1751SOL    HW122395   3.054   3.799   1.438
 1751SOL    HW222396   2.922   3.867   1.410
 1752SOL     OW22397   1.369   1.850   7.555
 1752SOL    HW122398   1.329   1.906   7.622
 1752SOL    HW222399   1.355   1.761   7.586
 1753SOL     OW22400   0.941   0.776   7.295
 1753SOL    HW122401   1.014   0.837   7.285
 1753SOL    HW222402   0.872   0.829   7.335
 1754SOL     OW22403   0.504   5.349   5.985
 1754SOL    HW122404   0.453   5.270   5.970
 1754SOL    HW222405   0.454   5.397   6.051
 1755SOL     OW22406   3.129   0.328   0.085
 1755SOL    HW122407   3.162   0.418   0.079
 1755SOL    HW222408   3.077   0.328   0.166
 1756SOL     OW22409   5.372   3.130   1.332
 1756SOL    HW122410   5.464   3.151   1.345
 1756SOL    HW222411   5.325   3.193   1.385
 1757SOL     OW22412   1.734   2.208   0.108
 1757SOL    HW122413   1.674   2.148   0.064
 1757SOL    HW222414   1.742   2.282   0.048
 1758SOL     OW22415   5.029   3.402   7.720
 1758SOL    HW122416   5.059   3.491   7.741
 1758SOL    HW222417   5.107   3.357   7.688
 1759SOL     OW22418   1.315   4.178   6.622
 1759SOL    HW122419   1.366   4.168   6.702
 1759SOL    HW222420   1.226   4.196   6.652
 1760SOL     OW22421   4.949   3.254   6.105
 1760SOL    HW122422   4.859   3.284   6.096
 1760SOL    HW222423   4.949   3.201   6.185
 1761SOL     OW22424   4.839   2.446   0.651
 1761SOL    HW122425   4.794   2.526   0.622
 1761SOL    HW222426   4.864   2.402   0.570
 1762SOL     OW22427   4.287   3.520   0.183
 1762SOL    HW122428   4.252   3.559   0.263
 1762SOL    HW222429   4.235   3.558   0.112
 1763SOL     OW22430   2.847   0.986   6.032
 1763SOL    HW122431   2.761   0.976   5.990
 1763SOL    HW222432   2.903   1.023   5.965
 1764SOL     OW22433   2.539   4.788   5.984
 1764SOL    HW122434   2.469   4.767   6.046
 1764SOL    HW222435   2.538   4.716   5.921
 1765SOL     OW22436   2.423   0.602   1.974
 1765SOL    HW122437   2.452   0.568   2.059
 1765SOL    HW222438   2.331   0.575   1.968
 1766SOL     OW22439   1.062   4.124   7.785
 1766SOL    HW122440   1.117   4.046   7.779
 1766SOL    HW222441   1.061   4.144   7.879
 1767SOL     OW22442   0.987   1.735   0.589
 1767SOL    HW122443   0.994   1.773   0.502
 1767SOL    HW222444   0.911   1.677   0.584
 1768SOL     OW22445   0.412   1.083   0.534
 1768SOL    HW122446   0.483   1.029   0.499
 1768SOL    HW222447   0.340   1.072   0.472
 1769SOL     OW22448   2.513   4.553   6.740
 1769SOL    HW122449   2.472   4.498   6.807
 1769SOL    HW222450   2.457   4.630   6.735
 1770SOL     OW22451   3.520  -0.001   2.150
 1770SOL    HW122452   3.461   0.018   2.222
 1770SOL    HW222453   3.608   0.014   2.186
 1771SOL     OW22454   3.530   3.880   0.202
 1771SOL    HW122455   3.559   3.790   0.214
 1771SOL    HW222456   3.587   3.914   0.132
 1772SOL     OW22457   3.666   0.405   0.340
 1772SOL    HW122458   3.649   0.323   0.386
 1772SOL    HW222459   3.759   0.422   0.354
 1773SOL     OW22460   1.242   1.271   1.194
 1773SOL    HW122461   1.255   1.194   1.138
 1773SOL    HW222462   1.153   1.300   1.174
 1774SOL     OW22463   3.532   5.007   2.547
 1774SOL    HW122464   3.456   4.959   2.579
 1774SOL    HW222465   3.500   5.096   2.529
 1775SOL     OW22466   3.405   3.211   0.062
 1775SOL    HW122467   3.382   3.132   0.111
 1775SOL    HW222468   3.365   3.199  -0.024
 1776SOL     OW22469   3.911   3.612   6.608
 1776SOL    HW122470   3.914   3.692   6.661
 1776SOL    HW222471   3.996   3.608   6.564
 1777SOL     OW22472   1.423   1.651   7.184
 1777SOL    HW122473   1.379   1.611   7.109
 1777SOL    HW222474   1.517   1.640   7.166
 1778SOL     OW22475   4.449   4.007   7.852
 1778SOL    HW122476   4.458   4.088   7.902
 1778SOL    HW222477   4.533   3.997   7.807
 1779SOL     OW22478   3.732   6.058   0.137
 1779SOL    HW122479   3.780   6.009   0.070
 1779SOL    HW222480   3.755   6.150   0.121
 1780SOL     OW22481   3.912   2.857   7.659
 1780SOL    HW122482   3.894   2.776   7.706
 1780SOL    HW222483   3.979   2.901   7.711
 1781SOL     OW22484   0.744   0.620   0.480
 1781SOL    HW122485   0.714   0.657   0.563
 1781SOL    HW222486   0.828   0.579   0.500
 1782SOL     OW22487   0.676   4.673   6.408
 1782SOL    HW122488   0.760   4.696   6.447
 1782SOL    HW222489   0.621   4.648   6.482
 1783SOL     OW22490   1.923   0.165   1.484
 1783SOL    HW122491   1.968   0.136   1.404
 1783SOL    HW222492   1.830   0.146   1.467
 1784SOL     OW22493   4.133   1.850   1.553
 1784SOL    HW122494   4.062   1.913   1.538
 1784SOL    HW222495   4.198   1.871   1.486
 1785SOL     OW22496   2.037   4.464   7.264
 1785SOL    HW122497   2.036   4.377   7.225
 1785SOL    HW222498   2.075   4.520   7.196
 1786SOL     OW22499   5.080   3.107   1.529
 1786SOL    HW122500   5.167   3.146   1.536
 1786SOL    HW222501   5.050   3.128   1.441
 1787SOL     OW22502   2.207   4.020   0.143
 1787SOL    HW122503   2.207   3.953   0.075
 1787SOL    HW222504   2.293   4.014   0.184
 1788SOL     OW22505   4.998   4.826   5.730
 1788SOL    HW122506   4.994   4.842   5.636
 1788SOL    HW222507   4.917   4.863   5.765
 1789SOL     OW22508   2.273   2.900   1.152
 1789SOL    HW122509   2.342   2.902   1.219
 1789SOL    HW222510   2.259   2.992   1.130
 1790SOL     OW22511   6.066   2.729   0.438
 1790SOL    HW122512   5.982   2.717   0.482
 1790SOL    HW222513   6.057   2.812   0.390
 1791SOL     OW22514   0.642   0.651   0.002
 1791SOL    HW122515   0.733   0.653   0.029
 1791SOL    HW222516   0.628   0.734  -0.044
 1792SOL     OW22517   0.350   4.423   7.585
 1792SOL    HW122518   0.426   4.450   7.532
 1792SOL    HW222519   0.382   4.424   7.675
 1793SOL     OW22520   1.994   1.534   7.790
 1793SOL    HW122521   1.944   1.610   7.762
 1793SOL    HW222522   1.928   1.474   7.825
 1794SOL     OW22523   3.893   4.255   6.745
 1794SOL    HW122524   3.821   4.318   6.742
 1794SOL    HW222525   3.853   4.171   6.723
 1795SOL     OW22526   5.640   0.977   6.375
 1795SOL    HW122527   5.623   0.986   6.282
 1795SOL    HW222528   5.735   0.981   6.383
 1796SOL     OW22529   1.192   5.170   7.059
 1796SOL    HW122530   1.240   5.232   7.114
 1796SOL    HW222531   1.257   5.103   7.036
 1797SOL     OW22532   1.904   2.548   7.214
 1797SOL    HW122533   1.855   2.466   7.210
 1797SOL    HW222534   1.970   2.533   7.282
 1798SOL     OW22535   2.623   2.155   0.705
 1798SOL    HW122536   2.694   2.091   0.714
 1798SOL    HW222537   2.595   2.147   0.614
 1799SOL     OW22538   1.991   1.742   6.952
 1799SOL    HW122539   2.051   1.804   6.992
 1799SOL    HW222540   1.905   1.784   6.957
 1800SOL     OW22541   1.024   3.526   6.393
 1800SOL    HW122542   0.928   3.531   6.392
 1800SOL    HW222543   1.043   3.439   6.429
 1801SOL     OW22544   2.048   4.881   5.742
 1801SOL    HW122545   2.063   4.792   5.774
 1801SOL    HW222546   2.101   4.936   5.799
 1802SOL     OW22547   0.959   5.195   7.399
 1802SOL    HW122548   1.050   5.192   7.372
 1802SOL    HW222549   0.936   5.288   7.395
 1803SOL     OW22550   3.435   1.378   6.316
 1803SOL    HW122551   3.380   1.307   6.283
 1803SOL    HW222552   3.394   1.403   6.399
 1804SOL     OW22553   0.189   1.940   1.885
 1804SOL    HW122554   0.198   1.997   1.962
 1804SOL    HW222555   0.119   1.879   1.909
 1805SOL     OW22556   1.273   4.076   0.960
 1805SOL    HW122557   1.201   4.099   1.019
 1805SOL    HW222558   1.318   4.004   1.004
 1806SOL     OW22559   4.671   1.041   6.273
 1806SOL    HW122560   4.591   1.092   6.261
 1806SOL    HW222561   4.642   0.950   6.276
 1807SOL     OW22562   1.593   1.937   0.344
 1807SOL    HW122563   1.543   1.932   0.426
 1807SOL    HW222564   1.655   2.008   0.358
 1808SOL     OW22565   3.226   5.617   5.486
 1808SOL    HW122566   3.168   5.554   5.443
 1808SOL    HW222567   3.267   5.568   5.557
 1809SOL     OW22568   0.042   0.767   0.926
 1809SOL    HW122569   0.080   0.684   0.957
 1809SOL    HW222570   0.075   0.833   0.987
 1810SOL     OW22571   0.747   0.902   7.432
 1810SOL    HW122572   0.789   0.975   7.477
 1810SOL    HW222573   0.680   0.943   7.377
 1811SOL     OW22574   1.814   3.847   1.134
 1811SOL    HW122575   1.872   3.888   1.070
 1811SOL    HW222576   1.737   3.904   1.136
 1812SOL     OW22577   0.857   5.852   2.132
 1812SOL    HW122578   0.766   5.873   2.151
 1812SOL    HW222579   0.882   5.788   2.199
 1813SOL     OW22580   0.599   1.854   7.242
 1813SOL    HW122581   0.506   1.870   7.229
 1813SOL    HW222582   0.625   1.801   7.167
 1814SOL     OW22583   2.940   1.340   1.359
 1814SOL    HW122584   2.938   1.408   1.427
 1814SOL    HW222585   2.971   1.262   1.404
 1815SOL     OW22586   2.050   1.069   2.063
 1815SOL    HW122587   2.004   1.013   2.126
 1815SOL    HW222588   2.143   1.054   2.081
 1816SOL     OW22589   5.839   0.892   7.208
 1816SOL    HW122590   5.746   0.870   7.221
 1816SOL    HW222591   5.846   0.910   7.114
 1817SOL     OW22592   4.730   0.395   6.632
 1817SOL    HW122593   4.712   0.478   6.674
 1817SOL    HW222594   4.730   0.414   6.539
 1818SOL     OW22595   2.929   3.103   0.766
 1818SOL    HW122596   2.931   3.138   0.854
 1818SOL    HW222597   2.994   3.153   0.718
 1819SOL     OW22598   0.304   5.159   5.985
 1819SOL    HW122599   0.267   5.164   5.897
 1819SOL    HW222600   0.238   5.199   6.041
 1820SOL     OW22601   5.579   3.984   7.733
 1820SOL    HW122602   5.649   4.040   7.767
 1820SOL    HW222603   5.542   4.033   7.660
 1821SOL     OW22604   4.843   0.431   6.917
 1821SOL    HW122605   4.925   0.475   6.938
 1821SOL    HW222606   4.784   0.502   6.890
 1822SOL     OW22607   4.365   1.725   0.633
 1822SOL    HW122608   4.440   1.671   0.608
 1822SOL    HW222609   4.295   1.663   0.650
 1823SOL     OW22610   5.234   3.029   6.428
 1823SOL    HW122611   5.234   3.105   6.370
 1823SOL    HW222612   5.212   3.064   6.514
 1824SOL     OW22613   2.838   1.736   1.401
 1824SOL    HW122614   2.779   1.699   1.467
 1824SOL    HW222615   2.802   1.709   1.317
 1825SOL     OW22616   1.519   3.787   6.523
 1825SOL    HW122617   1.436   3.741   6.537
 1825SOL    HW222618   1.499   3.849   6.453
 1826SOL     OW22619   4.324   0.344   0.372
 1826SOL    HW122620   4.259   0.329   0.441
 1826SOL    HW222621   4.392   0.398   0.415
 1827SOL     OW22622   1.908   1.804   0.696
 1827SOL    HW122623   1.978   1.857   0.734
 1827SOL    HW222624   1.916   1.719   0.738
 1828SOL     OW22625   1.246   1.511   1.666
 1828SOL    HW122626   1.289   1.466   1.592
 1828SOL    HW222627   1.276   1.463   1.743
 1829SOL     OW22628   5.351   3.861   1.245
 1829SOL    HW122629   5.368   3.773   1.279
 1829SOL    HW222630   5.435   3.905   1.249
 1830SOL     OW22631   5.270   4.399   7.845
 1830SOL    HW122632   5.338   4.419   7.909
 1830SOL    HW222633   5.243   4.310   7.866
 1831SOL     OW22634   3.802   1.818   7.281
 1831SOL    HW122635   3.805   1.877   7.357
 1831SOL    HW222636   3.746   1.863   7.218
 1832SOL     OW22637   2.384   1.314   5.936
 1832SOL    HW122638   2.327   1.240   5.917
 1832SOL    HW222639   2.330   1.372   5.991
 1833SOL     OW22640   4.054   0.292   1.143
 1833SOL    HW122641   4.000   0.253   1.075
 1833SOL    HW222642   4.032   0.385   1.140
 1834SOL     OW22643   5.956   4.159   6.487
 1834SOL    HW122644   6.003   4.140   6.405
 1834SOL    HW222645   6.024   4.192   6.546
 1835SOL     OW22646   3.533   5.275   6.896
 1835SOL    HW122647   3.533   5.218   6.973
 1835SOL    HW222648   3.442   5.274   6.865
 1836SOL     OW22649   1.201   3.698   0.820
 1836SOL    HW122650   1.118   3.718   0.778
 1836SOL    HW222651   1.266   3.701   0.750
 1837SOL     OW22652   3.379   0.933   1.536
 1837SOL    HW122653   3.378   0.999   1.467
 1837SOL    HW222654   3.396   0.851   1.489
 1838SOL     OW22655   3.912   1.176   1.129
 1838SOL    HW122656   3.901   1.095   1.078
 1838SOL    HW222657   3.913   1.146   1.220
 1839SOL     OW22658   1.765   0.616   5.732
 1839SOL    HW122659   1.722   0.562   5.798
 1839SOL    HW222660   1.772   0.703   5.773
 1840SOL     OW22661   6.038   3.122   1.494
 1840SOL    HW122662   6.039   3.170   1.577
 1840SOL    HW222663   5.972   3.167   1.441
 1841SOL     OW22664   3.199   5.918   6.551
 1841SOL    HW122665   3.271   5.915   6.488
 1841SOL    HW222666   3.147   5.840   6.533
 1842SOL     OW22667   1.581   5.790   1.202
 1842SOL    HW122668   1.655   5.804   1.143
 1842SOL    HW222669   1.618   5.744   1.277
 1843SOL     OW22670   0.761   3.193   1.647
 1843SOL    HW122671   0.690   3.187   1.584
 1843SOL    HW222672   0.784   3.102   1.667
 1844SOL     OW22673   0.024   5.830   1.391
 1844SOL    HW122674   0.063   5.818   1.304
 1844SOL    HW222675  -0.058   5.877   1.374
 1845SOL     OW22676   2.070   0.749   7.482
 1845SOL    HW122677   2.068   0.845   7.481
 1845SOL    HW222678   2.057   0.726   7.574
 1846SOL     OW22679   0.664   4.392   6.589
 1846SOL    HW122680   0.614   4.473   6.587
 1846SOL    HW222681   0.599   4.323   6.577
 1847SOL     OW22682   1.984   1.095   5.691
 1847SOL    HW122683   1.939   1.179   5.705
 1847SOL    HW222684   1.958   1.069   5.602
 1848SOL     OW22685   1.740   2.807   0.728
 1848SOL    HW122686   1.684   2.757   0.669
 1848SOL    HW222687   1.829   2.774   0.711
 1849SOL     OW22688   0.007   1.137   1.357
 1849SOL    HW122689   0.088   1.187   1.350
 1849SOL    HW222690   0.018   1.083   1.435
 1850SOL     OW22691   4.372   0.372   7.280
 1850SOL    HW122692   4.282   0.339   7.274
 1850SOL    HW222693   4.371   0.453   7.230
 1851SOL     OW22694   2.056   2.468   6.540
 1851SOL    HW122695   2.095   2.389   6.502
 1851SOL    HW222696   2.041   2.445   6.631
 1852SOL     OW22697   6.087   1.744   7.131
 1852SOL    HW122698   6.136   1.676   7.178
 1852SOL    HW222699   6.125   1.826   7.162
 1853SOL     OW22700   1.568   2.536   0.089
 1853SOL    HW122701   1.661   2.520   0.104
 1853SOL    HW222702   1.553   2.511  -0.002
 1854SOL     OW22703   5.240   3.714   7.402
 1854SOL    HW122704   5.150   3.688   7.384
 1854SOL    HW222705   5.234   3.808   7.422
 1855SOL     OW22706   5.873   5.237   7.150
 1855SOL    HW122707   5.877   5.172   7.081
 1855SOL    HW222708   5.851   5.319   7.105
 1856SOL     OW22709   3.306   4.915   1.621
 1856SOL    HW122710   3.257   4.954   1.694
 1856SOL    HW222711   3.384   4.876   1.662
 1857SOL     OW22712   3.327   5.530   0.823
 1857SOL    HW122713   3.245   5.561   0.861
 1857SOL    HW222714   3.380   5.609   0.813
 1858SOL     OW22715   5.930   1.844   6.766
 1858SOL    HW122716   5.990   1.915   6.789
 1858SOL    HW222717   5.986   1.779   6.723
 1859SOL     OW22718   6.103   5.964   7.045
 1859SOL    HW122719   6.159   5.928   7.114
 1859SOL    HW222720   6.095   5.893   6.981
 1860SOL     OW22721   2.227   4.398   6.232
 1860SOL    HW122722   2.279   4.319   6.219
 1860SOL    HW222723   2.188   4.416   6.147
 1861SOL     OW22724   2.864   0.422   6.647
 1861SOL    HW122725   2.784   0.379   6.677
 1861SOL    HW222726   2.925   0.350   6.631
 1862SOL     OW22727   5.650   1.612   0.853
 1862SOL    HW122728   5.724   1.553   0.868
 1862SOL    HW222729   5.644   1.663   0.934
 1863SOL     OW22730   3.826   4.626   0.614
 1863SOL    HW122731   3.886   4.698   0.635
 1863SOL    HW222732   3.789   4.650   0.529
 1864SOL     OW22733   1.893   1.800   1.167
 1864SOL    HW122734   1.815   1.850   1.192
 1864SOL    HW222735   1.966   1.856   1.192
 1865SOL     OW22736   2.150   5.424   1.649
 1865SOL    HW122737   2.164   5.470   1.567
 1865SOL    HW222738   2.157   5.331   1.626
 1866SOL     OW22739   5.158   4.398   5.983
 1866SOL    HW122740   5.229   4.384   5.919
 1866SOL    HW222741   5.103   4.464   5.942
 1867SOL     OW22742   3.537   0.720   7.929
 1867SOL    HW122743   3.566   0.642   7.976
 1867SOL    HW222744   3.610   0.781   7.936
 1868SOL     OW22745   5.306   1.060   1.108
 1868SOL    HW122746   5.333   0.974   1.076
 1868SOL    HW222747   5.274   1.106   1.031
 1869SOL     OW22748   1.519   0.700   1.842
 1869SOL    HW122749   1.566   0.701   1.926
 1869SOL    HW222750   1.586   0.684   1.776
 1870SOL     OW22751   4.370   4.026   6.712
 1870SOL    HW122752   4.276   4.026   6.692
 1870SOL    HW222753   4.405   4.099   6.661
 1871SOL     OW22754   6.058   5.961   0.855
 1871SOL    HW122755   5.979   5.987   0.903
 1871SOL    HW222756   6.081   6.038   0.803
 1872SOL     OW22757   5.799   1.681   1.868
 1872SOL    HW122758   5.706   1.702   1.883
 1872SOL    HW222759   5.798   1.631   1.786
 1873SOL     OW22760   5.173   3.952   1.070
 1873SOL    HW122761   5.242   3.965   1.005
 1873SOL    HW222762   5.215   3.968   1.154
 1874SOL     OW22763   5.573   0.134   0.073
 1874SOL    HW122764   5.638   0.077   0.032
 1874SOL    HW222765   5.614   0.220   0.072
 1875SOL     OW22766   4.900   4.625   0.818
 1875SOL    HW122767   4.937   4.537   0.818
 1875SOL    HW222768   4.952   4.673   0.883
 1876SOL     OW22769   5.654   4.921   1.179
 1876SOL    HW122770   5.708   4.972   1.239
 1876SOL    HW222771   5.707   4.844   1.158
 1877SOL     OW22772   1.420   0.930   1.437
 1877SOL    HW122773   1.344   0.968   1.394
 1877SOL    HW222774   1.461   0.875   1.370
 1878SOL     OW22775   6.229   2.455   7.197
 1878SOL    HW122776   6.187   2.463   7.111
 1878SOL    HW222777   6.312   2.411   7.179
 1879SOL     OW22778   5.466   0.121   1.896
 1879SOL    HW122779   5.486   0.185   1.964
 1879SOL    HW222780   5.465   0.037   1.942
 1880SOL     OW22781   3.078   0.880   7.331
 1880SOL    HW122782   3.149   0.929   7.374
 1880SOL    HW222783   3.003   0.892   7.389
 1881SOL     OW22784   0.390   5.692   7.014
 1881SOL    HW122785   0.382   5.770   7.070
 1881SOL    HW222786   0.425   5.725   6.931
 1882SOL     OW22787   3.023   5.156   6.683
 1882SOL    HW122788   2.973   5.111   6.615
 1882SOL    HW222789   2.973   5.236   6.701
 1883SOL     OW22790   3.643   2.444   5.977
 1883SOL    HW122791   3.615   2.354   5.961
 1883SOL    HW222792   3.739   2.438   5.982
 1884SOL     OW22793   5.681   6.050   7.393
 1884SOL    HW122794   5.737   6.086   7.324
 1884SOL    HW222795   5.621   6.121   7.414
 1885SOL     OW22796   1.793   1.694   7.717
 1885SOL    HW122797   1.713   1.713   7.766
 1885SOL    HW222798   1.811   1.775   7.669
 1886SOL     OW22799   4.935   1.232   6.515
 1886SOL    HW122800   5.017   1.275   6.539
 1886SOL    HW222801   4.932   1.236   6.419
 1887SOL     OW22802   0.872   0.506   2.643
 1887SOL    HW122803   0.930   0.564   2.693
 1887SOL    HW222804   0.912   0.501   2.556
 1888SOL     OW22805   0.207   2.023   6.918
 1888SOL    HW122806   0.218   2.052   6.827
 1888SOL    HW222807   0.114   2.002   6.925
 1889SOL     OW22808   1.708   0.057   7.144
 1889SOL    HW122809   1.704   0.147   7.175
 1889SOL    HW222810   1.645   0.009   7.199
 1890SOL     OW22811   0.065   1.406   7.332
 1890SOL    HW122812   0.136   1.461   7.299
 1890SOL    HW222813   0.098   1.371   7.415
 1891SOL     OW22814   6.393   2.086   1.745
 1891SOL    HW122815   6.485   2.063   1.760
 1891SOL    HW222816   6.344   2.008   1.771
 1892SOL     OW22817   5.706   4.146   6.433
 1892SOL    HW122818   5.799   4.143   6.456
 1892SOL    HW222819   5.663   4.093   6.500
 1893SOL     OW22820   5.118   3.891   2.424
 1893SOL    HW122821   5.048   3.947   2.457
 1893SOL    HW222822   5.094   3.873   2.333
 1894SOL     OW22823   3.018   0.022   0.807
 1894SOL    HW122824   3.082   0.079   0.765
 1894SOL    HW222825   2.945   0.079   0.828
 1895SOL     OW22826   5.509   3.844   0.730
 1895SOL    HW122827   5.455   3.853   0.652
 1895SOL    HW222828   5.497   3.754   0.758
 1896SOL     OW22829   5.144   5.130   7.155
 1896SOL    HW122830   5.100   5.066   7.099
 1896SOL    HW222831   5.082   5.203   7.161
 1897SOL     OW22832   5.073   4.883   1.745
 1897SOL    HW122833   5.048   4.958   1.692
 1897SOL    HW222834   4.994   4.862   1.795
 1898SOL     OW22835   4.049   5.635   1.672
 1898SOL    HW122836   4.110   5.564   1.651
 1898SOL    HW222837   4.054   5.694   1.597
 1899SOL     OW22838   0.648   2.393   0.950
 1899SOL    HW122839   0.560   2.402   0.988
 1899SOL    HW222840   0.634   2.398   0.856
 1900SOL     OW22841   0.160   5.383   7.702
 1900SOL    HW122842   0.077   5.342   7.681
 1900SOL    HW222843   0.140   5.477   7.709
 1901SOL     OW22844   0.036   5.576   0.518
 1901SOL    HW122845   0.023   5.650   0.577
 1901SOL    HW222846   0.074   5.508   0.573
 1902SOL     OW22847   2.697   4.949   1.358
 1902SOL    HW122848   2.730   4.906   1.280
 1902SOL    HW222849   2.720   4.891   1.430
 1903SOL     OW22850   4.488   4.518   7.519
 1903SOL    HW122851   4.540   4.552   7.593
 1903SOL    HW222852   4.397   4.531   7.546
 1904SOL     OW22853   1.855   5.462   5.676
 1904SOL    HW122854   1.861   5.379   5.628
 1904SOL    HW222855   1.769   5.460   5.718
 1905SOL     OW22856   3.808   3.344   0.503
 1905SOL    HW122857   3.802   3.261   0.455
 1905SOL    HW222858   3.735   3.342   0.565
 1906SOL     OW22859   0.107   0.608   7.506
 1906SOL    HW122860   0.067   0.602   7.593
 1906SOL    HW222861   0.178   0.543   7.507
 1907SOL     OW22862   1.775   0.403   1.244
 1907SOL    HW122863   1.693   0.381   1.289
 1907SOL    HW222864   1.749   0.471   1.181
 1908SOL     OW22865   3.249   0.421   6.354
 1908SOL    HW122866   3.232   0.451   6.264
 1908SOL    HW222867   3.204   0.337   6.360
 1909SOL     OW22868   3.535   3.134   5.676
 1909SOL    HW122869   3.443   3.160   5.684
 1909SOL    HW222870   3.559   3.103   5.763
 1910SOL     OW22871   5.400   2.932   7.215
 1910SOL    HW122872   5.311   2.912   7.246
 1910SOL    HW222873   5.457   2.909   7.288
 1911SOL     OW22874   0.305   2.671   0.999
 1911SOL    HW122875   0.361   2.734   1.044
 1911SOL    HW222876   0.216   2.698   1.021
 1912SOL     OW22877   1.623   2.500   6.330
 1912SOL    HW122878   1.603   2.565   6.264
 1912SOL    HW222879   1.609   2.416   6.287
 1913SOL     OW22880   4.107   6.122   6.651
 1913SOL    HW122881   4.094   6.144   6.559
 1913SOL    HW222882   4.202   6.129   6.665
 1914SOL     OW22883   2.368   2.523   0.252
 1914SOL    HW122884   2.383   2.437   0.214
 1914SOL    HW222885   2.312   2.506   0.328
 1915SOL     OW22886   3.603   0.501   0.112
 1915SOL    HW122887   3.553   0.426   0.080
 1915SOL    HW222888   3.629   0.477   0.201
 1916SOL     OW22889   3.377   2.069   0.453
 1916SOL    HW122890   3.301   2.123   0.432
 1916SOL    HW222891   3.375   2.060   0.548
 1917SOL     OW22892   4.760   3.631   7.831
 1917SOL    HW122893   4.756   3.686   7.753
 1917SOL    HW222894   4.673   3.637   7.870
 1918SOL     OW22895   1.157   0.161   1.432
 1918SOL    HW122896   1.121   0.112   1.505
 1918SOL    HW222897   1.233   0.110   1.403
 1919SOL     OW22898   4.910   0.744   6.972
 1919SOL    HW122899   4.865   0.735   7.055
 1919SOL    HW222900   5.003   0.741   6.995
 1920SOL     OW22901   6.329   5.641   1.554
 1920SOL    HW122902   6.251   5.605   1.512
 1920SOL    HW222903   6.359   5.710   1.495
 1921SOL     OW22904   4.454   6.103   6.396
 1921SOL    HW122905   4.534   6.083   6.346
 1921SOL    HW222906   4.412   6.174   6.347
 1922SOL     OW22907   3.659   5.101   5.551
 1922SOL    HW122908   3.640   5.093   5.457
 1922SOL    HW222909   3.749   5.072   5.560
 1923SOL     OW22910   3.978   4.985   1.141
 1923SOL    HW122911   3.890   5.007   1.170
 1923SOL    HW222912   3.965   4.917   1.075
 1924SOL     OW22913   1.924   3.313   0.043
 1924SOL    HW122914   1.873   3.320   0.123
 1924SOL    HW222915   1.904   3.394  -0.005
 1925SOL     OW22916   4.682   4.014   7.757
 1925SOL    HW122917   4.753   3.978   7.810
 1925SOL    HW222918   4.719   4.021   7.669
 1926SOL     OW22919   3.233   2.473   7.609
 1926SOL    HW122920   3.202   2.534   7.675
 1926SOL    HW222921   3.185   2.496   7.530
 1927SOL     OW22922   6.114   5.672   7.821
 1927SOL    HW122923   6.103   5.633   7.907
 1927SOL    HW222924   6.062   5.617   7.763
 1928SOL     OW22925   2.999   5.011   0.914
 1928SOL    HW122926   3.084   4.993   0.875
 1928SOL    HW222927   2.992   4.948   0.986
 1929SOL     OW22928   4.601   3.432   1.835
 1929SOL    HW122929   4.624   3.520   1.868
 1929SOL    HW222930   4.514   3.444   1.796
 1930SOL     OW22931   0.047   3.524   7.618
 1930SOL    HW122932   0.030   3.608   7.575
 1930SOL    HW222933  -0.039   3.484   7.628
 1931SOL     OW22934   5.243   1.244   7.721
 1931SOL    HW122935   5.324   1.288   7.745
 1931SOL    HW222936   5.271   1.158   7.688
 1932SOL     OW22937   3.533   5.688   6.062
 1932SOL    HW122938   3.628   5.692   6.053
 1932SOL    HW222939   3.501   5.667   5.974
 1933SOL     OW22940   0.806   3.179   6.767
 1933SOL    HW122941   0.863   3.129   6.709
 1933SOL    HW222942   0.860   3.199   6.844
 1934SOL     OW22943   5.859   1.460   6.018
 1934SOL    HW122944   5.806   1.455   5.938
 1934SOL    HW222945   5.901   1.374   6.025
 1935SOL     OW22946   1.745   0.610   1.716
 1935SOL    HW122947   1.820   0.600   1.657
 1935SOL    HW222948   1.780   0.588   1.803
 1936SOL     OW22949   1.462   4.477   1.523
 1936SOL    HW122950   1.439   4.396   1.568
 1936SOL    HW222951   1.417   4.472   1.438
 1937SOL     OW22952   4.973   3.866   6.816
 1937SOL    HW122953   4.886   3.877   6.856
 1937SOL    HW222954   4.959   3.885   6.724
 1938SOL     OW22955   0.622   2.305   6.349
 1938SOL    HW122956   0.675   2.248   6.406
 1938SOL    HW222957   0.557   2.247   6.310
 1939SOL     OW22958   1.600   3.137   0.286
 1939SOL    HW122959   1.512   3.132   0.322
 1939SOL    HW222960   1.657   3.139   0.364
 1940SOL     OW22961   1.725   0.660   0.226
 1940SOL    HW122962   1.773   0.699   0.153
 1940SOL    HW222963   1.639   0.639   0.189
 1941SOL     OW22964   2.123   4.012   5.569
 1941SOL    HW122965   2.132   3.951   5.496
 1941SOL    HW222966   2.098   4.095   5.528
 1942SOL     OW22967   6.279   1.218   5.793
 1942SOL    HW122968   6.372   1.198   5.781
 1942SOL    HW222969   6.238   1.186   5.713
 1943SOL     OW22970   4.693   2.988   6.707
 1943SOL    HW122971   4.722   3.052   6.772
 1943SOL    HW222972   4.738   2.907   6.732
 1944SOL     OW22973   4.835   5.104   0.741
 1944SOL    HW122974   4.791   5.182   0.707
 1944SOL    HW222975   4.766   5.054   0.785
 1945SOL     OW22976   5.748   1.704   6.484
 1945SOL    HW122977   5.690   1.741   6.551
 1945SOL    HW222978   5.695   1.702   6.404
 1946SOL     OW22979   6.327   4.526   6.685
 1946SOL    HW122980   6.413   4.566   6.667
 1946SOL    HW222981   6.335   4.491   6.773
 1947SOL     OW22982   5.394   3.980   1.504
 1947SOL    HW122983   5.362   3.897   1.469
 1947SOL    HW222984   5.400   4.037   1.428
 1948SOL     OW22985   5.976   4.941   1.065
 1948SOL    HW122986   5.931   5.025   1.061
 1948SOL    HW222987   6.053   4.952   1.010
 1949SOL     OW22988   0.384   5.060   7.665
 1949SOL    HW122989   0.398   5.002   7.591
 1949SOL    HW222990   0.325   5.129   7.632
 1950SOL     OW22991   3.678   6.193   6.056
 1950SOL    HW122992   3.589   6.202   6.091
 1950SOL    HW222993   3.673   6.231   5.968
 1951SOL     OW22994   1.018   4.189   1.127
 1951SOL    HW122995   1.017   4.107   1.176
 1951SOL    HW222996   0.946   4.181   1.064
 1952SOL     OW22997   3.581   0.108   5.210
 1952SOL    HW122998   3.577   0.191   5.162
 1952SOL    HW222999   3.499   0.105   5.259
 1953SOL     OW23000   4.759   2.613   0.118
 1953SOL    HW123001   4.673   2.579   0.141
 1953SOL    HW223002   4.818   2.579   0.185
 1954SOL     OW23003   0.493   5.820   5.670
 1954SOL    HW123004   0.464   5.730   5.683
 1954SOL    HW223005   0.588   5.815   5.664
 1955SOL     OW23006   1.409   4.401   5.518
 1955SOL    HW123007   1.363   4.396   5.602
 1955SOL    HW223008   1.343   4.434   5.457
 1956SOL     OW23009   1.431   3.774   1.384
 1956SOL    HW123010   1.385   3.693   1.362
 1956SOL    HW223011   1.382   3.842   1.337
 1957SOL     OW23012   0.711   5.706   1.206
 1957SOL    HW123013   0.756   5.745   1.281
 1957SOL    HW223014   0.645   5.649   1.245
 1958SOL     OW23015   5.162   3.802   7.013
 1958SOL    HW123016   5.147   3.876   7.071
 1958SOL    HW223017   5.106   3.820   6.937
 1959SOL     OW23018   4.281   2.861   1.333
 1959SOL    HW123019   4.336   2.874   1.410
 1959SOL    HW223020   4.329   2.799   1.279
 1960SOL     OW23021   3.540   2.297   6.289
 1960SOL    HW123022   3.628   2.260   6.299
 1960SOL    HW223023   3.506   2.256   6.210
 1961SOL     OW23024   0.794   1.343   1.489
 1961SOL    HW123025   0.775   1.284   1.416
 1961SOL    HW223026   0.866   1.302   1.536
 1962SOL     OW23027   1.770   1.050   0.139
 1962SOL    HW123028   1.862   1.028   0.153
 1962SOL    HW223029   1.766   1.145   0.152
 1963SOL     OW23030   3.584   5.209   6.312
 1963SOL    HW123031   3.569   5.171   6.399
 1963SOL    HW223032   3.515   5.171   6.257
 1964SOL     OW23033   2.228   3.819   7.920
 1964SOL    HW123034   2.255   3.737   7.879
 1964SOL    HW223035   2.163   3.856   7.861
 1965SOL     OW23036   2.103   5.028   6.527
 1965SOL    HW123037   2.084   5.098   6.589
 1965SOL    HW223038   2.039   5.041   6.457
 1966SOL     OW23039   5.832   2.590   0.107
 1966SOL    HW123040   5.856   2.527   0.039
 1966SOL    HW223041   5.753   2.633   0.073
 1967SOL     OW23042   0.658   3.504   7.545
 1967SOL    HW123043   0.612   3.558   7.609
 1967SOL    HW223044   0.749   3.503   7.576
 1968SOL     OW23045   2.927   1.881   1.880
 1968SOL    HW123046   2.857   1.911   1.822
 1968SOL    HW223047   2.954   1.797   1.842
 1969SOL     OW23048   0.144   3.522   5.516
 1969SOL    HW123049   0.166   3.575   5.592
 1969SOL    HW223050   0.113   3.585   5.451
 1970SOL     OW23051   1.229   3.345   7.146
 1970SOL    HW123052   1.136   3.336   7.167
 1970SOL    HW223053   1.236   3.315   7.055
 1971SOL     OW23054   2.581   1.889   5.469
 1971SOL    HW123055   2.559   1.982   5.472
 1971SOL    HW223056   2.506   1.847   5.427
 1972SOL     OW23057   5.673   0.816   6.131
 1972SOL    HW123058   5.700   0.850   6.046
 1972SOL    HW223059   5.754   0.786   6.172
 1973SOL     OW23060   4.897   4.300   6.127
 1973SOL    HW123061   4.858   4.293   6.040
 1973SOL    HW223062   4.989   4.317   6.111
 1974SOL     OW23063   6.034   5.022   0.745
 1974SOL    HW123064   6.032   4.928   0.761
 1974SOL    HW223065   5.945   5.043   0.714
 1975SOL     OW23066   1.889   4.536   1.086
 1975SOL    HW123067   1.977   4.498   1.092
 1975SOL    HW223068   1.866   4.528   0.993
 1976SOL     OW23069   5.725   0.470   0.464
 1976SOL    HW123070   5.633   0.456   0.442
 1976SOL    HW223071   5.722   0.515   0.549
 1977SOL     OW23072   2.039   3.026   5.293
 1977SOL    HW123073   1.997   2.940   5.282
 1977SOL    HW223074   1.971   3.081   5.333
 1978SOL     OW23075   4.613   5.935   0.193
 1978SOL    HW123076   4.587   5.852   0.232
 1978SOL    HW223077   4.625   5.916   0.100
 1979SOL     OW23078   0.170   1.632   2.097
 1979SOL    HW123079   0.100   1.677   2.051
 1979SOL    HW223080   0.238   1.699   2.110
 1980SOL     OW23081   1.905   3.917   6.994
 1980SOL    HW123082   1.823   3.952   7.029
 1980SOL    HW223083   1.949   3.880   7.070
 1981SOL     OW23084   0.607   3.291   1.857
 1981SOL    HW123085   0.650   3.211   1.886
 1981SOL    HW223086   0.644   3.309   1.771
 1982SOL     OW23087   0.201   4.873   5.437
 1982SOL    HW123088   0.165   4.853   5.524
 1982SOL    HW223089   0.148   4.947   5.406
 1983SOL     OW23090   5.618   4.186   1.626
 1983SOL    HW123091   5.523   4.181   1.637
 1983SOL    HW223092   5.643   4.102   1.587
 1984SOL     OW23093   2.874   5.739   0.039
 1984SOL    HW123094   2.827   5.719   0.120
 1984SOL    HW223095   2.897   5.654   0.002
 1985SOL     OW23096   0.605   4.811   7.148
 1985SOL    HW123097   0.556   4.870   7.206
 1985SOL    HW223098   0.667   4.868   7.102
 1986SOL     OW23099   5.249   3.327   1.082
 1986SOL    HW123100   5.342   3.349   1.080
 1986SOL    HW223101   5.204   3.407   1.056
 1987SOL     OW23102   3.687   4.487   1.695
 1987SOL    HW123103   3.610   4.450   1.737
 1987SOL    HW223104   3.698   4.573   1.736
 1988SOL     OW23105   4.823   4.602   0.322
 1988SOL    HW123106   4.831   4.687   0.280
 1988SOL    HW223107   4.809   4.622   0.415
 1989SOL     OW23108   4.631   1.554   6.524
 1989SOL    HW123109   4.674   1.556   6.438
 1989SOL    HW223110   4.671   1.481   6.570
 1990SOL     OW23111   2.047   4.072   6.808
 1990SOL    HW123112   2.045   4.022   6.727
 1990SOL    HW223113   2.010   4.013   6.874
 1991SOL     OW23114   0.828   2.001   6.790
 1991SOL    HW123115   0.913   2.006   6.746
 1991SOL    HW223116   0.834   2.064   6.861
 1992SOL     OW23117   2.488   4.774   0.569
 1992SOL    HW123118   2.530   4.841   0.515
 1992SOL    HW223119   2.472   4.701   0.509
 1993SOL     OW23120   0.519   0.828   6.496
 1993SOL    HW123121   0.518   0.756   6.559
 1993SOL    HW223122   0.582   0.890   6.532
 1994SOL     OW23123   2.252   2.690   2.015
 1994SOL    HW123124   2.171   2.654   1.979
 1994SOL    HW223125   2.225   2.739   2.093
 1995SOL     OW23126   2.525   2.726   0.729
 1995SOL    HW123127   2.587   2.700   0.660
 1995SOL    HW223128   2.454   2.769   0.682
 1996SOL     OW23129   5.896   3.931   1.710
 1996SOL    HW123130   5.835   3.929   1.636
 1996SOL    HW223131   5.961   3.865   1.689
 1997SOL     OW23132   4.005   3.359   1.404
 1997SOL    HW123133   4.050   3.282   1.437
 1997SOL    HW223134   4.042   3.374   1.317
 1998SOL     OW23135   4.467   0.212   7.707
 1998SOL    HW123136   4.503   0.288   7.660
 1998SOL    HW223137   4.541   0.177   7.756
 1999SOL     OW23138   3.609   0.727   0.753
 1999SOL    HW123139   3.588   0.816   0.723
 1999SOL    HW223140   3.587   0.728   0.846
 2000SOL     OW23141   0.697   2.930   1.448
 2000SOL    HW123142   0.782   2.908   1.486
 2000SOL    HW223143   0.638   2.863   1.480
 2001SOL     OW23144   2.010   3.878   6.624
 2001SOL    HW123145   1.964   3.910   6.546
 2001SOL    HW223146   2.099   3.859   6.594
 2002SOL     OW23147   4.121   5.478   7.721
 2002SOL    HW123148   4.133   5.385   7.740
 2002SOL    HW223149   4.197   5.501   7.667
 2003SOL     OW23150   1.452   4.963   6.262
 2003SOL    HW123151   1.534   4.919   6.282
 2003SOL    HW223152   1.469   5.056   6.277
 2004SOL     OW23153   4.649   3.776   1.005
 2004SOL    HW123154   4.575   3.818   1.049
 2004SOL    HW223155   4.609   3.713   0.946
 2005SOL     OW23156   3.713   0.990   7.077
 2005SOL    HW123157   3.729   0.964   6.986
 2005SOL    HW223158   3.646   0.929   7.108
 2006SOL     OW23159   4.457   2.453   6.768
 2006SOL    HW123160   4.366   2.421   6.769
 2006SOL    HW223161   4.449   2.548   6.758
 2007SOL     OW23162   5.799   1.786   1.464
 2007SOL    HW123163   5.758   1.857   1.414
 2007SOL    HW223164   5.871   1.828   1.511
 2008SOL     OW23165   4.147   1.431   0.261
 2008SOL    HW123166   4.150   1.356   0.321
 2008SOL    HW223167   4.098   1.498   0.308
 2009SOL     OW23168   2.708   3.884   7.280
 2009SOL    HW123169   2.767   3.849   7.214
 2009SOL    HW223170   2.765   3.911   7.352
 2010SOL     OW23171   5.929   1.368   0.141
 2010SOL    HW123172   5.912   1.303   0.210
 2010SOL    HW223173   5.842   1.400   0.117
 2011SOL     OW23174   2.629   3.514   6.435
 2011SOL    HW123175   2.609   3.596   6.390
 2011SOL    HW223176   2.560   3.505   6.501
 2012SOL     OW23177   3.338   0.250   6.721
 2012SOL    HW123178   3.311   0.220   6.807
 2012SOL    HW223179   3.365   0.341   6.734
 2013SOL     OW23180   3.479   2.142   6.061
 2013SOL    HW123181   3.428   2.070   6.025
 2013SOL    HW223182   3.456   2.217   6.006
 2014SOL     OW23183   0.156   6.252   7.457
 2014SOL    HW123184   0.140   6.336   7.414
 2014SOL    HW223185   0.215   6.272   7.529
 2015SOL     OW23186   5.680   2.322   0.754
 2015SOL    HW123187   5.595   2.279   0.768
 2015SOL    HW223188   5.696   2.313   0.660
 2016SOL     OW23189   3.603   5.512   2.473
 2016SOL    HW123190   3.645   5.593   2.442
 2016SOL    HW223191   3.645   5.494   2.557
 2017SOL     OW23192   3.492   5.002   5.732
 2017SOL    HW123193   3.448   5.083   5.756
 2017SOL    HW223194   3.557   5.029   5.666
 2018SOL     OW23195   3.747   4.784   1.856
 2018SOL    HW123196   3.775   4.864   1.813
 2018SOL    HW223197   3.757   4.801   1.949
 2019SOL     OW23198   3.719   5.281   0.263
 2019SOL    HW123199   3.725   5.376   0.262
 2019SOL    HW223200   3.713   5.256   0.171
 2020SOL     OW23201   2.269   1.541   0.449
 2020SOL    HW123202   2.290   1.449   0.436
 2020SOL    HW223203   2.182   1.541   0.488
 2021SOL     OW23204   1.898   3.147   1.821
 2021SOL    HW123205   1.860   3.135   1.908
 2021SOL    HW223206   1.845   3.216   1.782
 2022SOL     OW23207   4.633   0.331   7.295
 2022SOL    HW123208   4.537   0.332   7.301
 2022SOL    HW223209   4.651   0.318   7.202
 2023SOL     OW23210   3.457   0.422   5.852
 2023SOL    HW123211   3.453   0.370   5.772
 2023SOL    HW223212   3.471   0.512   5.821
 2024SOL     OW23213   3.413   1.158   0.338
 2024SOL    HW123214   3.409   1.068   0.305
 2024SOL    HW223215   3.337   1.165   0.396
 2025SOL     OW23216   3.563   4.788   1.308
 2025SOL    HW123217   3.576   4.695   1.324
 2025SOL    HW223218   3.479   4.809   1.350
 2026SOL     OW23219   2.403   4.313   0.871
 2026SOL    HW123220   2.326   4.359   0.838
 2026SOL    HW223221   2.380   4.221   0.864
 2027SOL     OW23222   5.979   5.971   7.696
 2027SOL    HW123223   6.014   5.961   7.784
 2027SOL    HW223224   6.055   5.958   7.639
 2028SOL     OW23225   4.101   2.510   0.718
 2028SOL    HW123226   4.075   2.474   0.802
 2028SOL    HW223227   4.162   2.581   0.739
 2029SOL     OW23228   5.387   1.057   5.853
 2029SOL    HW123229   5.299   1.087   5.831
 2029SOL    HW223230   5.376   0.966   5.881
 2030SOL     OW23231   2.781   2.998   1.074
 2030SOL    HW123232   2.717   2.931   1.053
 2030SOL    HW223233   2.840   2.957   1.137
 2031SOL     OW23234   2.092   1.985   1.221
 2031SOL    HW123235   2.141   1.919   1.270
 2031SOL    HW223236   2.067   2.050   1.287
 2032SOL     OW23237   6.252   4.261   7.167
 2032SOL    HW123238   6.244   4.272   7.262
 2032SOL    HW223239   6.236   4.168   7.152
 2033SOL     OW23240   3.254   0.263   7.176
 2033SOL    HW123241   3.313   0.204   7.222
 2033SOL    HW223242   3.229   0.328   7.241
 2034SOL     OW23243   5.964   0.110   0.147
 2034SOL    HW123244   6.002   0.055   0.215
 2034SOL    HW223245   5.926   0.184   0.194
 2035SOL     OW23246   4.938   5.818   0.736
 2035SOL    HW123247   4.846   5.816   0.760
 2035SOL    HW223248   4.977   5.745   0.785
 2036SOL     OW23249   5.739   3.404   6.833
 2036SOL    HW123250   5.753   3.394   6.927
 2036SOL    HW223251   5.825   3.427   6.797
 2037SOL     OW23252   4.879   0.553   0.625
 2037SOL    HW123253   4.817   0.542   0.697
 2037SOL    HW223254   4.844   0.497   0.555
 2038SOL     OW23255   3.495   0.987   2.188
 2038SOL    HW123256   3.537   1.039   2.119
 2038SOL    HW223257   3.418   1.038   2.212
 2039SOL     OW23258   4.023   3.405   1.116
 2039SOL    HW123259   4.102   3.441   1.076
 2039SOL    HW223260   3.956   3.471   1.100
 2040SOL     OW23261   5.263   6.178   5.678
 2040SOL    HW123262   5.269   6.268   5.711
 2040SOL    HW223263   5.190   6.139   5.728
 2041SOL     OW23264   5.276   0.513   7.838
 2041SOL    HW123265   5.343   0.467   7.888
 2041SOL    HW223266   5.220   0.444   7.803
 2042SOL     OW23267   1.886   2.582   6.356
 2042SOL    HW123268   1.951   2.525   6.398
 2042SOL    HW223269   1.804   2.532   6.359
 2043SOL     OW23270   0.822   5.162   1.088
 2043SOL    HW123271   0.754   5.191   1.027
 2043SOL    HW223272   0.903   5.197   1.051
 2044SOL     OW23273   5.441   4.484   1.724
 2044SOL    HW123274   5.489   4.505   1.804
 2044SOL    HW223275   5.356   4.528   1.735
 2045SOL     OW23276   3.481   5.961   5.613
 2045SOL    HW123277   3.419   5.938   5.682
 2045SOL    HW223278   3.515   6.047   5.638
 2046SOL     OW23279   5.872   0.150   1.000
 2046SOL    HW123280   5.911   0.231   1.035
 2046SOL    HW223281   5.798   0.133   1.058
 2047SOL     OW23282   2.278   3.494   0.468
 2047SOL    HW123283   2.284   3.454   0.381
 2047SOL    HW223284   2.187   3.479   0.495
 2048SOL     OW23285   0.553   3.471   1.419
 2048SOL    HW123286   0.599   3.490   1.337
 2048SOL    HW223287   0.565   3.377   1.433
 2049SOL     OW23288   5.770   4.852   6.542
 2049SOL    HW123289   5.860   4.879   6.522
 2049SOL    HW223290   5.738   4.814   6.460
 2050SOL     OW23291   1.609   0.613   1.476
 2050SOL    HW123292   1.668   0.669   1.426
 2050SOL    HW223293   1.649   0.606   1.563
 2051SOL     OW23294   1.315   2.258   6.843
 2051SOL    HW123295   1.385   2.196   6.865
 2051SOL    HW223296   1.360   2.328   6.796
 2052SOL     OW23297   5.424   2.692   0.584
 2052SOL    HW123298   5.475   2.687   0.664
 2052SOL    HW223299   5.465   2.762   0.533
 2053SOL     OW23300   0.469   2.072   0.963
 2053SOL    HW123301   0.466   2.155   0.915
 2053SOL    HW223302   0.407   2.084   1.036
 2054SOL     OW23303   1.926   3.674   0.866
 2054SOL    HW123304   1.900   3.650   0.955
 2054SOL    HW223305   2.021   3.667   0.865
 2055SOL     OW23306   5.647   5.402   6.696
 2055SOL    HW123307   5.635   5.481   6.643
 2055SOL    HW223308   5.728   5.418   6.744
 2056SOL     OW23309   1.321   3.073   0.739
 2056SOL    HW123310   1.286   3.008   0.677
 2056SOL    HW223311   1.319   3.029   0.824
 2057SOL     OW23312   4.620   6.050   0.428
 2057SOL    HW123313   4.642   6.047   0.335
 2057SOL    HW223314   4.567   5.971   0.442
 2058SOL     OW23315   2.435   4.842   7.801
 2058SOL    HW123316   2.376   4.904   7.758
 2058SOL    HW223317   2.382   4.763   7.813
 2059SOL     OW23318   3.148   1.772   6.804
 2059SOL    HW123319   3.058   1.798   6.823
 2059SOL    HW223320   3.202   1.840   6.845
 2060SOL     OW23321   4.879   1.922   7.020
 2060SOL    HW123322   4.847   1.880   6.941
 2060SOL    HW223323   4.924   1.853   7.068
 2061SOL     OW23324   5.374   3.523   6.965
 2061SOL    HW123325   5.299   3.503   7.021
 2061SOL    HW223326   5.404   3.437   6.935
 2062SOL     OW23327   1.434   2.531   0.727
 2062SOL    HW123328   1.463   2.469   0.794
 2062SOL    HW223329   1.428   2.615   0.772
 2063SOL     OW23330   0.917   1.457   0.046
 2063SOL    HW123331   0.973   1.391   0.088
 2063SOL    HW223332   0.975   1.503  -0.015
 2064SOL     OW23333   2.131   4.935   6.125
 2064SOL    HW123334   2.144   4.969   6.037
 2064SOL    HW223335   2.132   4.840   6.114
 2065SOL     OW23336   4.413   5.274   0.023
 2065SOL    HW123337   4.485   5.212   0.012
 2065SOL    HW223338   4.334   5.221   0.013
 2066SOL     OW23339   1.577   2.547   1.420
 2066SOL    HW123340   1.516   2.474   1.416
 2066SOL    HW223341   1.584   2.567   1.513
 2067SOL     OW23342   2.302   4.737   7.357
 2067SOL    HW123343   2.259   4.706   7.437
 2067SOL    HW223344   2.230   4.771   7.304
 2068SOL     OW23345   5.073   5.890   1.408
 2068SOL    HW123346   5.041   5.922   1.493
 2068SOL    HW223347   5.161   5.856   1.427
 2069SOL     OW23348   6.307   6.224   7.372
 2069SOL    HW123349   6.264   6.260   7.449
 2069SOL    HW223350   6.401   6.231   7.390
 2070SOL     OW23351   0.305   2.948   1.374
 2070SOL    HW123352   0.216   2.915   1.383
 2070SOL    HW223353   0.295   3.038   1.342
 2071SOL     OW23354   0.011   1.657   7.058
 2071SOL    HW123355  -0.068   1.634   7.107
 2071SOL    HW223356   0.079   1.664   7.125
 2072SOL     OW23357   5.305   4.262   7.173
 2072SOL    HW123358   5.351   4.206   7.110
 2072SOL    HW223359   5.345   4.348   7.162
 2073SOL     OW23360   4.131   6.321   0.584
 2073SOL    HW123361   4.193   6.254   0.556
 2073SOL    HW223362   4.185   6.397   0.605
 2074SOL     OW23363   4.315   4.433   7.785
 2074SOL    HW123364   4.376   4.377   7.833
 2074SOL    HW223365   4.317   4.398   7.695
 2075SOL     OW23366   3.286   0.248   0.601
 2075SOL    HW123367   3.334   0.321   0.562
 2075SOL    HW223368   3.206   0.288   0.637
 2076SOL     OW23369   2.887   2.384   7.463
 2076SOL    HW123370   2.794   2.403   7.469
 2076SOL    HW223371   2.922   2.409   7.549
 2077SOL     OW23372   1.300   0.925   7.571
 2077SOL    HW123373   1.214   0.885   7.584
 2077SOL    HW223374   1.287   1.017   7.595
 2078SOL     OW23375   4.863   5.501   7.513
 2078SOL    HW123376   4.930   5.483   7.447
 2078SOL    HW223377   4.876   5.432   7.579
 2079SOL     OW23378   1.048   4.047   7.515
 2079SOL    HW123379   0.979   3.981   7.524
 2079SOL    HW223380   1.053   4.089   7.600
 2080SOL     OW23381   4.704   5.799   7.879
 2080SOL    HW123382   4.677   5.708   7.868
 2080SOL    HW223383   4.710   5.833   7.789
 2081SOL     OW23384   4.069   4.941   5.978
 2081SOL    HW123385   4.053   4.986   6.061
 2081SOL    HW223386   4.111   4.859   6.004
 2082SOL     OW23387   3.215   1.256   1.966
 2082SOL    HW123388   3.304   1.292   1.969
 2082SOL    HW223389   3.162   1.325   1.926
 2083SOL     OW23390   1.613   1.804   1.766
 2083SOL    HW123391   1.703   1.776   1.782
 2083SOL    HW223392   1.563   1.764   1.837
 2084SOL     OW23393   2.601   3.126   0.475
 2084SOL    HW123394   2.598   3.190   0.546
 2084SOL    HW223395   2.694   3.110   0.461
 2085SOL     OW23396   1.060   3.750   6.768
 2085SOL    HW123397   1.097   3.672   6.727
 2085SOL    HW223398   1.040   3.809   6.695
 2086SOL     OW23399   4.457   0.217   0.130
 2086SOL    HW123400   4.412   0.243   0.211
 2086SOL    HW223401   4.386   0.189   0.071
 2087SOL     OW23402   0.651   5.986   1.101
 2087SOL    HW123403   0.595   5.971   1.178
 2087SOL    HW223404   0.738   6.001   1.137
 2088SOL     OW23405   3.765   4.158   7.526
 2088SOL    HW123406   3.836   4.108   7.565
 2088SOL    HW223407   3.801   4.195   7.446
 2089SOL     OW23408   4.210   1.774   7.313
 2089SOL    HW123409   4.180   1.748   7.400
 2089SOL    HW223410   4.229   1.868   7.321
 2090SOL     OW23411   6.159   3.989   2.470
 2090SOL    HW123412   6.116   4.074   2.470
 2090SOL    HW223413   6.124   3.944   2.547
 2091SOL     OW23414   3.681   3.700   7.610
 2091SOL    HW123415   3.668   3.614   7.570
 2091SOL    HW223416   3.751   3.740   7.559
 2092SOL     OW23417   4.585   0.703   5.291
 2092SOL    HW123418   4.508   0.735   5.337
 2092SOL    HW223419   4.616   0.630   5.345
 2093SOL     OW23420   4.388   1.056   1.580
 2093SOL    HW123421   4.328   1.025   1.647
 2093SOL    HW223422   4.449   1.113   1.627
 2094SOL     OW23423   1.756   0.776   6.691
 2094SOL    HW123424   1.766   0.871   6.694
 2094SOL    HW223425   1.820   0.743   6.754
 2095SOL     OW23426   5.536   5.541   1.083
 2095SOL    HW123427   5.540   5.559   1.177
 2095SOL    HW223428   5.462   5.480   1.073
 2096SOL     OW23429   3.696   2.146   6.910
 2096SOL    HW123430   3.630   2.200   6.954
 2096SOL    HW223431   3.768   2.140   6.973
 2097SOL     OW23432   3.168   4.778   1.415
 2097SOL    HW123433   3.221   4.698   1.415
 2097SOL    HW223434   3.202   4.829   1.488
 2098SOL     OW23435   3.512   4.966   0.741
 2098SOL    HW123436   3.498   5.054   0.707
 2098SOL    HW223437   3.542   4.915   0.665
 2099SOL     OW23438   1.140   3.270   5.700
 2099SOL    HW123439   1.091   3.204   5.651
 2099SOL    HW223440   1.136   3.348   5.645
 2100SOL     OW23441   5.772   5.534   7.097
 2100SOL    HW123442   5.679   5.527   7.120
 2100SOL    HW223443   5.790   5.628   7.103
 2101SOL     OW23444   2.940   0.980   7.087
 2101SOL    HW123445   3.030   0.976   7.119
 2101SOL    HW223446   2.896   0.908   7.132
 2102SOL     OW23447   1.730   1.017   6.095
 2102SOL    HW123448   1.648   0.985   6.058
 2102SOL    HW223449   1.754   0.952   6.161
 2103SOL     OW23450   1.433   1.704   1.985
 2103SOL    HW123451   1.396   1.762   2.051
 2103SOL    HW223452   1.465   1.629   2.034
 2104SOL     OW23453   2.808   2.714   6.454
 2104SOL    HW123454   2.853   2.634   6.427
 2104SOL    HW223455   2.851   2.784   6.405
 2105SOL     OW23456   3.937   4.020   1.427
 2105SOL    HW123457   4.020   4.038   1.382
 2105SOL    HW223458   3.953   4.045   1.518
 2106SOL     OW23459   1.161   0.234   7.112
 2106SOL    HW123460   1.191   0.173   7.180
 2106SOL    HW223461   1.240   0.282   7.087
 2107SOL     OW23462   3.378   0.626   1.371
 2107SOL    HW123463   3.460   0.650   1.414
 2107SOL    HW223464   3.345   0.552   1.421
 2108SOL     OW23465   2.836   4.759   6.377
 2108SOL    HW123466   2.871   4.690   6.320
 2108SOL    HW223467   2.763   4.718   6.423
 2109SOL     OW23468   5.576   3.431   0.404
 2109SOL    HW123469   5.542   3.452   0.491
 2109SOL    HW223470   5.671   3.440   0.413
 2110SOL     OW23471   6.394   0.284   6.080
 2110SOL    HW123472   6.372   0.271   5.987
 2110SOL    HW223473   6.396   0.379   6.090
 2111SOL     OW23474   1.894   1.765   0.413
 2111SOL    HW123475   1.903   1.765   0.508
 2111SOL    HW223476   1.896   1.857   0.388
 2112SOL     OW23477   4.753   5.775   7.568
 2112SOL    HW123478   4.819   5.837   7.601
 2112SOL    HW223479   4.805   5.705   7.528
 2113SOL     OW23480   5.371   0.333   5.875
 2113SOL    HW123481   5.457   0.295   5.858
 2113SOL    HW223482   5.383   0.383   5.956
 2114SOL     OW23483   0.821   4.257   5.384
 2114SOL    HW123484   0.812   4.345   5.421
 2114SOL    HW223485   0.748   4.250   5.322
 2115SOL     OW23486   5.399   3.662   0.970
 2115SOL    HW123487   5.357   3.576   0.965
 2115SOL    HW223488   5.459   3.654   1.045
 2116SOL     OW23489   1.266   1.134   1.715
 2116SOL    HW123490   1.300   1.209   1.763
 2116SOL    HW223491   1.331   1.065   1.726
 2117SOL     OW23492   1.680   4.857   7.319
 2117SOL    HW123493   1.679   4.843   7.414
 2117SOL    HW223494   1.589   4.878   7.297
 2118SOL     OW23495   1.795   3.383   6.286
 2118SOL    HW123496   1.797   3.458   6.347
 2118SOL    HW223497   1.882   3.345   6.291
 2119SOL     OW23498   2.703   1.645   7.324
 2119SOL    HW123499   2.787   1.673   7.362
 2119SOL    HW223500   2.700   1.551   7.339
 2120SOL     OW23501   3.620   3.991   0.825
 2120SOL    HW123502   3.589   3.942   0.748
 2120SOL    HW223503   3.540   4.007   0.876
 2121SOL     OW23504   2.805   5.872   0.766
 2121SOL    HW123505   2.894   5.876   0.729
 2121SOL    HW223506   2.806   5.935   0.838
 2122SOL     OW23507   5.329   1.086   5.340
 2122SOL    HW123508   5.258   1.113   5.398
 2122SOL    HW223509   5.289   1.022   5.281
 2123SOL     OW23510   5.187   6.381   1.334
 2123SOL    HW123511   5.116   6.339   1.383
 2123SOL    HW223512   5.262   6.378   1.393
 2124SOL     OW23513   6.293   3.890   1.560
 2124SOL    HW123514   6.386   3.880   1.578
 2124SOL    HW223515   6.287   3.972   1.511
 2125SOL     OW23516   5.932   3.875   6.551
 2125SOL    HW123517   5.971   3.953   6.514
 2125SOL    HW223518   5.918   3.896   6.644
 2126SOL     OW23519   2.983   5.464   2.100
 2126SOL    HW123520   2.932   5.384   2.106
 2126SOL    HW223521   3.036   5.452   2.020
 2127SOL     OW23522   3.152   6.364   7.591
 2127SOL    HW123523   3.153   6.270   7.611
 2127SOL    HW223524   3.088   6.400   7.652
 2128SOL     OW23525   5.768   2.298   7.156
 2128SOL    HW123526   5.798   2.207   7.152
 2128SOL    HW223527   5.675   2.292   7.177
 2129SOL     OW23528   1.247   0.380   0.041
 2129SOL    HW123529   1.218   0.385  -0.050
 2129SOL    HW223530   1.270   0.288   0.054
 2130SOL     OW23531   1.087   4.506   7.560
 2130SOL    HW123532   1.024   4.435   7.563
 2130SOL    HW223533   1.049   4.569   7.499
 2131SOL     OW23534   1.984   1.207   7.856
 2131SOL    HW123535   1.932   1.166   7.787
 2131SOL    HW223536   1.958   1.160   7.936
 2132SOL     OW23537   1.000   1.031   7.517
 2132SOL    HW123538   1.039   0.950   7.549
 2132SOL    HW223539   1.057   1.058   7.444
 2133SOL     OW23540   4.924   4.167   6.367
 2133SOL    HW123541   4.866   4.174   6.291
 2133SOL    HW223542   4.980   4.244   6.362
 2134SOL     OW23543   2.382   1.787   0.381
 2134SOL    HW123544   2.335   1.712   0.345
 2134SOL    HW223545   2.397   1.764   0.473
 2135SOL     OW23546   4.614   4.223   0.409
 2135SOL    HW123547   4.693   4.173   0.431
 2135SOL    HW223548   4.542   4.175   0.450
 2136SOL     OW23549   0.811   1.487   1.950
 2136SOL    HW123550   0.906   1.499   1.950
 2136SOL    HW223551   0.795   1.421   2.017
 2137SOL     OW23552   1.782   5.153   7.351
 2137SOL    HW123553   1.765   5.117   7.439
 2137SOL    HW223554   1.876   5.168   7.349
 2138SOL     OW23555   5.733   0.611   6.893
 2138SOL    HW123556   5.737   0.580   6.983
 2138SOL    HW223557   5.791   0.687   6.890
 2139SOL     OW23558   3.180   5.545   1.318
 2139SOL    HW123559   3.090   5.569   1.297
 2139SOL    HW223560   3.233   5.616   1.280
 2140SOL     OW23561   5.291   2.718   6.585
 2140SOL    HW123562   5.344   2.768   6.648
 2140SOL    HW223563   5.311   2.758   6.500
 2141SOL     OW23564   0.894   0.397   7.789
 2141SOL    HW123565   0.886   0.453   7.866
 2141SOL    HW223566   0.885   0.308   7.823
 2142SOL     OW23567   1.999   3.550   0.594
 2142SOL    HW123568   1.963   3.589   0.674
 2142SOL    HW223569   1.949   3.589   0.523
 2143SOL     OW23570   0.905   1.756   7.652
 2143SOL    HW123571   0.851   1.723   7.580
 2143SOL    HW223572   0.852   1.739   7.730
 2144SOL     OW23573   2.602   1.403   1.432
 2144SOL    HW123574   2.606   1.392   1.527
 2144SOL    HW223575   2.677   1.354   1.399
 2145SOL     OW23576   0.701   5.520   0.660
 2145SOL    HW123577   0.679   5.563   0.743
 2145SOL    HW223578   0.643   5.560   0.596
 2146SOL     OW23579   2.645   2.033   1.851
 2146SOL    HW123580   2.634   1.959   1.910
 2146SOL    HW223581   2.556   2.065   1.836
 2147SOL     OW23582   4.418   5.560   2.223
 2147SOL    HW123583   4.370   5.483   2.255
 2147SOL    HW223584   4.408   5.625   2.291
 2148SOL     OW23585   0.954   1.821   7.286
 2148SOL    HW123586   1.016   1.774   7.341
 2148SOL    HW223587   0.896   1.754   7.251
 2149SOL     OW23588   0.683   4.881   1.445
 2149SOL    HW123589   0.770   4.921   1.435
 2149SOL    HW223590   0.623   4.945   1.407
 2150SOL     OW23591   2.299   4.532   0.203
 2150SOL    HW123592   2.302   4.615   0.251
 2150SOL    HW223593   2.213   4.496   0.223
 2151SOL     OW23594   6.236   3.681   0.200
 2151SOL    HW123595   6.144   3.666   0.179
 2151SOL    HW223596   6.278   3.596   0.188
 2152SOL     OW23597   2.819   1.919   0.121
 2152SOL    HW123598   2.784   2.000   0.157
 2152SOL    HW223599   2.827   1.860   0.196
 2153SOL     OW23600   4.615   2.664   7.208
 2153SOL    HW123601   4.696   2.631   7.167
 2153SOL    HW223602   4.589   2.594   7.268
 2154SOL     OW23603   4.061   3.258   0.654
 2154SOL    HW123604   3.985   3.285   0.603
 2154SOL    HW223605   4.078   3.332   0.712
 2155SOL     OW23606   3.608   6.230   1.635
 2155SOL    HW123607   3.687   6.274   1.605
 2155SOL    HW223608   3.607   6.245   1.729
 2156SOL     OW23609   3.875   3.415   1.649
 2156SOL    HW123610   3.948   3.478   1.654
 2156SOL    HW223611   3.883   3.376   1.562
 2157SOL     OW23612   5.297   2.053   0.094
 2157SOL    HW123613   5.258   2.136   0.124
 2157SOL    HW223614   5.225   1.990   0.097
 2158SOL     OW23615   6.015   5.847   5.247
 2158SOL    HW123616   6.049   5.856   5.158
 2158SOL    HW223617   5.942   5.908   5.251
 2159SOL     OW23618   1.664   2.949   7.479
 2159SOL    HW123619   1.612   2.871   7.461
 2159SOL    HW223620   1.709   2.968   7.396
 2160SOL     OW23621   4.976   2.845   0.198
 2160SOL    HW123622   4.904   2.784   0.182
 2160SOL    HW223623   4.948   2.926   0.157
 2161SOL     OW23624   4.000   4.361   7.738
 2161SOL    HW123625   4.007   4.409   7.820
 2161SOL    HW223626   4.072   4.298   7.740
 2162SOL     OW23627   0.816   2.284   7.794
 2162SOL    HW123628   0.723   2.306   7.795
 2162SOL    HW223629   0.860   2.366   7.773
 2163SOL     OW23630   1.110   2.837   5.948
 2163SOL    HW123631   1.126   2.884   5.866
 2163SOL    HW223632   1.043   2.772   5.926
 2164SOL     OW23633   1.673   6.022   0.536
 2164SOL    HW123634   1.632   5.946   0.577
 2164SOL    HW223635   1.661   6.093   0.598
 2165SOL     OW23636   0.684   3.252   5.115
 2165SOL    HW123637   0.759   3.213   5.159
 2165SOL    HW223638   0.673   3.338   5.157
 2166SOL     OW23639   5.841   0.281   0.334
 2166SOL    HW123640   5.786   0.203   0.338
 2166SOL    HW223641   5.793   0.347   0.385
 2167SOL     OW23642   2.937   5.366   6.895
 2167SOL    HW123643   2.965   5.289   6.946
 2167SOL    HW223644   2.882   5.415   6.956
 2168SOL     OW23645   6.048   3.734   1.924
 2168SOL    HW123646   6.137   3.700   1.928
 2168SOL    HW223647   6.006   3.703   2.004
 2169SOL     OW23648   2.217   4.694   0.913
 2169SOL    HW123649   2.306   4.729   0.909
 2169SOL    HW223650   2.164   4.765   0.950
 2170SOL     OW23651   4.777   2.472   6.738
 2170SOL    HW123652   4.703   2.492   6.680
 2170SOL    HW223653   4.854   2.503   6.691
 2171SOL     OW23654   6.328   2.690   2.233
 2171SOL    HW123655   6.338   2.607   2.186
 2171SOL    HW223656   6.263   2.739   2.182
 2172SOL     OW23657   4.651   2.024   0.577
 2172SOL    HW123658   4.589   1.979   0.635
 2172SOL    HW223659   4.606   2.028   0.493
 2173SOL     OW23660   5.190   0.502   5.640
 2173SOL    HW123661   5.103   0.489   5.601
 2173SOL    HW223662   5.179   0.474   5.731
 2174SOL     OW23663   3.617   0.779   7.309
 2174SOL    HW123664   3.569   0.834   7.371
 2174SOL    HW223665   3.690   0.743   7.359
 2175SOL     OW23666   1.352   0.657   0.765
 2175SOL    HW123667   1.376   0.703   0.685
 2175SOL    HW223668   1.343   0.726   0.831
 2176SOL     OW23669   4.843   4.238   7.351
 2176SOL    HW123670   4.773   4.298   7.327
 2176SOL    HW223671   4.922   4.275   7.312
 2177SOL     OW23672   5.100   6.369   7.764
 2177SOL    HW123673   5.048   6.445   7.739
 2177SOL    HW223674   5.191   6.400   7.761
 2178SOL     OW23675   1.096   6.147   7.892
 2178SOL    HW123676   1.081   6.241   7.894
 2178SOL    HW223677   1.044   6.116   7.817
 2179SOL     OW23678   3.970   1.891   7.635
 2179SOL    HW123679   4.057   1.872   7.670
 2179SOL    HW223680   3.910   1.866   7.705
 2180SOL     OW23681   5.932   6.245   7.762
 2180SOL    HW123682   5.874   6.192   7.707
 2180SOL    HW223683   5.947   6.192   7.840
 2181SOL     OW23684   0.343   0.607   6.611
 2181SOL    HW123685   0.331   0.567   6.525
 2181SOL    HW223686   0.282   0.681   6.612
 2182SOL     OW23687   1.848   4.885   6.641
 2182SOL    HW123688   1.940   4.905   6.622
 2182SOL    HW223689   1.816   4.961   6.689
 2183SOL     OW23690   2.618   5.614   7.281
 2183SOL    HW123691   2.561   5.537   7.283
 2183SOL    HW223692   2.595   5.658   7.199
 2184SOL     OW23693   1.856   2.783   7.599
 2184SOL    HW123694   1.813   2.866   7.578
 2184SOL    HW223695   1.786   2.718   7.596
 2185SOL     OW23696   0.723   0.587   6.211
 2185SOL    HW123697   0.630   0.600   6.229
 2185SOL    HW223698   0.726   0.562   6.119
 2186SOL     OW23699   6.305   3.323   1.346
 2186SOL    HW123700   6.363   3.380   1.397
 2186SOL    HW223701   6.217   3.352   1.369
 2187SOL     OW23702   3.475   2.191   1.062
 2187SOL    HW123703   3.453   2.270   1.112
 2187SOL    HW223704   3.496   2.224   0.974
 2188SOL     OW23705   5.153   5.597   1.805
 2188SOL    HW123706   5.101   5.667   1.765
 2188SOL    HW223707   5.243   5.615   1.776
 2189SOL     OW23708   6.358   3.319   7.290
 2189SOL    HW123709   6.441   3.348   7.329
 2189SOL    HW223710   6.361   3.352   7.200
 2190SOL     OW23711   4.790   3.226   6.808
 2190SOL    HW123712   4.764   3.264   6.724
 2190SOL    HW223713   4.883   3.248   6.817
 2191SOL     OW23714   1.869   2.656   6.985
 2191SOL    HW123715   1.892   2.628   7.073
 2191SOL    HW223716   1.929   2.608   6.928
 2192SOL     OW23717   2.987   3.415   5.869
 2192SOL    HW123718   3.010   3.322   5.859
 2192SOL    HW223719   2.895   3.419   5.845
 2193SOL     OW23720   2.105   6.202   1.315
 2193SOL    HW123721   2.146   6.139   1.374
 2193SOL    HW223722   2.026   6.230   1.360
 2194SOL     OW23723   0.114   4.785   6.922
 2194SOL    HW123724   0.171   4.848   6.966
 2194SOL    HW223725   0.069   4.740   6.993
 2195SOL     OW23726   5.145   1.677   1.554
 2195SOL    HW123727   5.062   1.629   1.551
 2195SOL    HW223728   5.199   1.634   1.487
 2196SOL     OW23729   5.860   2.121   7.364
 2196SOL    HW123730   5.820   2.198   7.403
 2196SOL    HW223731   5.936   2.154   7.317
 2197SOL     OW23732   2.349   5.281   1.314
 2197SOL    HW123733   2.396   5.203   1.285
 2197SOL    HW223734   2.295   5.251   1.387
 2198SOL     OW23735   0.758   4.750   0.781
 2198SOL    HW123736   0.745   4.840   0.812
 2198SOL    HW223737   0.794   4.759   0.693
 2199SOL     OW23738   2.307   1.970   7.433
 2199SOL    HW123739   2.221   1.962   7.393
 2199SOL    HW223740   2.291   2.019   7.514
 2200SOL     OW23741   1.974   2.335   6.765
 2200SOL    HW123742   1.932   2.372   6.842
 2200SOL    HW223743   1.909   2.276   6.727
 2201SOL     OW23744   2.197   3.112   0.536
 2201SOL    HW123745   2.114   3.153   0.512
 2201SOL    HW223746   2.255   3.130   0.461
 2202SOL     OW23747   0.625   4.392   6.038
 2202SOL    HW123748   0.574   4.345   5.972
 2202SOL    HW223749   0.602   4.484   6.025
 2203SOL     OW23750   4.862   4.960   6.798
 2203SOL    HW123751   4.918   5.034   6.777
 2203SOL    HW223752   4.776   4.998   6.816
 2204SOL     OW23753   3.624   3.673   5.663
 2204SOL    HW123754   3.657   3.753   5.622
 2204SOL    HW223755   3.613   3.612   5.590
 2205SOL     OW23756   3.631   1.544   1.395
 2205SOL    HW123757   3.574   1.605   1.441
 2205SOL    HW223758   3.581   1.521   1.316
 2206SOL     OW23759   4.067   2.132   7.840
 2206SOL    HW123760   4.135   2.066   7.854
 2206SOL    HW223761   4.088   2.201   7.902
 2207SOL     OW23762   2.694   5.621   5.967
 2207SOL    HW123763   2.609   5.605   6.008
 2207SOL    HW223764   2.683   5.591   5.877
 2208SOL     OW23765   1.230   5.202   7.392
 2208SOL    HW123766   1.297   5.147   7.431
 2208SOL    HW223767   1.206   5.264   7.461
 2209SOL     OW23768   0.014   0.234   6.829
 2209SOL    HW123769   0.084   0.183   6.789
 2209SOL    HW223770   0.057   0.317   6.853
 2210SOL     OW23771   4.197   2.048   0.409
 2210SOL    HW123772   4.246   2.055   0.490
 2210SOL    HW223773   4.117   2.001   0.433
 2211SOL     OW23774   2.016   3.385   5.978
 2211SOL    HW123775   1.971   3.460   6.015
 2211SOL    HW223776   2.038   3.412   5.889
 2212SOL     OW23777   0.197   2.143   0.826
 2212SOL    HW123778   0.172   2.186   0.908
 2212SOL    HW223779   0.188   2.050   0.843
 2213SOL     OW23780   3.472   4.499   0.778
 2213SOL    HW123781   3.531   4.439   0.731
 2213SOL    HW223782   3.525   4.533   0.850
 2214SOL     OW23783   4.157   2.743   0.455
 2214SOL    HW123784   4.152   2.800   0.532
 2214SOL    HW223785   4.067   2.735   0.426
 2215SOL     OW23786   3.697   3.521   2.020
 2215SOL    HW123787   3.727   3.439   2.059
 2215SOL    HW223788   3.609   3.501   1.989
 2216SOL     OW23789   4.519   0.824   6.246
 2216SOL    HW123790   4.498   0.770   6.323
 2216SOL    HW223791   4.535   0.761   6.176
 2217SOL     OW23792   0.658   1.127   6.473
 2217SOL    HW123793   0.630   1.164   6.389
 2217SOL    HW223794   0.752   1.113   6.463
 2218SOL     OW23795   0.646   5.401   0.930
 2218SOL    HW123796   0.613   5.385   1.019
 2218SOL    HW223797   0.569   5.426   0.880
 2219SOL     OW23798   4.466   1.442   1.244
 2219SOL    HW123799   4.553   1.405   1.232
 2219SOL    HW223800   4.474   1.499   1.321
 2220SOL     OW23801   2.369   3.580   1.189
 2220SOL    HW123802   2.384   3.608   1.099
 2220SOL    HW223803   2.423   3.640   1.241
 2221SOL     OW23804   4.478   0.107   6.232
 2221SOL    HW123805   4.528   0.174   6.184
 2221SOL    HW223806   4.468   0.036   6.170
 2222SOL     OW23807   3.543   0.321   7.673
 2222SOL    HW123808   3.504   0.334   7.760
 2222SOL    HW223809   3.486   0.258   7.630
 2223SOL     OW23810   0.660   5.130   2.159
 2223SOL    HW123811   0.569   5.119   2.131
 2223SOL    HW223812   0.685   5.045   2.196
 2224SOL     OW23813   2.628   4.634   6.512
 2224SOL    HW123814   2.583   4.614   6.595
 2224SOL    HW223815   2.560   4.623   6.445
 2225SOL     OW23816   2.980   4.357   1.503
 2225SOL    HW123817   3.073   4.336   1.513
 2225SOL    HW223818   2.944   4.281   1.457
 2226SOL     OW23819   5.176   3.277   7.517
 2226SOL    HW123820   5.242   3.345   7.499
 2226SOL    HW223821   5.223   3.195   7.507
 2227SOL     OW23822   0.393   0.010   6.393
 2227SOL    HW123823   0.435   0.052   6.468
 2227SOL    HW223824   0.455  -0.058   6.366
 2228SOL     OW23825   1.630   0.600   0.972
 2228SOL    HW123826   1.716   0.642   0.966
 2228SOL    HW223827   1.619   0.558   0.886
 2229SOL     OW23828   6.100   1.482   0.422
 2229SOL    HW123829   6.124   1.455   0.334
 2229SOL    HW223830   6.183   1.490   0.468
 2230SOL     OW23831   3.692   6.311   5.806
 2230SOL    HW123832   3.650   6.271   5.730
 2230SOL    HW223833   3.713   6.400   5.778
 2231SOL     OW23834   6.129   1.490   6.564
 2231SOL    HW123835   6.179   1.468   6.485
 2231SOL    HW223836   6.043   1.450   6.549
 2232SOL     OW23837   4.012   0.579   7.521
 2232SOL    HW123838   3.985   0.492   7.492
 2232SOL    HW223839   4.043   0.565   7.610
 2233SOL     OW23840   0.457   3.369   6.925
 2233SOL    HW123841   0.444   3.287   6.972
 2233SOL    HW223842   0.416   3.435   6.981
 2234SOL     OW23843   6.257   0.536   7.430
 2234SOL    HW123844   6.259   0.447   7.394
 2234SOL    HW223845   6.344   0.571   7.413
 2235SOL     OW23846   6.173   6.077   0.347
 2235SOL    HW123847   6.086   6.039   0.347
 2235SOL    HW223848   6.231   6.005   0.324
 2236SOL     OW23849   4.192   5.171   1.280
 2236SOL    HW123850   4.134   5.215   1.217
 2236SOL    HW223851   4.280   5.189   1.248
 2237SOL     OW23852   3.392   1.938   7.168
 2237SOL    HW123853   3.458   1.988   7.217
 2237SOL    HW223854   3.374   1.862   7.223
 2238SOL     OW23855   0.872   6.048   6.770
 2238SOL    HW123856   0.856   6.127   6.718
 2238SOL    HW223857   0.863   5.976   6.706
 2239SOL     OW23858   4.471   3.366   7.731
 2239SOL    HW123859   4.452   3.338   7.820
 2239SOL    HW223860   4.548   3.313   7.706
 2240SOL     OW23861   1.252   4.140   5.346
 2240SOL    HW123862   1.309   4.148   5.422
 2240SOL    HW223863   1.298   4.186   5.276
 2241SOL     OW23864   2.477   3.238   1.795
 2241SOL    HW123865   2.510   3.155   1.759
 2241SOL    HW223866   2.393   3.251   1.752
 2242SOL     OW23867   3.227   3.246   6.609
 2242SOL    HW123868   3.279   3.322   6.583
 2242SOL    HW223869   3.159   3.240   6.542
 2243SOL     OW23870   5.468   3.833   6.893
 2243SOL    HW123871   5.392   3.775   6.884
 2243SOL    HW223872   5.543   3.774   6.897
 2244SOL     OW23873   5.454   0.740   6.419
 2244SOL    HW123874   5.516   0.806   6.389
 2244SOL    HW223875   5.497   0.699   6.494
 2245SOL     OW23876   5.185   5.844   0.854
 2245SOL    HW123877   5.109   5.889   0.817
 2245SOL    HW223878   5.247   5.836   0.782
 2246SOL     OW23879  -0.002   2.607   1.898
 2246SOL    HW123880   0.092   2.605   1.918
 2246SOL    HW223881  -0.043   2.555   1.968
 2247SOL     OW23882   6.086   6.230   7.000
 2247SOL    HW123883   6.010   6.235   6.941
 2247SOL    HW223884   6.102   6.136   7.010
 2248SOL     OW23885   2.092   2.568   0.899
 2248SOL    HW123886   2.033   2.493   0.902
 2248SOL    HW223887   2.049   2.630   0.839
 2249SOL     OW23888   5.713   2.033   1.373
 2249SOL    HW123889   5.718   2.073   1.460
 2249SOL    HW223890   5.790   2.064   1.327
 2250SOL     OW23891   4.025   2.085   0.713
 2250SOL    HW123892   3.993   2.086   0.803
 2250SOL    HW223893   4.118   2.064   0.721
 2251SOL     OW23894   3.038   5.519   1.589
 2251SOL    HW123895   3.092   5.563   1.523
 2251SOL    HW223896   3.091   5.445   1.618
 2252SOL     OW23897   5.996   5.762   6.153
 2252SOL    HW123898   6.051   5.735   6.079
 2252SOL    HW223899   5.912   5.786   6.113
 2253SOL     OW23900   0.395   2.501   6.913
 2253SOL    HW123901   0.306   2.472   6.892
 2253SOL    HW223902   0.384   2.575   6.972
 2254SOL     OW23903   4.015   1.878   6.290
 2254SOL    HW123904   4.011   1.810   6.358
 2254SOL    HW223905   3.927   1.881   6.254
 2255SOL     OW23906   4.905   3.988   6.577
 2255SOL    HW123907   4.924   3.905   6.534
 2255SOL    HW223908   4.934   4.055   6.516
 2256SOL     OW23909   2.532   5.673   0.731
 2256SOL    HW123910   2.581   5.722   0.665
 2256SOL    HW223911   2.469   5.737   0.766
 2257SOL     OW23912   0.189   2.009   5.406
 2257SOL    HW123913   0.175   2.104   5.406
 2257SOL    HW223914   0.157   1.981   5.320
 2258SOL     OW23915   0.341   3.160   6.500
 2258SOL    HW123916   0.315   3.075   6.465
 2258SOL    HW223917   0.421   3.143   6.549
 2259SOL     OW23918   5.680   1.486   5.807
 2259SOL    HW123919   5.653   1.397   5.785
 2259SOL    HW223920   5.609   1.542   5.777
 2260SOL     OW23921   3.130   0.868   0.669
 2260SOL    HW123922   3.095   0.946   0.713
 2260SOL    HW223923   3.056   0.836   0.618
 2261SOL     OW23924   4.826   1.132   1.246
 2261SOL    HW123925   4.748   1.184   1.264
 2261SOL    HW223926   4.869   1.122   1.331
 2262SOL     OW23927   5.541   0.241   7.741
 2262SOL    HW123928   5.533   0.295   7.820
 2262SOL    HW223929   5.629   0.261   7.709
 2263SOL     OW23930   1.190   3.372   0.492
 2263SOL    HW123931   1.095   3.379   0.502
 2263SOL    HW223932   1.220   3.463   0.485
 2264SOL     OW23933   3.715   5.827   6.318
 2264SOL    HW123934   3.779   5.809   6.249
 2264SOL    HW223935   3.741   5.911   6.354
 2265SOL     OW23936   2.540   5.219   6.593
 2265SOL    HW123937   2.586   5.234   6.675
 2265SOL    HW223938   2.605   5.238   6.525
 2266SOL     OW23939   5.857   5.671   7.578
 2266SOL    HW123940   5.860   5.736   7.507
 2266SOL    HW223941   5.763   5.660   7.596
 2267SOL     OW23942   1.040   4.184   7.056
 2267SOL    HW123943   0.995   4.266   7.036
 2267SOL    HW223944   1.027   4.172   7.150
 2268SOL     OW23945   2.264   6.312   6.495
 2268SOL    HW123946   2.355   6.302   6.523
 2268SOL    HW223947   2.252   6.407   6.487
 2269SOL     OW23948   5.104   0.999   6.122
 2269SOL    HW123949   5.039   1.019   6.189
 2269SOL    HW223950   5.071   1.041   6.043
 2270SOL     OW23951   4.168   0.093   6.577
 2270SOL    HW123952   4.129   0.027   6.521
 2270SOL    HW223953   4.233   0.137   6.522
 2271SOL     OW23954   1.771   2.217   6.579
 2271SOL    HW123955   1.749   2.124   6.570
 2271SOL    HW223956   1.824   2.237   6.502
 2272SOL     OW23957   4.905   3.062   0.662
 2272SOL    HW123958   4.953   2.979   0.659
 2272SOL    HW223959   4.953   3.116   0.724
 2273SOL     OW23960   4.211   3.160   0.925
 2273SOL    HW123961   4.178   3.248   0.907
 2273SOL    HW223962   4.233   3.161   1.018
 2274SOL     OW23963   0.403   4.522   0.732
 2274SOL    HW123964   0.482   4.502   0.682
 2274SOL    HW223965   0.435   4.561   0.813
 2275SOL     OW23966   3.801   6.149   6.298
 2275SOL    HW123967   3.755   6.212   6.354
 2275SOL    HW223968   3.759   6.159   6.212
 2276SOL     OW23969   0.769   1.959   0.244
 2276SOL    HW123970   0.854   1.980   0.205
 2276SOL    HW223971   0.731   2.043   0.267
 2277SOL     OW23972   5.825   0.682   5.737
 2277SOL    HW123973   5.777   0.602   5.757
 2277SOL    HW223974   5.902   0.652   5.689
 2278SOL     OW23975   1.632   0.398   6.903
 2278SOL    HW123976   1.685   0.340   6.848
 2278SOL    HW223977   1.589   0.457   6.840
 2279SOL     OW23978   2.674   1.737   6.721
 2279SOL    HW123979   2.628   1.813   6.686
 2279SOL    HW223980   2.690   1.759   6.813
 2280SOL     OW23981   1.464   1.110   7.808
 2280SOL    HW123982   1.374   1.092   7.783
 2280SOL    HW223983   1.488   1.037   7.865
 2281SOL     OW23984   3.028   5.961   7.890
 2281SOL    HW123985   3.057   5.875   7.859
 2281SOL    HW223986   2.956   5.941   7.951
 2282SOL     OW23987   5.547   5.605   7.643
 2282SOL    HW123988   5.544   5.673   7.575
 2282SOL    HW223989   5.458   5.570   7.646
 2283SOL     OW23990   5.935   0.462   7.313
 2283SOL    HW123991   5.997   0.393   7.336
 2283SOL    HW223992   5.921   0.510   7.395
 2284SOL     OW23993   1.565   3.411   0.255
 2284SOL    HW123994   1.542   3.318   0.259
 2284SOL    HW223995   1.523   3.449   0.333
 2285SOL     OW23996   3.822   0.171   1.051
 2285SOL    HW123997   3.792   0.144   0.964
 2285SOL    HW223998   3.749   0.221   1.087
 2286SOL     OW23999   0.637   3.665   7.769
 2286SOL    HW124000   0.660   3.721   7.843
 2286SOL    HW224001   0.541   3.660   7.772
 2287SOL     OW24002   3.371   3.722   1.999
 2287SOL    HW124003   3.336   3.765   1.920
 2287SOL    HW224004   3.436   3.784   2.032
 2288SOL     OW24005   4.077   5.792   6.541
 2288SOL    HW124006   4.091   5.860   6.475
 2288SOL    HW224007   4.165   5.770   6.572
 2289SOL     OW24008   2.607   3.109   0.775
 2289SOL    HW124009   2.618   3.202   0.751
 2289SOL    HW224010   2.694   3.071   0.761
 2290SOL     OW24011   0.333   2.340   6.232
 2290SOL    HW124012   0.336   2.258   6.282
 2290SOL    HW224013   0.378   2.404   6.288
 2291SOL     OW24014   2.018   5.441   7.563
 2291SOL    HW124015   1.966   5.512   7.527
 2291SOL    HW224016   2.093   5.484   7.604
 2292SOL     OW24017   1.139   6.343   7.343
 2292SOL    HW124018   1.200   6.344   7.270
 2292SOL    HW224019   1.085   6.265   7.330
 2293SOL     OW24020   4.461   0.594   6.965
 2293SOL    HW124021   4.479   0.504   6.936
 2293SOL    HW224022   4.393   0.584   7.032
 2294SOL     OW24023   4.787   4.540   6.228
 2294SOL    HW124024   4.786   4.456   6.182
 2294SOL    HW224025   4.731   4.597   6.175
 2295SOL     OW24026   4.902   5.127   1.826
 2295SOL    HW124027   4.875   5.043   1.863
 2295SOL    HW224028   4.834   5.188   1.854
 2296SOL     OW24029   5.828   2.797   7.401
 2296SOL    HW124030   5.920   2.778   7.423
 2296SOL    HW224031   5.779   2.722   7.435
 2297SOL     OW24032   0.342   0.489   7.059
 2297SOL    HW124033   0.388   0.413   7.023
 2297SOL    HW224034   0.405   0.530   7.118
 2298SOL     OW24035   6.205   6.171   7.935
 2298SOL    HW124036   6.126   6.215   7.965
 2298SOL    HW224037   6.181   6.078   7.931
 2299SOL     OW24038   3.852   0.529   7.023
 2299SOL    HW124039   3.814   0.448   7.057
 2299SOL    HW224040   3.942   0.506   7.001
 2300SOL     OW24041   2.359   3.074   1.494
 2300SOL    HW124042   2.415   3.064   1.571
 2300SOL    HW224043   2.278   3.028   1.517
 2301SOL     OW24044   2.679   0.102   6.384
 2301SOL    HW124045   2.618   0.115   6.312
 2301SOL    HW224046   2.657   0.172   6.446
 2302SOL     OW24047   0.924   3.449   6.730
 2302SOL    HW124048   1.019   3.458   6.736
 2302SOL    HW224049   0.910   3.394   6.653
 2303SOL     OW24050   1.906   4.735   2.004
 2303SOL    HW124051   1.947   4.649   2.002
 2303SOL    HW224052   1.978   4.796   1.989
 2304SOL     OW24053   0.807   6.275   7.425
 2304SOL    HW124054   0.875   6.207   7.430
 2304SOL    HW224055   0.725   6.229   7.443
 2305SOL     OW24056   5.530   0.170   6.971
 2305SOL    HW124057   5.600   0.226   6.938
 2305SOL    HW224058   5.569   0.127   7.047
 2306SOL     OW24059   2.059   5.727   6.436
 2306SOL    HW124060   2.011   5.738   6.517
 2306SOL    HW224061   2.103   5.811   6.423
 2307SOL     OW24062   2.718   1.488   5.622
 2307SOL    HW124063   2.813   1.475   5.620
 2307SOL    HW224064   2.701   1.553   5.554
 2308SOL     OW24065   4.542   3.616   0.059
 2308SOL    HW124066   4.595   3.695   0.069
 2308SOL    HW224067   4.601   3.545   0.085
 2309SOL     OW24068   0.271   2.772   7.451
 2309SOL    HW124069   0.283   2.780   7.546
 2309SOL    HW224070   0.276   2.862   7.419
 2310SOL     OW24071   2.782   2.201   0.157
 2310SOL    HW124072   2.810   2.252   0.232
 2310SOL    HW224073   2.856   2.203   0.097
 2311SOL     OW24074   3.516   5.901   7.270
 2311SOL    HW124075   3.483   5.811   7.257
 2311SOL    HW224076   3.481   5.950   7.195
 2312SOL     OW24077   6.320   2.021   0.179
 2312SOL    HW124078   6.242   2.040   0.127
 2312SOL    HW224079   6.390   2.069   0.136
 2313SOL     OW24080   0.898   2.210   5.688
 2313SOL    HW124081   0.835   2.237   5.621
 2313SOL    HW224082   0.882   2.117   5.701
 2314SOL     OW24083   5.924   6.210   7.464
 2314SOL    HW124084   6.010   6.238   7.495
 2314SOL    HW224085   5.920   6.117   7.486
 2315SOL     OW24086   5.773   0.071   6.034
 2315SOL    HW124087   5.745   0.031   6.116
 2315SOL    HW224088   5.866   0.050   6.028
 2316SOL     OW24089   1.716   3.538   1.754
 2316SOL    HW124090   1.690   3.538   1.662
 2316SOL    HW224091   1.637   3.511   1.801
 2317SOL     OW24092   3.421   5.351   1.568
 2317SOL    HW124093   3.430   5.302   1.649
 2317SOL    HW224094   3.369   5.428   1.592
 2318SOL     OW24095   1.079   6.005   0.210
 2318SOL    HW124096   1.122   6.054   0.139
 2318SOL    HW224097   1.077   6.066   0.284
 2319SOL     OW24098   6.176   4.731   6.796
 2319SOL    HW124099   6.175   4.755   6.704
 2319SOL    HW224100   6.251   4.673   6.805
 2320SOL     OW24101   0.675   3.485   7.265
 2320SOL    HW124102   0.660   3.508   7.357
 2320SOL    HW224103   0.651   3.392   7.260
 2321SOL     OW24104   1.142   2.056   5.699
 2321SOL    HW124105   1.191   2.068   5.617
 2321SOL    HW224106   1.056   2.024   5.671
 2322SOL     OW24107   2.791   5.872   7.553
 2322SOL    HW124108   2.734   5.910   7.487
 2322SOL    HW224109   2.742   5.881   7.635
 2323SOL     OW24110   0.867   4.685   7.765
 2323SOL    HW124111   0.784   4.729   7.782
 2323SOL    HW224112   0.852   4.594   7.789
 2324SOL     OW24113   2.245   5.182   7.582
 2324SOL    HW124114   2.153   5.177   7.608
 2324SOL    HW224115   2.271   5.090   7.571
 2325SOL     OW24116   0.842   2.286   6.626
 2325SOL    HW124117   0.846   2.193   6.605
 2325SOL    HW224118   0.805   2.289   6.714
 2326SOL     OW24119   4.554   4.431   6.051
 2326SOL    HW124120   4.553   4.357   6.112
 2326SOL    HW224121   4.482   4.487   6.080
 2327SOL     OW24122   0.061   3.868   6.489
 2327SOL    HW124123   0.144   3.907   6.516
 2327SOL    HW224124   0.024   3.833   6.570
 2328SOL     OW24125   3.175   5.391   2.409
 2328SOL    HW124126   3.211   5.384   2.320
 2328SOL    HW224127   3.119   5.469   2.406
 2329SOL     OW24128   3.347   4.106   0.618
 2329SOL    HW124129   3.347   4.065   0.705
 2329SOL    HW224130   3.347   4.034   0.556
 2330SOL     OW24131   1.190   0.860   1.957
 2330SOL    HW124132   1.124   0.792   1.970
 2330SOL    HW224133   1.210   0.892   2.045
 2331SOL     OW24134   3.100   0.880   6.518
 2331SOL    HW124135   3.062   0.795   6.540
 2331SOL    HW224136   3.155   0.902   6.593
 2332SOL     OW24137   2.131   2.593   6.875
 2332SOL    HW124138   2.168   2.679   6.892
 2332SOL    HW224139   2.181   2.533   6.929
 2333SOL     OW24140   4.655   0.241   6.989
 2333SOL    HW124141   4.717   0.313   6.986
 2333SOL    HW224142   4.652   0.209   6.898
 2334SOL     OW24143   0.785   2.297   7.293
 2334SOL    HW124144   0.803   2.205   7.312
 2334SOL    HW224145   0.712   2.296   7.231
 2335SOL     OW24146   5.747   5.028   0.717
 2335SOL    HW124147   5.699   5.034   0.800
 2335SOL    HW224148   5.695   5.081   0.656
 2336SOL     OW24149   4.470   4.239   2.149
 2336SOL    HW124150   4.408   4.172   2.178
 2336SOL    HW224151   4.448   4.317   2.200
 2337SOL     OW24152   2.697   1.258   7.596
 2337SOL    HW124153   2.638   1.301   7.657
 2337SOL    HW224154   2.680   1.300   7.512
 2338SOL     OW24155   1.693   1.281   6.689
 2338SOL    HW124156   1.685   1.353   6.627
 2338SOL    HW224157   1.621   1.294   6.751
 2339SOL     OW24158   1.094   0.485   5.754
 2339SOL    HW124159   1.057   0.496   5.841
 2339SOL    HW224160   1.111   0.391   5.746
 2340SOL     OW24161   3.477   1.427   6.874
 2340SOL    HW124162   3.394   1.426   6.922
 2340SOL    HW224163   3.525   1.351   6.906
 2341SOL     OW24164   2.023   4.438   5.938
 2341SOL    HW124165   2.050   4.402   5.853
 2341SOL    HW224166   1.927   4.435   5.936
 2342SOL     OW24167   5.732   0.515   7.141
 2342SOL    HW124168   5.651   0.503   7.191
 2342SOL    HW224169   5.801   0.492   7.203
 2343SOL     OW24170   1.800   2.284   5.886
 2343SOL    HW124171   1.878   2.228   5.894
 2343SOL    HW224172   1.834   2.365   5.847
 2344SOL     OW24173   4.002   3.489   6.277
 2344SOL    HW124174   4.085   3.442   6.281
 2344SOL    HW224175   4.019   3.562   6.217
 2345SOL     OW24176   4.061   6.184   7.018
 2345SOL    HW124177   4.073   6.090   7.002
 2345SOL    HW224178   4.025   6.218   6.936
 2346SOL     OW24179   0.010   1.743   1.056
 2346SOL    HW124180  -0.014   1.797   1.131
 2346SOL    HW224181   0.102   1.720   1.071
 2347SOL     OW24182   4.967   1.574   1.259
 2347SOL    HW124183   5.053   1.580   1.299
 2347SOL    HW224184   4.969   1.494   1.207
 2348SOL     OW24185   3.454   2.256   6.594
 2348SOL    HW124186   3.539   2.290   6.622
 2348SOL    HW224187   3.440   2.294   6.507
 2349SOL     OW24188   5.228   1.462   0.143
 2349SOL    HW124189   5.160   1.450   0.077
 2349SOL    HW224190   5.245   1.374   0.177
 2350SOL     OW24191   1.935   3.978   0.174
 2350SOL    HW124192   2.027   4.002   0.171
 2350SOL    HW224193   1.891   4.041   0.117
 2351SOL     OW24194   6.382   1.077   2.049
 2351SOL    HW124195   6.306   1.128   2.076
 2351SOL    HW224196   6.347   0.990   2.031
 2352SOL     OW24197   0.175   1.588   1.367
 2352SOL    HW124198   0.235   1.640   1.421
 2352SOL    HW224199   0.154   1.645   1.293
 2353SOL     OW24200   0.323   4.029   6.902
 2353SOL    HW124201   0.350   4.085   6.975
 2353SOL    HW224202   0.255   4.080   6.858
 2354SOL     OW24203   5.419   0.211   1.527
 2354SOL    HW124204   5.502   0.256   1.544
 2354SOL    HW224205   5.364   0.233   1.603
 2355SOL     OW24206   3.546   3.343   5.417
 2355SOL    HW124207   3.457   3.371   5.439
 2355SOL    HW224208   3.568   3.277   5.483
 2356SOL     OW24209   1.883   3.561   7.785
 2356SOL    HW124210   1.805   3.544   7.837
 2356SOL    HW224211   1.868   3.647   7.746
 2357SOL     OW24212   6.236   4.953   7.927
 2357SOL    HW124213   6.182   4.988   7.998
 2357SOL    HW224214   6.176   4.895   7.879
 2358SOL     OW24215   1.168   1.830   6.414
 2358SOL    HW124216   1.246   1.807   6.464
 2358SOL    HW224217   1.194   1.909   6.365
 2359SOL     OW24218   6.027   4.985   7.471
 2359SOL    HW124219   6.003   5.076   7.453
 2359SOL    HW224220   5.944   4.938   7.470
 2360SOL     OW24221   3.107   1.030   0.249
 2360SOL    HW124222   3.071   1.090   0.314
 2360SOL    HW224223   3.032   1.004   0.196
 2361SOL     OW24224   5.754   5.390   1.924
 2361SOL    HW124225   5.808   5.318   1.893
 2361SOL    HW224226   5.743   5.447   1.848
 2362SOL     OW24227   2.292   3.830   6.892
 2362SOL    HW124228   2.331   3.764   6.949
 2362SOL    HW224229   2.258   3.780   6.817
 2363SOL     OW24230   0.569   6.189   7.584
 2363SOL    HW124231   0.510   6.137   7.529
 2363SOL    HW224232   0.515   6.263   7.614
 2364SOL     OW24233   0.035   1.876   5.680
 2364SOL    HW124234  -0.007   1.905   5.598
 2364SOL    HW224235   0.120   1.842   5.652
 2365SOL     OW24236   1.054   2.936   0.099
 2365SOL    HW124237   1.020   2.984   0.023
 2365SOL    HW224238   1.149   2.937   0.088
 2366SOL     OW24239   2.531   6.261   6.525
 2366SOL    HW124240   2.554   6.344   6.483
 2366SOL    HW224241   2.614   6.218   6.541
 2367SOL     OW24242   4.889   0.088   1.078
 2367SOL    HW124243   4.960   0.025   1.073
 2367SOL    HW224244   4.924   0.160   1.131
 2368SOL     OW24245   2.726   0.439   0.170
 2368SOL    HW124246   2.758   0.417   0.083
 2368SOL    HW224247   2.710   0.354   0.212
 2369SOL     OW24248   1.737   5.029   1.298
 2369SOL    HW124249   1.656   5.080   1.302
 2369SOL    HW224250   1.722   4.964   1.230
 2370SOL     OW24251   4.874   1.115   5.469
 2370SOL    HW124252   4.784   1.134   5.495
 2370SOL    HW224253   4.866   1.043   5.406
 2371SOL     OW24254   2.011   2.206   7.628
 2371SOL    HW124255   2.106   2.197   7.624
 2371SOL    HW224256   1.988   2.186   7.719
 2372SOL     OW24257   2.227   1.566   1.700
 2372SOL    HW124258   2.163   1.555   1.771
 2372SOL    HW224259   2.271   1.482   1.694
 2373SOL     OW24260   5.307   2.305   6.236
 2373SOL    HW124261   5.277   2.370   6.300
 2373SOL    HW224262   5.229   2.285   6.184
 2374SOL     OW24263   5.779   0.947   6.946
 2374SOL    HW124264   5.796   1.037   6.973
 2374SOL    HW224265   5.757   0.954   6.853
 2375SOL     OW24266   5.717   0.284   6.197
 2375SOL    HW124267   5.771   0.219   6.151
 2375SOL    HW224268   5.631   0.242   6.205
 2376SOL     OW24269   1.632   5.626   6.597
 2376SOL    HW124270   1.707   5.686   6.598
 2376SOL    HW224271   1.589   5.639   6.681
 2377SOL     OW24272   4.046   3.623   1.657
 2377SOL    HW124273   3.998   3.685   1.712
 2377SOL    HW224274   4.092   3.679   1.593
 2378SOL     OW24275   0.130   5.644   7.726
 2378SOL    HW124276   0.116   5.677   7.815
 2378SOL    HW224277   0.066   5.691   7.672
 2379SOL     OW24278   3.412   1.308   0.733
 2379SOL    HW124279   3.452   1.331   0.649
 2379SOL    HW224280   3.344   1.373   0.747
 2380SOL     OW24281   1.906   6.012   7.752
 2380SOL    HW124282   1.880   5.931   7.797
 2380SOL    HW224283   1.868   6.081   7.806
 2381SOL     OW24284   6.327   5.577   7.002
 2381SOL    HW124285   6.389   5.511   6.971
 2381SOL    HW224286   6.362   5.604   7.087
 2382SOL     OW24287   3.553   0.168   0.469
 2382SOL    HW124288   3.567   0.083   0.428
 2382SOL    HW224289   3.495   0.150   0.542
 2383SOL     OW24290   1.472   4.266   0.991
 2383SOL    HW124291   1.411   4.197   0.965
 2383SOL    HW224292   1.499   4.307   0.909
 2384SOL     OW24293   2.723   6.079   6.563
 2384SOL    HW124294   2.654   6.014   6.577
 2384SOL    HW224295   2.791   6.032   6.514
 2385SOL     OW24296   6.137   0.468   0.460
 2385SOL    HW124297   6.162   0.554   0.492
 2385SOL    HW224298   6.068   0.484   0.396
 2386SOL     OW24299   0.185   1.777   6.016
 2386SOL    HW124300   0.205   1.838   6.088
 2386SOL    HW224301   0.103   1.810   5.979
 2387SOL     OW24302   2.250   3.873   7.191
 2387SOL    HW124303   2.273   3.906   7.104
 2387SOL    HW224304   2.164   3.833   7.179
 2388SOL     OW24305   1.101   2.774   0.643
 2388SOL    HW124306   1.142   2.817   0.568
 2388SOL    HW224307   1.009   2.800   0.638
 2389SOL     OW24308   3.535   0.097   7.045
 2389SOL    HW124309   3.588   0.172   7.019
 2389SOL    HW224310   3.481   0.077   6.968
 2390SOL     OW24311   4.786   3.348   0.690
 2390SOL    HW124312   4.707   3.299   0.670
 2390SOL    HW224313   4.785   3.358   0.786
 2391SOL     OW24314   5.787   2.055   1.642
 2391SOL    HW124315   5.800   1.992   1.713
 2391SOL    HW224316   5.722   2.116   1.676
 2392SOL     OW24317   4.578   2.884   7.611
 2392SOL    HW124318   4.596   2.854   7.700
 2392SOL    HW224319   4.625   2.968   7.605
 2393SOL     OW24320   0.468   2.117   0.514
 2393SOL    HW124321   0.550   2.149   0.477
 2393SOL    HW224322   0.448   2.177   0.586
 2394SOL     OW24323   0.202   4.296   0.998
 2394SOL    HW124324   0.152   4.227   0.955
 2394SOL    HW224325   0.294   4.274   0.981
 2395SOL     OW24326   2.302   3.153   1.247
 2395SOL    HW124327   2.313   3.112   1.332
 2395SOL    HW224328   2.261   3.238   1.266
 2396SOL     OW24329   3.762   5.405   6.808
 2396SOL    HW124330   3.693   5.359   6.855
 2396SOL    HW224331   3.733   5.404   6.716
 2397SOL     OW24332   4.994   1.599   2.053
 2397SOL    HW124333   5.053   1.666   2.088
 2397SOL    HW224334   4.939   1.574   2.127
 2398SOL     OW24335   5.529   5.217   0.603
 2398SOL    HW124336   5.493   5.303   0.580
 2398SOL    HW224337   5.501   5.202   0.693
 2399SOL     OW24338   1.071   2.263   6.458
 2399SOL    HW124339   1.116   2.287   6.377
 2399SOL    HW224340   0.993   2.318   6.460
 2400SOL     OW24341   1.739   4.295   1.392
 2400SOL    HW124342   1.664   4.238   1.413
 2400SOL    HW224343   1.706   4.353   1.323
 2401SOL     OW24344   0.399   0.789   0.902
 2401SOL    HW124345   0.475   0.756   0.855
 2401SOL    HW224346   0.407   0.885   0.897
 2402SOL     OW24347   0.909   2.273   0.604
 2402SOL    HW124348   0.977   2.210   0.580
 2402SOL    HW224349   0.905   2.268   0.700
 2403SOL     OW24350   4.483   4.877   1.374
 2403SOL    HW124351   4.529   4.873   1.457
 2403SOL    HW224352   4.547   4.911   1.312
 2404SOL     OW24353   3.999   5.567   0.593
 2404SOL    HW124354   3.967   5.495   0.538
 2404SOL    HW224355   4.049   5.623   0.533
 2405SOL     OW24356   4.246   4.869   1.225
 2405SOL    HW124357   4.324   4.893   1.275
 2405SOL    HW224358   4.191   4.947   1.227
 2406SOL     OW24359   1.171   5.757   1.191
 2406SOL    HW124360   1.220   5.699   1.133
 2406SOL    HW224361   1.122   5.814   1.133
 2407SOL     OW24362   2.221   1.801   1.575
 2407SOL    HW124363   2.136   1.782   1.535
 2407SOL    HW224364   2.234   1.730   1.638
 2408SOL     OW24365   5.325   5.146   1.856
 2408SOL    HW124366   5.329   5.232   1.897
 2408SOL    HW224367   5.249   5.149   1.800
 2409SOL     OW24368   5.274   2.727   0.996
 2409SOL    HW124369   5.218   2.755   0.923
 2409SOL    HW224370   5.294   2.636   0.977
 2410SOL     OW24371   5.945   4.430   2.352
 2410SOL    HW124372   5.852   4.409   2.352
 2410SOL    HW224373   5.949   4.523   2.373
 2411SOL     OW24374   4.841   4.843   1.891
 2411SOL    HW124375   4.878   4.761   1.921
 2411SOL    HW224376   4.747   4.834   1.905
 2412SOL     OW24377   5.740   6.251   0.305
 2412SOL    HW124378   5.714   6.341   0.325
 2412SOL    HW224379   5.687   6.227   0.230
 2413SOL     OW24380   5.936   0.396   0.741
 2413SOL    HW124381   5.995   0.326   0.769
 2413SOL    HW224382   5.953   0.404   0.647
 2414SOL     OW24383   6.329   3.559   0.561
 2414SOL    HW124384   6.315   3.475   0.605
 2414SOL    HW224385   6.402   3.599   0.609
 2415SOL     OW24386   5.020   1.962   0.098
 2415SOL    HW124387   4.987   1.957   0.008
 2415SOL    HW224388   4.963   2.027   0.140
 2416SOL     OW24389   5.370   2.853   0.019
 2416SOL    HW124390   5.307   2.895  -0.039
 2416SOL    HW224391   5.324   2.847   0.103
 2417SOL     OW24392   3.733   1.124   6.217
 2417SOL    HW124393   3.676   1.147   6.144
 2417SOL    HW224394   3.696   1.168   6.293
 2418SOL     OW24395   0.347   3.493   7.143
 2418SOL    HW124396   0.256   3.469   7.124
 2418SOL    HW224397   0.341   3.584   7.173
 2419SOL     OW24398   0.268   1.718   5.624
 2419SOL    HW124399   0.320   1.669   5.560
 2419SOL    HW224400   0.196   1.658   5.645
 2420SOL     OW24401   1.919   1.002   6.393
 2420SOL    HW124402   1.899   0.911   6.374
 2420SOL    HW224403   2.014   1.007   6.385
 2421SOL     OW24404   1.135   2.129   1.114
 2421SOL    HW124405   1.146   2.091   1.027
 2421SOL    HW224406   1.162   2.060   1.174
 2422SOL     OW24407   3.488   0.097   1.756
 2422SOL    HW124408   3.581   0.094   1.776
 2422SOL    HW224409   3.453   0.165   1.814
 2423SOL     OW24410   1.919   3.639   1.911
 2423SOL    HW124411   1.899   3.678   1.996
 2423SOL    HW224412   1.834   3.611   1.877
 2424SOL     OW24413   0.722   5.897   5.968
 2424SOL    HW124414   0.785   5.853   6.024
 2424SOL    HW224415   0.729   5.852   5.884
 2425SOL     OW24416   1.022   4.965   0.229
 2425SOL    HW124417   0.994   5.032   0.291
 2425SOL    HW224418   1.026   5.010   0.145
 2426SOL     OW24419   1.001   0.492   7.438
 2426SOL    HW124420   0.979   0.554   7.368
 2426SOL    HW224421   0.945   0.416   7.421
 2427SOL     OW24422   6.151   2.360   7.646
 2427SOL    HW124423   6.210   2.416   7.595
 2427SOL    HW224424   6.111   2.302   7.581
 2428SOL     OW24425   3.663   1.908   7.060
 2428SOL    HW124426   3.602   1.896   6.987
 2428SOL    HW224427   3.622   1.975   7.114
 2429SOL     OW24428   5.837   4.429   0.859
 2429SOL    HW124429   5.902   4.409   0.927
 2429SOL    HW224430   5.794   4.508   0.890
 2430SOL     OW24431   3.359   4.226   6.905
 2430SOL    HW124432   3.445   4.266   6.896
 2430SOL    HW224433   3.329   4.253   6.992
 2431SOL     OW24434   4.912   0.806   0.535
 2431SOL    HW124435   4.877   0.781   0.449
 2431SOL    HW224436   4.924   0.723   0.581
 2432SOL     OW24437   3.832   2.327   0.570
 2432SOL    HW124438   3.818   2.349   0.662
 2432SOL    HW224439   3.926   2.329   0.558
 2433SOL     OW24440   0.205   1.991   0.558
 2433SOL    HW124441   0.281   2.024   0.510
 2433SOL    HW224442   0.191   2.055   0.628
 2434SOL     OW24443   1.491   3.118   1.007
 2434SOL    HW124444   1.574   3.077   0.985
 2434SOL    HW224445   1.507   3.212   0.997
 2435SOL     OW24446   5.516   1.576   7.008
 2435SOL    HW124447   5.457   1.550   6.937
 2435SOL    HW224448   5.574   1.641   6.967
 2436SOL     OW24449   3.723   2.533   0.256
 2436SOL    HW124450   3.638   2.503   0.225
 2436SOL    HW224451   3.703   2.602   0.319
 2437SOL     OW24452   4.834   5.492   6.282
 2437SOL    HW124453   4.882   5.411   6.296
 2437SOL    HW224454   4.774   5.498   6.356
 2438SOL     OW24455   4.895   0.286   7.383
 2438SOL    HW124456   4.809   0.296   7.342
 2438SOL    HW224457   4.945   0.230   7.324
 2439SOL     OW24458   4.254   0.123   1.093
 2439SOL    HW124459   4.167   0.161   1.106
 2439SOL    HW224460   4.313   0.184   1.137
 2440SOL     OW24461   4.192   3.662   1.416
 2440SOL    HW124462   4.253   3.602   1.373
 2440SOL    HW224463   4.139   3.697   1.344
 2441SOL     OW24464   3.269   5.289   0.192
 2441SOL    HW124465   3.199   5.227   0.170
 2441SOL    HW224466   3.321   5.243   0.258
 2442SOL     OW24467   3.655   1.092   1.293
 2442SOL    HW124468   3.567   1.131   1.291
 2442SOL    HW224469   3.707   1.154   1.345
 2443SOL     OW24470   6.281   4.391   1.537
 2443SOL    HW124471   6.347   4.373   1.470
 2443SOL    HW224472   6.330   4.420   1.613
 2444SOL     OW24473   1.936   0.022   2.233
 2444SOL    HW124474   1.978   0.021   2.147
 2444SOL    HW224475   2.008   0.004   2.295
 2445SOL     OW24476   4.968   2.581   0.304
 2445SOL    HW124477   5.063   2.592   0.311
 2445SOL    HW224478   4.948   2.512   0.366
 2446SOL     OW24479   2.422   2.375   7.876
 2446SOL    HW124480   2.447   2.330   7.956
 2446SOL    HW224481   2.502   2.374   7.822
 2447SOL     OW24482   1.917   1.607   5.607
 2447SOL    HW124483   1.982   1.658   5.559
 2447SOL    HW224484   1.876   1.671   5.666
 2448SOL     OW24485   1.200   6.289   7.644
 2448SOL    HW124486   1.178   6.371   7.600
 2448SOL    HW224487   1.183   6.221   7.579
 2449SOL     OW24488   3.538   4.568   7.449
 2449SOL    HW124489   3.530   4.473   7.444
 2449SOL    HW224490   3.541   4.597   7.358
 2450SOL     OW24491   1.021   3.284   1.615
 2450SOL    HW124492   0.933   3.247   1.626
 2450SOL    HW224493   1.040   3.273   1.522
 2451SOL     OW24494   5.583   5.158   6.590
 2451SOL    HW124495   5.599   5.250   6.612
 2451SOL    HW224496   5.635   5.143   6.511
 2452SOL     OW24497   4.036   1.185   0.417
 2452SOL    HW124498   3.968   1.142   0.366
 2452SOL    HW224499   3.989   1.253   0.466
 2453SOL     OW24500   1.175   0.738   1.414
 2453SOL    HW124501   1.133   0.821   1.393
 2453SOL    HW224502   1.224   0.755   1.494
 2454SOL     OW24503   3.837   0.899   1.572
 2454SOL    HW124504   3.812   0.862   1.487
 2454SOL    HW224505   3.930   0.879   1.580
 2455SOL     OW24506   2.740   5.925   7.843
 2455SOL    HW124507   2.658   5.892   7.880
 2455SOL    HW224508   2.808   5.866   7.877
 2456SOL     OW24509   3.869   5.806   6.893
 2456SOL    HW124510   3.951   5.853   6.878
 2456SOL    HW224511   3.869   5.789   6.987
 2457SOL     OW24512   3.056   5.850   1.017
 2457SOL    HW124513   3.066   5.769   0.966
 2457SOL    HW224514   3.098   5.830   1.101
 2458SOL     OW24515   0.096   4.472   7.685
 2458SOL    HW124516   0.182   4.449   7.651
 2458SOL    HW224517   0.078   4.406   7.752
 2459SOL     OW24518   0.007   5.100   6.364
 2459SOL    HW124519  -0.085   5.074   6.365
 2459SOL    HW224520   0.012   5.166   6.295
 2460SOL     OW24521   3.354   3.067   6.244
 2460SOL    HW124522   3.382   3.075   6.153
 2460SOL    HW224523   3.290   3.138   6.255
 2461SOL     OW24524   1.895   0.056   6.783
 2461SOL    HW124525   1.835  -0.016   6.764
 2461SOL    HW224526   1.919   0.044   6.875
 2462SOL     OW24527   4.198   1.018   0.847
 2462SOL    HW124528   4.208   1.101   0.799
 2462SOL    HW224529   4.146   0.963   0.789
 2463SOL     OW24530   4.116   6.373   7.193
 2463SOL    HW124531   4.115   6.308   7.124
 2463SOL    HW224532   4.136   6.324   7.273
 2464SOL     OW24533   3.924   2.352   6.428
 2464SOL    HW124534   3.889   2.358   6.517
 2464SOL    HW224535   3.875   2.281   6.387
 2465SOL     OW24536   2.767   0.534   0.557
 2465SOL    HW124537   2.701   0.488   0.609
 2465SOL    HW224538   2.732   0.622   0.546
 2466SOL     OW24539   0.332   2.627   6.314
 2466SOL    HW124540   0.341   2.635   6.409
 2466SOL    HW224541   0.334   2.717   6.282
 2467SOL     OW24542   3.344   0.882   0.467
 2467SOL    HW124543   3.250   0.865   0.475
 2467SOL    HW224544   3.371   0.910   0.554
 2468SOL     OW24545   1.142   2.546   1.654
 2468SOL    HW124546   1.142   2.451   1.669
 2468SOL    HW224547   1.180   2.582   1.735
 2469SOL     OW24548   0.458   1.826   0.539
 2469SOL    HW124549   0.457   1.840   0.634
 2469SOL    HW224550   0.451   1.914   0.502
 2470SOL     OW24551   6.386   3.936   0.156
 2470SOL    HW124552   6.342   3.992   0.091
 2470SOL    HW224553   6.344   3.851   0.146
 2471SOL     OW24554   5.664   4.466   0.493
 2471SOL    HW124555   5.749   4.422   0.484
 2471SOL    HW224556   5.656   4.484   0.586
 2472SOL     OW24557   3.692   5.105   6.733
 2472SOL    HW124558   3.653   5.177   6.783
 2472SOL    HW224559   3.629   5.087   6.663
 2473SOL     OW24560   0.179   2.366   2.119
 2473SOL    HW124561   0.217   2.432   2.060
 2473SOL    HW224562   0.087   2.391   2.126
 2474SOL     OW24563   6.054   4.924   6.932
 2474SOL    HW124564   6.134   4.949   6.977
 2474SOL    HW224565   6.081   4.854   6.871
 2475SOL     OW24566   1.983   5.431   1.293
 2475SOL    HW124567   2.073   5.464   1.283
 2475SOL    HW224568   1.979   5.399   1.383
 2476SOL     OW24569   2.496   0.554   7.026
 2476SOL    HW124570   2.574   0.523   7.073
 2476SOL    HW224571   2.525   0.635   6.982
 2477SOL     OW24572   2.366   4.123   7.800
 2477SOL    HW124573   2.430   4.083   7.859
 2477SOL    HW224574   2.345   4.207   7.840
 2478SOL     OW24575   5.463   1.353   5.329
 2478SOL    HW124576   5.432   1.266   5.355
 2478SOL    HW224577   5.387   1.394   5.288
 2479SOL     OW24578   3.660   2.031   5.883
 2479SOL    HW124579   3.618   2.071   5.960
 2479SOL    HW224580   3.738   2.084   5.868
 2480SOL     OW24581   5.930   4.682   2.412
 2480SOL    HW124582   5.854   4.702   2.358
 2480SOL    HW224583   5.946   4.762   2.462
 2481SOL     OW24584   4.186   5.061   0.536
 2481SOL    HW124585   4.252   5.056   0.467
 2481SOL    HW224586   4.103   5.063   0.489
 2482SOL     OW24587   2.851   2.158   7.309
 2482SOL    HW124588   2.940   2.125   7.316
 2482SOL    HW224589   2.846   2.228   7.374
 2483SOL     OW24590   6.202   4.814   6.538
 2483SOL    HW124591   6.283   4.841   6.494
 2483SOL    HW224592   6.145   4.784   6.467
 2484SOL     OW24593   3.133   5.807   1.961
 2484SOL    HW124594   3.106   5.798   2.052
 2484SOL    HW224595   3.055   5.783   1.911
 2485SOL     OW24596   3.919   1.871   0.537
 2485SOL    HW124597   3.851   1.929   0.503
 2485SOL    HW224598   3.960   1.920   0.609
 2486SOL     OW24599   2.876   0.140   5.896
 2486SOL    HW124600   2.789   0.125   5.933
 2486SOL    HW224601   2.870   0.108   5.806
 2487SOL     OW24602   4.309   4.639   0.505
 2487SOL    HW124603   4.375   4.705   0.481
 2487SOL    HW224604   4.320   4.628   0.599
 2488SOL     OW24605   1.332   4.610   7.376
 2488SOL    HW124606   1.258   4.655   7.417
 2488SOL    HW224607   1.292   4.549   7.314
 2489SOL     OW24608   3.336   4.554   7.754
 2489SOL    HW124609   3.275   4.523   7.687
 2489SOL    HW224610   3.417   4.507   7.736
 2490SOL     OW24611   0.438   5.971   7.471
 2490SOL    HW124612   0.353   5.946   7.507
 2490SOL    HW224613   0.492   5.893   7.484
 2491SOL     OW24614   1.226   5.366   0.358
 2491SOL    HW124615   1.194   5.444   0.404
 2491SOL    HW224616   1.312   5.391   0.326
 2492SOL     OW24617   3.640   0.685   6.934
 2492SOL    HW124618   3.719   0.650   6.974
 2492SOL    HW224619   3.667   0.711   6.846
 2493SOL     OW24620   5.210   3.942   1.889
 2493SOL    HW124621   5.158   3.895   1.824
 2493SOL    HW224622   5.233   3.874   1.954
 2494SOL     OW24623   5.495   2.798   1.112
 2494SOL    HW124624   5.420   2.762   1.065
 2494SOL    HW224625   5.571   2.756   1.073
 2495SOL     OW24626   2.068   1.893   7.901
 2495SOL    HW124627   1.984   1.888   7.946
 2495SOL    HW224628   2.053   1.847   7.818
 2496SOL     OW24629   1.746   4.259   5.775
 2496SOL    HW124630   1.833   4.219   5.780
 2496SOL    HW224631   1.754   4.340   5.825
 2497SOL     OW24632   4.510   3.453   6.921
 2497SOL    HW124633   4.583   3.446   6.860
 2497SOL    HW224634   4.542   3.413   7.002
 2498SOL     OW24635   6.285   3.162   0.416
 2498SOL    HW124636   6.251   3.250   0.399
 2498SOL    HW224637   6.379   3.170   0.403
 2499SOL     OW24638   6.264   2.067   6.544
 2499SOL    HW124639   6.294   1.990   6.497
 2499SOL    HW224640   6.176   2.045   6.574
 2500SOL     OW24641   4.441   1.549   0.283
 2500SOL    HW124642   4.399   1.615   0.228
 2500SOL    HW224643   4.383   1.473   0.279
 2501SOL     OW24644   2.219   6.056   1.515
 2501SOL    HW124645   2.308   6.049   1.548
 2501SOL    HW224646   2.170   6.101   1.584
 2502SOL     OW24647   5.818   3.062   7.361
 2502SOL    HW124648   5.816   2.966   7.366
 2502SOL    HW224649   5.839   3.090   7.450
 2503SOL     OW24650   1.687   0.331   0.144
 2503SOL    HW124651   1.624   0.392   0.105
 2503SOL    HW224652   1.679   0.251   0.091
 2504SOL     OW24653   2.473   5.653   6.128
 2504SOL    HW124654   2.503   5.715   6.194
 2504SOL    HW224655   2.406   5.702   6.079
 2505SOL     OW24656   0.199   1.198   2.534
 2505SOL    HW124657   0.219   1.112   2.571
 2505SOL    HW224658   0.111   1.188   2.496
 2506SOL     OW24659   0.883   6.104   1.201
 2506SOL    HW124660   0.857   6.136   1.288
 2506SOL    HW224661   0.904   6.184   1.152
 2507SOL     OW24662   3.507   0.282   5.608
 2507SOL    HW124663   3.446   0.334   5.555
 2507SOL    HW224664   3.498   0.193   5.574
 2508SOL     OW24665   5.100   0.273   1.387
 2508SOL    HW124666   5.141   0.187   1.394
 2508SOL    HW224667   5.173   0.333   1.375
 2509SOL     OW24668   5.865   2.275   1.240
 2509SOL    HW124669   5.930   2.319   1.185
 2509SOL    HW224670   5.914   2.206   1.284
 2510SOL     OW24671   4.294   0.951   0.544
 2510SOL    HW124672   4.201   0.936   0.563
 2510SOL    HW224673   4.309   1.041   0.572
 2511SOL     OW24674   3.096   1.830   1.450
 2511SOL    HW124675   3.129   1.875   1.372
 2511SOL    HW224676   3.011   1.796   1.423
 2512SOL     OW24677   3.373   2.082   7.737
 2512SOL    HW124678   3.456   2.051   7.773
 2512SOL    HW224679   3.392   2.102   7.646
 2513SOL     OW24680   0.851   2.240   0.183
 2513SOL    HW124681   0.821   2.238   0.092
 2513SOL    HW224682   0.939   2.277   0.179
 2514SOL     OW24683   3.545   4.434   6.646
 2514SOL    HW124684   3.625   4.415   6.695
 2514SOL    HW224685   3.567   4.509   6.591
 2515SOL     OW24686   2.581   2.512   1.161
 2515SOL    HW124687   2.487   2.527   1.170
 2515SOL    HW224688   2.590   2.464   1.078
 2516SOL     OW24689   4.547   0.573   7.841
 2516SOL    HW124690   4.611   0.513   7.880
 2516SOL    HW224691   4.495   0.519   7.782
 2517SOL     OW24692   6.314   5.758   7.626
 2517SOL    HW124693   6.257   5.815   7.575
 2517SOL    HW224694   6.255   5.718   7.691
 2518SOL     OW24695   2.703   0.825   0.614
 2518SOL    HW124696   2.645   0.900   0.627
 2518SOL    HW224697   2.707   0.782   0.699
 2519SOL     OW24698   4.260   6.267   7.744
 2519SOL    HW124699   4.176   6.248   7.786
 2519SOL    HW224700   4.325   6.250   7.812
 2520SOL     OW24701   0.012   3.436   2.095
 2520SOL    HW124702   0.026   3.525   2.125
 2520SOL    HW224703   0.094   3.391   2.113
 2521SOL     OW24704   3.717   3.445   7.487
 2521SOL    HW124705   3.805   3.420   7.460
 2521SOL    HW224706   3.659   3.403   7.423
 2522SOL     OW24707   1.315   5.973   6.992
 2522SOL    HW124708   1.409   5.987   7.006
 2522SOL    HW224709   1.310   5.916   6.915
 2523SOL     OW24710   4.200   2.294   0.308
 2523SOL    HW124711   4.193   2.199   0.323
 2523SOL    HW224712   4.210   2.331   0.396
 2524SOL     OW24713   3.787   3.985   0.137
 2524SOL    HW124714   3.873   4.015   0.109
 2524SOL    HW224715   3.805   3.910   0.194
 2525SOL     OW24716   2.314   4.600   7.757
 2525SOL    HW124717   2.245   4.535   7.748
 2525SOL    HW224718   2.392   4.550   7.779
 2526SOL     OW24719   3.001   3.470   6.121
 2526SOL    HW124720   2.988   3.456   6.027
 2526SOL    HW224721   2.948   3.547   6.142
 2527SOL     OW24722   1.637   4.595   1.125
 2527SOL    HW124723   1.595   4.553   1.050
 2527SOL    HW224724   1.725   4.557   1.128
 2528SOL     OW24725   0.065   4.543   0.194
 2528SOL    HW124726   0.084   4.457   0.233
 2528SOL    HW224727   0.040   4.598   0.269
 2529SOL     OW24728   1.059   3.568   1.568
 2529SOL    HW124729   1.051   3.481   1.606
 2529SOL    HW224730   0.971   3.606   1.576
 2530SOL     OW24731   5.657   5.717   6.243
 2530SOL    HW124732   5.568   5.689   6.221
 2530SOL    HW224733   5.700   5.725   6.158
 2531SOL     OW24734   0.118   2.519   6.763
 2531SOL    HW124735   0.121   2.551   6.673
 2531SOL    HW224736   0.078   2.432   6.757
 2532SOL     OW24737   6.142   2.581   1.758
 2532SOL    HW124738   6.100   2.553   1.839
 2532SOL    HW224739   6.233   2.598   1.784
 2533SOL     OW24740   6.123   2.800   2.073
 2533SOL    HW124741   6.106   2.706   2.067
 2533SOL    HW224742   6.036   2.841   2.068
 2534SOL     OW24743   1.916   5.818   1.222
 2534SOL    HW124744   1.914   5.735   1.270
 2534SOL    HW224745   2.009   5.839   1.215
 2535SOL     OW24746   5.448   1.797   1.151
 2535SOL    HW124747   5.375   1.754   1.107
 2535SOL    HW224748   5.430   1.890   1.143
 2536SOL     OW24749   5.184   4.350   1.690
 2536SOL    HW124750   5.156   4.388   1.774
 2536SOL    HW224751   5.279   4.339   1.699
 2537SOL     OW24752   3.805   1.017   0.676
 2537SOL    HW124753   3.715   1.046   0.688
 2537SOL    HW224754   3.858   1.096   0.687
 2538SOL     OW24755   0.596   3.850   0.745
 2538SOL    HW124756   0.671   3.799   0.775
 2538SOL    HW224757   0.635   3.923   0.696
 2539SOL     OW24758   5.997   1.437   7.370
 2539SOL    HW124759   6.014   1.343   7.377
 2539SOL    HW224760   5.946   1.446   7.290
 2540SOL     OW24761   1.685   3.897   6.088
 2540SOL    HW124762   1.757   3.835   6.096
 2540SOL    HW224763   1.685   3.922   5.996
 2541SOL     OW24764   2.815   3.887   0.259
 2541SOL    HW124765   2.908   3.902   0.241
 2541SOL    HW224766   2.779   3.859   0.175
 2542SOL     OW24767   4.799   5.480   0.070
 2542SOL    HW124768   4.806   5.534   0.149
 2542SOL    HW224769   4.889   5.456   0.049
 2543SOL     OW24770   4.108   6.029   1.941
 2543SOL    HW124771   4.052   6.052   1.867
 2543SOL    HW224772   4.184   6.087   1.933
 2544SOL     OW24773   3.589   0.593   6.403
 2544SOL    HW124774   3.548   0.577   6.319
 2544SOL    HW224775   3.613   0.507   6.436
 2545SOL     OW24776   4.520   1.246   0.452
 2545SOL    HW124777   4.594   1.187   0.436
 2545SOL    HW224778   4.465   1.237   0.374
 2546SOL     OW24779   3.804   5.337   0.518
 2546SOL    HW124780   3.796   5.282   0.440
 2546SOL    HW224781   3.836   5.277   0.586
 2547SOL     OW24782   1.468   1.921   1.199
 2547SOL    HW124783   1.438   1.831   1.182
 2547SOL    HW224784   1.432   1.943   1.285
 2548SOL     OW24785   1.952   5.952   6.870
 2548SOL    HW124786   1.905   5.943   6.953
 2548SOL    HW224787   1.971   6.046   6.863
 2549SOL     OW24788   1.639   4.832   0.424
 2549SOL    HW124789   1.689   4.833   0.505
 2549SOL    HW224790   1.705   4.840   0.354
 2550SOL     OW24791   4.179   0.248   7.102
 2550SOL    HW124792   4.126   0.169   7.117
 2550SOL    HW224793   4.262   0.214   7.068
 2551SOL     OW24794   0.510   0.307   7.303
 2551SOL    HW124795   0.554   0.295   7.220
 2551SOL    HW224796   0.577   0.344   7.361
 2552SOL     OW24797   4.857   1.271   0.576
 2552SOL    HW124798   4.817   1.203   0.522
 2552SOL    HW224799   4.902   1.328   0.513
 2553SOL     OW24800   4.997   4.554   5.820
 2553SOL    HW124801   4.982   4.632   5.767
 2553SOL    HW224802   4.933   4.491   5.787
 2554SOL     OW24803   3.146   1.148   1.069
 2554SOL    HW124804   3.136   1.089   1.144
 2554SOL    HW224805   3.239   1.169   1.067
 2555SOL     OW24806   6.335   2.910   1.955
 2555SOL    HW124807   6.248   2.897   1.994
 2555SOL    HW224808   6.368   2.821   1.940
 2556SOL     OW24809   1.578   2.827   1.104
 2556SOL    HW124810   1.609   2.877   1.029
 2556SOL    HW224811   1.510   2.881   1.144
 2557SOL     OW24812   1.460   4.862   6.665
 2557SOL    HW124813   1.549   4.893   6.680
 2557SOL    HW224814   1.465   4.767   6.677
 2558SOL     OW24815   4.650   2.854   1.232
 2558SOL    HW124816   4.565   2.855   1.189
 2558SOL    HW224817   4.636   2.901   1.315
 2559SOL     OW24818   3.665   3.660   0.104
 2559SOL    HW124819   3.671   3.564   0.105
 2559SOL    HW224820   3.633   3.681   0.016
 2560SOL     OW24821   1.989   3.757   7.198
 2560SOL    HW124822   1.904   3.786   7.230
 2560SOL    HW224823   2.000   3.669   7.234
 2561SOL     OW24824   2.579   0.373   5.618
 2561SOL    HW124825   2.488   0.349   5.603
 2561SOL    HW224826   2.603   0.426   5.542
 2562SOL     OW24827   0.346   2.676   7.108
 2562SOL    HW124828   0.265   2.725   7.125
 2562SOL    HW224829   0.378   2.651   7.194
 2563SOL     OW24830   1.385   5.279   1.033
 2563SOL    HW124831   1.304   5.328   1.016
 2563SOL    HW224832   1.406   5.298   1.124
 2564SOL     OW24833   1.737   5.313   0.401
 2564SOL    HW124834   1.744   5.237   0.344
 2564SOL    HW224835   1.815   5.365   0.380
 2565SOL     OW24836   5.801   3.387   7.651
 2565SOL    HW124837   5.717   3.430   7.634
 2565SOL    HW224838   5.841   3.377   7.565
 2566SOL     OW24839   4.077   3.632   0.070
 2566SOL    HW124840   4.129   3.704   0.035
 2566SOL    HW224841   4.039   3.590  -0.007
 2567SOL     OW24842   0.252   3.939   7.841
 2567SOL    HW124843   0.278   3.885   7.766
 2567SOL    HW224844   0.178   3.991   7.809
 2568SOL     OW24845   6.303   3.578   1.590
 2568SOL    HW124846   6.343   3.661   1.565
 2568SOL    HW224847   6.350   3.551   1.669
 2569SOL     OW24848   5.999   0.415   7.872
 2569SOL    HW124849   6.065   0.358   7.910
 2569SOL    HW224850   6.048   0.474   7.814
 2570SOL     OW24851   1.527   2.020   5.848
 2570SOL    HW124852   1.568   2.076   5.781
 2570SOL    HW224853   1.598   2.000   5.909
 2571SOL     OW24854   0.029   4.702   7.325
 2571SOL    HW124855   0.076   4.784   7.341
 2571SOL    HW224856   0.088   4.652   7.269
 2572SOL     OW24857   5.823   0.910   5.913
 2572SOL    HW124858   5.776   0.954   5.843
 2572SOL    HW224859   5.819   0.817   5.891
 2573SOL     OW24860   5.462   4.091   7.014
 2573SOL    HW124861   5.552   4.115   7.037
 2573SOL    HW224862   5.472   4.015   6.957
 2574SOL     OW24863   4.911   4.954   0.513
 2574SOL    HW124864   4.883   5.003   0.590
 2574SOL    HW224865   4.986   4.903   0.544
 2575SOL     OW24866   4.822   3.190   1.594
 2575SOL    HW124867   4.850   3.247   1.522
 2575SOL    HW224868   4.892   3.124   1.601
 2576SOL     OW24869   5.871   4.553   7.798
 2576SOL    HW124870   5.953   4.504   7.788
 2576SOL    HW224871   5.826   4.510   7.871
 2577SOL     OW24872   0.378   5.282   6.881
 2577SOL    HW124873   0.312   5.334   6.834
 2577SOL    HW224874   0.388   5.327   6.965
 2578SOL     OW24875   4.602   3.156   1.868
 2578SOL    HW124876   4.618   3.248   1.847
 2578SOL    HW224877   4.629   3.108   1.790
 2579SOL     OW24878   0.756   0.766   1.616
 2579SOL    HW124879   0.778   0.729   1.531
 2579SOL    HW224880   0.772   0.694   1.678
 2580SOL     OW24881   4.659   4.428   0.993
 2580SOL    HW124882   4.595   4.446   1.063
 2580SOL    HW224883   4.611   4.446   0.912
 2581SOL     OW24884   2.614   0.719   0.338
 2581SOL    HW124885   2.588   0.688   0.252
 2581SOL    HW224886   2.610   0.814   0.332
 2582SOL     OW24887   2.935   5.281   0.799
 2582SOL    HW124888   2.929   5.193   0.836
 2582SOL    HW224889   3.004   5.275   0.734
 2583SOL     OW24890   2.345   3.407   0.205
 2583SOL    HW124891   2.312   3.464   0.135
 2583SOL    HW224892   2.351   3.320   0.165
 2584SOL     OW24893   1.443   2.966   1.467
 2584SOL    HW124894   1.535   2.948   1.447
 2584SOL    HW224895   1.407   2.881   1.492
 2585SOL     OW24896   3.180   0.553   2.060
 2585SOL    HW124897   3.213   0.575   2.147
 2585SOL    HW224898   3.171   0.458   2.061
 2586SOL     OW24899   4.229   1.094   7.366
 2586SOL    HW124900   4.247   1.070   7.275
 2586SOL    HW224901   4.149   1.046   7.388
 2587SOL     OW24902   0.673   2.896   0.255
 2587SOL    HW124903   0.578   2.890   0.260
 2587SOL    HW224904   0.690   2.941   0.173
 2588SOL     OW24905   1.284   5.477   7.519
 2588SOL    HW124906   1.369   5.517   7.540
 2588SOL    HW224907   1.263   5.512   7.432
 2589SOL     OW24908   4.606   5.363   6.507
 2589SOL    HW124909   4.585   5.450   6.472
 2589SOL    HW224910   4.631   5.378   6.597
 2590SOL     OW24911   6.239   5.091   0.380
 2590SOL    HW124912   6.263   5.182   0.397
 2590SOL    HW224913   6.177   5.096   0.306
 2591SOL     OW24914   0.383   6.139   0.951
 2591SOL    HW124915   0.451   6.184   1.001
 2591SOL    HW224916   0.399   6.163   0.860
 2592SOL     OW24917   3.447   5.230   1.824
 2592SOL    HW124918   3.394   5.189   1.892
 2592SOL    HW224919   3.537   5.224   1.856
 2593SOL     OW24920   3.024   6.248   1.037
 2593SOL    HW124921   3.042   6.285   0.950
 2593SOL    HW224922   3.108   6.252   1.082
 2594SOL     OW24923   0.657   3.644   7.016
 2594SOL    HW124924   0.592   3.607   7.075
 2594SOL    HW224925   0.681   3.728   7.057
 2595SOL     OW24926   1.191   2.906   0.425
 2595SOL    HW124927   1.243   2.862   0.358
 2595SOL    HW224928   1.107   2.925   0.383
 2596SOL     OW24929   5.910   5.649   0.499
 2596SOL    HW124930   5.902   5.586   0.572
 2596SOL    HW224931   5.855   5.612   0.430
 2597SOL     OW24932   2.234   0.100   6.017
 2597SOL    HW124933   2.294   0.068   5.949
 2597SOL    HW224934   2.159   0.135   5.969
 2598SOL     OW24935   1.753   3.845   0.740
 2598SOL    HW124936   1.805   3.774   0.776
 2598SOL    HW224937   1.789   3.924   0.780
 2599SOL     OW24938   2.237   2.672   7.155
 2599SOL    HW124939   2.316   2.720   7.180
 2599SOL    HW224940   2.242   2.591   7.205
 2600SOL     OW24941   1.382   0.529   0.426
 2600SOL    HW124942   1.300   0.506   0.470
 2600SOL    HW224943   1.397   0.621   0.447
 2601SOL     OW24944   1.352   3.147   4.967
 2601SOL    HW124945   1.359   3.111   4.879
 2601SOL    HW224946   1.379   3.076   5.025
 2602SOL     OW24947   0.982   4.994   0.616
 2602SOL    HW124948   1.074   4.973   0.631
 2602SOL    HW224949   0.983   5.067   0.555
 2603SOL     OW24950   1.684   5.100   7.869
 2603SOL    HW124951   1.640   5.025   7.909
 2603SOL    HW224952   1.693   5.077   7.777
 2604SOL     OW24953   4.712   0.859   0.068
 2604SOL    HW124954   4.784   0.918   0.089
 2604SOL    HW224955   4.633   0.908   0.090
 2605SOL     OW24956   1.647   5.429   6.422
 2605SOL    HW124957   1.663   5.475   6.340
 2605SOL    HW224958   1.622   5.497   6.484
 2606SOL     OW24959   5.013   6.284   6.632
 2606SOL    HW124960   5.006   6.312   6.724
 2606SOL    HW224961   5.107   6.268   6.619
 2607SOL     OW24962   2.917   2.825   0.747
 2607SOL    HW124963   2.974   2.805   0.821
 2607SOL    HW224964   2.894   2.917   0.759
 2608SOL     OW24965   3.161   2.940   7.415
 2608SOL    HW124966   3.099   3.007   7.441
 2608SOL    HW224967   3.125   2.904   7.334
 2609SOL     OW24968   4.781   4.070   1.500
 2609SOL    HW124969   4.727   4.144   1.472
 2609SOL    HW224970   4.859   4.111   1.538
 2610SOL     OW24971   1.494   0.128   6.925
 2610SOL    HW124972   1.450   0.074   6.859
 2610SOL    HW224973   1.587   0.110   6.913
 2611SOL     OW24974   0.024   4.276   7.855
 2611SOL    HW124975  -0.056   4.224   7.856
 2611SOL    HW224976   0.055   4.275   7.945
 2612SOL     OW24977   1.301   4.212   6.146
 2612SOL    HW124978   1.394   4.213   6.121
 2612SOL    HW224979   1.294   4.140   6.208
 2613SOL     OW24980   3.991   0.964   7.441
 2613SOL    HW124981   3.947   1.048   7.434
 2613SOL    HW224982   3.923   0.903   7.470
 2614SOL     OW24983   1.070   4.322   1.660
 2614SOL    HW124984   0.985   4.360   1.637
 2614SOL    HW224985   1.064   4.305   1.753
 2615SOL     OW24986   1.507   0.160   7.461
 2615SOL    HW124987   1.444   0.212   7.411
 2615SOL    HW224988   1.497   0.071   7.427
 2616SOL     OW24989   1.046   1.682   1.943
 2616SOL    HW124990   1.080   1.598   1.973
 2616SOL    HW224991   1.044   1.737   2.021
 2617SOL     OW24992   5.910   0.321   6.412
 2617SOL    HW124993   5.935   0.232   6.388
 2617SOL    HW224994   5.846   0.347   6.346
 2618SOL     OW24995   6.307   1.257   0.279
 2618SOL    HW124996   6.351   1.329   0.236
 2618SOL    HW224997   6.263   1.210   0.208
 2619SOL     OW24998   4.729   1.382   1.191
 2619SOL    HW124999   4.798   1.341   1.139
 2619SOL    HW225000   4.726   1.472   1.161
 2620SOL     OW25001   3.171   3.220   0.707
 2620SOL    HW125002   3.202   3.237   0.618
 2620SOL    HW225003   3.221   3.280   0.762
 2621SOL     OW25004   6.084   3.929   7.422
 2621SOL    HW125005   6.093   3.878   7.342
 2621SOL    HW225006   6.031   3.873   7.480
 2622SOL     OW25007   1.231   4.867   0.661
 2622SOL    HW125008   1.299   4.925   0.695
 2622SOL    HW225009   1.236   4.789   0.716
 2623SOL     OW25010   1.489   0.514   0.118
 2623SOL    HW125011   1.411   0.468   0.086
 2623SOL    HW225012   1.480   0.513   0.213
 2624SOL     OW25013   1.019   2.038   0.472
 2624SOL    HW125014   1.030   2.043   0.377
 2624SOL    HW225015   1.095   1.989   0.502
 2625SOL     OW25016   3.291   2.394   6.363
 2625SOL    HW125017   3.223   2.327   6.371
 2625SOL    HW225018   3.364   2.350   6.320
 2626SOL     OW25019   0.730   2.275   6.883
 2626SOL    HW125020   0.706   2.300   6.972
 2626SOL    HW225021   0.653   2.231   6.848
 2627SOL     OW25022   2.234   1.748   6.697
 2627SOL    HW125023   2.223   1.826   6.643
 2627SOL    HW225024   2.257   1.782   6.784
 2628SOL     OW25025   4.368   1.231   6.719
 2628SOL    HW125026   4.355   1.324   6.735
 2628SOL    HW225027   4.283   1.191   6.739
 2629SOL     OW25028   5.601   4.566   1.510
 2629SOL    HW125029   5.555   4.535   1.588
 2629SOL    HW225030   5.646   4.488   1.476
 2630SOL     OW25031   1.475   4.486   1.920
 2630SOL    HW125032   1.494   4.398   1.887
 2630SOL    HW225033   1.381   4.497   1.904
 2631SOL     OW25034   4.955   1.307   7.338
 2631SOL    HW125035   5.002   1.233   7.378
 2631SOL    HW225036   4.957   1.288   7.244
 2632SOL     OW25037   0.083   1.151   7.260
 2632SOL    HW125038   0.003   1.115   7.222
 2632SOL    HW225039   0.066   1.245   7.268
 2633SOL     OW25040   1.262   4.485   1.019
 2633SOL    HW125041   1.216   4.438   0.949
 2633SOL    HW225042   1.302   4.560   0.976
 2634SOL     OW25043   5.078   1.542   7.592
 2634SOL    HW125044   5.128   1.559   7.512
 2634SOL    HW225045   5.137   1.568   7.663
 2635SOL     OW25046   5.469   6.304   2.017
 2635SOL    HW125047   5.523   6.331   2.091
 2635SOL    HW225048   5.389   6.270   2.057
 2636SOL     OW25049   0.794   0.587   6.497
 2636SOL    HW125050   0.750   0.577   6.412
 2636SOL    HW225051   0.724   0.576   6.561
 2637SOL     OW25052   2.762   0.609   6.405
 2637SOL    HW125053   2.847   0.617   6.448
 2637SOL    HW225054   2.743   0.515   6.405
 2638SOL     OW25055   0.859   1.131   6.708
 2638SOL    HW125056   0.858   1.147   6.613
 2638SOL    HW225057   0.888   1.040   6.716
 2639SOL     OW25058   4.387   2.357   1.169
 2639SOL    HW125059   4.339   2.436   1.192
 2639SOL    HW225060   4.413   2.319   1.253
 2640SOL     OW25061   1.596   0.912   0.005
 2640SOL    HW125062   1.659   0.878  -0.058
 2640SOL    HW225063   1.648   0.968   0.063
 2641SOL     OW25064   1.200   2.021   1.678
 2641SOL    HW125065   1.155   2.031   1.762
 2641SOL    HW225066   1.247   1.938   1.685
 2642SOL     OW25067   0.377   1.212   6.855
 2642SOL    HW125068   0.330   1.217   6.771
 2642SOL    HW225069   0.373   1.301   6.890
 2643SOL     OW25070   5.443   3.453   1.419
 2643SOL    HW125071   5.506   3.507   1.468
 2643SOL    HW225072   5.422   3.381   1.478
 2644SOL     OW25073   4.764   3.973   6.992
 2644SOL    HW125074   4.669   3.964   6.992
 2644SOL    HW225075   4.789   3.965   7.084
 2645SOL     OW25076   1.900   1.595   2.254
 2645SOL    HW125077   1.895   1.528   2.186
 2645SOL    HW225078   1.911   1.546   2.335
 2646SOL     OW25079   4.916   5.043   7.710
 2646SOL    HW125080   4.964   5.098   7.771
 2646SOL    HW225081   4.974   4.968   7.694
 2647SOL     OW25082   6.352   6.389   1.013
 2647SOL    HW125083   6.376   6.386   0.920
 2647SOL    HW225084   6.257   6.382   1.013
 2648SOL     OW25085   3.507   2.757   7.011
 2648SOL    HW125086   3.482   2.847   7.031
 2648SOL    HW225087   3.557   2.764   6.930
 2649SOL     OW25088   0.363   0.554   7.681
 2649SOL    HW125089   0.415   0.517   7.752
 2649SOL    HW225090   0.327   0.478   7.635
 2650SOL     OW25091   4.357   6.145   7.344
 2650SOL    HW125092   4.337   6.233   7.376
 2650SOL    HW225093   4.346   6.089   7.421
 2651SOL     OW25094   3.063   5.463   0.174
 2651SOL    HW125095   3.034   5.498   0.258
 2651SOL    HW225096   3.136   5.406   0.196
 2652SOL     OW25097   2.348   0.185   6.761
 2652SOL    HW125098   2.429   0.140   6.783
 2652SOL    HW225099   2.324   0.234   6.840
 2653SOL     OW25100   5.931   2.478   7.039
 2653SOL    HW125101   5.881   2.402   7.069
 2653SOL    HW225102   5.923   2.475   6.943
 2654SOL     OW25103   0.043   3.750   0.794
 2654SOL    HW125104   0.067   3.842   0.783
 2654SOL    HW225105   0.126   3.706   0.812
 2655SOL     OW25106   6.129   3.686   0.764
 2655SOL    HW125107   6.123   3.610   0.822
 2655SOL    HW225108   6.217   3.680   0.727
 2656SOL     OW25109   3.142   4.696   0.951
 2656SOL    HW125110   3.172   4.642   0.878
 2656SOL    HW225111   3.194   4.776   0.945
 2657SOL     OW25112   1.568   1.351   0.759
 2657SOL    HW125113   1.560   1.442   0.733
 2657SOL    HW225114   1.528   1.346   0.846
 2658SOL     OW25115   3.071   5.567   5.768
 2658SOL    HW125116   3.162   5.537   5.756
 2658SOL    HW225117   3.020   5.510   5.711
 2659SOL     OW25118   4.154   1.712   6.120
 2659SOL    HW125119   4.157   1.783   6.056
 2659SOL    HW225120   4.098   1.745   6.190
 2660SOL     OW25121   3.959   2.051   1.228
 2660SOL    HW125122   3.987   2.125   1.281
 2660SOL    HW225123   3.866   2.040   1.249
 2661SOL     OW25124   0.609   0.038   5.819
 2661SOL    HW125125   0.664  -0.026   5.863
 2661SOL    HW225126   0.539  -0.014   5.779
 2662SOL     OW25127   2.849   0.264   5.549
 2662SOL    HW125128   2.763   0.301   5.529
 2662SOL    HW225129   2.830   0.179   5.589
 2663SOL     OW25130   3.535   3.331   5.152
 2663SOL    HW125131   3.547   3.356   5.243
 2663SOL    HW225132   3.467   3.264   5.153
 2664SOL     OW25133   5.004   5.097   5.985
 2664SOL    HW125134   4.949   5.074   6.060
 2664SOL    HW225135   4.943   5.096   5.910
 2665SOL     OW25136   0.146   3.707   7.870
 2665SOL    HW125137   0.179   3.797   7.874
 2665SOL    HW225138   0.179   3.673   7.787
 2666SOL     OW25139   6.286   5.577   1.094
 2666SOL    HW125140   6.279   5.650   1.032
 2666SOL    HW225141   6.196   5.560   1.121
 2667SOL     OW25142   4.326   1.996   7.456
 2667SOL    HW125143   4.395   2.032   7.401
 2667SOL    HW225144   4.272   2.072   7.479
 2668SOL     OW25145   5.224   0.154   1.787
 2668SOL    HW125146   5.186   0.201   1.861
 2668SOL    HW225147   5.310   0.125   1.819
 2669SOL     OW25148   0.449   3.205   0.688
 2669SOL    HW125149   0.428   3.277   0.746
 2669SOL    HW225150   0.462   3.130   0.746
 2670SOL     OW25151   3.180   5.923   6.169
 2670SOL    HW125152   3.134   5.892   6.247
 2670SOL    HW225153   3.146   5.868   6.098
 2671SOL     OW25154   0.986   0.762   0.630
 2671SOL    HW125155   0.973   0.721   0.715
 2671SOL    HW225156   1.021   0.693   0.574
 2672SOL     OW25157   6.359   5.316   6.543
 2672SOL    HW125158   6.365   5.357   6.457
 2672SOL    HW225159   6.294   5.247   6.532
 2673SOL     OW25160   3.474   1.371   7.903
 2673SOL    HW125161   3.512   1.419   7.975
 2673SOL    HW225162   3.395   1.331   7.939
 2674SOL     OW25163   4.302   1.985   0.680
 2674SOL    HW125164   4.329   1.975   0.771
 2674SOL    HW225165   4.315   1.898   0.642
 2675SOL     OW25166   5.587   3.977   6.669
 2675SOL    HW125167   5.589   3.908   6.602
 2675SOL    HW225168   5.549   3.933   6.746
 2676SOL     OW25169   2.684   3.336   0.679
 2676SOL    HW125170   2.777   3.359   0.680
 2676SOL    HW225171   2.640   3.417   0.652
 2677SOL     OW25172   2.162   2.186   1.403
 2677SOL    HW125173   2.172   2.228   1.317
 2677SOL    HW225174   2.245   2.140   1.417
 2678SOL     OW25175   0.830   2.783   6.525
 2678SOL    HW125176   0.765   2.764   6.592
 2678SOL    HW225177   0.785   2.763   6.442
 2679SOL     OW25178   6.272   1.497   1.076
 2679SOL    HW125179   6.338   1.567   1.069
 2679SOL    HW225180   6.293   1.438   1.005
 2680SOL     OW25181   1.640   4.352   6.339
 2680SOL    HW125182   1.689   4.365   6.257
 2680SOL    HW225183   1.679   4.274   6.378
 2681SOL     OW25184   0.291   1.306   1.053
 2681SOL    HW125185   0.231   1.289   0.979
 2681SOL    HW225186   0.377   1.313   1.012
 2682SOL     OW25187   3.110   2.276   5.891
 2682SOL    HW125188   3.170   2.296   5.819
 2682SOL    HW225189   3.065   2.196   5.863
 2683SOL     OW25190   2.878   0.610   6.838
 2683SOL    HW125191   2.864   0.545   6.769
 2683SOL    HW225192   2.903   0.689   6.792
 2684SOL     OW25193   2.131   5.063   0.245
 2684SOL    HW125194   2.179   5.099   0.171
 2684SOL    HW225195   2.198   5.045   0.311
 2685SOL     OW25196   4.204   4.557   7.526
 2685SOL    HW125197   4.148   4.494   7.482
 2685SOL    HW225198   4.191   4.540   7.619
 2686SOL     OW25199   4.996   5.497   6.687
 2686SOL    HW125200   5.074   5.526   6.734
 2686SOL    HW225201   4.994   5.552   6.609
 2687SOL     OW25202   4.653   4.979   0.861
 2687SOL    HW125203   4.576   5.003   0.809
 2687SOL    HW225204   4.622   4.911   0.920
 2688SOL     OW25205   0.905   5.819   0.073
 2688SOL    HW125206   0.959   5.887   0.115
 2688SOL    HW225207   0.845   5.791   0.143
 2689SOL     OW25208   4.174   5.095   7.347
 2689SOL    HW125209   4.140   5.182   7.327
 2689SOL    HW225210   4.216   5.066   7.265
 2690SOL     OW25211   0.876   4.215   2.227
 2690SOL    HW125212   0.838   4.156   2.292
 2690SOL    HW225213   0.935   4.160   2.176
 2691SOL     OW25214   1.300   0.317   7.364
 2691SOL    HW125215   1.264   0.355   7.444
 2691SOL    HW225216   1.328   0.393   7.312
 2692SOL     OW25217   3.262   2.194   7.462
 2692SOL    HW125218   3.280   2.277   7.507
 2692SOL    HW225219   3.344   2.145   7.470
 2693SOL     OW25220   1.049   1.915   0.067
 2693SOL    HW125221   1.060   2.005   0.037
 2693SOL    HW225222   0.993   1.874   0.001
 2694SOL     OW25223   2.600   0.252   7.065
 2694SOL    HW125224   2.643   0.332   7.092
 2694SOL    HW225225   2.671   0.188   7.054
 2695SOL     OW25226   0.302   1.896   7.839
 2695SOL    HW125227   0.308   1.822   7.900
 2695SOL    HW225228   0.351   1.868   7.762
 2696SOL     OW25229   0.122   2.442   7.077
 2696SOL    HW125230   0.134   2.490   7.160
 2696SOL    HW225231   0.073   2.503   7.022
 2697SOL     OW25232   1.353   5.268   7.684
 2697SOL    HW125233   1.431   5.282   7.737
 2697SOL    HW225234   1.344   5.350   7.634
 2698SOL     OW25235   1.501   2.628   2.266
 2698SOL    HW125236   1.594   2.649   2.259
 2698SOL    HW225237   1.472   2.672   2.346
 2699SOL     OW25238   0.690   3.817   1.875
 2699SOL    HW125239   0.772   3.769   1.871
 2699SOL    HW225240   0.712   3.899   1.919
 2700SOL     OW25241   1.316   5.787   1.676
 2700SOL    HW125242   1.240   5.791   1.618
 2700SOL    HW225243   1.304   5.706   1.725
 2701SOL     OW25244   5.523   6.207   0.809
 2701SOL    HW125245   5.478   6.286   0.783
 2701SOL    HW225246   5.454   6.143   0.825
 2702SOL     OW25247   0.541   2.468   6.682
 2702SOL    HW125248   0.530   2.375   6.660
 2702SOL    HW225249   0.499   2.477   6.767
 2703SOL     OW25250   3.967   3.356   7.493
 2703SOL    HW125251   3.997   3.266   7.502
 2703SOL    HW225252   4.031   3.408   7.541
 2704SOL     OW25253   3.784   1.793   1.394
 2704SOL    HW125254   3.725   1.717   1.391
 2704SOL    HW225255   3.740   1.860   1.341
 2705SOL     OW25256   0.285   0.385   7.444
 2705SOL    HW125257   0.366   0.370   7.396
 2705SOL    HW225258   0.217   0.351   7.386
 2706SOL     OW25259   4.524   0.556   0.399
 2706SOL    HW125260   4.527   0.634   0.455
 2706SOL    HW225261   4.506   0.590   0.312
 2707SOL     OW25262   6.042   4.279   7.582
 2707SOL    HW125263   6.064   4.356   7.529
 2707SOL    HW225264   6.033   4.313   7.671
 2708SOL     OW25265   0.111   1.837   6.337
 2708SOL    HW125266   0.097   1.823   6.430
 2708SOL    HW225267   0.042   1.785   6.294
 2709SOL     OW25268   2.277   1.968   6.906
 2709SOL    HW125269   2.225   2.039   6.870
 2709SOL    HW225270   2.367   2.001   6.906
 2710SOL     OW25271   0.225   4.734   0.846
 2710SOL    HW125272   0.297   4.694   0.797
 2710SOL    HW225273   0.267   4.802   0.899
 2711SOL     OW25274   4.038   0.108   7.650
 2711SOL    HW125275   4.118   0.085   7.602
 2711SOL    HW225276   4.069   0.144   7.733
 2712SOL     OW25277   5.730   2.919   0.003
 2712SOL    HW125278   5.802   2.899  -0.057
 2712SOL    HW225279   5.770   2.914   0.090
 2713SOL     OW25280   6.137   5.791   0.524
 2713SOL    HW125281   6.160   5.803   0.432
 2713SOL    HW225282   6.046   5.759   0.522
 2714SOL     OW25283   3.366   4.836   0.075
 2714SOL    HW125284   3.451   4.838   0.031
 2714SOL    HW225285   3.304   4.809   0.007
 2715SOL     OW25286   2.580   0.313   0.643
 2715SOL    HW125287   2.584   0.217   0.648
 2715SOL    HW225288   2.493   0.335   0.677
 2716SOL     OW25289   1.626   3.872   6.747
 2716SOL    HW125290   1.714   3.836   6.755
 2716SOL    HW225291   1.599   3.850   6.658
 2717SOL     OW25292   2.634   1.184   0.707
 2717SOL    HW125293   2.579   1.106   0.711
 2717SOL    HW225294   2.677   1.189   0.792
 2718SOL     OW25295   1.122   3.814   0.361
 2718SOL    HW125296   1.207   3.770   0.370
 2718SOL    HW225297   1.074   3.760   0.298
 2719SOL     OW25298   2.434   3.299   7.189
 2719SOL    HW125299   2.366   3.358   7.157
 2719SOL    HW225300   2.513   3.327   7.144
 2720SOL     OW25301   4.149   0.396   6.383
 2720SOL    HW125302   4.063   0.364   6.356
 2720SOL    HW225303   4.134   0.440   6.466
 2721SOL     OW25304   5.079   2.074   7.660
 2721SOL    HW125305   5.046   2.163   7.648
 2721SOL    HW225306   5.160   2.072   7.608
 2722SOL     OW25307   4.479   4.371   1.913
 2722SOL    HW125308   4.457   4.319   1.990
 2722SOL    HW225309   4.556   4.422   1.940
 2723SOL     OW25310   2.566   3.729   0.116
 2723SOL    HW125311   2.585   3.666   0.186
 2723SOL    HW225312   2.567   3.677   0.036
 2724SOL     OW25313   5.151   0.993   7.137
 2724SOL    HW125314   5.061   1.017   7.157
 2724SOL    HW225315   5.143   0.915   7.081
 2725SOL     OW25316   4.157   4.300   0.087
 2725SOL    HW125317   4.115   4.382   0.113
 2725SOL    HW225318   4.251   4.317   0.098
 2726SOL     OW25319   5.389   2.989   1.765
 2726SOL    HW125320   5.296   2.965   1.769
 2726SOL    HW225321   5.418   2.986   1.856
 2727SOL     OW25322   1.768   3.351   7.007
 2727SOL    HW125323   1.732   3.356   6.919
 2727SOL    HW225324   1.730   3.272   7.045
 2728SOL     OW25325   5.504   2.506   1.776
 2728SOL    HW125326   5.520   2.572   1.843
 2728SOL    HW225327   5.482   2.556   1.697
 2729SOL     OW25328   5.821   3.202   5.685
 2729SOL    HW125329   5.914   3.218   5.696
 2729SOL    HW225330   5.808   3.200   5.590
 2730SOL     OW25331   3.094   2.091   5.658
 2730SOL    HW125332   3.014   2.059   5.617
 2730SOL    HW225333   3.150   2.014   5.666
 2731SOL     OW25334   6.088   6.321   1.050
 2731SOL    HW125335   6.010   6.319   1.104
 2731SOL    HW225336   6.063   6.277   0.969
 2732SOL     OW25337   1.049   1.252   1.584
 2732SOL    HW125338   1.128   1.203   1.607
 2732SOL    HW225339   1.081   1.330   1.540
 2733SOL     OW25340   3.377   0.122   7.579
 2733SOL    HW125341   3.296   0.071   7.576
 2733SOL    HW225342   3.406   0.126   7.488
 2734SOL     OW25343   1.573   0.487   0.706
 2734SOL    HW125344   1.503   0.548   0.727
 2734SOL    HW225345   1.529   0.415   0.661
 2735SOL     OW25346   1.008   3.278   6.500
 2735SOL    HW125347   1.083   3.260   6.556
 2735SOL    HW225348   0.997   3.198   6.449
 2736SOL     OW25349   1.606   0.367   6.464
 2736SOL    HW125350   1.653   0.338   6.542
 2736SOL    HW225351   1.514   0.366   6.489
 2737SOL     OW25352   1.957   3.206   0.400
 2737SOL    HW125353   1.939   3.290   0.357
 2737SOL    HW225354   1.882   3.193   0.459
 2738SOL     OW25355   1.398   3.817   7.566
 2738SOL    HW125356   1.381   3.898   7.519
 2738SOL    HW225357   1.405   3.750   7.498
 2739SOL     OW25358   3.776   0.568   6.129
 2739SOL    HW125359   3.773   0.489   6.182
 2739SOL    HW225360   3.766   0.640   6.191
 2740SOL     OW25361   0.775   1.026   1.443
 2740SOL    HW125362   0.812   0.939   1.458
 2740SOL    HW225363   0.686   1.021   1.478
 2741SOL     OW25364   2.802   1.416   0.222
 2741SOL    HW125365   2.735   1.408   0.155
 2741SOL    HW225366   2.754   1.416   0.305
 2742SOL     OW25367   0.152   5.596   0.892
 2742SOL    HW125368   0.090   5.603   0.965
 2742SOL    HW225369   0.116   5.528   0.835
 2743SOL     OW25370   1.599   6.057   6.117
 2743SOL    HW125371   1.539   6.022   6.051
 2743SOL    HW225372   1.559   6.139   6.145
 2744SOL     OW25373   0.751   6.355   1.701
 2744SOL    HW125374   0.677   6.352   1.761
 2744SOL    HW225375   0.825   6.382   1.756
 2745SOL     OW25376   0.905   3.073   0.787
 2745SOL    HW125377   0.920   2.995   0.839
 2745SOL    HW225378   0.853   3.043   0.713
 2746SOL     OW25379   0.190   5.781   0.027
 2746SOL    HW125380   0.163   5.873   0.026
 2746SOL    HW225381   0.132   5.740   0.090
 2747SOL     OW25382   4.704   0.161   7.884
 2747SOL    HW125383   4.794   0.158   7.851
 2747SOL    HW225384   4.711   0.194   7.973
 2748SOL     OW25385   5.705   5.568   0.254
 2748SOL    HW125386   5.617   5.564   0.290
 2748SOL    HW225387   5.746   5.486   0.283
 2749SOL     OW25388   5.169   3.605   6.759
 2749SOL    HW125389   5.250   3.606   6.811
 2749SOL    HW225390   5.117   3.678   6.793
 2750SOL     OW25391   1.343   3.092   5.773
 2750SOL    HW125392   1.269   3.151   5.755
 2750SOL    HW225393   1.313   3.007   5.742
 2751SOL     OW25394   3.343   1.029   5.979
 2751SOL    HW125395   3.267   1.019   5.921
 2751SOL    HW225396   3.387   0.944   5.976
 2752SOL     OW25397   4.065   3.937   7.170
 2752SOL    HW125398   4.085   3.844   7.181
 2752SOL    HW225399   4.003   3.940   7.098
 2753SOL     OW25400   1.456   6.364   1.685
 2753SOL    HW125401   1.420   6.282   1.650
 2753SOL    HW225402   1.458   6.423   1.610
 2754SOL     OW25403   1.653   4.102   1.093
 2754SOL    HW125404   1.595   4.174   1.069
 2754SOL    HW225405   1.724   4.106   1.029
 2755SOL     OW25406   3.136   2.812   7.001
 2755SOL    HW125407   3.175   2.726   7.015
 2755SOL    HW225408   3.211   2.872   6.993
 2756SOL     OW25409   3.068   3.539   6.401
 2756SOL    HW125410   3.077   3.502   6.314
 2756SOL    HW225411   2.983   3.508   6.433
 2757SOL     OW25412   5.941   0.645   0.307
 2757SOL    HW125413   5.878   0.629   0.377
 2757SOL    HW225414   5.905   0.719   0.258
 2758SOL     OW25415   1.017   0.649   6.950
 2758SOL    HW125416   1.021   0.563   6.909
 2758SOL    HW225417   1.108   0.671   6.969
 2759SOL     OW25418   5.330   1.689   0.223
 2759SOL    HW125419   5.287   1.611   0.187
 2759SOL    HW225420   5.390   1.654   0.290
 2760SOL     OW25421   2.187   3.173   6.699
 2760SOL    HW125422   2.120   3.132   6.753
 2760SOL    HW225423   2.242   3.220   6.761
 2761SOL     OW25424   0.541   1.222   7.396
 2761SOL    HW125425   0.536   1.152   7.331
 2761SOL    HW225426   0.572   1.179   7.476
 2762SOL     OW25427   1.903   4.891   6.983
 2762SOL    HW125428   1.972   4.840   7.024
 2762SOL    HW225429   1.870   4.835   6.912
 2763SOL     OW25430   4.657   2.307   0.314
 2763SOL    HW125431   4.600   2.368   0.267
 2763SOL    HW225432   4.598   2.237   0.343
 2764SOL     OW25433   5.957   2.809   7.784
 2764SOL    HW125434   6.031   2.761   7.821
 2764SOL    HW225435   5.917   2.748   7.722
 2765SOL     OW25436   1.295   1.993   6.195
 2765SOL    HW125437   1.291   1.989   6.100
 2765SOL    HW225438   1.380   2.035   6.214
 2766SOL     OW25439   0.122   3.720   6.902
 2766SOL    HW125440   0.093   3.810   6.919
 2766SOL    HW225441   0.205   3.731   6.854
 2767SOL     OW25442   6.060   0.326   6.116
 2767SOL    HW125443   6.031   0.414   6.138
 2767SOL    HW225444   6.152   0.324   6.143
 2768SOL     OW25445   3.374   4.651   7.180
 2768SOL    HW125446   3.282   4.624   7.170
 2768SOL    HW225447   3.413   4.633   7.094
 2769SOL     OW25448   2.506   5.919   6.628
 2769SOL    HW125449   2.539   5.841   6.673
 2769SOL    HW225450   2.419   5.934   6.666
 2770SOL     OW25451   0.137   3.765   6.238
 2770SOL    HW125452   0.065   3.708   6.268
 2770SOL    HW225453   0.152   3.824   6.312
 2771SOL     OW25454   1.508   5.761   7.127
 2771SOL    HW125455   1.576   5.716   7.176
 2771SOL    HW225456   1.465   5.818   7.191
 2772SOL     OW25457   4.437   2.255   1.441
 2772SOL    HW125458   4.461   2.286   1.528
 2772SOL    HW225459   4.429   2.160   1.450
 2773SOL     OW25460   3.550   1.010   5.681
 2773SOL    HW125461   3.634   0.981   5.717
 2773SOL    HW225462   3.532   1.093   5.725
 2774SOL     OW25463   1.000   1.044   0.879
 2774SOL    HW125464   1.070   1.065   0.940
 2774SOL    HW225465   0.972   1.128   0.844
 2775SOL     OW25466   2.599   3.184   7.436
 2775SOL    HW125467   2.510   3.150   7.421
 2775SOL    HW225468   2.646   3.112   7.476
 2776SOL     OW25469   0.225   2.272   5.994
 2776SOL    HW125470   0.146   2.250   6.043
 2776SOL    HW225471   0.293   2.280   6.060
 2777SOL     OW25472   6.004   0.245   6.842
 2777SOL    HW125473   5.921   0.287   6.865
 2777SOL    HW225474   5.980   0.178   6.779
 2778SOL     OW25475   5.816   4.234   7.927
 2778SOL    HW125476   5.840   4.325   7.942
 2778SOL    HW225477   5.730   4.225   7.968
 2779SOL     OW25478   4.880   4.036   0.107
 2779SOL    HW125479   4.936   4.103   0.068
 2779SOL    HW225480   4.850   4.075   0.189
 2780SOL     OW25481   2.047   1.453   0.590
 2780SOL    HW125482   1.971   1.411   0.631
 2780SOL    HW225483   2.093   1.495   0.663
 2781SOL     OW25484   3.579   4.437   7.914
 2781SOL    HW125485   3.588   4.379   7.989
 2781SOL    HW225486   3.558   4.378   7.841
 2782SOL     OW25487   5.885   0.357   5.580
 2782SOL    HW125488   5.836   0.275   5.575
 2782SOL    HW225489   5.880   0.382   5.673
 2783SOL     OW25490   1.882   1.414   2.512
 2783SOL    HW125491   1.898   1.336   2.565
 2783SOL    HW225492   1.828   1.470   2.569
 2784SOL     OW25493   1.779   0.553   7.608
 2784SOL    HW125494   1.707   0.493   7.587
 2784SOL    HW225495   1.812   0.581   7.522
 2785SOL     OW25496   1.343   4.002   6.368
 2785SOL    HW125497   1.337   4.064   6.441
 2785SOL    HW225498   1.252   3.977   6.350
 2786SOL     OW25499   1.476   6.044   1.227
 2786SOL    HW125500   1.489   5.949   1.224
 2786SOL    HW225501   1.390   6.056   1.267
 2787SOL     OW25502   1.928   2.710   7.863
 2787SOL    HW125503   1.907   2.737   7.773
 2787SOL    HW225504   1.991   2.638   7.852
 2788SOL     OW25505   3.294   2.580   7.056
 2788SOL    HW125506   3.380   2.620   7.045
 2788SOL    HW225507   3.275   2.589   7.150
 2789SOL     OW25508   3.102   5.299   0.572
 2789SOL    HW125509   3.192   5.322   0.598
 2789SOL    HW225510   3.106   5.205   0.555
 2790SOL     OW25511   4.435   5.439   0.360
 2790SOL    HW125512   4.437   5.464   0.452
 2790SOL    HW225513   4.516   5.389   0.347
 2791SOL     OW25514   3.131   5.724   7.777
 2791SOL    HW125515   3.154   5.688   7.692
 2791SOL    HW225516   3.096   5.650   7.827
 2792SOL     OW25517   2.435   4.370   1.152
 2792SOL    HW125518   2.484   4.449   1.129
 2792SOL    HW225519   2.438   4.317   1.073
 2793SOL     OW25520   4.754   0.785   0.823
 2793SOL    HW125521   4.704   0.811   0.900
 2793SOL    HW225522   4.792   0.867   0.791
 2794SOL     OW25523   5.455   6.146   6.781
 2794SOL    HW125524   5.374   6.167   6.829
 2794SOL    HW225525   5.439   6.060   6.743
 2795SOL     OW25526   1.540   4.316   6.958
 2795SOL    HW125527   1.512   4.233   6.920
 2795SOL    HW225528   1.470   4.378   6.936
 2796SOL     OW25529   0.334   0.070   7.425
 2796SOL    HW125530   0.380   0.129   7.366
 2796SOL    HW225531   0.387   0.069   7.504
 2797SOL     OW25532   4.394   5.824   7.832
 2797SOL    HW125533   4.403   5.738   7.872
 2797SOL    HW225534   4.360   5.880   7.902
 2798SOL     OW25535   2.363   0.967   7.551
 2798SOL    HW125536   2.301   1.011   7.492
 2798SOL    HW225537   2.312   0.947   7.629
 2799SOL     OW25538   1.032   0.031   0.431
 2799SOL    HW125539   1.036   0.032   0.336
 2799SOL    HW225540   0.969   0.100   0.453
 2800SOL     OW25541   5.931   5.223   6.610
 2800SOL    HW125542   5.976   5.139   6.616
 2800SOL    HW225543   5.874   5.225   6.687
 2801SOL     OW25544   5.384   3.916   0.481
 2801SOL    HW125545   5.302   3.912   0.432
 2801SOL    HW225546   5.400   4.010   0.494
 2802SOL     OW25547   3.841   5.707   1.827
 2802SOL    HW125548   3.908   5.678   1.766
 2802SOL    HW225549   3.875   5.680   1.913
 2803SOL     OW25550   3.776   5.436   0.813
 2803SOL    HW125551   3.809   5.507   0.867
 2803SOL    HW225552   3.797   5.462   0.723
 2804SOL     OW25553   3.536   2.250   0.777
 2804SOL    HW125554   3.629   2.239   0.794
 2804SOL    HW225555   3.531   2.327   0.721
 2805SOL     OW25556   2.023   3.346   6.865
 2805SOL    HW125557   2.017   3.251   6.878
 2805SOL    HW225558   1.962   3.383   6.928
 2806SOL     OW25559   4.410   5.567   0.833
 2806SOL    HW125560   4.449   5.517   0.905
 2806SOL    HW225561   4.322   5.530   0.823
 2807SOL     OW25562   2.549   3.457   2.151
 2807SOL    HW125563   2.549   3.549   2.178
 2807SOL    HW225564   2.555   3.460   2.056
 2808SOL     OW25565   2.505   3.546   7.819
 2808SOL    HW125566   2.558   3.467   7.832
 2808SOL    HW225567   2.543   3.587   7.741
 2809SOL     OW25568   2.810   0.440   7.534
 2809SOL    HW125569   2.819   0.481   7.448
 2809SOL    HW225570   2.900   0.428   7.564
 2810SOL     OW25571   0.075   4.718   1.954
 2810SOL    HW125572   0.044   4.807   1.972
 2810SOL    HW225573  -0.005   4.665   1.951
 2811SOL     OW25574   5.592   2.716   6.968
 2811SOL    HW125575   5.510   2.667   6.980
 2811SOL    HW225576   5.570   2.805   6.996
 2812SOL     OW25577   2.540   1.987   6.706
 2812SOL    HW125578   2.573   2.009   6.793
 2812SOL    HW225579   2.515   2.071   6.667
 2813SOL     OW25580   1.952   2.047   0.956
 2813SOL    HW125581   1.995   2.031   1.040
 2813SOL    HW225582   1.859   2.029   0.972
 2814SOL     OW25583   4.839   5.032   2.286
 2814SOL    HW125584   4.873   5.116   2.320
 2814SOL    HW225585   4.785   5.058   2.211
 2815SOL     OW25586   3.922   4.558   1.990
 2815SOL    HW125587   3.858   4.487   1.993
 2815SOL    HW225588   3.869   4.638   2.001
 2816SOL     OW25589   5.738   1.609   6.215
 2816SOL    HW125590   5.718   1.529   6.264
 2816SOL    HW225591   5.796   1.581   6.144
 2817SOL     OW25592   1.007   3.663   7.557
 2817SOL    HW125593   1.021   3.621   7.472
 2817SOL    HW225594   0.941   3.730   7.541
 2818SOL     OW25595   3.487   1.818   6.135
 2818SOL    HW125596   3.418   1.877   6.106
 2818SOL    HW225597   3.446   1.764   6.202
 2819SOL     OW25598   4.157   4.004   7.421
 2819SOL    HW125599   4.141   3.978   7.330
 2819SOL    HW225600   4.078   3.977   7.468
 2820SOL     OW25601   1.987   6.265   0.277
 2820SOL    HW125602   2.057   6.294   0.218
 2820SOL    HW225603   2.025   6.192   0.325
 2821SOL     OW25604   5.388   5.683   6.208
 2821SOL    HW125605   5.356   5.718   6.125
 2821SOL    HW225606   5.317   5.629   6.241
 2822SOL     OW25607   4.658   3.142   7.883
 2822SOL    HW125608   4.703   3.215   7.841
 2822SOL    HW225609   4.694   3.140   7.972
 2823SOL     OW25610   3.392   2.979   6.495
 2823SOL    HW125611   3.306   2.985   6.537
 2823SOL    HW225612   3.375   2.994   6.402
 2824SOL     OW25613   3.541   1.181   7.587
 2824SOL    HW125614   3.501   1.237   7.521
 2824SOL    HW225615   3.555   1.097   7.543
 2825SOL     OW25616   0.371   0.628   0.112
 2825SOL    HW125617   0.455   0.611   0.069
 2825SOL    HW225618   0.308   0.576   0.063
 2826SOL     OW25619   3.022   0.305   6.993
 2826SOL    HW125620   2.971   0.280   7.070
 2826SOL    HW225621   2.968   0.277   6.918
 2827SOL     OW25622   4.198   4.952   0.835
 2827SOL    HW125623   4.213   5.030   0.888
 2827SOL    HW225624   4.282   4.934   0.793
 2828SOL     OW25625   1.371   0.874   5.575
 2828SOL    HW125626   1.335   0.806   5.631
 2828SOL    HW225627   1.298   0.901   5.519
 2829SOL     OW25628   1.927   1.656   0.942
 2829SOL    HW125629   1.896   1.667   1.032
 2829SOL    HW225630   2.020   1.676   0.946
 2830SOL     OW25631   3.918   5.584   7.821
 2830SOL    HW125632   3.988   5.530   7.785
 2830SOL    HW225633   3.837   5.540   7.793
 2831SOL     OW25634   2.307   3.787   0.730
 2831SOL    HW125635   2.374   3.774   0.663
 2831SOL    HW225636   2.239   3.837   0.685
 2832SOL     OW25637   2.865   1.669   0.420
 2832SOL    HW125638   2.929   1.653   0.351
 2832SOL    HW225639   2.786   1.697   0.373
 2833SOL     OW25640   2.026   3.019   6.281
 2833SOL    HW125641   1.993   3.087   6.221
 2833SOL    HW225642   1.974   2.941   6.259
 2834SOL     OW25643   3.240   6.361   1.975
 2834SOL    HW125644   3.182   6.434   1.952
 2834SOL    HW225645   3.310   6.401   2.027
 2835SOL     OW25646   0.560   2.326   1.321
 2835SOL    HW125647   0.591   2.410   1.355
 2835SOL    HW225648   0.548   2.342   1.227
 2836SOL     OW25649   0.589   5.899   0.269
 2836SOL    HW125650   0.632   5.980   0.297
 2836SOL    HW225651   0.557   5.919   0.181
 2837SOL     OW25652   1.548   4.537   0.838
 2837SOL    HW125653   1.481   4.603   0.816
 2837SOL    HW225654   1.523   4.460   0.787
 2838SOL     OW25655   5.447   0.062   0.736
 2838SOL    HW125656   5.484   0.150   0.743
 2838SOL    HW225657   5.356   0.076   0.708
 2839SOL     OW25658   3.956   6.105   1.717
 2839SOL    HW125659   3.910   6.185   1.743
 2839SOL    HW225660   4.038   6.137   1.678
 2840SOL     OW25661   4.692   4.313   7.791
 2840SOL    HW125662   4.728   4.360   7.716
 2840SOL    HW225663   4.683   4.222   7.761
 2841SOL     OW25664   4.170   3.453   6.705
 2841SOL    HW125665   4.102   3.509   6.742
 2841SOL    HW225666   4.236   3.514   6.673
 2842SOL     OW25667   1.307   0.754   7.055
 2842SOL    HW125668   1.289   0.732   7.146
 2842SOL    HW225669   1.403   0.754   7.048
 2843SOL     OW25670   0.675   5.032   0.427
 2843SOL    HW125671   0.730   5.077   0.491
 2843SOL    HW225672   0.712   5.056   0.342
 2844SOL     OW25673   4.522   2.596   7.738
 2844SOL    HW125674   4.447   2.621   7.684
 2844SOL    HW225675   4.510   2.643   7.820
 2845SOL     OW25676   1.036   2.861   1.778
 2845SOL    HW125677   0.947   2.829   1.795
 2845SOL    HW225678   1.092   2.806   1.833
 2846SOL     OW25679   3.450   3.022   7.167
 2846SOL    HW125680   3.356   3.016   7.151
 2846SOL    HW225681   3.484   3.072   7.092
 2847SOL     OW25682   1.491   5.385   1.748
 2847SOL    HW125683   1.412   5.437   1.759
 2847SOL    HW225684   1.461   5.300   1.716
 2848SOL     OW25685   3.923   0.365   5.755
 2848SOL    HW125686   3.957   0.346   5.842
 2848SOL    HW225687   4.001   0.375   5.701
 2849SOL     OW25688   6.333   5.610   7.336
 2849SOL    HW125689   6.422   5.587   7.308
 2849SOL    HW225690   6.341   5.699   7.369
 2850SOL     OW25691   1.265   5.824   6.767
 2850SOL    HW125692   1.303   5.737   6.780
 2850SOL    HW225693   1.224   5.821   6.681
 2851SOL     OW25694   5.787   5.072   0.395
 2851SOL    HW125695   5.825   5.001   0.448
 2851SOL    HW225696   5.710   5.033   0.354
 2852SOL     OW25697   5.659   1.320   1.413
 2852SOL    HW125698   5.715   1.397   1.406
 2852SOL    HW225699   5.596   1.330   1.342
 2853SOL     OW25700   1.080   4.717   7.296
 2853SOL    HW125701   1.020   4.792   7.296
 2853SOL    HW225702   1.108   4.710   7.204
 2854SOL     OW25703   1.899   6.212   0.583
 2854SOL    HW125704   1.862   6.126   0.560
 2854SOL    HW225705   1.837   6.275   0.546
 2855SOL     OW25706   5.092   5.468   0.045
 2855SOL    HW125707   5.092   5.528   0.119
 2855SOL    HW225708   5.182   5.437   0.038
 2856SOL     OW25709   5.331   0.100   7.399
 2856SOL    HW125710   5.407   0.156   7.382
 2856SOL    HW225711   5.263   0.133   7.341
 2857SOL     OW25712   1.410   1.968   6.592
 2857SOL    HW125713   1.484   1.931   6.544
 2857SOL    HW225714   1.406   2.059   6.564
 2858SOL     OW25715   1.784   4.237   6.573
 2858SOL    HW125716   1.863   4.279   6.539
 2858SOL    HW225717   1.779   4.266   6.664
 2859SOL     OW25718   1.572   6.313   0.234
 2859SOL    HW125719   1.571   6.349   0.145
 2859SOL    HW225720   1.555   6.220   0.222
 2860SOL     OW25721   0.968  -0.003   6.953
 2860SOL    HW125722   0.941   0.074   6.903
 2860SOL    HW225723   0.935   0.014   7.042
 2861SOL     OW25724   5.982   2.845   1.502
 2861SOL    HW125725   5.978   2.835   1.597
 2861SOL    HW225726   6.005   2.937   1.488
 2862SOL     OW25727   0.629   6.248   6.715
 2862SOL    HW125728   0.722   6.272   6.709
 2862SOL    HW225729   0.612   6.242   6.809
 2863SOL     OW25730   4.073   1.259   7.561
 2863SOL    HW125731   4.133   1.194   7.524
 2863SOL    HW225732   4.000   1.262   7.500
 2864SOL     OW25733   4.644   5.220   0.372
 2864SOL    HW125734   4.674   5.210   0.462
 2864SOL    HW225735   4.722   5.207   0.319
 2865SOL     OW25736   2.088   4.276   5.402
 2865SOL    HW125737   2.038   4.357   5.415
 2865SOL    HW225738   2.179   4.306   5.394
 2866SOL     OW25739   1.913   0.479   0.033
 2866SOL    HW125740   1.846   0.435   0.085
 2866SOL    HW225741   1.864   0.545  -0.017
 2867SOL     OW25742   0.723   3.092   1.996
 2867SOL    HW125743   0.809   3.050   2.004
 2867SOL    HW225744   0.666   3.023   1.963
 2868SOL     OW25745   4.308   0.516   7.622
 2868SOL    HW125746   4.233   0.465   7.655
 2868SOL    HW225747   4.365   0.450   7.582
 2869SOL     OW25748   1.292   5.562   6.654
 2869SOL    HW125749   1.201   5.537   6.668
 2869SOL    HW225750   1.342   5.500   6.708
 2870SOL     OW25751   5.090   4.363   0.805
 2870SOL    HW125752   5.137   4.358   0.888
 2870SOL    HW225753   5.002   4.332   0.825
 2871SOL     OW25754   4.688   2.667   0.632
 2871SOL    HW125755   4.593   2.667   0.647
 2871SOL    HW225756   4.700   2.722   0.555
 2872SOL     OW25757   1.993   1.956   5.630
 2872SOL    HW125758   1.915   1.988   5.583
 2872SOL    HW225759   1.959   1.889   5.689
 2873SOL     OW25760   0.439   1.835   0.846
 2873SOL    HW125761   0.480   1.765   0.896
 2873SOL    HW225762   0.464   1.915   0.893
 2874SOL     OW25763   5.795   2.721   1.748
 2874SOL    HW125764   5.855   2.791   1.775
 2874SOL    HW225765   5.799   2.658   1.820
 2875SOL     OW25766   1.364   1.741   0.501
 2875SOL    HW125767   1.308   1.762   0.426
 2875SOL    HW225768   1.305   1.747   0.577
 2876SOL     OW25769   0.026   4.475   1.744
 2876SOL    HW125770   0.009   4.530   1.820
 2876SOL    HW225771   0.115   4.442   1.758
 2877SOL     OW25772   5.751   3.299   0.692
 2877SOL    HW125773   5.783   3.338   0.611
 2877SOL    HW225774   5.679   3.242   0.666
 2878SOL     OW25775   0.097   1.495   6.036
 2878SOL    HW125776   0.148   1.575   6.040
 2878SOL    HW225777   0.141   1.441   5.970
 2879SOL     OW25778   0.659   3.007   0.010
 2879SOL    HW125779   0.662   3.099  -0.015
 2879SOL    HW225780   0.613   2.964  -0.062
 2880SOL     OW25781   4.909   0.913   2.022
 2880SOL    HW125782   4.988   0.862   2.001
 2880SOL    HW225783   4.856   0.853   2.074
 2881SOL     OW25784   4.585   0.545   5.670
 2881SOL    HW125785   4.642   0.535   5.594
 2881SOL    HW225786   4.496   0.537   5.634
 2882SOL     OW25787   5.349   3.238   1.582
 2882SOL    HW125788   5.390   3.160   1.620
 2882SOL    HW225789   5.370   3.308   1.643
 2883SOL     OW25790   1.365   1.530   0.147
 2883SOL    HW125791   1.437   1.592   0.163
 2883SOL    HW225792   1.400   1.472   0.079
 2884SOL     OW25793   5.036   4.173   1.573
 2884SOL    HW125794   5.074   4.158   1.486
 2884SOL    HW225795   5.095   4.236   1.614
 2885SOL     OW25796   6.012   5.717   7.310
 2885SOL    HW125797   6.030   5.624   7.300
 2885SOL    HW225798   5.937   5.733   7.252
 2886SOL     OW25799   6.197   0.767   0.146
 2886SOL    HW125800   6.131   0.812   0.094
 2886SOL    HW225801   6.149   0.726   0.217
 2887SOL     OW25802   5.466   0.610   6.181
 2887SOL    HW125803   5.459   0.646   6.270
 2887SOL    HW225804   5.549   0.643   6.149
 2888SOL     OW25805   1.133   1.825   0.317
 2888SOL    HW125806   1.102   1.735   0.328
 2888SOL    HW225807   1.109   1.848   0.227
 2889SOL     OW25808   5.507   0.458   1.096
 2889SOL    HW125809   5.584   0.447   1.039
 2889SOL    HW225810   5.544   0.487   1.180
 2890SOL     OW25811   1.485   3.789   0.693
 2890SOL    HW125812   1.574   3.809   0.721
 2890SOL    HW225813   1.464   3.858   0.630
 2891SOL     OW25814   1.338   6.377   1.068
 2891SOL    HW125815   1.352   6.376   0.974
 2891SOL    HW225816   1.328   6.470   1.090
 2892SOL     OW25817   5.919   6.316   0.854
 2892SOL    HW125818   5.852   6.329   0.787
 2892SOL    HW225819   5.922   6.400   0.901
 2893SOL     OW25820   2.588   3.437   0.343
 2893SOL    HW125821   2.528   3.404   0.276
 2893SOL    HW225822   2.531   3.475   0.410
 2894SOL     OW25823   3.362   1.482   5.425
 2894SOL    HW125824   3.302   1.520   5.490
 2894SOL    HW225825   3.448   1.485   5.467
 2895SOL     OW25826   5.566   6.273   1.063
 2895SOL    HW125827   5.563   6.367   1.041
 2895SOL    HW225828   5.555   6.229   0.979
 2896SOL     OW25829   0.344   5.315   0.781
 2896SOL    HW125830   0.368   5.222   0.790
 2896SOL    HW225831   0.386   5.342   0.699
 2897SOL     OW25832   1.979   5.413   7.147
 2897SOL    HW125833   2.005   5.357   7.220
 2897SOL    HW225834   1.976   5.501   7.185
 2898SOL     OW25835   0.597   5.035   6.546
 2898SOL    HW125836   0.691   5.046   6.554
 2898SOL    HW225837   0.567   5.114   6.500
 2899SOL     OW25838   6.169   1.222   1.243
 2899SOL    HW125839   6.247   1.188   1.286
 2899SOL    HW225840   6.197   1.303   1.201
 2900SOL     OW25841   5.039   5.898   7.464
 2900SOL    HW125842   5.092   5.825   7.497
 2900SOL    HW225843   5.051   5.967   7.530
 2901SOL     OW25844   5.944   1.893   0.368
 2901SOL    HW125845   5.858   1.909   0.407
 2901SOL    HW225846   5.925   1.865   0.279
 2902SOL     OW25847   2.950   2.503   0.133
 2902SOL    HW125848   2.984   2.550   0.210
 2902SOL    HW225849   2.998   2.420   0.132
 2903SOL     OW25850   6.283   0.720   6.511
 2903SOL    HW125851   6.291   0.815   6.514
 2903SOL    HW225852   6.326   0.691   6.592
 2904SOL     OW25853   1.617   4.002   0.147
 2904SOL    HW125854   1.552   4.008   0.077
 2904SOL    HW225855   1.603   3.915   0.185
 2905SOL     OW25856   2.822   2.230   1.883
 2905SOL    HW125857   2.774   2.293   1.937
 2905SOL    HW225858   2.764   2.154   1.878
 2906SOL     OW25859   3.915   3.640   0.777
 2906SOL    HW125860   3.821   3.631   0.789
 2906SOL    HW225861   3.924   3.679   0.690
 2907SOL     OW25862   1.154   5.663   7.674
 2907SOL    HW125863   1.066   5.629   7.693
 2907SOL    HW225864   1.203   5.587   7.644
 2908SOL     OW25865   5.010   2.651   6.595
 2908SOL    HW125866   5.093   2.699   6.595
 2908SOL    HW225867   5.017   2.593   6.518
 2909SOL     OW25868   3.107   6.116   7.682
 2909SOL    HW125869   3.068   6.074   7.758
 2909SOL    HW225870   3.201   6.105   7.694
 2910SOL     OW25871   5.955   0.760   1.378
 2910SOL    HW125872   5.866   0.756   1.411
 2910SOL    HW225873   5.984   0.849   1.396
 2911SOL     OW25874   1.880   1.783   6.152
 2911SOL    HW125875   1.961   1.782   6.101
 2911SOL    HW225876   1.822   1.721   6.107
 2912SOL     OW25877   5.113   0.178   5.877
 2912SOL    HW125878   5.191   0.230   5.858
 2912SOL    HW225879   5.141   0.088   5.861
 2913SOL     OW25880   4.920   3.095   2.321
 2913SOL    HW125881   4.874   3.104   2.238
 2913SOL    HW225882   4.982   3.168   2.322
 2914SOL     OW25883   3.118   3.810   1.120
 2914SOL    HW125884   3.205   3.832   1.155
 2914SOL    HW225885   3.060   3.812   1.195
 2915SOL     OW25886   5.475   4.770   0.621
 2915SOL    HW125887   5.570   4.770   0.627
 2915SOL    HW225888   5.449   4.682   0.649
 2916SOL     OW25889   3.644   4.566   6.052
 2916SOL    HW125890   3.556   4.574   6.016
 2916SOL    HW225891   3.702   4.579   5.976
 2917SOL     OW25892   5.913   0.903   1.048
 2917SOL    HW125893   5.867   0.872   1.127
 2917SOL    HW225894   5.880   0.846   0.978
 2918SOL     OW25895   2.429   3.446   0.908
 2918SOL    HW125896   2.336   3.423   0.914
 2918SOL    HW225897   2.476   3.367   0.932
 2919SOL     OW25898   4.818   2.578   6.987
 2919SOL    HW125899   4.826   2.518   6.914
 2919SOL    HW225900   4.765   2.651   6.952
 2920SOL     OW25901   0.305   1.082   7.112
 2920SOL    HW125902   0.293   1.107   7.021
 2920SOL    HW225903   0.218   1.094   7.152
 2921SOL     OW25904   5.580   1.655   7.622
 2921SOL    HW125905   5.649   1.717   7.647
 2921SOL    HW225906   5.605   1.627   7.534
 2922SOL     OW25907   4.242   5.982   7.169
 2922SOL    HW125908   4.253   6.000   7.076
 2922SOL    HW225909   4.291   6.051   7.213
 2923SOL     OW25910   5.011   1.142   6.863
 2923SOL    HW125911   4.969   1.100   6.788
 2923SOL    HW225912   5.045   1.069   6.916
 2924SOL     OW25913   3.406   1.966   6.434
 2924SOL    HW125914   3.373   2.022   6.363
 2924SOL    HW225915   3.350   1.986   6.508
 2925SOL     OW25916   6.270   3.831   7.829
 2925SOL    HW125917   6.335   3.764   7.809
 2925SOL    HW225918   6.189   3.783   7.846
 2926SOL     OW25919   4.615   2.920   0.289
 2926SOL    HW125920   4.688   2.881   0.335
 2926SOL    HW225921   4.653   2.998   0.247
 2927SOL     OW25922   2.914   1.575   0.654
 2927SOL    HW125923   2.901   1.594   0.562
 2927SOL    HW225924   2.853   1.633   0.700
 2928SOL     OW25925   3.374   2.719   7.275
 2928SOL    HW125926   3.416   2.804   7.261
 2928SOL    HW225927   3.439   2.669   7.324
 2929SOL     OW25928   0.875   3.140   2.267
 2929SOL    HW125929   0.926   3.063   2.294
 2929SOL    HW225930   0.836   3.114   2.184
 2930SOL     OW25931   3.970   3.886   2.409
 2930SOL    HW125932   3.880   3.864   2.429
 2930SOL    HW225933   3.966   3.975   2.373
 2931SOL     OW25934   5.337   4.299   6.189
 2931SOL    HW125935   5.412   4.358   6.180
 2931SOL    HW225936   5.297   4.298   6.102
 2932SOL     OW25937   6.289   5.345   0.423
 2932SOL    HW125938   6.355   5.402   0.462
 2932SOL    HW225939   6.216   5.404   0.403
 2933SOL     OW25940   1.393   1.319   6.603
 2933SOL    HW125941   1.425   1.234   6.572
 2933SOL    HW225942   1.346   1.298   6.684
 2934SOL     OW25943   0.060   0.244   6.367
 2934SOL    HW125944  -0.015   0.262   6.423
 2934SOL    HW225945   0.034   0.275   6.280
 2935SOL     OW25946   1.855   1.457   6.839
 2935SOL    HW125947   1.850   1.377   6.787
 2935SOL    HW225948   1.880   1.524   6.775
 2936SOL     OW25949   5.526   3.625   1.232
 2936SOL    HW125950   5.484   3.561   1.290
 2936SOL    HW225951   5.616   3.630   1.263
 2937SOL     OW25952   5.956   4.362   6.853
 2937SOL    HW125953   6.007   4.390   6.777
 2937SOL    HW225954   5.970   4.431   6.918
 2938SOL     OW25955   0.978   5.834   6.890
 2938SOL    HW125956   0.929   5.907   6.852
 2938SOL    HW225957   1.068   5.848   6.859
 2939SOL     OW25958   2.910   2.918   6.278
 2939SOL    HW125959   2.947   2.970   6.207
 2939SOL    HW225960   2.970   2.931   6.352
 2940SOL     OW25961   5.140   5.434   0.639
 2940SOL    HW125962   5.131   5.340   0.654
 2940SOL    HW225963   5.232   5.445   0.615
 2941SOL     OW25964   0.353   3.981   5.800
 2941SOL    HW125965   0.364   4.076   5.795
 2941SOL    HW225966   0.316   3.966   5.886
 2942SOL     OW25967   5.228   4.649   7.493
 2942SOL    HW125968   5.267   4.563   7.512
 2942SOL    HW225969   5.191   4.639   7.405
 2943SOL     OW25970   2.116   5.998   0.747
 2943SOL    HW125971   2.026   6.006   0.780
 2943SOL    HW225972   2.142   6.088   0.727
 2944SOL     OW25973   5.047   3.498   1.032
 2944SOL    HW125974   5.067   3.538   1.116
 2944SOL    HW225975   5.006   3.568   0.981
 2945SOL     OW25976   4.461   0.636   6.434
 2945SOL    HW125977   4.420   0.630   6.520
 2945SOL    HW225978   4.430   0.559   6.386
 2946SOL     OW25979   6.354   2.259   5.106
 2946SOL    HW125980   6.395   2.343   5.126
 2946SOL    HW225981   6.418   2.213   5.052
 2947SOL     OW25982   3.655   5.887   7.609
 2947SOL    HW125983   3.592   5.941   7.562
 2947SOL    HW225984   3.613   5.801   7.614
 2948SOL     OW25985   0.685   3.565   6.714
 2948SOL    HW125986   0.675   3.602   6.802
 2948SOL    HW225987   0.771   3.522   6.716
 2949SOL     OW25988   5.611   1.970   7.322
 2949SOL    HW125989   5.647   1.927   7.244
 2949SOL    HW225990   5.664   2.049   7.332
 2950SOL     OW25991   2.064   4.720   0.681
 2950SOL    HW125992   2.137   4.677   0.726
 2950SOL    HW225993   2.008   4.753   0.752
 2951SOL     OW25994   3.026   0.622   6.547
 2951SOL    HW125995   3.109   0.581   6.523
 2951SOL    HW225996   2.974   0.550   6.583
 2952SOL     OW25997   5.594   1.157   7.176
 2952SOL    HW125998   5.680   1.196   7.161
 2952SOL    HW225999   5.566   1.194   7.259
 2953SOL     OW26000   4.995   4.757   7.607
 2953SOL    HW126001   5.078   4.717   7.580
 2953SOL    HW226002   4.955   4.785   7.525
 2954SOL     OW26003   0.370   5.208   7.238
 2954SOL    HW126004   0.383   5.288   7.188
 2954SOL    HW226005   0.361   5.237   7.329
 2955SOL     OW26006   5.515   5.521   0.584
 2955SOL    HW126007   5.514   5.613   0.609
 2955SOL    HW226008   5.590   5.484   0.631
 2956SOL     OW26009   5.326   5.451   6.615
 2956SOL    HW126010   5.293   5.538   6.637
 2956SOL    HW226011   5.374   5.463   6.533
 2957SOL     OW26012   5.734   3.540   1.047
 2957SOL    HW126013   5.700   3.597   0.977
 2957SOL    HW226014   5.819   3.577   1.070
 2958SOL     OW26015   4.843   1.295   0.099
 2958SOL    HW126016   4.909   1.332   0.041
 2958SOL    HW226017   4.764   1.347   0.083
 2959SOL     OW26018   6.041   1.628   7.593
 2959SOL    HW126019   6.020   1.708   7.545
 2959SOL    HW226020   6.041   1.559   7.527
 2960SOL     OW26021   6.148   2.970   0.261
 2960SOL    HW126022   6.163   3.053   0.306
 2960SOL    HW226023   6.235   2.933   0.249
 2961SOL     OW26024   1.190   4.422   1.972
 2961SOL    HW126025   1.142   4.505   1.973
 2961SOL    HW226026   1.123   4.357   1.952
 2962SOL     OW26027   3.196   1.979   6.196
 2962SOL    HW126028   3.226   2.001   6.108
 2962SOL    HW226029   3.217   1.886   6.206
 2963SOL     OW26030   4.069   5.148   7.646
 2963SOL    HW126031   4.150   5.137   7.596
 2963SOL    HW226032   4.075   5.083   7.716
 2964SOL     OW26033   4.277   1.999   6.640
 2964SOL    HW126034   4.366   2.019   6.669
 2964SOL    HW226035   4.221   2.050   6.697
 2965SOL     OW26036   5.480   4.436   0.077
 2965SOL    HW126037   5.411   4.434   0.143
 2965SOL    HW226038   5.475   4.524   0.039
 2966SOL     OW26039   3.866   3.111   7.898
 2966SOL    HW126040   3.952   3.072   7.881
 2966SOL    HW226041   3.849   3.166   7.821
 2967SOL     OW26042   5.622   6.396   7.165
 2967SOL    HW126043   5.644   6.337   7.093
 2967SOL    HW226044   5.706   6.413   7.209
 2968SOL     OW26045   4.341   6.299   5.415
 2968SOL    HW126046   4.283   6.248   5.360
 2968SOL    HW226047   4.366   6.240   5.486
 2969SOL     OW26048   4.296   3.957   0.763
 2969SOL    HW126049   4.386   3.946   0.797
 2969SOL    HW226050   4.262   4.032   0.811
 2970SOL     OW26051   0.834   3.426   2.316
 2970SOL    HW126052   0.846   3.454   2.406
 2970SOL    HW226053   0.824   3.331   2.322
 2971SOL     OW26054   4.461   6.251   6.062
 2971SOL    HW126055   4.365   6.249   6.059
 2971SOL    HW226056   4.488   6.197   5.987
 2972SOL     OW26057  -0.002   3.342   1.055
 2972SOL    HW126058   0.000   3.337   1.151
 2972SOL    HW226059   0.055   3.415   1.033
 2973SOL     OW26060   3.689   6.348   0.025
 2973SOL    HW126061   3.732   6.419  -0.023
 2973SOL    HW226062   3.628   6.309  -0.037
 2974SOL     OW26063   3.278   1.001   7.091
 2974SOL    HW126064   3.304   0.914   7.123
 2974SOL    HW226065   3.266   0.988   6.997
 2975SOL     OW26066   3.451   3.843   7.391
 2975SOL    HW126067   3.448   3.789   7.470
 2975SOL    HW226068   3.457   3.932   7.424
 2976SOL     OW26069   3.194   4.552   0.728
 2976SOL    HW126070   3.287   4.538   0.743
 2976SOL    HW226071   3.151   4.476   0.766
 2977SOL     OW26072   6.231   2.244   6.327
 2977SOL    HW126073   6.261   2.184   6.395
 2977SOL    HW226074   6.311   2.282   6.292
 2978SOL     OW26075   1.595   2.603   6.940
 2978SOL    HW126076   1.571   2.560   7.022
 2978SOL    HW226077   1.686   2.631   6.954
 2979SOL     OW26078   3.042   1.573   6.527
 2979SOL    HW126079   3.133   1.601   6.525
 2979SOL    HW226080   3.025   1.540   6.439
 2980SOL     OW26081   3.429   0.436   7.433
 2980SOL    HW126082   3.344   0.474   7.455
 2980SOL    HW226083   3.483   0.453   7.510
 2981SOL     OW26084   2.054   1.440   7.015
 2981SOL    HW126085   1.962   1.427   6.991
 2981SOL    HW226086   2.084   1.512   6.959
 2982SOL     OW26087   5.921   1.403   7.664
 2982SOL    HW126088   5.998   1.358   7.630
 2982SOL    HW226089   5.940   1.496   7.651
 2983SOL     OW26090   5.257   4.835   0.050
 2983SOL    HW126091   5.334   4.777   0.047
 2983SOL    HW226092   5.184   4.780   0.023
 2984SOL     OW26093   6.284   1.704   7.744
 2984SOL    HW126094   6.205   1.659   7.714
 2984SOL    HW226095   6.256   1.755   7.820
 2985SOL     OW26096   1.676   6.041   2.140
 2985SOL    HW126097   1.702   5.950   2.147
 2985SOL    HW226098   1.706   6.068   2.053
 2986SOL     OW26099   4.482   1.119   0.913
 2986SOL    HW126100   4.525   1.196   0.877
 2986SOL    HW226101   4.393   1.123   0.880
 2987SOL     OW26102   2.641   6.235   1.033
 2987SOL    HW126103   2.611   6.195   1.116
 2987SOL    HW226104   2.664   6.160   0.978
 2988SOL     OW26105   4.433   2.854   1.555
 2988SOL    HW126106   4.495   2.909   1.603
 2988SOL    HW226107   4.427   2.774   1.606
 2989SOL     OW26108   4.105   0.670   6.766
 2989SOL    HW126109   4.070   0.630   6.686
 2989SOL    HW226110   4.104   0.599   6.830
 2990SOL     OW26111   0.226   6.151   1.729
 2990SOL    HW126112   0.296   6.085   1.724
 2990SOL    HW226113   0.272   6.235   1.725
 2991SOL     OW26114   0.352   3.986   1.543
 2991SOL    HW126115   0.360   4.009   1.636
 2991SOL    HW226116   0.441   3.992   1.509
 2992SOL     OW26117   1.250   0.720   5.773
 2992SOL    HW126118   1.324   0.682   5.821
 2992SOL    HW226119   1.187   0.649   5.766
 2993SOL     OW26120   1.147   0.321   1.681
 2993SOL    HW126121   1.235   0.351   1.658
 2993SOL    HW226122   1.131   0.247   1.622
 2994SOL     OW26123   3.142   2.057   0.893
 2994SOL    HW126124   3.168   2.140   0.932
 2994SOL    HW226125   3.052   2.071   0.863
 2995SOL     OW26126   1.999   0.105   0.029
 2995SOL    HW126127   1.980   0.116  -0.064
 2995SOL    HW226128   1.913   0.092   0.069
 2996SOL     OW26129   1.842   6.175   1.956
 2996SOL    HW126130   1.930   6.137   1.951
 2996SOL    HW226131   1.800   6.150   1.874
 2997SOL     OW26132   0.650   4.126   0.570
 2997SOL    HW126133   0.610   4.109   0.485
 2997SOL    HW226134   0.743   4.111   0.557
 2998SOL     OW26135   3.975   2.434   1.220
 2998SOL    HW126136   4.032   2.372   1.264
 2998SOL    HW226137   3.887   2.409   1.248
 2999SOL     OW26138   4.272   4.084   2.270
 2999SOL    HW126139   4.289   4.015   2.335
 2999SOL    HW226140   4.194   4.128   2.304
 3000SOL     OW26141   5.765   4.332   1.841
 3000SOL    HW126142   5.715   4.409   1.869
 3000SOL    HW226143   5.720   4.302   1.762
 3001SOL     OW26144   5.493   2.389   2.342
 3001SOL    HW126145   5.571   2.436   2.314
 3001SOL    HW226146   5.438   2.455   2.385
 3002SOL     OW26147   5.193   0.094   0.439
 3002SOL    HW126148   5.108   0.072   0.476
 3002SOL    HW226149   5.184   0.185   0.408
 3003SOL     OW26150   0.037   2.472   0.612
 3003SOL    HW126151   0.122   2.506   0.585
 3003SOL    HW226152  -0.014   2.550   0.636
 3004SOL     OW26153   3.523   5.035   0.171
 3004SOL    HW126154   3.475   4.956   0.145
 3004SOL    HW226155   3.516   5.094   0.095
 3005SOL     OW26156   3.190   3.631   7.654
 3005SOL    HW126157   3.227   3.543   7.653
 3005SOL    HW226158   3.139   3.635   7.735
 3006SOL     OW26159   0.752   0.265   6.659
 3006SOL    HW126160   0.825   0.211   6.631
 3006SOL    HW226161   0.710   0.294   6.578
 3007SOL     OW26162   5.976   4.598   7.258
 3007SOL    HW126163   5.914   4.669   7.243
 3007SOL    HW226164   5.993   4.561   7.172
 3008SOL     OW26165   6.367   2.950   6.952
 3008SOL    HW126166   6.379   2.955   6.858
 3008SOL    HW226167   6.416   2.872   6.979
 3009SOL     OW26168   6.318   4.501   5.629
 3009SOL    HW126169   6.225   4.500   5.608
 3009SOL    HW226170   6.333   4.420   5.678
 3010SOL     OW26171   1.661   5.741   0.613
 3010SOL    HW126172   1.711   5.709   0.538
 3010SOL    HW226173   1.688   5.685   0.685
 3011SOL     OW26174   4.193   2.236   7.585
 3011SOL    HW126175   4.255   2.261   7.653
 3011SOL    HW226176   4.116   2.206   7.633
 3012SOL     OW26177   1.727   2.733   6.664
 3012SOL    HW126178   1.700   2.643   6.650
 3012SOL    HW226179   1.821   2.728   6.680
 3013SOL     OW26180   3.146   2.172   7.044
 3013SOL    HW126181   3.131   2.261   7.013
 3013SOL    HW226182   3.230   2.147   7.007
 3014SOL     OW26183   3.971   4.840   7.917
 3014SOL    HW126184   3.937   4.792   7.841
 3014SOL    HW226185   4.066   4.831   7.910
 3015SOL     OW26186   6.126   0.914   0.755
 3015SOL    HW126187   6.132   0.825   0.721
 3015SOL    HW226188   6.041   0.945   0.723
 3016SOL     OW26189   2.200   1.358   6.148
 3016SOL    HW126190   2.130   1.295   6.128
 3016SOL    HW226191   2.173   1.438   6.104
 3017SOL     OW26192   1.535   6.304   7.326
 3017SOL    HW126193   1.529   6.213   7.354
 3017SOL    HW226194   1.472   6.312   7.254
 3018SOL     OW26195   5.441   2.605   5.697
 3018SOL    HW126196   5.513   2.596   5.635
 3018SOL    HW226197   5.462   2.684   5.748
 3019SOL     OW26198   6.396   5.374   1.482
 3019SOL    HW126199   6.376   5.306   1.547
 3019SOL    HW226200   6.388   5.456   1.530
 3020SOL     OW26201   4.958   5.308   7.213
 3020SOL    HW126202   5.002   5.388   7.243
 3020SOL    HW226203   4.930   5.264   7.293
 3021SOL     OW26204   3.905   2.889   0.393
 3021SOL    HW126205   3.856   2.948   0.450
 3021SOL    HW226206   3.965   2.946   0.346
 3022SOL     OW26207   6.019   4.984   6.622
 3022SOL    HW126208   6.024   4.971   6.717
 3022SOL    HW226209   6.097   4.941   6.588
 3023SOL     OW26210   3.680   2.695   0.476
 3023SOL    HW126211   3.691   2.789   0.462
 3023SOL    HW226212   3.747   2.673   0.540
 3024SOL     OW26213   1.755   4.991   0.687
 3024SOL    HW126214   1.835   5.042   0.669
 3024SOL    HW226215   1.684   5.046   0.656
 3025SOL     OW26216   3.523   4.658   6.943
 3025SOL    HW126217   3.476   4.699   6.871
 3025SOL    HW226218   3.580   4.727   6.977
 3026SOL     OW26219   1.556   2.843   5.503
 3026SOL    HW126220   1.498   2.815   5.574
 3026SOL    HW226221   1.564   2.765   5.447
 3027SOL     OW26222   1.993   5.172   7.711
 3027SOL    HW126223   2.038   5.191   7.793
 3027SOL    HW226224   1.937   5.248   7.696
 3028SOL     OW26225   3.489   5.344   7.921
 3028SOL    HW126226   3.444   5.408   7.866
 3028SOL    HW226227   3.445   5.351   8.006
 3029SOL     OW26228   3.497   5.952   6.448
 3029SOL    HW126229   3.529   5.904   6.372
 3029SOL    HW226230   3.545   5.914   6.522
 3030SOL     OW26231   3.727   3.308   7.719
 3030SOL    HW126232   3.717   3.357   7.637
 3030SOL    HW226233   3.715   3.216   7.693
 3031SOL     OW26234   5.386   2.484   0.982
 3031SOL    HW126235   5.389   2.399   0.939
 3031SOL    HW226236   5.409   2.466   1.073
 3032SOL     OW26237   4.860   3.552   7.036
 3032SOL    HW126238   4.817   3.560   6.951
 3032SOL    HW226239   4.867   3.641   7.068
 3033SOL     OW26240   5.761   2.409   1.825
 3033SOL    HW126241   5.749   2.315   1.838
 3033SOL    HW226242   5.674   2.440   1.799
 3034SOL     OW26243   3.973   0.863   1.280
 3034SOL    HW126244   4.016   0.886   1.198
 3034SOL    HW226245   4.041   0.872   1.346
 3035SOL     OW26246   3.093   3.504   2.046
 3035SOL    HW126247   3.159   3.437   2.029
 3035SOL    HW226248   3.066   3.488   2.136
 3036SOL     OW26249   2.665   2.739   6.684
 3036SOL    HW126250   2.663   2.834   6.693
 3036SOL    HW226251   2.731   2.722   6.618
 3037SOL     OW26252   1.968   2.082   5.903
 3037SOL    HW126253   1.961   2.053   5.812
 3037SOL    HW226254   2.051   2.047   5.934
 3038SOL     OW26255   3.258   5.253   6.831
 3038SOL    HW126256   3.166   5.265   6.808
 3038SOL    HW226257   3.271   5.308   6.909
 3039SOL     OW26258   4.863   3.317   0.999
 3039SOL    HW126259   4.910   3.235   1.013
 3039SOL    HW226260   4.930   3.385   1.001
 3040SOL     OW26261   4.574   0.635   6.064
 3040SOL    HW126262   4.659   0.595   6.087
 3040SOL    HW226263   4.514   0.561   6.059
 3041SOL     OW26264   2.220   4.691   1.244
 3041SOL    HW126265   2.152   4.628   1.219
 3041SOL    HW226266   2.194   4.772   1.201
 3042SOL     OW26267   5.429   4.221   7.602
 3042SOL    HW126268   5.400   4.274   7.676
 3042SOL    HW226269   5.507   4.266   7.569
 3043SOL     OW26270   5.272   1.767   0.935
 3043SOL    HW126271   5.186   1.787   0.971
 3043SOL    HW226272   5.294   1.843   0.881
 3044SOL     OW26273   2.048   1.302   6.573
 3044SOL    HW126274   2.127   1.352   6.594
 3044SOL    HW226275   2.078   1.211   6.567
 3045SOL     OW26276   2.194   0.223   7.366
 3045SOL    HW126277   2.237   0.271   7.437
 3045SOL    HW226278   2.161   0.144   7.408
 3046SOL     OW26279   3.177   0.790   6.267
 3046SOL    HW126280   3.102   0.795   6.208
 3046SOL    HW226281   3.150   0.838   6.345
 3047SOL     OW26282   4.785   2.923   6.238
 3047SOL    HW126283   4.804   2.830   6.243
 3047SOL    HW226284   4.860   2.965   6.280
 3048SOL     OW26285   2.141   0.477   7.841
 3048SOL    HW126286   2.177   0.398   7.881
 3048SOL    HW226287   2.055   0.486   7.881
 3049SOL     OW26288   5.033   5.430   7.723
 3049SOL    HW126289   5.034   5.477   7.806
 3049SOL    HW226290   5.117   5.383   7.720
 3050SOL     OW26291   4.122   3.792   1.190
 3050SOL    HW126292   4.075   3.875   1.201
 3050SOL    HW226293   4.113   3.772   1.096
 3051SOL     OW26294   5.256   0.744   7.532
 3051SOL    HW126295   5.177   0.693   7.516
 3051SOL    HW226296   5.289   0.765   7.444
 3052SOL     OW26297   2.092   2.040   2.145
 3052SOL    HW126298   2.150   2.034   2.069
 3052SOL    HW226299   2.022   1.978   2.126
 3053SOL     OW26300   1.109   0.123   0.779
 3053SOL    HW126301   1.044   0.190   0.755
 3053SOL    HW226302   1.077   0.043   0.736
 3054SOL     OW26303   0.742   4.430   7.860
 3054SOL    HW126304   0.649   4.437   7.841
 3054SOL    HW226305   0.746   4.388   7.946
 3055SOL     OW26306   5.882   5.469   6.817
 3055SOL    HW126307   5.876   5.513   6.902
 3055SOL    HW226308   5.971   5.489   6.786
 3056SOL     OW26309   1.885   5.276   0.034
 3056SOL    HW126310   1.829   5.222  -0.021
 3056SOL    HW226311   1.873   5.240   0.122
 3057SOL     OW26312   5.128   5.167   0.398
 3057SOL    HW126313   5.219   5.143   0.381
 3057SOL    HW226314   5.113   5.141   0.488
 3058SOL     OW26315   0.451   1.698   1.485
 3058SOL    HW126316   0.522   1.731   1.430
 3058SOL    HW226317   0.469   1.604   1.493
 3059SOL     OW26318   1.745   1.495   0.430
 3059SOL    HW126319   1.806   1.567   0.445
 3059SOL    HW226320   1.802   1.418   0.422
 3060SOL     OW26321   0.451   2.644   6.080
 3060SOL    HW126322   0.408   2.605   6.156
 3060SOL    HW226323   0.384   2.699   6.040
 3061SOL     OW26324   2.930   4.657   1.321
 3061SOL    HW126325   2.891   4.634   1.406
 3061SOL    HW226326   3.017   4.688   1.343
 3062SOL     OW26327   2.607   5.587   7.927
 3062SOL    HW126328   2.597   5.664   7.982
 3062SOL    HW226329   2.558   5.608   7.848
 3063SOL     OW26330   0.461   4.099   0.874
 3063SOL    HW126331   0.503   4.164   0.818
 3063SOL    HW226332   0.490   4.014   0.838
 3064SOL     OW26333   0.286   3.377   7.624
 3064SOL    HW126334   0.290   3.285   7.650
 3064SOL    HW226335   0.198   3.405   7.647
 3065SOL     OW26336   3.129   0.233   5.956
 3065SOL    HW126337   3.043   0.196   5.933
 3065SOL    HW226338   3.165   0.264   5.873
 3066SOL     OW26339   1.927   1.401   1.601
 3066SOL    HW126340   1.952   1.471   1.540
 3066SOL    HW226341   1.906   1.327   1.545
 3067SOL     OW26342   2.877   5.199   6.122
 3067SOL    HW126343   2.851   5.120   6.170
 3067SOL    HW226344   2.796   5.251   6.116
 3068SOL     OW26345   0.045   6.181   0.166
 3068SOL    HW126346   0.055   6.276   0.160
 3068SOL    HW226347  -0.036   6.162   0.118
 3069SOL     OW26348   5.179   5.668   7.537
 3069SOL    HW126349   5.139   5.621   7.610
 3069SOL    HW226350   5.272   5.646   7.542
 3070SOL     OW26351   3.101   5.731   6.339
 3070SOL    HW126352   3.188   5.702   6.311
 3070SOL    HW226353   3.041   5.662   6.307
 3071SOL     OW26354   2.246   5.694   0.280
 3071SOL    HW126355   2.252   5.713   0.373
 3071SOL    HW226356   2.159   5.724   0.254
 3072SOL     OW26357   3.366   4.912   1.052
 3072SOL    HW126358   3.401   4.970   1.120
 3072SOL    HW226359   3.300   4.964   1.007
 3073SOL     OW26360   2.478   2.147   5.448
 3073SOL    HW126361   2.405   2.144   5.509
 3073SOL    HW226362   2.444   2.192   5.371
 3074SOL     OW26363   2.396   4.335   2.486
 3074SOL    HW126364   2.383   4.425   2.517
 3074SOL    HW226365   2.424   4.287   2.564
 3075SOL     OW26366   3.889   3.744   0.236
 3075SOL    HW126367   3.962   3.734   0.175
 3075SOL    HW226368   3.815   3.702   0.192
 3076SOL     OW26369   0.392   5.906   7.194
 3076SOL    HW126370   0.455   5.972   7.223
 3076SOL    HW226371   0.343   5.883   7.273
 3077SOL     OW26372   3.536   6.289   0.301
 3077SOL    HW126373   3.526   6.324   0.213
 3077SOL    HW226374   3.519   6.195   0.292
 3078SOL     OW26375   1.801   1.951   6.602
 3078SOL    HW126376   1.893   1.936   6.582
 3078SOL    HW226377   1.765   1.864   6.618
 3079SOL     OW26378   1.585   2.336   7.392
 3079SOL    HW126379   1.649   2.390   7.437
 3079SOL    HW226380   1.625   2.249   7.388
 3080SOL     OW26381   1.583   2.348   0.874
 3080SOL    HW126382   1.657   2.348   0.934
 3080SOL    HW226383   1.542   2.262   0.887
 3081SOL     OW26384   5.907   0.555   6.610
 3081SOL    HW126385   5.856   0.525   6.685
 3081SOL    HW226386   5.950   0.476   6.577
 3082SOL     OW26387   3.914   3.923   6.961
 3082SOL    HW126388   3.828   3.885   6.944
 3082SOL    HW226389   3.914   4.005   6.912
 3083SOL     OW26390   2.336   3.366   1.594
 3083SOL    HW126391   2.315   3.392   1.505
 3083SOL    HW226392   2.250   3.350   1.635
 3084SOL     OW26393   4.472   0.676   0.133
 3084SOL    HW126394   4.384   0.693   0.098
 3084SOL    HW226395   4.524   0.653   0.056
 3085SOL     OW26396   2.455   4.253   6.781
 3085SOL    HW126397   2.519   4.210   6.724
 3085SOL    HW226398   2.399   4.302   6.722
 3086SOL     OW26399   4.432   4.834   0.991
 3086SOL    HW126400   4.352   4.831   1.043
 3086SOL    HW226401   4.484   4.904   1.031
 3087SOL     OW26402   0.631   0.601   2.710
 3087SOL    HW126403   0.724   0.576   2.706
 3087SOL    HW226404   0.603   0.601   2.619
 3088SOL     OW26405   6.264   4.331   0.552
 3088SOL    HW126406   6.223   4.253   0.513
 3088SOL    HW226407   6.231   4.333   0.642
 3089SOL     OW26408   1.985   2.688   1.906
 3089SOL    HW126409   1.997   2.721   1.995
 3089SOL    HW226410   1.994   2.765   1.851
 3090SOL     OW26411   3.859   6.077   5.243
 3090SOL    HW126412   3.783   6.020   5.235
 3090SOL    HW226413   3.831   6.161   5.207
 3091SOL     OW26414   4.837   5.329   1.269
 3091SOL    HW126415   4.826   5.290   1.355
 3091SOL    HW226416   4.779   5.405   1.269
 3092SOL     OW26417   1.595   0.992   0.644
 3092SOL    HW126418   1.656   1.038   0.587
 3092SOL    HW226419   1.619   0.900   0.635
 3093SOL     OW26420   0.836   2.510   5.686
 3093SOL    HW126421   0.872   2.534   5.771
 3093SOL    HW226422   0.819   2.594   5.642
 3094SOL     OW26423   5.256   1.315   7.415
 3094SOL    HW126424   5.237   1.321   7.509
 3094SOL    HW226425   5.338   1.266   7.411
 3095SOL     OW26426   6.321   1.874   1.285
 3095SOL    HW126427   6.326   1.845   1.376
 3095SOL    HW226428   6.326   1.969   1.291
 3096SOL     OW26429   2.524   3.592   1.564
 3096SOL    HW126430   2.463   3.558   1.630
 3096SOL    HW226431   2.469   3.645   1.506
 3097SOL     OW26432   0.177   1.740   0.655
 3097SOL    HW126433   0.199   1.826   0.620
 3097SOL    HW226434   0.238   1.727   0.727
 3098SOL     OW26435   6.114   5.713   6.909
 3098SOL    HW126436   6.192   5.671   6.945
 3098SOL    HW226437   6.100   5.672   6.824
 3099SOL     OW26438   4.740   2.308   1.168
 3099SOL    HW126439   4.828   2.329   1.137
 3099SOL    HW226440   4.690   2.388   1.152
 3100SOL     OW26441   2.927   6.091   1.415
 3100SOL    HW126442   2.995   6.146   1.377
 3100SOL    HW226443   2.855   6.152   1.431
 3101SOL     OW26444   2.615   4.634   1.190
 3101SOL    HW126445   2.603   4.704   1.126
 3101SOL    HW226446   2.710   4.620   1.191
 3102SOL     OW26447   4.894   5.203   0.240
 3102SOL    HW126448   4.920   5.292   0.264
 3102SOL    HW226449   4.966   5.148   0.269
 3103SOL     OW26450   6.355   1.269   6.074
 3103SOL    HW126451   6.401   1.350   6.055
 3103SOL    HW226452   6.366   1.216   5.995
 3104SOL     OW26453   2.594   4.586   6.227
 3104SOL    HW126454   2.602   4.510   6.170
 3104SOL    HW226455   2.508   4.622   6.208
 3105SOL     OW26456   2.852   3.715   6.174
 3105SOL    HW126457   2.870   3.781   6.107
 3105SOL    HW226458   2.760   3.730   6.199
 3106SOL     OW26459   1.390   0.748   0.004
 3106SOL    HW126460   1.415   0.662   0.037
 3106SOL    HW226461   1.462   0.806   0.028
 3107SOL     OW26462   1.347   5.472   7.925
 3107SOL    HW126463   1.266   5.484   7.975
 3107SOL    HW226464   1.386   5.393   7.962
 3108SOL     OW26465   1.961   5.180   1.154
 3108SOL    HW126466   1.883   5.140   1.191
 3108SOL    HW226467   1.985   5.250   1.215
 3109SOL     OW26468   0.664   3.583   1.188
 3109SOL    HW126469   0.616   3.618   1.113
 3109SOL    HW226470   0.707   3.505   1.154
 3110SOL     OW26471   3.442   2.641   0.956
 3110SOL    HW126472   3.477   2.623   1.043
 3110SOL    HW226473   3.518   2.662   0.903
 3111SOL     OW26474   1.276   2.096   7.396
 3111SOL    HW126475   1.323   2.015   7.417
 3111SOL    HW226476   1.185   2.078   7.422
 3112SOL     OW26477   0.100   2.632   5.456
 3112SOL    HW126478   0.035   2.640   5.385
 3112SOL    HW226479   0.160   2.564   5.425
 3113SOL     OW26480   4.520   2.947   6.157
 3113SOL    HW126481   4.614   2.931   6.153
 3113SOL    HW226482   4.481   2.859   6.158
 3114SOL     OW26483   4.888   1.145   1.546
 3114SOL    HW126484   4.904   1.122   1.638
 3114SOL    HW226485   4.800   1.184   1.547
 3115SOL     OW26486   2.504   0.485   0.443
 3115SOL    HW126487   2.571   0.545   0.409
 3115SOL    HW226488   2.554   0.413   0.481
 3116SOL     OW26489   2.680   2.142   1.126
 3116SOL    HW126490   2.604   2.145   1.068
 3116SOL    HW226491   2.642   2.133   1.214
 3117SOL     OW26492   4.772   5.955   6.521
 3117SOL    HW126493   4.860   5.931   6.552
 3117SOL    HW226494   4.787   6.016   6.450
 3118SOL     OW26495   2.652   2.531   0.533
 3118SOL    HW126496   2.652   2.559   0.441
 3118SOL    HW226497   2.743   2.538   0.560
 3119SOL     OW26498   0.534   6.134   7.036
 3119SOL    HW126499   0.630   6.140   7.033
 3119SOL    HW226500   0.511   6.160   7.125
 3120SOL     OW26501   4.605   3.907   6.132
 3120SOL    HW126502   4.560   3.855   6.199
 3120SOL    HW226503   4.636   3.842   6.069
 3121SOL     OW26504   4.239   2.309   0.032
 3121SOL    HW126505   4.201   2.276   0.113
 3121SOL    HW226506   4.230   2.404   0.038
 3122SOL     OW26507   6.306   4.435   0.809
 3122SOL    HW126508   6.368   4.388   0.865
 3122SOL    HW226509   6.357   4.459   0.732
 3123SOL     OW26510   0.190   2.043   7.319
 3123SOL    HW126511   0.224   2.129   7.343
 3123SOL    HW226512   0.188   1.994   7.401
 3124SOL     OW26513   0.069   0.432   1.063
 3124SOL    HW126514   0.073   0.353   1.117
 3124SOL    HW226515   0.148   0.481   1.087
 3125SOL     OW26516   2.608   0.522   0.974
 3125SOL    HW126517   2.622   0.615   0.988
 3125SOL    HW226518   2.688   0.480   1.005
 3126SOL     OW26519   3.143   4.476   1.208
 3126SOL    HW126520   3.114   4.544   1.146
 3126SOL    HW226521   3.074   4.474   1.275
 3127SOL     OW26522   0.642   5.786   7.167
 3127SOL    HW126523   0.547   5.794   7.155
 3127SOL    HW226524   0.672   5.740   7.089
 3128SOL     OW26525   4.283   3.853   6.093
 3128SOL    HW126526   4.232   3.817   6.021
 3128SOL    HW226527   4.310   3.939   6.063
 3129SOL     OW26528   2.761   5.501   6.224
 3129SOL    HW126529   2.847   5.464   6.203
 3129SOL    HW226530   2.738   5.553   6.147
 3130SOL     OW26531   4.628   4.689   7.676
 3130SOL    HW126532   4.643   4.740   7.756
 3130SOL    HW226533   4.639   4.751   7.605
 3131SOL     OW26534   0.340   5.599   7.445
 3131SOL    HW126535   0.352   5.661   7.518
 3131SOL    HW226536   0.422   5.551   7.440
 3132SOL     OW26537   5.078   3.962   0.587
 3132SOL    HW126538   5.019   3.900   0.544
 3132SOL    HW226539   5.126   3.908   0.650
 3133SOL     OW26540   0.425   1.661   6.674
 3133SOL    HW126541   0.509   1.704   6.689
 3133SOL    HW226542   0.404   1.620   6.757
 3134SOL     OW26543   4.570   2.085   1.136
 3134SOL    HW126544   4.611   2.164   1.172
 3134SOL    HW226545   4.477   2.107   1.131
 3135SOL     OW26546   3.255   3.622   7.244
 3135SOL    HW126547   3.305   3.702   7.260
 3135SOL    HW226548   3.196   3.616   7.320
 3136SOL     OW26549   4.283   0.777   7.691
 3136SOL    HW126550   4.289   0.699   7.635
 3136SOL    HW226551   4.303   0.850   7.632
 3137SOL     OW26552   0.261   5.865   0.882
 3137SOL    HW126553   0.222   5.944   0.844
 3137SOL    HW226554   0.195   5.797   0.867
 3138SOL     OW26555   5.301   5.417   7.196
 3138SOL    HW126556   5.369   5.353   7.217
 3138SOL    HW226557   5.274   5.396   7.107
 3139SOL     OW26558   2.421   5.803   1.410
 3139SOL    HW126559   2.487   5.813   1.479
 3139SOL    HW226560   2.414   5.890   1.370
 3140SOL     OW26561   5.118   2.368   0.755
 3140SOL    HW126562   5.106   2.311   0.679
 3140SOL    HW226563   5.047   2.344   0.814
 3141SOL     OW26564   5.971   2.397   0.448
 3141SOL    HW126565   6.013   2.437   0.525
 3141SOL    HW226566   6.015   2.312   0.439
 3142SOL     OW26567   5.871   3.425   0.430
 3142SOL    HW126568   5.877   3.441   0.336
 3142SOL    HW226569   5.888   3.331   0.439
 3143SOL     OW26570   3.380   3.272   0.894
 3143SOL    HW126571   3.348   3.184   0.875
 3143SOL    HW226572   3.354   3.288   0.985
 3144SOL     OW26573   4.527   1.828   1.169
 3144SOL    HW126574   4.478   1.829   1.251
 3144SOL    HW226575   4.580   1.908   1.173
 3145SOL     OW26576   3.501   3.947   7.121
 3145SOL    HW126577   3.508   3.909   7.209
 3145SOL    HW226578   3.559   4.024   7.124
 3146SOL     OW26579   0.082   4.356   0.411
 3146SOL    HW126580   0.011   4.339   0.473
 3146SOL    HW226581   0.158   4.374   0.466
 3147SOL     OW26582   1.750   5.692   0.323
 3147SOL    HW126583   1.668   5.697   0.276
 3147SOL    HW226584   1.793   5.776   0.307
 3148SOL     OW26585   3.825   2.222   6.219
 3148SOL    HW126586   3.850   2.252   6.132
 3148SOL    HW226587   3.820   2.127   6.212
 3149SOL     OW26588   5.772   6.037   2.043
 3149SOL    HW126589   5.723   6.033   1.961
 3149SOL    HW226590   5.706   6.056   2.110
 3150SOL     OW26591   1.183   2.918   7.104
 3150SOL    HW126592   1.184   2.826   7.131
 3150SOL    HW226593   1.157   2.966   7.182
 3151SOL     OW26594   2.939   0.130   6.383
 3151SOL    HW126595   2.848   0.104   6.368
 3151SOL    HW226596   2.957   0.192   6.312
 3152SOL     OW26597   3.496   4.747   2.247
 3152SOL    HW126598   3.559   4.807   2.287
 3152SOL    HW226599   3.447   4.802   2.186
 3153SOL     OW26600   1.065   5.259   7.805
 3153SOL    HW126601   1.074   5.254   7.900
 3153SOL    HW226602   1.155   5.267   7.773
 3154SOL     OW26603   0.783   2.097   6.120
 3154SOL    HW126604   0.688   2.089   6.116
 3154SOL    HW226605   0.803   2.178   6.073
 3155SOL     OW26606   0.119   3.270   7.016
 3155SOL    HW126607   0.059   3.204   6.981
 3155SOL    HW226608   0.067   3.350   7.017
 3156SOL     OW26609   5.665   5.005   5.635
 3156SOL    HW126610   5.755   4.972   5.639
 3156SOL    HW226611   5.621   4.960   5.708
 3157SOL     OW26612   6.147   0.101   7.039
 3157SOL    HW126613   6.105   0.150   6.968
 3157SOL    HW226614   6.135   0.009   7.015
 3158SOL     OW26615   0.102   4.215   0.165
 3158SOL    HW126616   0.092   4.232   0.259
 3158SOL    HW226617   0.076   4.123   0.155
 3159SOL     OW26618   4.927   5.999   6.886
 3159SOL    HW126619   4.961   6.088   6.891
 3159SOL    HW226620   4.849   6.001   6.942
 3160SOL     OW26621   3.447   4.884   5.971
 3160SOL    HW126622   3.461   4.791   5.955
 3160SOL    HW226623   3.480   4.927   5.892
 3161SOL     OW26624   1.520   2.983   5.095
 3161SOL    HW126625   1.532   2.896   5.132
 3161SOL    HW226626   1.548   3.043   5.164
 3162SOL     OW26627   2.754   4.125   0.637
 3162SOL    HW126628   2.744   4.076   0.719
 3162SOL    HW226629   2.695   4.082   0.576
 3163SOL     OW26630   4.763   3.794   0.111
 3163SOL    HW126631   4.829   3.726   0.097
 3163SOL    HW226632   4.809   3.876   0.095
 3164SOL     OW26633   1.285   2.330   2.039
 3164SOL    HW126634   1.229   2.389   2.089
 3164SOL    HW226635   1.371   2.335   2.081
 3165SOL     OW26636   1.328   6.376   1.344
 3165SOL    HW126637   1.355   6.343   1.259
 3165SOL    HW226638   1.347   6.305   1.405
 3166SOL     OW26639   1.401   2.997   6.938
 3166SOL    HW126640   1.391   2.916   6.888
 3166SOL    HW226641   1.331   2.993   7.004
 3167SOL     OW26642   4.952   1.798   1.866
 3167SOL    HW126643   4.860   1.798   1.839
 3167SOL    HW226644   4.961   1.721   1.922
 3168SOL     OW26645   4.345   3.138   6.117
 3168SOL    HW126646   4.392   3.173   6.041
 3168SOL    HW226647   4.396   3.062   6.144
 3169SOL     OW26648   6.338   5.902   7.295
 3169SOL    HW126649   6.401   5.943   7.354
 3169SOL    HW226650   6.391   5.873   7.220
 3170SOL     OW26651   0.389   4.627   0.380
 3170SOL    HW126652   0.298   4.658   0.377
 3170SOL    HW226653   0.430   4.679   0.450
 3171SOL     OW26654   5.273   4.044   0.089
 3171SOL    HW126655   5.267   3.973   0.025
 3171SOL    HW226656   5.247   4.005   0.172
 3172SOL     OW26657   1.883   2.343   1.533
 3172SOL    HW126658   1.870   2.427   1.577
 3172SOL    HW226659   1.890   2.365   1.440
 3173SOL     OW26660   4.253   4.147   0.930
 3173SOL    HW126661   4.203   4.176   1.007
 3173SOL    HW226662   4.319   4.088   0.966
 3174SOL     OW26663   5.368   3.477   7.461
 3174SOL    HW126664   5.329   3.564   7.450
 3174SOL    HW226665   5.385   3.446   7.372
 3175SOL     OW26666   1.343   1.884   7.083
 3175SOL    HW126667   1.362   1.807   7.138
 3175SOL    HW226668   1.253   1.908   7.106
 3176SOL     OW26669   2.951   3.139   7.058
 3176SOL    HW126670   2.875   3.149   7.002
 3176SOL    HW226671   2.974   3.228   7.084
 3177SOL     OW26672   1.229   5.021   6.646
 3177SOL    HW126673   1.249   5.096   6.590
 3177SOL    HW226674   1.313   4.977   6.659
 3178SOL     OW26675   5.122   2.949   1.763
 3178SOL    HW126676   5.125   2.998   1.680
 3178SOL    HW226677   5.029   2.943   1.784
 3179SOL     OW26678   2.698   2.052   7.523
 3179SOL    HW126679   2.727   2.107   7.596
 3179SOL    HW226680   2.758   2.074   7.451
 3180SOL     OW26681   4.507   2.472   7.356
 3180SOL    HW126682   4.439   2.405   7.347
 3180SOL    HW226683   4.569   2.435   7.419
 3181SOL     OW26684   0.465   3.309   7.934
 3181SOL    HW126685   0.399   3.245   7.908
 3181SOL    HW226686   0.521   3.318   7.857
 3182SOL     OW26687   4.864   3.207   0.420
 3182SOL    HW126688   4.883   3.173   0.507
 3182SOL    HW226689   4.938   3.266   0.401
 3183SOL     OW26690   1.947   4.929   7.302
 3183SOL    HW126691   1.861   4.939   7.262
 3183SOL    HW226692   1.930   4.902   7.392
 3184SOL     OW26693   0.540   0.996   7.229
 3184SOL    HW126694   0.465   1.023   7.178
 3184SOL    HW226695   0.612   0.993   7.167
 3185SOL     OW26696   4.369   3.656   0.809
 3185SOL    HW126697   4.325   3.729   0.853
 3185SOL    HW226698   4.407   3.695   0.730
 3186SOL     OW26699   0.265   3.400   5.967
 3186SOL    HW126700   0.309   3.477   6.003
 3186SOL    HW226701   0.310   3.384   5.884
 3187SOL     OW26702   5.484   0.945   6.834
 3187SOL    HW126703   5.553   0.984   6.780
 3187SOL    HW226704   5.409   0.939   6.775
 3188SOL     OW26705   1.298   1.787   1.737
 3188SOL    HW126706   1.342   1.754   1.815
 3188SOL    HW226707   1.265   1.709   1.693
 3189SOL     OW26708   4.098   0.752   7.325
 3189SOL    HW126709   4.074   0.697   7.399
 3189SOL    HW226710   4.051   0.834   7.340
 3190SOL     OW26711   2.944   1.728   2.294
 3190SOL    HW126712   2.907   1.730   2.382
 3190SOL    HW226713   3.008   1.799   2.293
 3191SOL     OW26714   3.108   2.322   0.708
 3191SOL    HW126715   3.059   2.334   0.789
 3191SOL    HW226716   3.191   2.367   0.723
 3192SOL     OW26717   6.346   0.674   7.088
 3192SOL    HW126718   6.253   0.659   7.101
 3192SOL    HW226719   6.388   0.594   7.122
 3193SOL     OW26720   3.489   5.070   6.554
 3193SOL    HW126721   3.473   4.992   6.501
 3193SOL    HW226722   3.410   5.079   6.608
 3194SOL     OW26723   6.072   1.267   5.978
 3194SOL    HW126724   6.107   1.241   5.893
 3194SOL    HW226725   6.150   1.287   6.031
 3195SOL     OW26726   0.917   3.514   7.798
 3195SOL    HW126727   0.836   3.561   7.814
 3195SOL    HW226728   0.961   3.563   7.729
 3196SOL     OW26729   0.317   0.857   7.731
 3196SOL    HW126730   0.240   0.846   7.787
 3196SOL    HW226731   0.348   0.768   7.716
 3197SOL     OW26732   6.239   5.866   5.914
 3197SOL    HW126733   6.152   5.867   5.874
 3197SOL    HW226734   6.267   5.774   5.907
 3198SOL     OW26735   1.239   5.960   1.375
 3198SOL    HW126736   1.181   5.930   1.445
 3198SOL    HW226737   1.230   5.895   1.306
 3199SOL     OW26738   0.748   6.220   0.696
 3199SOL    HW126739   0.707   6.140   0.664
 3199SOL    HW226740   0.827   6.229   0.643
 3200SOL     OW26741   0.470   2.974   0.824
 3200SOL    HW126742   0.486   2.892   0.776
 3200SOL    HW226743   0.520   2.965   0.905
 3201SOL     OW26744   4.916   2.005   0.658
 3201SOL    HW126745   4.853   2.033   0.592
 3201SOL    HW226746   4.884   1.919   0.687
 3202SOL     OW26747   1.928   4.895   0.875
 3202SOL    HW126748   1.893   4.874   0.962
 3202SOL    HW226749   1.864   4.956   0.838
 3203SOL     OW26750   2.371   6.377   5.841
 3203SOL    HW126751   2.351   6.293   5.799
 3203SOL    HW226752   2.448   6.409   5.794
 3204SOL     OW26753   0.536   3.965   1.141
 3204SOL    HW126754   0.534   4.049   1.094
 3204SOL    HW226755   0.560   3.989   1.231
 3205SOL     OW26756   2.546   4.556   0.889
 3205SOL    HW126757   2.611   4.561   0.818
 3205SOL    HW226758   2.483   4.491   0.858
 3206SOL     OW26759   4.536   3.770   0.600
 3206SOL    HW126760   4.572   3.849   0.642
 3206SOL    HW226761   4.513   3.798   0.512
 3207SOL     OW26762   2.681   0.875   6.392
 3207SOL    HW126763   2.630   0.908   6.318
 3207SOL    HW226764   2.675   0.779   6.384
 3208SOL     OW26765   0.044   5.961   1.690
 3208SOL    HW126766   0.102   6.030   1.721
 3208SOL    HW226767   0.098   5.882   1.691
 3209SOL     OW26768   2.391   3.033   5.863
 3209SOL    HW126769   2.345   3.054   5.782
 3209SOL    HW226770   2.442   3.111   5.883
 3210SOL     OW26771   2.695   5.229   0.523
 3210SOL    HW126772   2.599   5.237   0.519
 3210SOL    HW226773   2.712   5.182   0.604
 3211SOL     OW26774   1.707   4.262   7.830
 3211SOL    HW126775   1.637   4.214   7.784
 3211SOL    HW226776   1.783   4.205   7.824
 3212SOL     OW26777   2.682   3.327   7.769
 3212SOL    HW126778   2.671   3.239   7.734
 3212SOL    HW226779   2.724   3.314   7.854
 3213SOL     OW26780   2.818   1.932   0.684
 3213SOL    HW126781   2.777   1.846   0.695
 3213SOL    HW226782   2.881   1.920   0.612
 3214SOL     OW26783   2.603   4.105   1.603
 3214SOL    HW126784   2.544   4.145   1.538
 3214SOL    HW226785   2.545   4.082   1.676
 3215SOL     OW26786   2.049   4.032   6.287
 3215SOL    HW126787   2.046   4.126   6.307
 3215SOL    HW226788   1.980   3.994   6.342
 3216SOL     OW26789   0.972   4.226   7.324
 3216SOL    HW126790   1.001   4.180   7.402
 3216SOL    HW226791   0.876   4.225   7.329
 3217SOL     OW26792   3.460   1.384   7.417
 3217SOL    HW126793   3.444   1.362   7.325
 3217SOL    HW226794   3.531   1.448   7.414
 3218SOL     OW26795   2.717   1.759   2.462
 3218SOL    HW126796   2.663   1.827   2.501
 3218SOL    HW226797   2.655   1.699   2.422
 3219SOL     OW26798   2.216   4.114   2.010
 3219SOL    HW126799   2.191   4.034   2.057
 3219SOL    HW226800   2.193   4.185   2.070
 3220SOL     OW26801   3.353   4.329   0.450
 3220SOL    HW126802   3.438   4.357   0.485
 3220SOL    HW226803   3.331   4.251   0.501
 3221SOL     OW26804   3.073   2.868   0.217
 3221SOL    HW126805   3.025   2.855   0.299
 3221SOL    HW226806   3.047   2.955   0.188
 3222SOL     OW26807   1.598   1.012   2.453
 3222SOL    HW126808   1.570   0.928   2.416
 3222SOL    HW226809   1.517   1.061   2.464
 3223SOL     OW26810   2.671   3.834   6.940
 3223SOL    HW126811   2.639   3.751   6.976
 3223SOL    HW226812   2.646   3.899   7.006
 3224SOL     OW26813   6.142   3.651   6.597
 3224SOL    HW126814   6.082   3.716   6.561
 3224SOL    HW226815   6.213   3.703   6.636
 3225SOL     OW26816   2.303   0.568   1.331
 3225SOL    HW126817   2.220   0.521   1.344
 3225SOL    HW226818   2.328   0.548   1.241
 3226SOL     OW26819   1.746   5.792   2.110
 3226SOL    HW126820   1.835   5.757   2.122
 3226SOL    HW226821   1.690   5.714   2.106
 3227SOL     OW26822   0.442   1.865   5.326
 3227SOL    HW126823   0.424   1.772   5.338
 3227SOL    HW226824   0.356   1.907   5.337
 3228SOL     OW26825   3.038   0.605   7.868
 3228SOL    HW126826   3.122   0.624   7.911
 3228SOL    HW226827   3.062   0.585   7.777
 3229SOL     OW26828   2.616   0.344   6.756
 3229SOL    HW126829   2.589   0.366   6.845
 3229SOL    HW226830   2.647   0.253   6.762
 3230SOL     OW26831   3.442   5.819   5.378
 3230SOL    HW126832   3.381   5.748   5.399
 3230SOL    HW226833   3.470   5.852   5.463
 3231SOL     OW26834   2.122   0.893   0.526
 3231SOL    HW126835   2.166   0.874   0.443
 3231SOL    HW226836   2.032   0.913   0.501
 3232SOL     OW26837   2.133   3.615   0.245
 3232SOL    HW126838   2.172   3.589   0.161
 3232SOL    HW226839   2.194   3.682   0.279
 3233SOL     OW26840   6.025   4.468   0.393
 3233SOL    HW126841   6.109   4.442   0.354
 3233SOL    HW226842   5.994   4.389   0.438
 3234SOL     OW26843   0.131   5.362   2.047
 3234SOL    HW126844   0.166   5.281   2.009
 3234SOL    HW226845   0.208   5.414   2.067
 3235SOL     OW26846   1.764   0.299   0.411
 3235SOL    HW126847   1.773   0.204   0.413
 3235SOL    HW226848   1.734   0.319   0.323
 3236SOL     OW26849   5.111   2.009   6.096
 3236SOL    HW126850   5.183   2.032   6.036
 3236SOL    HW226851   5.124   1.916   6.113
 3237SOL     OW26852   2.189   5.632   0.929
 3237SOL    HW126853   2.240   5.694   0.877
 3237SOL    HW226854   2.238   5.550   0.923
 3238SOL     OW26855   6.346   0.304   0.523
 3238SOL    HW126856   6.321   0.225   0.474
 3238SOL    HW226857   6.273   0.364   0.510
 3239SOL     OW26858   3.185   2.344   1.001
 3239SOL    HW126859   3.126   2.361   1.074
 3239SOL    HW226860   3.177   2.421   0.945
 3240SOL     OW26861   5.590   4.018   1.236
 3240SOL    HW126862   5.660   4.014   1.171
 3240SOL    HW226863   5.568   4.111   1.243
 3241SOL     OW26864   0.463   0.619   2.057
 3241SOL    HW126865   0.519   0.551   2.021
 3241SOL    HW226866   0.376   0.598   2.025
 3242SOL     OW26867   4.059   4.058   0.162
 3242SOL    HW126868   4.103   4.140   0.143
 3242SOL    HW226869   4.088   4.035   0.251
 3243SOL     OW26870   2.352   2.874   7.443
 3243SOL    HW126871   2.261   2.898   7.426
 3243SOL    HW226872   2.403   2.935   7.389
 3244SOL     OW26873   3.557   2.667   1.233
 3244SOL    HW126874   3.624   2.730   1.207
 3244SOL    HW226875   3.496   2.718   1.286
 3245SOL     OW26876   5.982   4.187   2.431
 3245SOL    HW126877   5.890   4.171   2.452
 3245SOL    HW226878   5.984   4.279   2.404
 3246SOL     OW26879   5.495   5.179   0.173
 3246SOL    HW126880   5.574   5.125   0.166
 3246SOL    HW226881   5.459   5.158   0.259
 3247SOL     OW26882   5.791   1.824   7.674
 3247SOL    HW126883   5.848   1.851   7.602
 3247SOL    HW226884   5.784   1.902   7.729
 3248SOL     OW26885   4.375   0.794   1.761
 3248SOL    HW126886   4.372   0.765   1.852
 3248SOL    HW226887   4.321   0.873   1.759
 3249SOL     OW26888   0.949   3.391   5.410
 3249SOL    HW126889   1.015   3.422   5.472
 3249SOL    HW226890   0.960   3.448   5.334
 3250SOL     OW26891   4.602   1.620   0.485
 3250SOL    HW126892   4.654   1.542   0.507
 3250SOL    HW226893   4.570   1.603   0.396
 3251SOL     OW26894   5.323   5.191   7.671
 3251SOL    HW126895   5.336   5.149   7.756
 3251SOL    HW226896   5.389   5.151   7.614
 3252SOL     OW26897   5.358   0.043   7.680
 3252SOL    HW126898   5.416   0.115   7.701
 3252SOL    HW226899   5.354   0.041   7.584
 3253SOL     OW26900   3.030   5.496   6.199
 3253SOL    HW126901   3.101   5.482   6.137
 3253SOL    HW226902   3.044   5.431   6.267
 3254SOL     OW26903   6.239   3.979   7.140
 3254SOL    HW126904   6.192   4.019   7.067
 3254SOL    HW226905   6.190   3.898   7.159
 3255SOL     OW26906   2.848   1.284   1.622
 3255SOL    HW126907   2.862   1.190   1.628
 3255SOL    HW226908   2.755   1.296   1.641
 3256SOL     OW26909   5.963   2.776   6.153
 3256SOL    HW126910   6.040   2.755   6.206
 3256SOL    HW226911   5.993   2.769   6.063
 3257SOL     OW26912   4.913   4.561   1.110
 3257SOL    HW126913   4.964   4.485   1.139
 3257SOL    HW226914   4.834   4.523   1.072
 3258SOL     OW26915   0.842   5.964   7.218
 3258SOL    HW126916   0.805   6.033   7.162
 3258SOL    HW226917   0.807   5.883   7.183
 3259SOL     OW26918   1.444   5.312   0.657
 3259SOL    HW126919   1.528   5.339   0.694
 3259SOL    HW226920   1.385   5.386   0.672
 3260SOL     OW26921   3.595   1.650   6.643
 3260SOL    HW126922   3.628   1.561   6.652
 3260SOL    HW226923   3.671   1.701   6.615
 3261SOL     OW26924   3.524   5.594   7.000
 3261SOL    HW126925   3.456   5.526   7.000
 3261SOL    HW226926   3.527   5.625   6.909
 3262SOL     OW26927   0.528   5.853   0.879
 3262SOL    HW126928   0.434   5.872   0.877
 3262SOL    HW226929   0.559   5.896   0.958
 3263SOL     OW26930   4.971   6.265   6.914
 3263SOL    HW126931   5.040   6.326   6.941
 3263SOL    HW226932   4.892   6.298   6.956
 3264SOL     OW26933   4.550   4.332   7.328
 3264SOL    HW126934   4.465   4.333   7.282
 3264SOL    HW226935   4.536   4.388   7.404
 3265SOL     OW26936   3.727   4.574   7.645
 3265SOL    HW126937   3.656   4.580   7.581
 3265SOL    HW226938   3.747   4.481   7.650
 3266SOL     OW26939   3.335   3.023   0.824
 3266SOL    HW126940   3.270   3.058   0.763
 3266SOL    HW226941   3.401   2.983   0.768
 3267SOL     OW26942   4.234   5.619   0.144
 3267SOL    HW126943   4.285   5.601   0.066
 3267SOL    HW226944   4.253   5.545   0.203
 3268SOL     OW26945   3.100   4.552   6.828
 3268SOL    HW126946   3.138   4.512   6.750
 3268SOL    HW226947   3.036   4.614   6.793
 3269SOL     OW26948   4.636   0.161   6.733
 3269SOL    HW126949   4.685   0.234   6.694
 3269SOL    HW226950   4.616   0.104   6.658
 3270SOL     OW26951   6.190   1.919   0.504
 3270SOL    HW126952   6.231   1.842   0.465
 3270SOL    HW226953   6.101   1.919   0.468
 3271SOL     OW26954   2.439   0.167   6.211
 3271SOL    HW126955   2.368   0.124   6.164
 3271SOL    HW226956   2.465   0.239   6.154
 3272SOL     OW26957   6.093   2.475   0.687
 3272SOL    HW126958   6.133   2.553   0.726
 3272SOL    HW226959   6.135   2.401   0.732
 3273SOL     OW26960   0.369   3.618   7.719
 3273SOL    HW126961   0.329   3.676   7.654
 3273SOL    HW226962   0.376   3.534   7.675
 3274SOL     OW26963   2.723   2.829   0.158
 3274SOL    HW126964   2.704   2.770   0.231
 3274SOL    HW226965   2.649   2.888   0.154
 3275SOL     OW26966   5.107   0.323   6.924
 3275SOL    HW126967   5.059   0.300   6.844
 3275SOL    HW226968   5.188   0.364   6.893
 3276SOL     OW26969   3.696   0.236   0.813
 3276SOL    HW126970   3.607   0.211   0.788
 3276SOL    HW226971   3.751   0.206   0.741
 3277SOL     OW26972   2.830   0.109   0.548
 3277SOL    HW126973   2.841   0.182   0.609
 3277SOL    HW226974   2.918   0.072   0.538
 3278SOL     OW26975   1.355   2.287   1.691
 3278SOL    HW126976   1.270   2.250   1.716
 3278SOL    HW226977   1.418   2.223   1.723
 3279SOL     OW26978   4.139   4.089   6.540
 3279SOL    HW126979   4.131   4.052   6.452
 3279SOL    HW226980   4.102   4.177   6.532
 3280SOL     OW26981   0.926   2.472   1.081
 3280SOL    HW126982   0.846   2.490   1.032
 3280SOL    HW226983   0.991   2.530   1.041
 3281SOL     OW26984   5.279   4.309   0.224
 3281SOL    HW126985   5.258   4.217   0.214
 3281SOL    HW226986   5.199   4.348   0.260
 3282SOL     OW26987   4.395   2.365   6.262
 3282SOL    HW126988   4.447   2.288   6.285
 3282SOL    HW226989   4.318   2.360   6.318
 3283SOL     OW26990   4.257   0.135   7.881
 3283SOL    HW126991   4.277   0.051   7.840
 3283SOL    HW226992   4.316   0.197   7.836
 3284SOL     OW26993   0.046   4.323   1.340
 3284SOL    HW126994   0.109   4.252   1.354
 3284SOL    HW226995   0.035   4.326   1.245
 3285SOL     OW26996   3.677   3.197   0.920
 3285SOL    HW126997   3.602   3.216   0.863
 3285SOL    HW226998   3.739   3.150   0.864
 3286SOL     OW26999   5.281   4.777   6.849
 3286SOL    HW127000   5.296   4.683   6.835
 3286SOL    HW227001   5.284   4.815   6.761
 3287SOL     OW27002   0.704   2.200   0.397
 3287SOL    HW127003   0.752   2.214   0.315
 3287SOL    HW227004   0.770   2.211   0.465
 3288SOL     OW27005   3.756   5.253   7.265
 3288SOL    HW127006   3.821   5.242   7.196
 3288SOL    HW227007   3.779   5.187   7.330
 3289SOL     OW27008   1.103   5.213   1.348
 3289SOL    HW127009   1.073   5.301   1.325
 3289SOL    HW227010   1.179   5.227   1.405
 3290SOL     OW27011   1.180   5.019   6.235
 3290SOL    HW127012   1.271   4.999   6.257
 3290SOL    HW227013   1.185   5.054   6.146
 3291SOL     OW27014   3.307   3.274   1.729
 3291SOL    HW127015   3.300   3.243   1.819
 3291SOL    HW227016   3.352   3.204   1.683
 3292SOL     OW27017   4.338   1.465   7.587
 3292SOL    HW127018   4.283   1.387   7.585
 3292SOL    HW227019   4.321   1.508   7.503
 3293SOL     OW27020   2.164   2.391   0.433
 3293SOL    HW127021   2.185   2.303   0.402
 3293SOL    HW227022   2.121   2.377   0.517
 3294SOL     OW27023   5.816   6.295   1.187
 3294SOL    HW127024   5.790   6.330   1.273
 3294SOL    HW227025   5.733   6.277   1.143
 3295SOL     OW27026   4.412   3.421   0.978
 3295SOL    HW127027   4.396   3.494   0.918
 3295SOL    HW227028   4.441   3.350   0.921
 3296SOL     OW27029   1.403   0.780   0.492
 3296SOL    HW127030   1.320   0.827   0.502
 3296SOL    HW227031   1.452   0.833   0.429
 3297SOL     OW27032   4.720   5.230   7.664
 3297SOL    HW127033   4.664   5.244   7.741
 3297SOL    HW227034   4.772   5.153   7.686
 3298SOL     OW27035   3.522   1.047   0.676
 3298SOL    HW127036   3.470   1.115   0.718
 3298SOL    HW227037   3.517   1.067   0.583
 3299SOL     OW27038   2.246   3.691   2.060
 3299SOL    HW127039   2.177   3.750   2.090
 3299SOL    HW227040   2.322   3.715   2.113
 3300SOL     OW27041   1.365   0.098   6.449
 3300SOL    HW127042   1.405   0.109   6.362
 3300SOL    HW227043   1.331   0.185   6.471
 3301SOL     OW27044   1.847   2.141   0.560
 3301SOL    HW127045   1.822   2.230   0.584
 3301SOL    HW227046   1.902   2.111   0.632
 3302SOL     OW27047   4.867   1.755   0.753
 3302SOL    HW127048   4.811   1.681   0.778
 3302SOL    HW227049   4.929   1.764   0.825
 3303SOL     OW27050   2.614   4.356   6.079
 3303SOL    HW127051   2.525   4.332   6.102
 3303SOL    HW227052   2.669   4.305   6.139
 3304SOL     OW27053   3.312   5.874   1.471
 3304SOL    HW127054   3.253   5.860   1.545
 3304SOL    HW227055   3.336   5.967   1.477
 3305SOL     OW27056   4.746   6.381   7.046
 3305SOL    HW127057   4.700   6.437   6.983
 3305SOL    HW227058   4.734   6.424   7.130
 3306SOL     OW27059   3.451   0.048   6.562
 3306SOL    HW127060   3.400   0.035   6.482
 3306SOL    HW227061   3.420   0.132   6.597
 3307SOL     OW27062   0.535   1.099   1.623
 3307SOL    HW127063   0.477   1.114   1.549
 3307SOL    HW227064   0.512   1.167   1.686
 3308SOL     OW27065   0.894   4.927   7.370
 3308SOL    HW127066   0.906   5.019   7.345
 3308SOL    HW227067   0.953   4.915   7.445
 3309SOL     OW27068   0.391   4.335   6.747
 3309SOL    HW127069   0.298   4.334   6.772
 3309SOL    HW227070   0.436   4.368   6.825
 3310SOL     OW27071   3.050   2.539   1.826
 3310SOL    HW127072   3.136   2.528   1.785
 3310SOL    HW227073   3.032   2.633   1.819
 3311SOL     OW27074   1.686   2.176   5.664
 3311SOL    HW127075   1.717   2.224   5.741
 3311SOL    HW227076   1.627   2.237   5.620
 3312SOL     OW27077   0.437   0.456   1.664
 3312SOL    HW127078   0.462   0.398   1.593
 3312SOL    HW227079   0.351   0.424   1.692
 3313SOL     OW27080   2.417   3.258   6.521
 3313SOL    HW127081   2.417   3.340   6.571
 3313SOL    HW227082   2.325   3.242   6.501
 3314SOL     OW27083   0.460   0.275   0.174
 3314SOL    HW127084   0.430   0.203   0.229
 3314SOL    HW227085   0.508   0.332   0.234
 3315SOL     OW27086   3.592   1.386   0.533
 3315SOL    HW127087   3.651   1.338   0.476
 3315SOL    HW227088   3.631   1.473   0.541
 3316SOL     OW27089   5.477   3.109   0.114
 3316SOL    HW127090   5.543   3.164   0.072
 3316SOL    HW227091   5.487   3.023   0.073
 3317SOL     OW27092   1.865   1.334   7.527
 3317SOL    HW127093   1.935   1.333   7.462
 3317SOL    HW227094   1.791   1.375   7.483
 3318SOL     OW27095   0.098   1.102   1.805
 3318SOL    HW127096   0.066   1.023   1.762
 3318SOL    HW227097   0.067   1.095   1.895
 3319SOL     OW27098   3.262   1.828   0.439
 3319SOL    HW127099   3.311   1.910   0.432
 3319SOL    HW227100   3.275   1.784   0.355
 3320SOL     OW27101   5.444   0.500   0.327
 3320SOL    HW127102   5.433   0.589   0.293
 3320SOL    HW227103   5.422   0.508   0.420
 3321SOL     OW27104   0.599   5.565   2.300
 3321SOL    HW127105   0.681   5.516   2.299
 3321SOL    HW227106   0.540   5.515   2.245
 3322SOL     OW27107   5.631   0.653   1.918
 3322SOL    HW127108   5.541   0.640   1.948
 3322SOL    HW227109   5.685   0.641   1.997
 3323SOL     OW27110   3.588   3.822   0.589
 3323SOL    HW127111   3.552   3.755   0.531
 3323SOL    HW227112   3.632   3.883   0.530
 3324SOL     OW27113   0.551   5.425   7.864
 3324SOL    HW127114   0.582   5.514   7.884
 3324SOL    HW227115   0.460   5.425   7.892
 3325SOL     OW27116   0.568   1.239   0.216
 3325SOL    HW127117   0.599   1.154   0.185
 3325SOL    HW227118   0.612   1.252   0.299
 3326SOL     OW27119   4.138   2.761   6.206
 3326SOL    HW127120   4.098   2.676   6.223
 3326SOL    HW227121   4.205   2.743   6.140
 3327SOL     OW27122   2.180   0.327   1.979
 3327SOL    HW127123   2.153   0.417   1.993
 3327SOL    HW227124   2.249   0.333   1.912
 3328SOL     OW27125   0.657   4.103   2.438
 3328SOL    HW127126   0.653   4.069   2.528
 3328SOL    HW227127   0.621   4.191   2.444
 3329SOL     OW27128   2.621   2.418   0.904
 3329SOL    HW127129   2.594   2.439   0.815
 3329SOL    HW227130   2.564   2.346   0.930
 3330SOL     OW27131   5.603   5.063   0.966
 3330SOL    HW127132   5.588   5.005   1.040
 3330SOL    HW227133   5.520   5.107   0.952
 3331SOL     OW27134   5.603   3.344   7.927
 3331SOL    HW127135   5.564   3.411   7.983
 3331SOL    HW227136   5.613   3.387   7.843
 3332SOL     OW27137   1.841   6.048   7.121
 3332SOL    HW127138   1.818   5.983   7.187
 3332SOL    HW227139   1.899   6.109   7.167
 3333SOL     OW27140   0.259   4.146   1.327
 3333SOL    HW127141   0.315   4.098   1.388
 3333SOL    HW227142   0.318   4.177   1.258
 3334SOL     OW27143   3.338   1.978   6.920
 3334SOL    HW127144   3.365   1.955   7.009
 3334SOL    HW227145   3.394   1.924   6.863
 3335SOL     OW27146   5.492   0.586   7.629
 3335SOL    HW127147   5.439   0.615   7.555
 3335SOL    HW227148   5.429   0.543   7.687
 3336SOL     OW27149   2.728   1.945   2.229
 3336SOL    HW127150   2.812   1.990   2.231
 3336SOL    HW227151   2.726   1.895   2.311
 3337SOL     OW27152   1.777   0.870   5.810
 3337SOL    HW127153   1.695   0.909   5.777
 3337SOL    HW227154   1.809   0.934   5.874
 3338SOL     OW27155   2.678   5.002   2.088
 3338SOL    HW127156   2.640   4.975   2.172
 3338SOL    HW227157   2.603   5.005   2.028
 3339SOL     OW27158   5.219   0.018   6.151
 3339SOL    HW127159   5.219  -0.067   6.107
 3339SOL    HW227160   5.151   0.011   6.217
 3340SOL     OW27161   1.568   1.831   1.483
 3340SOL    HW127162   1.485   1.876   1.495
 3340SOL    HW227163   1.599   1.814   1.572
 3341SOL     OW27164   2.113   3.081   0.836
 3341SOL    HW127165   2.129   3.107   0.745
 3341SOL    HW227166   2.197   3.047   0.866
 3342SOL     OW27167   3.485   3.038   1.104
 3342SOL    HW127168   3.507   3.110   1.045
 3342SOL    HW227169   3.443   2.972   1.048
 3343SOL     OW27170   1.793   0.952   7.694
 3343SOL    HW127171   1.700   0.975   7.702
 3343SOL    HW227172   1.798   0.903   7.612
 3344SOL     OW27173   5.860   2.931   0.247
 3344SOL    HW127174   5.847   3.014   0.294
 3344SOL    HW227175   5.952   2.932   0.223
 3345SOL     OW27176   2.074   6.188   1.686
 3345SOL    HW127177   2.067   6.198   1.781
 3345SOL    HW227178   2.130   6.260   1.657
 3346SOL     OW27179   4.107   0.149   0.203
 3346SOL    HW127180   4.106   0.091   0.127
 3346SOL    HW227181   4.164   0.222   0.176
 3347SOL     OW27182   2.983   1.290   6.820
 3347SOL    HW127183   2.951   1.214   6.772
 3347SOL    HW227184   2.909   1.349   6.824
 3348SOL     OW27185   3.692   0.313   6.228
 3348SOL    HW127186   3.653   0.289   6.144
 3348SOL    HW227187   3.618   0.312   6.289
 3349SOL     OW27188   0.427   0.476   0.740
 3349SOL    HW127189   0.384   0.450   0.821
 3349SOL    HW227190   0.491   0.542   0.768
 3350SOL     OW27191   2.915   5.840   6.684
 3350SOL    HW127192   2.859   5.824   6.760
 3350SOL    HW227193   2.997   5.870   6.722
 3351SOL     OW27194   2.557   0.964   7.071
 3351SOL    HW127195   2.525   0.966   7.161
 3351SOL    HW227196   2.483   0.929   7.020
 3352SOL     OW27197   4.364   4.908   6.181
 3352SOL    HW127198   4.311   4.846   6.131
 3352SOL    HW227199   4.423   4.854   6.232
 3353SOL     OW27200   4.675   0.269   6.092
 3353SOL    HW127201   4.659   0.328   6.018
 3353SOL    HW227202   4.733   0.202   6.057
 3354SOL     OW27203   2.960   2.080   6.586
 3354SOL    HW127204   3.046   2.073   6.627
 3354SOL    HW227205   2.926   1.990   6.587
 3355SOL     OW27206   0.246   2.598   1.972
 3355SOL    HW127207   0.318   2.626   1.915
 3355SOL    HW227208   0.229   2.673   2.029
 3356SOL     OW27209   2.859   2.126   0.936
 3356SOL    HW127210   2.841   2.039   0.899
 3356SOL    HW227211   2.796   2.135   1.008
 3357SOL     OW27212   1.612   4.064   1.586
 3357SOL    HW127213   1.648   3.984   1.549
 3357SOL    HW227214   1.573   4.110   1.511
 3358SOL     OW27215   2.751   4.498   5.907
 3358SOL    HW127216   2.717   4.443   5.977
 3358SOL    HW227217   2.674   4.545   5.873
 3359SOL     OW27218   3.173   0.680   7.628
 3359SOL    HW127219   3.155   0.730   7.548
 3359SOL    HW227220   3.256   0.714   7.660
 3360SOL     OW27221   1.071   0.253   6.374
 3360SOL    HW127222   1.033   0.170   6.346
 3360SOL    HW227223   1.014   0.319   6.335
 3361SOL     OW27224   0.963   2.116   1.570
 3361SOL    HW127225   0.938   2.031   1.532
 3361SOL    HW227226   1.048   2.100   1.610
 3362SOL     OW27227   2.815   4.417   7.199
 3362SOL    HW127228   2.778   4.387   7.282
 3362SOL    HW227229   2.833   4.337   7.150
 3363SOL     OW27230   4.254   1.064   7.100
 3363SOL    HW127231   4.194   1.131   7.069
 3363SOL    HW227232   4.247   0.994   7.035
 3364SOL     OW27233   2.572   3.868   1.952
 3364SOL    HW127234   2.596   3.798   1.892
 3364SOL    HW227235   2.566   3.826   2.038
 3365SOL     OW27236   1.053   0.575   1.107
 3365SOL    HW127237   1.107   0.520   1.051
 3365SOL    HW227238   1.086   0.559   1.196
 3366SOL     OW27239   5.839   5.440   1.539
 3366SOL    HW127240   5.814   5.499   1.611
 3366SOL    HW227241   5.847   5.354   1.580
 3367SOL     OW27242   5.514   0.314   2.089
 3367SOL    HW127243   5.454   0.385   2.065
 3367SOL    HW227244   5.601   0.348   2.070
 3368SOL     OW27245   6.243   3.309   6.976
 3368SOL    HW127246   6.262   3.222   6.941
 3368SOL    HW227247   6.183   3.348   6.911
 3369SOL     OW27248   4.639   1.252   1.480
 3369SOL    HW127249   4.612   1.338   1.447
 3369SOL    HW227250   4.602   1.248   1.568
 3370SOL     OW27251   2.230   6.292   1.985
 3370SOL    HW127252   2.200   6.202   1.973
 3370SOL    HW227253   2.318   6.294   1.946
 3371SOL     OW27254   5.479   2.436   0.038
 3371SOL    HW127255   5.448   2.398  -0.044
 3371SOL    HW227256   5.566   2.399   0.050
 3372SOL     OW27257   2.231   5.926   6.742
 3372SOL    HW127258   2.188   5.986   6.803
 3372SOL    HW227259   2.232   5.842   6.788
 3373SOL     OW27260   5.486   1.800   5.421
 3373SOL    HW127261   5.391   1.793   5.413
 3373SOL    HW227262   5.500   1.828   5.512
 3374SOL     OW27263   2.477   3.446   7.512
 3374SOL    HW127264   2.510   3.367   7.469
 3374SOL    HW227265   2.400   3.417   7.560
 3375SOL     OW27266   5.894   2.770   1.236
 3375SOL    HW127267   5.833   2.702   1.264
 3375SOL    HW227268   5.915   2.818   1.316
 3376SOL     OW27269   4.029   6.273   0.888
 3376SOL    HW127270   4.080   6.316   0.819
 3376SOL    HW227271   3.940   6.308   0.877
 3377SOL     OW27272   0.517   6.156   6.283
 3377SOL    HW127273   0.510   6.153   6.188
 3377SOL    HW227274   0.548   6.069   6.307
 3378SOL     OW27275   5.985   0.583   6.098
 3378SOL    HW127276   6.024   0.643   6.161
 3378SOL    HW227277   6.028   0.603   6.015
 3379SOL     OW27278   4.379   1.240   5.755
 3379SOL    HW127279   4.342   1.328   5.764
 3379SOL    HW227280   4.325   1.186   5.812
 3380SOL     OW27281   5.365   0.790   5.900
 3380SOL    HW127282   5.405   0.746   5.976
 3380SOL    HW227283   5.270   0.778   5.913
 3381SOL     OW27284   0.652   4.369   2.192
 3381SOL    HW127285   0.584   4.314   2.154
 3381SOL    HW227286   0.729   4.312   2.197
 3382SOL     OW27287   1.034   1.514   5.901
 3382SOL    HW127288   1.045   1.597   5.947
 3382SOL    HW227289   1.034   1.538   5.808
 3383SOL     OW27290   0.208   1.707   1.659
 3383SOL    HW127291   0.208   1.740   1.749
 3383SOL    HW227292   0.279   1.643   1.657
 3384SOL     OW27293   3.156   0.526   1.187
 3384SOL    HW127294   3.207   0.445   1.187
 3384SOL    HW227295   3.219   0.594   1.163
 3385SOL     OW27296   2.402   5.167   6.825
 3385SOL    HW127297   2.412   5.168   6.729
 3385SOL    HW227298   2.343   5.094   6.841
 3386SOL     OW27299   5.793   0.016   7.910
 3386SOL    HW127300   5.847  -0.028   7.844
 3386SOL    HW227301   5.855   0.052   7.972
 3387SOL     OW27302   3.374   6.169   1.488
 3387SOL    HW127303   3.464   6.180   1.517
 3387SOL    HW227304   3.321   6.206   1.559
 3388SOL     OW27305   0.508   3.870   6.172
 3388SOL    HW127306   0.492   3.964   6.182
 3388SOL    HW227307   0.513   3.837   6.261
 3389SOL     OW27308   3.762   3.901   5.554
 3389SOL    HW127309   3.735   3.975   5.500
 3389SOL    HW227310   3.853   3.885   5.530
 3390SOL     OW27311   4.066   4.312   7.461
 3390SOL    HW127312   4.011   4.304   7.539
 3390SOL    HW227313   4.093   4.222   7.441
 3391SOL     OW27314   4.052   1.570   6.855
 3391SOL    HW127315   4.032   1.622   6.933
 3391SOL    HW227316   4.083   1.634   6.791
 3392SOL     OW27317   3.833   1.653   0.091
 3392SOL    HW127318   3.851   1.722   0.156
 3392SOL    HW227319   3.778   1.591   0.137
 3393SOL     OW27320   2.329   4.679   6.129
 3393SOL    HW127321   2.264   4.680   6.059
 3393SOL    HW227322   2.284   4.635   6.202
 3394SOL     OW27323   0.077   1.547   5.679
 3394SOL    HW127324   0.124   1.483   5.733
 3394SOL    HW227325   0.006   1.578   5.736
 3395SOL     OW27326   0.460   5.438   7.096
 3395SOL    HW127327   0.444   5.525   7.059
 3395SOL    HW227328   0.554   5.436   7.113
 3396SOL     OW27329   5.121   5.052   7.424
 3396SOL    HW127330   5.164   5.071   7.340
 3396SOL    HW227331   5.185   5.003   7.474
 3397SOL     OW27332   2.489   0.623   7.611
 3397SOL    HW127333   2.566   0.632   7.666
 3397SOL    HW227334   2.514   0.664   7.528
 3398SOL     OW27335   3.793   1.447   1.121
 3398SOL    HW127336   3.786   1.353   1.136
 3398SOL    HW227337   3.704   1.480   1.133
 3399SOL     OW27338   0.165   4.902   6.242
 3399SOL    HW127339   0.239   4.960   6.222
 3399SOL    HW227340   0.111   4.953   6.302
 3400SOL     OW27341   2.147   4.264   0.331
 3400SOL    HW127342   2.228   4.215   0.325
 3400SOL    HW227343   2.109   4.261   0.243
 3401SOL     OW27344   5.722   3.970   1.481
 3401SOL    HW127345   5.657   3.918   1.528
 3401SOL    HW227346   5.682   3.986   1.395
 3402SOL     OW27347   2.301   0.641   6.433
 3402SOL    HW127348   2.207   0.651   6.415
 3402SOL    HW227349   2.335   0.590   6.360
 3403SOL     OW27350   5.617   4.748   6.328
 3403SOL    HW127351   5.562   4.740   6.406
 3403SOL    HW227352   5.580   4.822   6.279
 3404SOL     OW27353   2.637   3.331   2.388
 3404SOL    HW127354   2.560   3.306   2.439
 3404SOL    HW227355   2.601   3.380   2.313
 3405SOL     OW27356   2.693   1.677   0.788
 3405SOL    HW127357   2.619   1.710   0.838
 3405SOL    HW227358   2.656   1.607   0.734
 3406SOL     OW27359   2.471   2.535   7.231
 3406SOL    HW127360   2.424   2.463   7.187
 3406SOL    HW227361   2.528   2.570   7.163
 3407SOL     OW27362   1.639   3.539   1.494
 3407SOL    HW127363   1.555   3.572   1.461
 3407SOL    HW227364   1.689   3.519   1.415
 3408SOL     OW27365   0.719   3.994   2.844
 3408SOL    HW127366   0.633   4.028   2.819
 3408SOL    HW227367   0.757   3.962   2.762
 3409SOL     OW27368   6.046   0.051   6.024
 3409SOL    HW127369   6.124  -0.003   6.027
 3409SOL    HW227370   6.078   0.141   6.034
 3410SOL     OW27371   2.449   0.155   7.263
 3410SOL    HW127372   2.368   0.173   7.215
 3410SOL    HW227373   2.518   0.189   7.207
 3411SOL     OW27374   4.071   0.266   5.962
 3411SOL    HW127375   4.041   0.223   6.042
 3411SOL    HW227376   4.072   0.196   5.896
 3412SOL     OW27377   1.014   5.756   2.417
 3412SOL    HW127378   0.972   5.841   2.434
 3412SOL    HW227379   1.106   5.771   2.438
 3413SOL     OW27380   1.267   1.886   0.927
 3413SOL    HW127381   1.225   1.834   0.858
 3413SOL    HW227382   1.211   1.872   1.004
 3414SOL     OW27383   0.902   2.379   2.158
 3414SOL    HW127384   0.821   2.419   2.189
 3414SOL    HW227385   0.873   2.309   2.099
 3415SOL     OW27386   2.393   1.275   1.259
 3415SOL    HW127387   2.459   1.327   1.305
 3415SOL    HW227388   2.322   1.265   1.323
 3416SOL     OW27389   0.743   1.638   7.838
 3416SOL    HW127390   0.708   1.719   7.874
 3416SOL    HW227391   0.736   1.574   7.909
 3417SOL     OW27392   1.188   6.164   1.161
 3417SOL    HW127393   1.102   6.151   1.201
 3417SOL    HW227394   1.200   6.259   1.160
 3418SOL     OW27395   1.816   3.443   1.004
 3418SOL    HW127396   1.732   3.417   0.968
 3418SOL    HW227397   1.878   3.435   0.931
 3419SOL     OW27398   0.057   4.418   5.886
 3419SOL    HW127399   0.048   4.336   5.837
 3419SOL    HW227400   0.131   4.462   5.845
 3420SOL     OW27401   1.979   2.492   1.298
 3420SOL    HW127402   1.918   2.540   1.241
 3420SOL    HW227403   2.045   2.458   1.239
 3421SOL     OW27404   4.687   4.311   1.394
 3421SOL    HW127405   4.654   4.338   1.479
 3421SOL    HW227406   4.660   4.381   1.334
 3422SOL     OW27407   3.773   1.933   6.161
 3422SOL    HW127408   3.786   1.952   6.068
 3422SOL    HW227409   3.697   1.874   6.163
 3423SOL     OW27410   0.225   0.490   6.391
 3423SOL    HW127411   0.159   0.554   6.417
 3423SOL    HW227412   0.182   0.405   6.404
 3424SOL     OW27413   3.587   0.642   7.579
 3424SOL    HW127414   3.680   0.660   7.596
 3424SOL    HW227415   3.540   0.694   7.644
 3425SOL     OW27416   1.266   3.398   0.160
 3425SOL    HW127417   1.186   3.443   0.132
 3425SOL    HW227418   1.235   3.316   0.197
 3426SOL     OW27419   3.092   2.382   6.127
 3426SOL    HW127420   3.095   2.334   6.044
 3426SOL    HW227421   3.081   2.314   6.193
 3427SOL     OW27422   2.381   1.296   0.341
 3427SOL    HW127423   2.465   1.342   0.330
 3427SOL    HW227424   2.405   1.212   0.381
 3428SOL     OW27425   1.345   6.393   7.138
 3428SOL    HW127426   1.302   6.355   7.061
 3428SOL    HW227427   1.390   6.471   7.104
 3429SOL     OW27428   1.364   6.050   1.804
 3429SOL    HW127429   1.275   6.082   1.793
 3429SOL    HW227430   1.365   5.966   1.758
 3430SOL     OW27431   1.079   3.405   1.855
 3430SOL    HW127432   1.065   3.349   1.778
 3430SOL    HW227433   1.006   3.386   1.913
 3431SOL     OW27434   2.668   3.762   0.671
 3431SOL    HW127435   2.659   3.787   0.763
 3431SOL    HW227436   2.619   3.680   0.663
 3432SOL     OW27437   3.158   3.242   6.295
 3432SOL    HW127438   3.080   3.217   6.345
 3432SOL    HW227439   3.132   3.321   6.248
 3433SOL     OW27440   1.655   6.267   1.212
 3433SOL    HW127441   1.587   6.200   1.209
 3433SOL    HW227442   1.710   6.249   1.136
 3434SOL     OW27443   2.318   2.621   1.078
 3434SOL    HW127444   2.307   2.704   1.123
 3434SOL    HW227445   2.251   2.621   1.010
 3435SOL     OW27446   6.090   2.716   7.082
 3435SOL    HW127447   6.041   2.634   7.080
 3435SOL    HW227448   6.094   2.743   6.990
 3436SOL     OW27449   1.985   5.470   6.290
 3436SOL    HW127450   1.896   5.477   6.254
 3436SOL    HW227451   2.003   5.556   6.328
 3437SOL     OW27452   2.558   4.347   6.450
 3437SOL    HW127453   2.609   4.414   6.405
 3437SOL    HW227454   2.559   4.272   6.391
 3438SOL     OW27455   0.622   5.767   7.459
 3438SOL    HW127456   0.612   5.672   7.461
 3438SOL    HW227457   0.648   5.786   7.369
 3439SOL     OW27458   5.702   0.768   1.495
 3439SOL    HW127459   5.708   0.771   1.590
 3439SOL    HW227460   5.650   0.846   1.472
 3440SOL     OW27461   3.581   3.317   7.283
 3440SOL    HW127462   3.491   3.286   7.286
 3440SOL    HW227463   3.609   3.301   7.193
 3441SOL     OW27464   4.305   4.417   6.349
 3441SOL    HW127465   4.210   4.419   6.364
 3441SOL    HW227466   4.315   4.435   6.256
 3442SOL     OW27467   1.058   2.480   6.235
 3442SOL    HW127468   1.081   2.536   6.310
 3442SOL    HW227469   0.969   2.506   6.212
 3443SOL     OW27470   2.948   3.053   7.517
 3443SOL    HW127471   2.939   3.145   7.493
 3443SOL    HW227472   2.860   3.028   7.546
 3444SOL     OW27473   3.037   6.289   6.356
 3444SOL    HW127474   3.001   6.371   6.388
 3444SOL    HW227475   3.131   6.305   6.347
 3445SOL     OW27476   5.418   3.448   0.651
 3445SOL    HW127477   5.412   3.369   0.705
 3445SOL    HW227478   5.329   3.485   0.652
 3446SOL     OW27479   2.950   3.757   5.924
 3446SOL    HW127480   3.007   3.738   5.849
 3446SOL    HW227481   2.870   3.710   5.904
 3447SOL     OW27482   0.809   0.187   1.497
 3447SOL    HW127483   0.841   0.164   1.584
 3447SOL    HW227484   0.726   0.232   1.512
 3448SOL     OW27485   5.147   5.955   0.356
 3448SOL    HW127486   5.066   5.918   0.390
 3448SOL    HW227487   5.125   6.045   0.333
 3449SOL     OW27488   3.169   6.238   1.326
 3449SOL    HW127489   3.234   6.220   1.393
 3449SOL    HW227490   3.219   6.247   1.245
 3450SOL     OW27491   3.198   3.585   0.067
 3450SOL    HW127492   3.174   3.536   0.146
 3450SOL    HW227493   3.265   3.532   0.025
 3451SOL     OW27494   2.316   4.073   6.391
 3451SOL    HW127495   2.371   4.099   6.317
 3451SOL    HW227496   2.226   4.086   6.361
 3452SOL     OW27497   2.294   0.791   7.237
 3452SOL    HW127498   2.245   0.834   7.166
 3452SOL    HW227499   2.227   0.745   7.288
 3453SOL     OW27500   5.165   4.268   1.295
 3453SOL    HW127501   5.072   4.269   1.273
 3453SOL    HW227502   5.209   4.264   1.210
 3454SOL     OW27503   3.939   0.050   6.121
 3454SOL    HW127504   3.969   0.010   6.203
 3454SOL    HW227505   3.845   0.060   6.132
 3455SOL     OW27506   1.591   4.536   0.522
 3455SOL    HW127507   1.581   4.597   0.449
 3455SOL    HW227508   1.651   4.581   0.582
 3456SOL     OW27509   6.170   1.290   7.627
 3456SOL    HW127510   6.251   1.239   7.624
 3456SOL    HW227511   6.166   1.323   7.717
 3457SOL     OW27512   3.595   4.207   7.146
 3457SOL    HW127513   3.678   4.198   7.193
 3457SOL    HW227514   3.616   4.262   7.070
 3458SOL     OW27515   1.958   5.632   6.031
 3458SOL    HW127516   2.004   5.711   6.059
 3458SOL    HW227517   2.017   5.592   5.967
 3459SOL     OW27518   3.293   3.923   0.829
 3459SOL    HW127519   3.308   3.958   0.917
 3459SOL    HW227520   3.269   3.831   0.843
 3460SOL     OW27521   0.456   3.181   2.285
 3460SOL    HW127522   0.393   3.109   2.283
 3460SOL    HW227523   0.517   3.158   2.355
 3461SOL     OW27524   5.541   5.265   1.342
 3461SOL    HW127525   5.488   5.267   1.422
 3461SOL    HW227526   5.511   5.186   1.296
 3462SOL     OW27527   0.360   0.341   1.028
 3462SOL    HW127528   0.338   0.433   1.016
 3462SOL    HW227529   0.277   0.297   1.047
 3463SOL     OW27530   5.483   6.233   7.452
 3463SOL    HW127531   5.440   6.298   7.397
 3463SOL    HW227532   5.434   6.153   7.437
 3464SOL     OW27533   4.329   5.746   6.275
 3464SOL    HW127534   4.296   5.761   6.187
 3464SOL    HW227535   4.290   5.817   6.327
 3465SOL     OW27536   2.199   5.828   1.138
 3465SOL    HW127537   2.198   5.910   1.090
 3465SOL    HW227538   2.224   5.762   1.073
 3466SOL     OW27539   4.159   4.605   0.898
 3466SOL    HW127540   4.086   4.661   0.923
 3466SOL    HW227541   4.123   4.517   0.897
 3467SOL     OW27542   0.098   3.906   7.204
 3467SOL    HW127543   0.111   3.895   7.110
 3467SOL    HW227544   0.005   3.926   7.214
 3468SOL     OW27545   0.470   5.118   1.501
 3468SOL    HW127546   0.412   5.111   1.426
 3468SOL    HW227547   0.445   5.200   1.544
 3469SOL     OW27548   4.223   1.727   6.676
 3469SOL    HW127549   4.286   1.669   6.633
 3469SOL    HW227550   4.261   1.814   6.669
 3470SOL     OW27551   3.352   5.572   0.160
 3470SOL    HW127552   3.263   5.576   0.126
 3470SOL    HW227553   3.341   5.543   0.251
 3471SOL     OW27554   4.130   2.552   0.248
 3471SOL    HW127555   4.146   2.458   0.259
 3471SOL    HW227556   4.171   2.592   0.324
 3472SOL     OW27557   4.704   3.423   0.143
 3472SOL    HW127558   4.799   3.416   0.136
 3472SOL    HW227559   4.688   3.444   0.236
 3473SOL     OW27560   0.351   2.277   0.008
 3473SOL    HW127561   0.311   2.313  -0.071
 3473SOL    HW227562   0.426   2.333   0.025
 3474SOL     OW27563   1.532   1.291   5.660
 3474SOL    HW127564   1.511   1.384   5.655
 3474SOL    HW227565   1.623   1.289   5.690
 3475SOL     OW27566   1.111   1.764   6.076
 3475SOL    HW127567   1.110   1.734   6.166
 3475SOL    HW227568   1.179   1.831   6.073
 3476SOL     OW27569   1.109   6.174   1.785
 3476SOL    HW127570   1.026   6.136   1.813
 3476SOL    HW227571   1.124   6.246   1.846
 3477SOL     OW27572   0.049   4.497   5.388
 3477SOL    HW127573  -0.038   4.465   5.365
 3477SOL    HW227574   0.049   4.499   5.484
 3478SOL     OW27575   1.379   0.043   1.928
 3478SOL    HW127576   1.287   0.017   1.938
 3478SOL    HW227577   1.397   0.031   1.834
 3479SOL     OW27578   0.489   0.095   6.642
 3479SOL    HW127579   0.556   0.150   6.683
 3479SOL    HW227580   0.520   0.005   6.655
 3480SOL     OW27581   0.131   0.873   0.001
 3480SOL    HW127582   0.074   0.806  -0.037
 3480SOL    HW227583   0.168   0.832   0.079
 3481SOL     OW27584   4.491   4.259   6.536
 3481SOL    HW127585   4.524   4.313   6.607
 3481SOL    HW227586   4.421   4.311   6.497
 3482SOL     OW27587   3.939   1.344   2.029
 3482SOL    HW127588   3.959   1.274   1.968
 3482SOL    HW227589   3.853   1.376   2.002
 3483SOL     OW27590   5.794   0.372   2.112
 3483SOL    HW127591   5.869   0.336   2.158
 3483SOL    HW227592   5.797   0.466   2.130
 3484SOL     OW27593   5.404   0.619   1.570
 3484SOL    HW127594   5.337   0.624   1.639
 3484SOL    HW227595   5.408   0.708   1.534
 3485SOL     OW27596   2.255   3.525   7.931
 3485SOL    HW127597   2.199   3.516   7.854
 3485SOL    HW227598   2.342   3.543   7.895
 3486SOL     OW27599   1.532   5.596   6.859
 3486SOL    HW127600   1.566   5.507   6.868
 3486SOL    HW227601   1.540   5.633   6.946
 3487SOL     OW27602   3.195   3.642   0.898
 3487SOL    HW127603   3.146   3.561   0.883
 3487SOL    HW227604   3.151   3.683   0.973
 3488SOL     OW27605   5.424   3.486   6.305
 3488SOL    HW127606   5.506   3.457   6.345
 3488SOL    HW227607   5.391   3.553   6.364
 3489SOL     OW27608   0.453   0.258   6.939
 3489SOL    HW127609   0.527   0.201   6.958
 3489SOL    HW227610   0.394   0.204   6.887
 3490SOL     OW27611   2.007   2.425   0.660
 3490SOL    HW127612   1.913   2.431   0.675
 3490SOL    HW227613   2.043   2.395   0.744
 3491SOL     OW27614   4.143   6.145   0.261
 3491SOL    HW127615   4.182   6.150   0.349
 3491SOL    HW227616   4.082   6.218   0.258
 3492SOL     OW27617   3.304   6.297   1.712
 3492SOL    HW127618   3.281   6.283   1.804
 3492SOL    HW227619   3.387   6.346   1.715
 3493SOL     OW27620   2.536   4.005   0.038
 3493SOL    HW127621   2.617   4.033   0.081
 3493SOL    HW227622   2.477   3.985   0.111
 3494SOL     OW27623   0.032   0.545   6.052
 3494SOL    HW127624   0.007   0.614   6.114
 3494SOL    HW227625   0.123   0.564   6.031
 3495SOL     OW27626   0.803   5.392   0.017
 3495SOL    HW127627   0.723   5.411  -0.033
 3495SOL    HW227628   0.789   5.305   0.052
 3496SOL     OW27629   0.272   2.054   1.197
 3496SOL    HW127630   0.296   2.083   1.285
 3496SOL    HW227631   0.223   2.128   1.159
 3497SOL     OW27632   0.795   1.542   6.669
 3497SOL    HW127633   0.718   1.487   6.653
 3497SOL    HW227634   0.854   1.486   6.721
 3498SOL     OW27635   5.434   3.328   5.863
 3498SOL    HW127636   5.482   3.354   5.942
 3498SOL    HW227637   5.348   3.301   5.896
 3499SOL     OW27638   4.020   3.819   5.521
 3499SOL    HW127639   4.112   3.841   5.503
 3499SOL    HW227640   4.024   3.761   5.597
 3500SOL     OW27641   0.008   4.917   0.745
 3500SOL    HW127642   0.087   4.870   0.771
 3500SOL    HW227643   0.038   4.980   0.680
 3501SOL     OW27644   0.938   1.119   7.129
 3501SOL    HW127645   0.890   1.166   7.197
 3501SOL    HW227646   0.870   1.069   7.083
 3502SOL     OW27647   3.250   4.852   0.358
 3502SOL    HW127648   3.300   4.901   0.292
 3502SOL    HW227649   3.159   4.857   0.328
 3503SOL     OW27650   3.318   4.787   6.212
 3503SOL    HW127651   3.346   4.845   6.141
 3503SOL    HW227652   3.337   4.699   6.179
 3504SOL     OW27653   4.210   0.684   7.945
 3504SOL    HW127654   4.249   0.699   7.859
 3504SOL    HW227655   4.116   0.685   7.929
 3505SOL     OW27656   0.099   4.725   0.438
 3505SOL    HW127657   0.132   4.814   0.454
 3505SOL    HW227658   0.004   4.733   0.445
 3506SOL     OW27659   0.517   2.869   6.482
 3506SOL    HW127660   0.584   2.933   6.460
 3506SOL    HW227661   0.557   2.785   6.462
 3507SOL     OW27662   5.633   0.389   6.616
 3507SOL    HW127663   5.674   0.325   6.674
 3507SOL    HW227664   5.643   0.352   6.528
 3508SOL     OW27665   3.353   0.407   0.370
 3508SOL    HW127666   3.407   0.341   0.326
 3508SOL    HW227667   3.394   0.490   0.347
 3509SOL     OW27668   4.597   4.424   0.234
 3509SOL    HW127669   4.617   4.344   0.282
 3509SOL    HW227670   4.661   4.488   0.265
 3510SOL     OW27671   0.919   2.981   0.375
 3510SOL    HW127672   0.844   3.037   0.394
 3510SOL    HW227673   0.904   2.951   0.285
 3511SOL     OW27674   2.769   5.840   1.226
 3511SOL    HW127675   2.813   5.924   1.237
 3511SOL    HW227676   2.757   5.832   1.131
 3512SOL     OW27677   6.055   1.618   1.191
 3512SOL    HW127678   6.029   1.674   1.118
 3512SOL    HW227679   6.132   1.572   1.159
 3513SOL     OW27680   1.486   0.106   2.179
 3513SOL    HW127681   1.429   0.088   2.104
 3513SOL    HW227682   1.558   0.043   2.170
 3514SOL     OW27683   4.022   1.791   0.900
 3514SOL    HW127684   4.061   1.720   0.850
 3514SOL    HW227685   3.986   1.749   0.978
 3515SOL     OW27686   0.634   2.706   7.515
 3515SOL    HW127687   0.631   2.790   7.470
 3515SOL    HW227688   0.601   2.643   7.451
 3516SOL     OW27689   5.243   5.353   6.873
 3516SOL    HW127690   5.319   5.314   6.915
 3516SOL    HW227691   5.279   5.418   6.812
 3517SOL     OW27692   5.948   2.467   7.344
 3517SOL    HW127693   5.980   2.504   7.262
 3517SOL    HW227694   5.869   2.419   7.319
 3518SOL     OW27695   1.829   3.555   5.755
 3518SOL    HW127696   1.804   3.603   5.676
 3518SOL    HW227697   1.879   3.480   5.723
 3519SOL     OW27698   4.216   0.051   5.759
 3519SOL    HW127699   4.262  -0.028   5.730
 3519SOL    HW227700   4.143   0.060   5.698
 3520SOL     OW27701   0.944   4.384   0.335
 3520SOL    HW127702   0.995   4.326   0.392
 3520SOL    HW227703   0.991   4.467   0.338
 3521SOL     OW27704   3.992   6.032   1.358
 3521SOL    HW127705   4.074   6.074   1.385
 3521SOL    HW227706   3.926   6.101   1.364
 3522SOL     OW27707   2.026   1.464   7.319
 3522SOL    HW127708   2.055   1.469   7.228
 3522SOL    HW227709   2.023   1.556   7.348
 3523SOL     OW27710   4.591   2.274   6.972
 3523SOL    HW127711   4.590   2.325   6.891
 3523SOL    HW227712   4.521   2.312   7.025
 3524SOL     OW27713   5.161   1.351   6.596
 3524SOL    HW127714   5.247   1.377   6.629
 3524SOL    HW227715   5.107   1.429   6.606
 3525SOL     OW27716   1.766   5.623   7.494
 3525SOL    HW127717   1.772   5.597   7.403
 3525SOL    HW227718   1.755   5.718   7.492
 3526SOL     OW27719   1.955   2.935   0.328
 3526SOL    HW127720   1.985   3.015   0.373
 3526SOL    HW227721   1.897   2.967   0.259
 3527SOL     OW27722   3.618   1.091   1.954
 3527SOL    HW127723   3.598   1.043   1.874
 3527SOL    HW227724   3.643   1.178   1.924
 3528SOL     OW27725   0.986   2.666   1.467
 3528SOL    HW127726   0.909   2.656   1.524
 3528SOL    HW227727   1.058   2.627   1.517
 3529SOL     OW27728   5.291   0.955   0.429
 3529SOL    HW127729   5.206   0.985   0.463
 3529SOL    HW227730   5.268   0.892   0.360
 3530SOL     OW27731   1.794   5.810   0.958
 3530SOL    HW127732   1.849   5.780   1.030
 3530SOL    HW227733   1.834   5.772   0.879
 3531SOL     OW27734   5.873   4.736   5.825
 3531SOL    HW127735   5.928   4.662   5.851
 3531SOL    HW227736   5.784   4.710   5.850
 3532SOL     OW27737   5.557   2.851   5.867
 3532SOL    HW127738   5.564   2.943   5.841
 3532SOL    HW227739   5.644   2.815   5.850
 3533SOL     OW27740   3.230   1.604   7.373
 3533SOL    HW127741   3.246   1.572   7.461
 3533SOL    HW227742   3.309   1.579   7.324
 3534SOL     OW27743   4.605   2.975   6.437
 3534SOL    HW127744   4.675   2.978   6.372
 3534SOL    HW227745   4.650   2.985   6.521
 3535SOL     OW27746   6.326   0.646   6.796
 3535SOL    HW127747   6.387   0.691   6.855
 3535SOL    HW227748   6.313   0.560   6.837
 3536SOL     OW27749   5.048   0.456   0.965
 3536SOL    HW127750   5.123   0.397   0.968
 3536SOL    HW227751   4.994   0.432   1.040
 3537SOL     OW27752   5.987   2.097   0.651
 3537SOL    HW127753   6.081   2.081   0.661
 3537SOL    HW227754   5.981   2.155   0.575
 3538SOL     OW27755   2.683   1.615   7.040
 3538SOL    HW127756   2.679   1.703   7.002
 3538SOL    HW227757   2.693   1.630   7.134
 3539SOL     OW27758   5.405   6.336   1.502
 3539SOL    HW127759   5.393   6.281   1.579
 3539SOL    HW227760   5.412   6.425   1.537
 3540SOL     OW27761   3.575   4.322   1.316
 3540SOL    HW127762   3.527   4.241   1.338
 3540SOL    HW227763   3.509   4.379   1.278
 3541SOL     OW27764   5.811   3.607   1.764
 3541SOL    HW127765   5.754   3.591   1.839
 3541SOL    HW227766   5.894   3.635   1.802
 3542SOL     OW27767   3.658   1.464   0.185
 3542SOL    HW127768   3.568   1.445   0.213
 3542SOL    HW227769   3.709   1.391   0.220
 3543SOL     OW27770   2.850   6.265   6.733
 3543SOL    HW127771   2.940   6.252   6.704
 3543SOL    HW227772   2.799   6.201   6.683
 3544SOL     OW27773   4.080   5.805   1.466
 3544SOL    HW127774   4.114   5.748   1.397
 3544SOL    HW227775   4.049   5.883   1.419
 3545SOL     OW27776   2.885   6.141   0.189
 3545SOL    HW127777   2.824   6.213   0.172
 3545SOL    HW227778   2.964   6.183   0.219
 3546SOL     OW27779   0.340   4.946   6.994
 3546SOL    HW127780   0.330   5.042   6.995
 3546SOL    HW227781   0.371   4.924   7.082
 3547SOL     OW27782   1.539   6.297   7.698
 3547SOL    HW127783   1.459   6.262   7.659
 3547SOL    HW227784   1.519   6.303   7.791
 3548SOL     OW27785   1.473   1.138   7.206
 3548SOL    HW127786   1.415   1.179   7.141
 3548SOL    HW227787   1.436   1.163   7.291
 3549SOL     OW27788   4.951   4.204   7.001
 3549SOL    HW127789   4.891   4.256   6.947
 3549SOL    HW227790   4.910   4.119   7.008
 3550SOL     OW27791   1.579   4.245   1.818
 3550SOL    HW127792   1.594   4.203   1.733
 3550SOL    HW227793   1.665   4.277   1.844
 3551SOL     OW27794   0.817   3.749   5.680
 3551SOL    HW127795   0.795   3.752   5.587
 3551SOL    HW227796   0.903   3.707   5.683
 3552SOL     OW27797   5.141   4.353   6.358
 3552SOL    HW127798   5.201   4.329   6.287
 3552SOL    HW227799   5.196   4.400   6.421
 3553SOL     OW27800   4.554   0.402   5.894
 3553SOL    HW127801   4.580   0.448   5.815
 3553SOL    HW227802   4.479   0.349   5.867
 3554SOL     OW27803   5.864   3.914   2.620
 3554SOL    HW127804   5.779   3.906   2.578
 3554SOL    HW227805   5.918   3.845   2.582
 3555SOL     OW27806   1.466   4.961   0.277
 3555SOL    HW127807   1.389   4.962   0.335
 3555SOL    HW227808   1.527   4.902   0.320
 3556SOL     OW27809   2.102   5.525   0.558
 3556SOL    HW127810   2.050   5.520   0.478
 3556SOL    HW227811   2.168   5.456   0.549
 3557SOL     OW27812   5.510   5.323   6.969
 3557SOL    HW127813   5.537   5.385   6.902
 3557SOL    HW227814   5.531   5.237   6.931
 3558SOL     OW27815   4.081   4.683   0.362
 3558SOL    HW127816   4.059   4.760   0.414
 3558SOL    HW227817   4.167   4.656   0.394
 3559SOL     OW27818   4.132   0.267   6.771
 3559SOL    HW127819   4.161   0.195   6.715
 3559SOL    HW227820   4.051   0.236   6.811
 3560SOL     OW27821   5.058   1.377   7.875
 3560SOL    HW127822   5.137   1.343   7.833
 3560SOL    HW227823   5.001   1.403   7.802
 3561SOL     OW27824   0.337   6.042   6.860
 3561SOL    HW127825   0.316   6.111   6.798
 3561SOL    HW227826   0.392   6.084   6.926
 3562SOL     OW27827   6.163   4.788   1.734
 3562SOL    HW127828   6.187   4.726   1.802
 3562SOL    HW227829   6.147   4.870   1.781
 3563SOL     OW27830   0.607   5.627   6.186
 3563SOL    HW127831   0.516   5.654   6.196
 3563SOL    HW227832   0.616   5.606   6.093
 3564SOL     OW27833   1.444   2.783   6.759
 3564SOL    HW127834   1.506   2.788   6.686
 3564SOL    HW227835   1.492   2.738   6.828
 3565SOL     OW27836   2.609   4.412   1.574
 3565SOL    HW127837   2.586   4.355   1.501
 3565SOL    HW227838   2.648   4.354   1.639
 3566SOL     OW27839   2.127   0.495   0.226
 3566SOL    HW127840   2.087   0.517   0.310
 3566SOL    HW227841   2.053   0.487   0.166
 3567SOL     OW27842   3.780   4.774   2.126
 3567SOL    HW127843   3.772   4.840   2.195
 3567SOL    HW227844   3.750   4.693   2.167
 3568SOL     OW27845   4.040   3.979   5.863
 3568SOL    HW127846   4.055   3.887   5.883
 3568SOL    HW227847   4.126   4.013   5.839
 3569SOL     OW27848   6.212   2.667   7.712
 3569SOL    HW127849   6.134   2.642   7.663
 3569SOL    HW227850   6.256   2.732   7.657
 3570SOL     OW27851   0.915   5.726   0.492
 3570SOL    HW127852   0.841   5.678   0.456
 3570SOL    HW227853   0.902   5.723   0.587
 3571SOL     OW27854   4.575   0.433   7.555
 3571SOL    HW127855   4.562   0.521   7.519
 3571SOL    HW227856   4.616   0.384   7.484
 3572SOL     OW27857   3.923   5.848   6.157
 3572SOL    HW127858   3.974   5.929   6.153
 3572SOL    HW227859   3.888   5.837   6.068
 3573SOL     OW27860   3.463   4.840   6.447
 3573SOL    HW127861   3.415   4.809   6.371
 3573SOL    HW227862   3.555   4.831   6.424
 3574SOL     OW27863   5.633   2.359   1.407
 3574SOL    HW127864   5.656   2.449   1.425
 3574SOL    HW227865   5.701   2.328   1.347
 3575SOL     OW27866   5.001   2.386   7.608
 3575SOL    HW127867   4.981   2.460   7.665
 3575SOL    HW227868   4.922   2.376   7.554
 3576SOL     OW27869   5.258   2.211   7.028
 3576SOL    HW127870   5.170   2.220   6.993
 3576SOL    HW227871   5.253   2.136   7.087
 3577SOL     OW27872   4.732   5.973   7.047
 3577SOL    HW127873   4.748   5.907   7.114
 3577SOL    HW227874   4.654   6.020   7.077
 3578SOL     OW27875   3.568   1.878   0.626
 3578SOL    HW127876   3.512   1.924   0.690
 3578SOL    HW227877   3.636   1.941   0.605
 3579SOL     OW27878   1.982   4.041   6.019
 3579SOL    HW127879   1.956   3.960   5.975
 3579SOL    HW227880   2.032   4.012   6.095
 3580SOL     OW27881   6.211   0.337   6.437
 3580SOL    HW127882   6.218   0.366   6.528
 3580SOL    HW227883   6.117   0.326   6.423
 3581SOL     OW27884   5.850   4.091   7.463
 3581SOL    HW127885   5.903   4.160   7.502
 3581SOL    HW227886   5.892   4.009   7.490
 3582SOL     OW27887   5.893   6.237   6.797
 3582SOL    HW127888   5.922   6.162   6.744
 3582SOL    HW227889   5.902   6.312   6.739
 3583SOL     OW27890   1.605   4.508   7.835
 3583SOL    HW127891   1.663   4.434   7.851
 3583SOL    HW227892   1.570   4.493   7.747
 3584SOL     OW27893   3.233   4.889   7.534
 3584SOL    HW127894   3.162   4.894   7.597
 3584SOL    HW227895   3.299   4.950   7.566
 3585SOL     OW27896   5.322   5.918   0.615
 3585SOL    HW127897   5.392   5.972   0.580
 3585SOL    HW227898   5.267   5.897   0.539
 3586SOL     OW27899   3.744   3.553   6.339
 3586SOL    HW127900   3.833   3.533   6.311
 3586SOL    HW227901   3.754   3.586   6.428
 3587SOL     OW27902   6.107   4.391   1.805
 3587SOL    HW127903   6.092   4.298   1.785
 3587SOL    HW227904   6.022   4.432   1.794
 3588SOL     OW27905   2.871   3.901   7.564
 3588SOL    HW127906   2.812   3.914   7.638
 3588SOL    HW227907   2.907   3.988   7.546
 3589SOL     OW27908   1.249   0.902   2.232
 3589SOL    HW127909   1.228   0.995   2.235
 3589SOL    HW227910   1.164   0.858   2.229
 3590SOL     OW27911   0.784   3.591   0.804
 3590SOL    HW127912   0.711   3.588   0.866
 3590SOL    HW227913   0.806   3.499   0.788
 3591SOL     OW27914   1.842   5.111   0.259
 3591SOL    HW127915   1.831   5.020   0.230
 3591SOL    HW227916   1.937   5.122   0.267
 3592SOL     OW27917   2.902   0.277   0.749
 3592SOL    HW127918   2.978   0.315   0.793
 3592SOL    HW227919   2.827   0.319   0.791
 3593SOL     OW27920   4.466   3.929   6.999
 3593SOL    HW127921   4.435   3.841   7.023
 3593SOL    HW227922   4.443   3.938   6.906
 3594SOL     OW27923   0.017   0.152   7.129
 3594SOL    HW127924   0.029   0.113   7.043
 3594SOL    HW227925  -0.063   0.111   7.164
 3595SOL     OW27926   4.051   1.486   1.225
 3595SOL    HW127927   3.963   1.480   1.190
 3595SOL    HW227928   4.065   1.580   1.239
 3596SOL     OW27929   1.396   3.884   5.961
 3596SOL    HW127930   1.413   3.913   5.872
 3596SOL    HW227931   1.452   3.938   6.016
 3597SOL     OW27932   2.667   1.110   5.857
 3597SOL    HW127933   2.630   1.169   5.792
 3597SOL    HW227934   2.760   1.133   5.860
 3598SOL     OW27935   5.049   4.576   1.549
 3598SOL    HW127936   5.132   4.582   1.501
 3598SOL    HW227937   5.051   4.490   1.591
 3599SOL     OW27938   5.371   2.432   1.277
 3599SOL    HW127939   5.447   2.463   1.326
 3599SOL    HW227940   5.315   2.391   1.343
 3600SOL     OW27941   0.868   5.594   6.899
 3600SOL    HW127942   0.887   5.552   6.815
 3600SOL    HW227943   0.892   5.686   6.885
 3601SOL     OW27944   4.870   6.117   0.560
 3601SOL    HW127945   4.923   6.043   0.531
 3601SOL    HW227946   4.782   6.080   0.571
 3602SOL     OW27947   2.708   1.604   1.626
 3602SOL    HW127948   2.695   1.520   1.670
 3602SOL    HW227949   2.625   1.650   1.639
 3603SOL     OW27950   5.877   1.209   7.850
 3603SOL    HW127951   5.883   1.274   7.780
 3603SOL    HW227952   5.906   1.255   7.928
 3604SOL     OW27953   2.631   3.940   0.464
 3604SOL    HW127954   2.699   3.910   0.403
 3604SOL    HW227955   2.639   3.882   0.539
 3605SOL     OW27956   0.859   5.142   6.551
 3605SOL    HW127957   0.903   5.225   6.533
 3605SOL    HW227958   0.922   5.075   6.525
 3606SOL     OW27959   4.633   0.947   1.036
 3606SOL    HW127960   4.581   1.021   1.005
 3606SOL    HW227961   4.684   0.983   1.110
 3607SOL     OW27962   4.684   3.158   7.554
 3607SOL    HW127963   4.708   3.221   7.622
 3607SOL    HW227964   4.762   3.153   7.498
 3608SOL     OW27965   1.442   2.495   7.780
 3608SOL    HW127966   1.435   2.430   7.709
 3608SOL    HW227967   1.373   2.558   7.761
 3609SOL     OW27968   1.911   3.443   0.301
 3609SOL    HW127969   1.993   3.491   0.295
 3609SOL    HW227970   1.843   3.510   0.294
 3610SOL     OW27971   2.901   3.566   7.066
 3610SOL    HW127972   2.922   3.617   7.144
 3610SOL    HW227973   2.927   3.623   6.993
 3611SOL     OW27974   3.752  -0.002   1.276
 3611SOL    HW127975   3.763   0.093   1.286
 3611SOL    HW227976   3.820  -0.027   1.214
 3612SOL     OW27977   4.094   0.365   7.693
 3612SOL    HW127978   4.074   0.341   7.783
 3612SOL    HW227979   4.047   0.301   7.640
 3613SOL     OW27980   3.055   3.500   2.341
 3613SOL    HW127981   3.010   3.431   2.389
 3613SOL    HW227982   3.148   3.488   2.362
 3614SOL     OW27983   3.203   1.409   1.586
 3614SOL    HW127984   3.180   1.502   1.588
 3614SOL    HW227985   3.289   1.404   1.627
 3615SOL     OW27986   5.437   1.368   6.619
 3615SOL    HW127987   5.420   1.277   6.594
 3615SOL    HW227988   5.528   1.368   6.648
 3616SOL     OW27989   5.586   4.015   7.400
 3616SOL    HW127990   5.627   3.937   7.364
 3616SOL    HW227991   5.658   4.067   7.435
 3617SOL     OW27992   2.267   0.796   6.765
 3617SOL    HW127993   2.332   0.815   6.698
 3617SOL    HW227994   2.313   0.741   6.829
 3618SOL     OW27995   1.028   4.489   1.213
 3618SOL    HW127996   1.011   4.400   1.182
 3618SOL    HW227997   1.083   4.528   1.146
 3619SOL     OW27998   4.960   3.583   0.120
 3619SOL    HW127999   5.049   3.588   0.155
 3619SOL    HW228000   4.967   3.612   0.030
 3620SOL     OW28001   2.743   0.582   1.481
 3620SOL    HW128002   2.651   0.554   1.477
 3620SOL    HW228003   2.740   0.669   1.519
 3621SOL     OW28004   2.967   1.254   0.419
 3621SOL    HW128005   3.006   1.308   0.488
 3621SOL    HW228006   2.915   1.315   0.367
 3622SOL     OW28007   6.231   2.497   5.973
 3622SOL    HW128008   6.326   2.503   5.961
 3622SOL    HW228009   6.199   2.585   5.955
 3623SOL     OW28010   0.652   5.902   6.228
 3623SOL    HW128011   0.681   5.911   6.137
 3623SOL    HW228012   0.664   5.809   6.247
 3624SOL     OW28013   3.093   5.280   1.910
 3624SOL    HW128014   3.154   5.211   1.937
 3624SOL    HW228015   3.072   5.259   1.819
 3625SOL     OW28016   4.369   0.956   6.621
 3625SOL    HW128017   4.391   0.950   6.528
 3625SOL    HW228018   4.376   1.049   6.641
 3626SOL     OW28019   0.973   3.480   1.004
 3626SOL    HW128020   0.966   3.541   0.932
 3626SOL    HW228021   1.019   3.404   0.967
 3627SOL     OW28022   1.131   4.782   1.083
 3627SOL    HW128023   1.161   4.871   1.069
 3627SOL    HW228024   1.203   4.739   1.130
 3628SOL     OW28025   2.223   6.102   1.092
 3628SOL    HW128026   2.215   6.169   1.024
 3628SOL    HW228027   2.178   6.138   1.167
 3629SOL     OW28028   0.056   4.857   0.114
 3629SOL    HW128029   0.044   4.764   0.096
 3629SOL    HW228030  -0.008   4.901   0.059
 3630SOL     OW28031   6.202   0.524   0.937
 3630SOL    HW128032   6.177   0.609   0.973
 3630SOL    HW228033   6.282   0.500   0.984
 3631SOL     OW28034   2.522   4.958   6.651
 3631SOL    HW128035   2.541   5.044   6.615
 3631SOL    HW228036   2.471   4.914   6.583
 3632SOL     OW28037   4.686   1.784   7.368
 3632SOL    HW128038   4.746   1.709   7.362
 3632SOL    HW228039   4.743   1.861   7.367
 3633SOL     OW28040   3.423   4.872   7.317
 3633SOL    HW128041   3.342   4.880   7.367
 3633SOL    HW228042   3.404   4.805   7.251
 3634SOL     OW28043   2.311   3.865   7.462
 3634SOL    HW128044   2.287   3.882   7.370
 3634SOL    HW228045   2.285   3.945   7.508
 3635SOL     OW28046   1.191   1.170   7.919
 3635SOL    HW128047   1.167   1.085   7.956
 3635SOL    HW228048   1.140   1.233   7.969
 3636SOL     OW28049   2.615   2.106   6.070
 3636SOL    HW128050   2.553   2.101   5.996
 3636SOL    HW228051   2.580   2.176   6.126
 3637SOL     OW28052   0.077   5.389   0.734
 3637SOL    HW128053   0.165   5.366   0.706
 3637SOL    HW228054   0.050   5.318   0.792
 3638SOL     OW28055   0.413   0.234   1.331
 3638SOL    HW128056   0.384   0.304   1.273
 3638SOL    HW228057   0.403   0.154   1.278
 3639SOL     OW28058   5.818   6.104   0.997
 3639SOL    HW128059   5.838   6.158   1.074
 3639SOL    HW228060   5.845   6.158   0.922
 3640SOL     OW28061   4.639   2.948   0.936
 3640SOL    HW128062   4.649   2.942   0.841
 3640SOL    HW228063   4.686   2.872   0.970
 3641SOL     OW28064   0.136   2.376   0.943
 3641SOL    HW128065   0.200   2.439   0.910
 3641SOL    HW228066   0.088   2.423   1.011
 3642SOL     OW28067   3.707   3.453   6.921
 3642SOL    HW128068   3.615   3.432   6.910
 3642SOL    HW228069   3.741   3.459   6.832
 3643SOL     OW28070   2.465   0.943   0.719
 3643SOL    HW128071   2.372   0.962   0.728
 3643SOL    HW228072   2.472   0.848   0.732
 3644SOL     OW28073   0.907   4.747   5.868
 3644SOL    HW128074   0.911   4.690   5.945
 3644SOL    HW228075   0.813   4.755   5.849
 3645SOL     OW28076   4.026   0.891   7.813
 3645SOL    HW128077   4.105   0.876   7.761
 3645SOL    HW228078   4.057   0.946   7.886
 3646SOL     OW28079   6.369   1.817   1.548
 3646SOL    HW128080   6.460   1.789   1.552
 3646SOL    HW228081   6.342   1.825   1.639
 3647SOL     OW28082   5.814   6.007   5.235
 3647SOL    HW128083   5.727   5.968   5.230
 3647SOL    HW228084   5.798   6.102   5.232
 3648SOL     OW28085   2.019   2.167   2.367
 3648SOL    HW128086   2.047   2.121   2.288
 3648SOL    HW228087   2.059   2.254   2.360
 3649SOL     OW28088   3.773   5.676   5.476
 3649SOL    HW128089   3.867   5.661   5.489
 3649SOL    HW228090   3.741   5.701   5.563
 3650SOL     OW28091   3.478   0.027   1.248
 3650SOL    HW128092   3.463   0.065   1.335
 3650SOL    HW228093   3.571   0.005   1.247
 3651SOL     OW28094   3.551   5.088   1.412
 3651SOL    HW128095   3.543   5.149   1.339
 3651SOL    HW228096   3.467   5.092   1.457
 3652SOL     OW28097   5.299   3.405   0.338
 3652SOL    HW128098   5.383   3.429   0.376
 3652SOL    HW228099   5.307   3.312   0.320
 3653SOL     OW28100   1.678   2.019   1.017
 3653SOL    HW128101   1.660   2.017   1.111
 3653SOL    HW228102   1.626   1.947   0.981
 3654SOL     OW28103   1.475   2.066   0.777
 3654SOL    HW128104   1.554   2.053   0.830
 3654SOL    HW228105   1.408   2.013   0.820
 3655SOL     OW28106   6.161   0.046   0.710
 3655SOL    HW128107   6.077   0.057   0.666
 3655SOL    HW228108   6.159   0.109   0.782
 3656SOL     OW28109   5.682   2.747   0.390
 3656SOL    HW128110   5.633   2.722   0.312
 3656SOL    HW228111   5.744   2.813   0.360
 3657SOL     OW28112   0.252   2.649   0.025
 3657SOL    HW128113   0.185   2.626  -0.040
 3657SOL    HW228114   0.217   2.617   0.108
 3658SOL     OW28115   1.473   3.585   7.116
 3658SOL    HW128116   1.509   3.616   7.033
 3658SOL    HW228117   1.397   3.533   7.091
 3659SOL     OW28118   3.445   3.629   0.963
 3659SOL    HW128119   3.433   3.690   1.036
 3659SOL    HW228120   3.357   3.610   0.932
 3660SOL     OW28121   1.058   2.410   6.746
 3660SOL    HW128122   1.010   2.363   6.678
 3660SOL    HW228123   1.150   2.397   6.725
 3661SOL     OW28124   6.219   5.531   5.631
 3661SOL    HW128125   6.292   5.499   5.578
 3661SOL    HW228126   6.190   5.610   5.586
 3662SOL     OW28127   1.874   0.797   7.079
 3662SOL    HW128128   1.910   0.775   6.993
 3662SOL    HW228129   1.893   0.890   7.089
 3663SOL     OW28130   6.261   3.638   7.306
 3663SOL    HW128131   6.185   3.634   7.248
 3663SOL    HW228132   6.228   3.610   7.392
 3664SOL     OW28133   4.938   0.601   2.007
 3664SOL    HW128134   4.968   0.575   2.094
 3664SOL    HW228135   5.008   0.654   1.971
 3665SOL     OW28136   3.059   3.274   7.906
 3665SOL    HW128137   3.036   3.350   7.852
 3665SOL    HW228138   3.112   3.219   7.849
 3666SOL     OW28139   1.022   4.937   6.832
 3666SOL    HW128140   1.084   4.994   6.787
 3666SOL    HW228141   1.000   4.984   6.912
 3667SOL     OW28142   0.458   2.044   0.187
 3667SOL    HW128143   0.389   2.089   0.139
 3667SOL    HW228144   0.443   2.069   0.279
 3668SOL     OW28145   1.926   3.801   7.473
 3668SOL    HW128146   1.862   3.731   7.485
 3668SOL    HW228147   2.006   3.767   7.513
 3669SOL     OW28148   2.685   3.040   7.648
 3669SOL    HW128149   2.738   2.999   7.716
 3669SOL    HW228150   2.596   3.010   7.665
 3670SOL     OW28151   0.768   4.992   7.039
 3670SOL    HW128152   0.807   5.080   7.044
 3670SOL    HW228153   0.714   4.994   6.960
 3671SOL     OW28154   3.875   3.134   6.340
 3671SOL    HW128155   3.866   3.229   6.347
 3671SOL    HW228156   3.955   3.121   6.290
 3672SOL     OW28157   2.971   1.711   7.428
 3672SOL    HW128158   3.058   1.672   7.419
 3672SOL    HW228159   2.972   1.785   7.368
 3673SOL     OW28160   1.516   3.858   1.075
 3673SOL    HW128161   1.543   3.949   1.084
 3673SOL    HW228162   1.434   3.852   1.124
 3674SOL     OW28163   4.832   0.717   6.276
 3674SOL    HW128164   4.879   0.786   6.323
 3674SOL    HW228165   4.890   0.694   6.204
 3675SOL     OW28166   3.633   2.450   6.736
 3675SOL    HW128167   3.694   2.378   6.754
 3675SOL    HW228168   3.655   2.516   6.802
 3676SOL     OW28169   4.500   5.306   6.860
 3676SOL    HW128170   4.426   5.339   6.809
 3676SOL    HW228171   4.521   5.377   6.921
 3677SOL     OW28172   1.728   1.027   7.217
 3677SOL    HW128173   1.771   1.070   7.142
 3677SOL    HW228174   1.634   1.031   7.195
 3678SOL     OW28175   4.003   2.181   1.866
 3678SOL    HW128176   4.034   2.177   1.956
 3678SOL    HW228177   3.940   2.109   1.859
 3679SOL     OW28178   4.142   4.304   6.848
 3679SOL    HW128179   4.158   4.239   6.917
 3679SOL    HW228180   4.050   4.292   6.825
 3680SOL     OW28181   1.980   0.899   2.354
 3680SOL    HW128182   1.923   0.977   2.349
 3680SOL    HW228183   1.979   0.875   2.446
 3681SOL     OW28184   1.604   1.841   7.427
 3681SOL    HW128185   1.584   1.768   7.370
 3681SOL    HW228186   1.522   1.857   7.475
 3682SOL     OW28187   1.780   3.217   1.475
 3682SOL    HW128188   1.738   3.226   1.389
 3682SOL    HW228189   1.745   3.290   1.526
 3683SOL     OW28190   6.331   5.155   0.882
 3683SOL    HW128191   6.236   5.164   0.883
 3683SOL    HW228192   6.347   5.075   0.832
 3684SOL     OW28193   4.116   2.574   7.434
 3684SOL    HW128194   4.102   2.657   7.389
 3684SOL    HW228195   4.027   2.544   7.456
 3685SOL     OW28196   2.997   2.922   6.755
 3685SOL    HW128197   2.941   2.846   6.765
 3685SOL    HW228198   3.056   2.919   6.830
 3686SOL     OW28199   6.151   5.916   1.331
 3686SOL    HW128200   6.103   5.833   1.320
 3686SOL    HW228201   6.164   5.948   1.241
 3687SOL     OW28202   2.597   1.013   7.685
 3687SOL    HW128203   2.518   0.992   7.635
 3687SOL    HW228204   2.626   1.097   7.651
 3688SOL     OW28205   2.942   0.777   0.519
 3688SOL    HW128206   2.948   0.696   0.467
 3688SOL    HW228207   2.849   0.788   0.535
 3689SOL     OW28208   4.022   2.908   1.210
 3689SOL    HW128209   3.991   2.997   1.196
 3689SOL    HW228210   4.114   2.917   1.235
 3690SOL     OW28211   4.664   0.296   1.061
 3690SOL    HW128212   4.674   0.350   0.983
 3690SOL    HW228213   4.741   0.240   1.061
 3691SOL     OW28214   3.679   5.983   1.943
 3691SOL    HW128215   3.734   5.928   1.887
 3691SOL    HW228216   3.673   5.935   2.025
 3692SOL     OW28217   0.039   4.769   5.640
 3692SOL    HW128218   0.018   4.679   5.662
 3692SOL    HW228219   0.098   4.798   5.709
 3693SOL     OW28220   0.118   4.957   7.385
 3693SOL    HW128221   0.094   5.039   7.342
 3693SOL    HW228222   0.140   4.982   7.474
 3694SOL     OW28223   2.587   2.204   1.610
 3694SOL    HW128224   2.541   2.158   1.681
 3694SOL    HW228225   2.589   2.296   1.639
 3695SOL     OW28226   2.001   0.133   1.035
 3695SOL    HW128227   2.053   0.118   1.114
 3695SOL    HW228228   2.014   0.225   1.015
 3696SOL     OW28229   4.932   1.647   0.485
 3696SOL    HW128230   4.906   1.662   0.394
 3696SOL    HW228231   4.878   1.706   0.536
 3697SOL     OW28232   0.408   0.591   6.214
 3697SOL    HW128233   0.344   0.552   6.274
 3697SOL    HW228234   0.364   0.592   6.129
 3698SOL     OW28235   3.933   3.139   1.143
 3698SOL    HW128236   3.888   3.147   1.059
 3698SOL    HW228237   3.975   3.224   1.156
 3699SOL     OW28238   6.320   1.958   6.909
 3699SOL    HW128239   6.249   1.966   6.846
 3699SOL    HW228240   6.305   1.874   6.953
 3700SOL     OW28241   2.558   3.748   6.685
 3700SOL    HW128242   2.585   3.792   6.765
 3700SOL    HW228243   2.608   3.791   6.616
 3701SOL     OW28244   1.484   0.899   6.018
 3701SOL    HW128245   1.485   0.804   6.021
 3701SOL    HW228246   1.465   0.921   5.927
 3702SOL     OW28247   2.606   3.821   6.238
 3702SOL    HW128248   2.620   3.836   6.331
 3702SOL    HW228249   2.555   3.897   6.209
 3703SOL     OW28250   3.374   2.755   1.443
 3703SOL    HW128251   3.358   2.750   1.537
 3703SOL    HW228252   3.371   2.849   1.423
 3704SOL     OW28253   1.919   1.185   2.312
 3704SOL    HW128254   1.955   1.248   2.250
 3704SOL    HW228255   1.907   1.234   2.393
 3705SOL     OW28256   1.288   2.166   0.342
 3705SOL    HW128257   1.377   2.202   0.348
 3705SOL    HW228258   1.255   2.168   0.432
 3706SOL     OW28259   3.114   2.861   7.702
 3706SOL    HW128260   3.032   2.908   7.689
 3706SOL    HW228261   3.125   2.808   7.623
 3707SOL     OW28262   0.155   0.466   6.871
 3707SOL    HW128263   0.209   0.476   6.949
 3707SOL    HW228264   0.214   0.488   6.799
 3708SOL     OW28265   3.381   1.688   6.400
 3708SOL    HW128266   3.395   1.782   6.412
 3708SOL    HW228267   3.417   1.648   6.479
 3709SOL     OW28268   4.484   1.190   7.316
 3709SOL    HW128269   4.546   1.161   7.383
 3709SOL    HW228270   4.398   1.165   7.349
 3710SOL     OW28271   3.504   1.781   6.853
 3710SOL    HW128272   3.500   1.714   6.921
 3710SOL    HW228273   3.522   1.733   6.772
 3711SOL     OW28274   5.168   0.919   6.583
 3711SOL    HW128275   5.206   0.837   6.616
 3711SOL    HW228276   5.094   0.936   6.642
 3712SOL     OW28277   0.916   5.542   0.218
 3712SOL    HW128278   0.847   5.553   0.284
 3712SOL    HW228279   0.871   5.509   0.141
 3713SOL     OW28280   0.080   6.105   1.149
 3713SOL    HW128281   0.141   6.177   1.131
 3713SOL    HW228282   0.109   6.034   1.092
 3714SOL     OW28283   3.177   0.363   0.867
 3714SOL    HW128284   3.214   0.327   0.948
 3714SOL    HW228285   3.204   0.455   0.867
 3715SOL     OW28286   4.084   4.820   0.602
 3715SOL    HW128287   4.135   4.902   0.602
 3715SOL    HW228288   4.098   4.784   0.689
 3716SOL     OW28289   3.352   4.758   5.685
 3716SOL    HW128290   3.394   4.843   5.698
 3716SOL    HW228291   3.410   4.695   5.727
 3717SOL     OW28292   1.056   5.455   1.636
 3717SOL    HW128293   1.047   5.501   1.552
 3717SOL    HW228294   0.999   5.378   1.627
 3718SOL     OW28295   6.054   5.471   1.179
 3718SOL    HW128296   6.035   5.456   1.087
 3718SOL    HW228297   6.076   5.384   1.213
 3719SOL     OW28298   4.256   3.824   7.901
 3719SOL    HW128299   4.191   3.877   7.855
 3719SOL    HW228300   4.340   3.868   7.883
 3720SOL     OW28301   6.201   1.312   7.023
 3720SOL    HW128302   6.150   1.362   6.959
 3720SOL    HW228303   6.190   1.361   7.105
 3721SOL     OW28304   1.790   0.687   7.844
 3721SOL    HW128305   1.865   0.746   7.840
 3721SOL    HW228306   1.797   0.633   7.765
 3722SOL     OW28307   6.353   3.422   6.226
 3722SOL    HW128308   6.441   3.405   6.257
 3722SOL    HW228309   6.329   3.505   6.267
 3723SOL     OW28310   5.531   1.861   6.673
 3723SOL    HW128311   5.439   1.834   6.676
 3723SOL    HW228312   5.539   1.910   6.592
 3724SOL     OW28313   1.962   5.282   1.528
 3724SOL    HW128314   1.869   5.264   1.516
 3724SOL    HW228315   2.000   5.199   1.555
 3725SOL     OW28316   3.224   6.046   0.910
 3725SOL    HW128317   3.151   6.004   0.956
 3725SOL    HW228318   3.189   6.068   0.824
 3726SOL     OW28319   1.329   1.579   7.629
 3726SOL    HW128320   1.315   1.523   7.705
 3726SOL    HW228321   1.410   1.547   7.589
 3727SOL     OW28322   1.006   3.949   1.495
 3727SOL    HW128323   0.937   3.995   1.542
 3727SOL    HW228324   0.969   3.863   1.475
 3728SOL     OW28325   5.730   2.537   7.755
 3728SOL    HW128326   5.725   2.455   7.705
 3728SOL    HW228327   5.643   2.576   7.746
 3729SOL     OW28328   5.388   5.642   1.670
 3729SOL    HW128329   5.474   5.673   1.643
 3729SOL    HW228330   5.341   5.628   1.588
 3730SOL     OW28331   2.799   0.056   7.134
 3730SOL    HW128332   2.793  -0.024   7.082
 3730SOL    HW228333   2.860   0.035   7.204
 3731SOL     OW28334   2.054   4.390   0.550
 3731SOL    HW128335   1.966   4.408   0.516
 3731SOL    HW228336   2.099   4.346   0.477
 3732SOL     OW28337   2.974   0.496   7.271
 3732SOL    HW128338   3.034   0.489   7.344
 3732SOL    HW228339   3.015   0.558   7.211
 3733SOL     OW28340   1.994   4.556   6.848
 3733SOL    HW128341   1.914   4.514   6.878
 3733SOL    HW228342   2.045   4.485   6.809
 3734SOL     OW28343   5.589   6.129   1.822
 3734SOL    HW128344   5.633   6.196   1.769
 3734SOL    HW228345   5.539   6.178   1.886
 3735SOL     OW28346   5.854   5.093   6.900
 3735SOL    HW128347   5.914   5.025   6.932
 3735SOL    HW228348   5.788   5.044   6.850
 3736SOL     OW28349   0.425   0.777   0.494
 3736SOL    HW128350   0.479   0.705   0.527
 3736SOL    HW228351   0.343   0.769   0.541
 3737SOL     OW28352   2.779   4.693   7.528
 3737SOL    HW128353   2.835   4.642   7.587
 3737SOL    HW228354   2.839   4.750   7.481
 3738SOL     OW28355   2.407   2.677   7.816
 3738SOL    HW128356   2.413   2.582   7.825
 3738SOL    HW228357   2.396   2.709   7.906
 3739SOL     OW28358   4.866   4.086   7.575
 3739SOL    HW128359   4.843   4.124   7.491
 3739SOL    HW228360   4.941   4.138   7.605
 3740SOL     OW28361   5.660   6.155   7.705
 3740SOL    HW128362   5.632   6.235   7.662
 3740SOL    HW228363   5.600   6.088   7.673
 3741SOL     OW28364   1.301   5.328   1.511
 3741SOL    HW128365   1.254   5.404   1.544
 3741SOL    HW228366   1.314   5.272   1.588
 3742SOL     OW28367   2.074   5.491   0.087
 3742SOL    HW128368   2.132   5.506   0.012
 3742SOL    HW228369   1.995   5.452   0.048
 3743SOL     OW28370   3.263   1.151   6.477
 3743SOL    HW128371   3.251   1.145   6.382
 3743SOL    HW228372   3.177   1.179   6.510
 3744SOL     OW28373   5.361   3.006   6.711
 3744SOL    HW128374   5.266   3.013   6.698
 3744SOL    HW228375   5.389   3.096   6.728
 3745SOL     OW28376   4.435   2.314   0.804
 3745SOL    HW128377   4.418   2.387   0.863
 3745SOL    HW228378   4.531   2.311   0.797
 3746SOL     OW28379   4.370   5.420   5.618
 3746SOL    HW128380   4.449   5.436   5.669
 3746SOL    HW228381   4.334   5.507   5.600
 3747SOL     OW28382   3.469   2.259   0.162
 3747SOL    HW128383   3.388   2.208   0.156
 3747SOL    HW228384   3.533   2.199   0.202
 3748SOL     OW28385   1.956   3.329   7.688
 3748SOL    HW128386   1.894   3.293   7.624
 3748SOL    HW228387   1.924   3.418   7.704
 3749SOL     OW28388   5.709   3.211   6.631
 3749SOL    HW128389   5.696   3.135   6.688
 3749SOL    HW228390   5.693   3.287   6.686
 3750SOL     OW28391   0.025   6.206   0.477
 3750SOL    HW128392  -0.070   6.221   0.482
 3750SOL    HW228393   0.035   6.145   0.403
 3751SOL     OW28394   0.016   2.202   5.373
 3751SOL    HW128395  -0.070   2.229   5.407
 3751SOL    HW228396   0.046   2.278   5.323
 3752SOL     OW28397   3.115   2.547   1.505
 3752SOL    HW128398   3.178   2.540   1.577
 3752SOL    HW228399   3.061   2.623   1.528
 3753SOL     OW28400   4.456   1.754   7.498
 3753SOL    HW128401   4.407   1.836   7.492
 3753SOL    HW228402   4.542   1.774   7.462
 3754SOL     OW28403   6.215   1.522   7.212
 3754SOL    HW128404   6.299   1.491   7.246
 3754SOL    HW228405   6.152   1.497   7.280
 3755SOL     OW28406   5.602   4.251   0.799
 3755SOL    HW128407   5.587   4.157   0.791
 3755SOL    HW228408   5.693   4.258   0.828
 3756SOL     OW28409   2.002   3.082   6.903
 3756SOL    HW128410   2.022   3.031   6.981
 3756SOL    HW228411   1.909   3.068   6.888
 3757SOL     OW28412   4.955   5.597   1.550
 3757SOL    HW128413   4.893   5.537   1.592
 3757SOL    HW228414   4.962   5.670   1.611
 3758SOL     OW28415   2.101   3.340   2.698
 3758SOL    HW128416   2.114   3.247   2.720
 3758SOL    HW228417   2.182   3.382   2.725
 3759SOL     OW28418   4.226   2.560   1.256
 3759SOL    HW128419   4.225   2.559   1.351
 3759SOL    HW228420   4.137   2.537   1.231
 3760SOL     OW28421   4.647   2.782   6.956
 3760SOL    HW128422   4.705   2.859   6.958
 3760SOL    HW228423   4.623   2.767   7.048
 3761SOL     OW28424   3.500   1.459   1.182
 3761SOL    HW128425   3.425   1.512   1.210
 3761SOL    HW228426   3.463   1.372   1.165
 3762SOL     OW28427   2.457   5.995   7.174
 3762SOL    HW128428   2.537   5.992   7.226
 3762SOL    HW228429   2.461   6.079   7.128
 3763SOL     OW28430   3.973   2.116   1.573
 3763SOL    HW128431   3.993   2.149   1.660
 3763SOL    HW228432   3.878   2.108   1.571
 3764SOL     OW28433   4.388   4.881   6.685
 3764SOL    HW128434   4.384   4.787   6.704
 3764SOL    HW228435   4.456   4.889   6.618
 3765SOL     OW28436   3.760   4.647   0.073
 3765SOL    HW128437   3.719   4.608  -0.004
 3765SOL    HW228438   3.767   4.740   0.052
 3766SOL     OW28439   4.867   1.290   7.656
 3766SOL    HW128440   4.919   1.339   7.592
 3766SOL    HW228441   4.783   1.276   7.612
 3767SOL     OW28442   5.720   1.379   5.441
 3767SOL    HW128443   5.736   1.461   5.393
 3767SOL    HW228444   5.632   1.353   5.414
 3768SOL     OW28445   4.753   5.665   6.499
 3768SOL    HW128446   4.771   5.759   6.494
 3768SOL    HW228447   4.699   5.655   6.577
 3769SOL     OW28448   1.827   1.296   0.670
 3769SOL    HW128449   1.830   1.218   0.615
 3769SOL    HW228450   1.739   1.297   0.707
 3770SOL     OW28451   5.806   3.268   1.159
 3770SOL    HW128452   5.901   3.276   1.165
 3770SOL    HW228453   5.781   3.329   1.090
 3771SOL     OW28454   2.561   1.824   7.526
 3771SOL    HW128455   2.587   1.916   7.525
 3771SOL    HW228456   2.605   1.785   7.450
 3772SOL     OW28457   3.917   0.375   7.371
 3772SOL    HW128458   3.923   0.280   7.364
 3772SOL    HW228459   3.876   0.403   7.289
 3773SOL     OW28460   3.070   6.165   6.606
 3773SOL    HW128461   3.057   6.192   6.515
 3773SOL    HW228462   3.115   6.081   6.601
 3774SOL     OW28463   5.871   1.669   0.663
 3774SOL    HW128464   5.955   1.681   0.707
 3774SOL    HW228465   5.827   1.599   0.711
 3775SOL     OW28466   0.368   1.942   6.608
 3775SOL    HW128467   0.324   1.867   6.648
 3775SOL    HW228468   0.413   1.906   6.532
 3776SOL     OW28469   4.725   5.193   0.039
 3776SOL    HW128470   4.808   5.192   0.087
 3776SOL    HW228471   4.687   5.278   0.057
 3777SOL     OW28472   2.495   4.307   0.551
 3777SOL    HW128473   2.552   4.342   0.620
 3777SOL    HW228474   2.421   4.367   0.548
 3778SOL     OW28475   5.906   1.009   6.388
 3778SOL    HW128476   5.930   0.980   6.300
 3778SOL    HW228477   5.951   0.949   6.447
 3779SOL     OW28478   4.864   2.009   7.405
 3779SOL    HW128479   4.927   1.976   7.469
 3779SOL    HW228480   4.912   2.007   7.322
 3780SOL     OW28481   3.808   3.235   0.219
 3780SOL    HW128482   3.893   3.278   0.205
 3780SOL    HW228483   3.803   3.171   0.148
 3781SOL     OW28484   0.740   4.203   1.373
 3781SOL    HW128485   0.719   4.285   1.417
 3781SOL    HW228486   0.794   4.155   1.436
 3782SOL     OW28487   4.296   4.330   0.718
 3782SOL    HW128488   4.214   4.355   0.676
 3782SOL    HW228489   4.273   4.257   0.775
 3783SOL     OW28490   3.068   5.683   0.773
 3783SOL    HW128491   3.068   5.747   0.702
 3783SOL    HW228492   3.001   5.619   0.749
 3784SOL     OW28493   3.901   4.878   5.728
 3784SOL    HW128494   3.900   4.923   5.644
 3784SOL    HW228495   3.973   4.920   5.777
 3785SOL     OW28496   0.379   4.928   0.999
 3785SOL    HW128497   0.327   5.004   1.023
 3785SOL    HW228498   0.435   4.911   1.075
 3786SOL     OW28499   3.735   4.529   0.859
 3786SOL    HW128500   3.674   4.599   0.882
 3786SOL    HW228501   3.759   4.548   0.768
 3787SOL     OW28502   0.182   5.429   1.269
 3787SOL    HW128503   0.140   5.424   1.355
 3787SOL    HW228504   0.123   5.381   1.211
 3788SOL     OW28505   6.058   5.505   7.588
 3788SOL    HW128506   6.086   5.492   7.498
 3788SOL    HW228507   5.996   5.578   7.584
 3789SOL     OW28508   5.110   4.713   7.238
 3789SOL    HW128509   5.115   4.750   7.150
 3789SOL    HW228510   5.016   4.702   7.255
 3790SOL     OW28511   2.138   0.159   6.565
 3790SOL    HW128512   2.200   0.167   6.637
 3790SOL    HW228513   2.053   0.144   6.607
 3791SOL     OW28514   3.753   3.240   2.058
 3791SOL    HW128515   3.784   3.161   2.104
 3791SOL    HW228516   3.684   3.208   2.000
 3792SOL     OW28517   2.315   4.288   6.560
 3792SOL    HW128518   2.403   4.313   6.534
 3792SOL    HW228519   2.289   4.221   6.496
 3793SOL     OW28520   5.347   2.158   6.705
 3793SOL    HW128521   5.436   2.157   6.741
 3793SOL    HW228522   5.293   2.189   6.778
 3794SOL     OW28523   3.829   0.929   0.397
 3794SOL    HW128524   3.746   0.951   0.355
 3794SOL    HW228525   3.818   0.958   0.488
 3795SOL     OW28526   2.965   4.502   0.186
 3795SOL    HW128527   2.922   4.429   0.230
 3795SOL    HW228528   3.043   4.519   0.238
 3796SOL     OW28529   3.162   4.162   1.381
 3796SOL    HW128530   3.162   4.074   1.417
 3796SOL    HW228531   3.070   4.182   1.365
 3797SOL     OW28532   3.510   4.054   7.559
 3797SOL    HW128533   3.599   4.086   7.561
 3797SOL    HW228534   3.495   4.016   7.646
 3798SOL     OW28535   0.265   4.534   5.766
 3798SOL    HW128536   0.286   4.519   5.674
 3798SOL    HW228537   0.328   4.599   5.796
 3799SOL     OW28538   5.998   4.616   6.981
 3799SOL    HW128539   5.951   4.624   6.898
 3799SOL    HW228540   6.055   4.693   6.984
 3800SOL     OW28541   6.347   1.075   0.843
 3800SOL    HW128542   6.282   1.018   0.802
 3800SOL    HW228543   6.347   1.050   0.935
 3801SOL     OW28544   1.212   5.529   7.260
 3801SOL    HW128545   1.254   5.613   7.240
 3801SOL    HW228546   1.187   5.494   7.175
 3802SOL     OW28547   5.706   0.006   0.661
 3802SOL    HW128548   5.720  -0.073   0.609
 3802SOL    HW228549   5.613   0.003   0.684
 3803SOL     OW28550   4.843   0.516   6.065
 3803SOL    HW128551   4.823   0.515   5.972
 3803SOL    HW228552   4.904   0.443   6.077
 3804SOL     OW28553   1.490   5.246   0.100
 3804SOL    HW128554   1.465   5.167   0.147
 3804SOL    HW228555   1.559   5.218   0.041
 3805SOL     OW28556   1.103   6.200   6.273
 3805SOL    HW128557   1.120   6.235   6.185
 3805SOL    HW228558   1.189   6.200   6.315
 3806SOL     OW28559   1.936   3.684   6.832
 3806SOL    HW128560   1.978   3.749   6.777
 3806SOL    HW228561   1.910   3.732   6.911
 3807SOL     OW28562   5.029   1.834   0.988
 3807SOL    HW128563   4.982   1.775   1.047
 3807SOL    HW228564   4.997   1.921   1.012
 3808SOL     OW28565   4.419   2.716   1.100
 3808SOL    HW128566   4.351   2.658   1.136
 3808SOL    HW228567   4.377   2.758   1.025
 3809SOL     OW28568   4.448   0.885   7.486
 3809SOL    HW128569   4.487   0.813   7.437
 3809SOL    HW228570   4.383   0.922   7.426
 3810SOL     OW28571   4.977   0.628   7.708
 3810SOL    HW128572   5.011   0.713   7.735
 3810SOL    HW228573   4.987   0.573   7.786
 3811SOL     OW28574   2.224   5.517   7.801
 3811SOL    HW128575   2.280   5.579   7.756
 3811SOL    HW228576   2.281   5.442   7.819
 3812SOL     OW28577   5.124   5.167   0.690
 3812SOL    HW128578   5.182   5.115   0.745
 3812SOL    HW228579   5.037   5.132   0.707
 3813SOL     OW28580   4.636   5.156   2.098
 3813SOL    HW128581   4.582   5.081   2.072
 3813SOL    HW228582   4.644   5.209   2.019
 3814SOL     OW28583   3.103   4.874   6.487
 3814SOL    HW128584   3.163   4.804   6.461
 3814SOL    HW228585   3.156   4.931   6.543
 3815SOL     OW28586   5.053   5.969   6.422
 3815SOL    HW128587   5.019   5.997   6.337
 3815SOL    HW228588   5.130   6.024   6.436
 3816SOL     OW28589   1.887   1.833   2.132
 3816SOL    HW128590   1.852   1.810   2.046
 3816SOL    HW228591   1.873   1.754   2.184
 3817SOL     OW28592   3.704   2.026   6.480
 3817SOL    HW128593   3.678   1.995   6.393
 3817SOL    HW228594   3.621   2.039   6.526
 3818SOL     OW28595   1.675   4.652   1.555
 3818SOL    HW128596   1.711   4.651   1.644
 3818SOL    HW228597   1.609   4.582   1.556
 3819SOL     OW28598   6.393   2.988   7.923
 3819SOL    HW128599   6.366   2.909   7.970
 3819SOL    HW228600   6.335   3.056   7.956
 3820SOL     OW28601   4.396   3.622   7.422
 3820SOL    HW128602   4.464   3.678   7.460
 3820SOL    HW228603   4.317   3.645   7.470
 3821SOL     OW28604   5.339   0.398   5.326
 3821SOL    HW128605   5.373   0.441   5.247
 3821SOL    HW228606   5.400   0.423   5.395
 3822SOL     OW28607   4.338   4.668   7.273
 3822SOL    HW128608   4.340   4.597   7.338
 3822SOL    HW228609   4.373   4.744   7.320
 3823SOL     OW28610   3.814   1.193   6.871
 3823SOL    HW128611   3.844   1.103   6.854
 3823SOL    HW228612   3.732   1.183   6.919
 3824SOL     OW28613   0.084   2.457   5.186
 3824SOL    HW128614   0.163   2.459   5.240
 3824SOL    HW228615   0.062   2.550   5.174
 3825SOL     OW28616   0.015   5.330   1.078
 3825SOL    HW128617  -0.032   5.411   1.099
 3825SOL    HW228618  -0.036   5.291   1.007
 3826SOL     OW28619   3.965   0.709   0.257
 3826SOL    HW128620   3.906   0.725   0.330
 3826SOL    HW228621   4.034   0.774   0.266
 3827SOL     OW28622   4.004   4.151   2.344
 3827SOL    HW128623   3.990   4.136   2.251
 3827SOL    HW228624   3.922   4.190   2.374
 3828SOL     OW28625   1.931   5.529   6.828
 3828SOL    HW128626   1.903   5.443   6.796
 3828SOL    HW228627   1.958   5.513   6.918
 3829SOL     OW28628   5.866   2.577   1.997
 3829SOL    HW128629   5.956   2.554   2.020
 3829SOL    HW228630   5.837   2.506   1.940
 3830SOL     OW28631   5.157   2.888   7.526
 3830SOL    HW128632   5.063   2.893   7.542
 3830SOL    HW228633   5.166   2.904   7.432
 3831SOL     OW28634   3.027   3.375   7.187
 3831SOL    HW128635   2.994   3.454   7.143
 3831SOL    HW228636   2.970   3.364   7.262
 3832SOL     OW28637   0.274   4.630   6.104
 3832SOL    HW128638   0.330   4.638   6.027
 3832SOL    HW228639   0.264   4.719   6.136
 3833SOL     OW28640   4.290   6.312   6.342
 3833SOL    HW128641   4.201   6.327   6.309
 3833SOL    HW228642   4.341   6.386   6.308
 3834SOL     OW28643   3.334   5.463   7.707
 3834SOL    HW128644   3.268   5.397   7.731
 3834SOL    HW228645   3.297   5.505   7.629
 3835SOL     OW28646   2.679   5.332   0.140
 3835SOL    HW128647   2.740   5.359   0.208
 3835SOL    HW228648   2.619   5.406   0.130
 3836SOL     OW28649   1.646   0.040   0.893
 3836SOL    HW128650   1.705   0.092   0.947
 3836SOL    HW228651   1.580   0.102   0.862
 3837SOL     OW28652   5.367   6.332   7.164
 3837SOL    HW128653   5.354   6.393   7.091
 3837SOL    HW228654   5.459   6.342   7.187
 3838SOL     OW28655   6.106   0.250   7.265
 3838SOL    HW128656   6.174   0.234   7.331
 3838SOL    HW228657   6.134   0.199   7.189
 3839SOL     OW28658   1.960   6.365   7.058
 3839SOL    HW128659   1.866   6.373   7.073
 3839SOL    HW228660   2.001   6.415   7.129
 3840SOL     OW28661   3.801   4.721   0.348
 3840SOL    HW128662   3.895   4.705   0.340
 3840SOL    HW228663   3.768   4.711   0.259
 3841SOL     OW28664   5.467   3.159   7.597
 3841SOL    HW128665   5.484   3.193   7.509
 3841SOL    HW228666   5.553   3.129   7.628
 3842SOL     OW28667   0.786   2.493   0.353
 3842SOL    HW128668   0.747   2.405   0.357
 3842SOL    HW228669   0.755   2.529   0.270
 3843SOL     OW28670   4.751   5.112   6.475
 3843SOL    HW128671   4.679   5.173   6.489
 3843SOL    HW228672   4.820   5.141   6.535
 3844SOL     OW28673   3.346   0.224   4.900
 3844SOL    HW128674   3.380   0.135   4.897
 3844SOL    HW228675   3.412   0.273   4.949
 3845SOL     OW28676   1.399   0.152   0.822
 3845SOL    HW128677   1.436   0.154   0.733
 3845SOL    HW228678   1.305   0.138   0.808
 3846SOL     OW28679   2.184   0.039   1.709
 3846SOL    HW128680   2.160   0.123   1.670
 3846SOL    HW228681   2.273   0.052   1.741
 3847SOL     OW28682   4.593   4.885   6.504
 3847SOL    HW128683   4.610   4.792   6.494
 3847SOL    HW228684   4.676   4.928   6.484
 3848SOL     OW28685   2.329   3.204   5.642
 3848SOL    HW128686   2.409   3.251   5.662
 3848SOL    HW228687   2.333   3.188   5.548
 3849SOL     OW28688   5.944   6.150   0.138
 3849SOL    HW128689   5.950   6.074   0.195
 3849SOL    HW228690   5.877   6.205   0.179
 3850SOL     OW28691   3.814   3.576   1.110
 3850SOL    HW128692   3.739   3.528   1.075
 3850SOL    HW228693   3.803   3.665   1.076
 3851SOL     OW28694   0.414   2.857   0.456
 3851SOL    HW128695   0.386   2.848   0.365
 3851SOL    HW228696   0.333   2.871   0.505
 3852SOL     OW28697   3.251   0.133   6.944
 3852SOL    HW128698   3.188   0.065   6.969
 3852SOL    HW228699   3.245   0.198   7.014
 3853SOL     OW28700   5.974   0.037   6.651
 3853SOL    HW128701   6.067   0.030   6.671
 3853SOL    HW228702   5.970   0.072   6.562
 3854SOL     OW28703   4.152   3.482   0.811
 3854SOL    HW128704   4.080   3.544   0.816
 3854SOL    HW228705   4.230   3.536   0.796
 3855SOL     OW28706   4.901   5.965   6.106
 3855SOL    HW128707   4.948   5.998   6.029
 3855SOL    HW228708   4.930   5.874   6.114
 3856SOL     OW28709   0.307   2.595   0.487
 3856SOL    HW128710   0.353   2.678   0.475
 3856SOL    HW228711   0.335   2.565   0.574
 3857SOL     OW28712   1.972   0.319   7.614
 3857SOL    HW128713   1.935   0.392   7.564
 3857SOL    HW228714   2.037   0.360   7.671
 3858SOL     OW28715   1.018   5.385   6.393
 3858SOL    HW128716   1.012   5.352   6.303
 3858SOL    HW228717   0.968   5.467   6.391
 3859SOL     OW28718   1.851   1.376   1.868
 3859SOL    HW128719   1.768   1.421   1.883
 3859SOL    HW228720   1.877   1.403   1.780
 3860SOL     OW28721   1.424   5.300   2.024
 3860SOL    HW128722   1.467   5.296   1.938
 3860SOL    HW228723   1.378   5.384   2.023
 3861SOL     OW28724   5.817   0.355   7.670
 3861SOL    HW128725   5.888   0.346   7.734
 3861SOL    HW228726   5.840   0.433   7.620
 3862SOL     OW28727   2.217   2.130   5.534
 3862SOL    HW128728   2.169   2.050   5.556
 3862SOL    HW228729   2.201   2.189   5.607
 3863SOL     OW28730   4.747   4.889   0.299
 3863SOL    HW128731   4.796   4.925   0.373
 3863SOL    HW228732   4.799   4.913   0.222
 3864SOL     OW28733   0.481   2.774   1.558
 3864SOL    HW128734   0.400   2.824   1.560
 3864SOL    HW228735   0.508   2.768   1.650
 3865SOL     OW28736   0.398   1.069   0.815
 3865SOL    HW128737   0.317   1.116   0.793
 3865SOL    HW228738   0.437   1.049   0.731
 3866SOL     OW28739   1.388   0.362   6.154
 3866SOL    HW128740   1.483   0.355   6.155
 3866SOL    HW228741   1.357   0.274   6.174
 3867SOL     OW28742   0.333   1.396   6.514
 3867SOL    HW128743   0.289   1.416   6.431
 3867SOL    HW228744   0.296   1.311   6.540
 3868SOL     OW28745   2.471   4.587   5.810
 3868SOL    HW128746   2.514   4.549   5.734
 3868SOL    HW228747   2.387   4.618   5.778
 3869SOL     OW28748   2.797   3.037   6.635
 3869SOL    HW128749   2.859   3.005   6.701
 3869SOL    HW228750   2.721   3.065   6.686
 3870SOL     OW28751   1.983   0.933   1.316
 3870SOL    HW128752   2.069   0.908   1.283
 3870SOL    HW228753   1.960   0.866   1.380
 3871SOL     OW28754   4.436   1.682   0.934
 3871SOL    HW128755   4.396   1.748   0.878
 3871SOL    HW228756   4.438   1.722   1.021
 3872SOL     OW28757   0.242   3.059   7.351
 3872SOL    HW128758   0.252   3.153   7.364
 3872SOL    HW228759   0.154   3.048   7.317
 3873SOL     OW28760   1.028   1.700   6.873
 3873SOL    HW128761   1.023   1.656   6.788
 3873SOL    HW228762   1.090   1.772   6.859
 3874SOL     OW28763   4.205   4.511   6.674
 3874SOL    HW128764   4.200   4.439   6.736
 3874SOL    HW228765   4.160   4.479   6.596
 3875SOL     OW28766   3.767   3.042   0.565
 3875SOL    HW128767   3.777   3.021   0.658
 3875SOL    HW228768   3.674   3.029   0.547
 3876SOL     OW28769   0.955   0.157   1.244
 3876SOL    HW128770   1.041   0.172   1.284
 3876SOL    HW228771   0.894   0.160   1.317
 3877SOL     OW28772   6.040   2.137   6.157
 3877SOL    HW128773   6.100   2.175   6.092
 3877SOL    HW228774   6.096   2.120   6.233
 3878SOL     OW28775   6.293   2.485   6.890
 3878SOL    HW128776   6.250   2.441   6.817
 3878SOL    HW228777   6.381   2.505   6.858
 3879SOL     OW28778   5.960   2.742   2.487
 3879SOL    HW128779   5.914   2.670   2.532
 3879SOL    HW228780   6.052   2.719   2.494
 3880SOL     OW28781   4.628   5.461   5.718
 3880SOL    HW128782   4.688   5.512   5.664
 3880SOL    HW228783   4.581   5.525   5.771
 3881SOL     OW28784   2.513   6.133   2.026
 3881SOL    HW128785   2.436   6.079   2.006
 3881SOL    HW228786   2.506   6.208   1.968
 3882SOL     OW28787   3.316   0.907   2.438
 3882SOL    HW128788   3.278   0.949   2.361
 3882SOL    HW228789   3.383   0.969   2.469
 3883SOL     OW28790   5.948   2.056   7.067
 3883SOL    HW128791   5.999   2.112   7.125
 3883SOL    HW228792   5.944   1.972   7.113
 3884SOL     OW28793   0.784   0.708   1.100
 3884SOL    HW128794   0.866   0.689   1.054
 3884SOL    HW228795   0.743   0.777   1.047
 3885SOL     OW28796   2.019   6.389   7.423
 3885SOL    HW128797   2.070   6.420   7.497
 3885SOL    HW228798   1.929   6.385   7.456
 3886SOL     OW28799   3.657   3.638   0.775
 3886SOL    HW128800   3.595   3.645   0.847
 3886SOL    HW228801   3.634   3.710   0.717
 3887SOL     OW28802   0.842   6.030   1.936
 3887SOL    HW128803   0.759   6.075   1.953
 3887SOL    HW228804   0.851   5.969   2.010
 3888SOL     OW28805   4.116   0.463   6.942
 3888SOL    HW128806   4.127   0.389   6.882
 3888SOL    HW228807   4.133   0.427   7.029
 3889SOL     OW28808   5.782   4.994   5.967
 3889SOL    HW128809   5.812   4.906   5.991
 3889SOL    HW228810   5.705   4.979   5.912
 3890SOL     OW28811   4.983   0.257   6.705
 3890SOL    HW128812   4.975   0.249   6.610
 3890SOL    HW228813   4.906   0.306   6.732
 3891SOL     OW28814   6.368   0.661   7.898
 3891SOL    HW128815   6.316   0.592   7.856
 3891SOL    HW228816   6.309   0.698   7.964
 3892SOL     OW28817   3.909   5.797   2.383
 3892SOL    HW128818   3.921   5.858   2.455
 3892SOL    HW228819   3.816   5.775   2.386
 3893SOL     OW28820   5.650   4.647   0.277
 3893SOL    HW128821   5.661   4.585   0.348
 3893SOL    HW228822   5.561   4.632   0.245
 3894SOL     OW28823   1.022   5.426   0.594
 3894SOL    HW128824   0.973   5.508   0.591
 3894SOL    HW228825   1.113   5.452   0.577
 3895SOL     OW28826   3.825   5.875   7.193
 3895SOL    HW128827   3.855   5.906   7.278
 3895SOL    HW228828   3.755   5.813   7.213
 3896SOL     OW28829   0.003   5.030   6.841
 3896SOL    HW128830   0.011   4.938   6.865
 3896SOL    HW228831   0.026   5.032   6.748
 3897SOL     OW28832   0.197   2.771   1.682
 3897SOL    HW128833   0.239   2.693   1.646
 3897SOL    HW228834   0.250   2.794   1.758
 3898SOL     OW28835   3.895   2.040   0.967
 3898SOL    HW128836   3.922   2.055   1.058
 3898SOL    HW228837   3.892   1.945   0.958
 3899SOL     OW28838   3.471   0.113   0.750
 3899SOL    HW128839   3.412   0.180   0.717
 3899SOL    HW228840   3.425   0.030   0.735
 3900SOL     OW28841   0.198   1.225   0.749
 3900SOL    HW128842   0.197   1.273   0.666
 3900SOL    HW228843   0.113   1.182   0.753
 3901SOL     OW28844   0.899   5.639   7.802
 3901SOL    HW128845   0.907   5.563   7.859
 3901SOL    HW228846   0.886   5.713   7.861
 3902SOL     OW28847   2.908   1.072   6.423
 3902SOL    HW128848   2.978   1.034   6.475
 3902SOL    HW228849   2.852   0.998   6.400
 3903SOL     OW28850   1.126   1.270   0.561
 3903SOL    HW128851   1.111   1.334   0.491
 3903SOL    HW228852   1.215   1.238   0.545
 3904SOL     OW28853   4.886   0.375   1.849
 3904SOL    HW128854   4.842   0.442   1.902
 3904SOL    HW228855   4.960   0.347   1.904
 3905SOL     OW28856   5.322   3.828   7.841
 3905SOL    HW128857   5.396   3.777   7.874
 3905SOL    HW228858   5.361   3.896   7.787
 3906SOL     OW28859   1.170   2.814   7.405
 3906SOL    HW128860   1.166   2.847   7.494
 3906SOL    HW228861   1.089   2.764   7.394
 3907SOL     OW28862   1.971   1.008   1.828
 3907SOL    HW128863   1.990   1.017   1.921
 3907SOL    HW228864   2.028   1.071   1.785
 3908SOL     OW28865   4.387   3.835   0.279
 3908SOL    HW128866   4.307   3.886   0.264
 3908SOL    HW228867   4.406   3.796   0.193
 3909SOL     OW28868   4.032   1.554   7.795
 3909SOL    HW128869   4.073   1.475   7.830
 3909SOL    HW228870   3.950   1.562   7.845
 3910SOL     OW28871   1.368   5.092   0.797
 3910SOL    HW128872   1.402   5.172   0.757
 3910SOL    HW228873   1.434   5.069   0.863
 3911SOL     OW28874   3.877   3.695   1.899
 3911SOL    HW128875   3.806   3.644   1.937
 3911SOL    HW228876   3.892   3.766   1.961
 3912SOL     OW28877   3.084   0.329   0.392
 3912SOL    HW128878   3.076   0.396   0.460
 3912SOL    HW228879   3.177   0.326   0.372
 3913SOL     OW28880   0.725   4.343   0.171
 3913SOL    HW128881   0.653   4.343   0.234
 3913SOL    HW228882   0.802   4.366   0.223
 3914SOL     OW28883   5.232   1.573   1.301
 3914SOL    HW128884   5.204   1.485   1.276
 3914SOL    HW228885   5.327   1.572   1.288
 3915SOL     OW28886   5.665   3.163   6.956
 3915SOL    HW128887   5.732   3.143   7.021
 3915SOL    HW228888   5.662   3.084   6.901
 3916SOL     OW28889   3.716   4.868   7.315
 3916SOL    HW128890   3.767   4.913   7.382
 3916SOL    HW228891   3.627   4.865   7.350
 3917SOL     OW28892   1.516   4.162   0.356
 3917SOL    HW128893   1.538   4.103   0.284
 3917SOL    HW228894   1.511   4.249   0.316
 3918SOL     OW28895   0.360   2.879   6.839
 3918SOL    HW128896   0.448   2.914   6.851
 3918SOL    HW228897   0.357   2.802   6.895
 3919SOL     OW28898   0.725   0.964   7.013
 3919SOL    HW128899   0.692   0.990   6.927
 3919SOL    HW228900   0.733   0.869   7.008
 3920SOL     OW28901   4.123   0.720   6.383
 3920SOL    HW128902   4.170   0.679   6.456
 3920SOL    HW228903   4.169   0.803   6.368
 3921SOL     OW28904   4.592   4.993   1.149
 3921SOL    HW128905   4.556   5.081   1.163
 3921SOL    HW228906   4.677   5.009   1.107
 3922SOL     OW28907   0.989   2.836   6.193
 3922SOL    HW128908   1.042   2.824   6.114
 3922SOL    HW228909   1.026   2.775   6.256
 3923SOL     OW28910   1.912   4.845   7.569
 3923SOL    HW128911   1.886   4.880   7.654
 3923SOL    HW228912   1.877   4.755   7.569
 3924SOL     OW28913   3.762   6.308   5.173
 3924SOL    HW128914   3.688   6.359   5.204
 3924SOL    HW228915   3.814   6.371   5.122
 3925SOL     OW28916   5.878   3.504   2.028
 3925SOL    HW128917   5.823   3.435   2.066
 3925SOL    HW228918   5.966   3.467   2.025
 3926SOL     OW28919   1.509   4.479   7.585
 3926SOL    HW128920   1.497   4.384   7.584
 3926SOL    HW228921   1.439   4.512   7.528
 3927SOL     OW28922   1.580   3.732   5.581
 3927SOL    HW128923   1.503   3.713   5.527
 3927SOL    HW228924   1.549   3.797   5.644
 3928SOL     OW28925   6.103   0.846   5.761
 3928SOL    HW128926   6.086   0.791   5.837
 3928SOL    HW228927   6.115   0.784   5.688
 3929SOL     OW28928   1.549   2.104   1.742
 3929SOL    HW128929   1.544   2.106   1.837
 3929SOL    HW228930   1.534   2.012   1.720
 3930SOL     OW28931   2.588   0.766   6.864
 3930SOL    HW128932   2.651   0.708   6.821
 3930SOL    HW228933   2.583   0.842   6.807
 3931SOL     OW28934   0.212   3.501   0.990
 3931SOL    HW128935   0.256   3.418   1.005
 3931SOL    HW228936   0.263   3.565   1.040
 3932SOL     OW28937   3.230   1.401   6.968
 3932SOL    HW128938   3.167   1.394   7.039
 3932SOL    HW228939   3.201   1.337   6.903
 3933SOL     OW28940   2.419   2.405   0.639
 3933SOL    HW128941   2.499   2.441   0.603
 3933SOL    HW228942   2.350   2.464   0.609
 3934SOL     OW28943   5.340   2.066   1.642
 3934SOL    HW128944   5.292   2.144   1.617
 3934SOL    HW228945   5.276   2.013   1.691
 3935SOL     OW28946   6.094   6.380   0.357
 3935SOL    HW128947   6.047   6.428   0.424
 3935SOL    HW228948   6.101   6.291   0.393
 3936SOL     OW28949   0.851   4.764   0.518
 3936SOL    HW128950   0.883   4.853   0.536
 3936SOL    HW228951   0.818   4.769   0.428
 3937SOL     OW28952   5.803   4.417   1.177
 3937SOL    HW128953   5.787   4.416   1.271
 3937SOL    HW228954   5.823   4.508   1.156
 3938SOL     OW28955   1.056   4.485   6.782
 3938SOL    HW128956   1.042   4.433   6.703
 3938SOL    HW228957   1.092   4.568   6.750
 3939SOL     OW28958   4.279   0.913   6.314
 3939SOL    HW128959   4.356   0.870   6.277
 3939SOL    HW228960   4.269   0.993   6.263
 3940SOL     OW28961   6.119   2.626   1.149
 3940SOL    HW128962   6.050   2.565   1.122
 3940SOL    HW228963   6.071   2.700   1.187
 3941SOL     OW28964   3.085   2.855   6.492
 3941SOL    HW128965   3.113   2.775   6.537
 3941SOL    HW228966   3.068   2.917   6.563
 3942SOL     OW28967   5.823   5.361   0.391
 3942SOL    HW128968   5.819   5.266   0.380
 3942SOL    HW228969   5.857   5.373   0.480
 3943SOL     OW28970   1.413   6.119   0.924
 3943SOL    HW128971   1.429   6.113   1.019
 3943SOL    HW228972   1.322   6.147   0.918
 3944SOL     OW28973   3.720   1.525   7.519
 3944SOL    HW128974   3.812   1.521   7.490
 3944SOL    HW228975   3.713   1.455   7.584
 3945SOL     OW28976   5.284   0.767   7.899
 3945SOL    HW128977   5.258   0.676   7.885
 3945SOL    HW228978   5.323   0.793   7.816
 3946SOL     OW28979   3.428   5.994   1.101
 3946SOL    HW128980   3.439   6.076   1.149
 3946SOL    HW228981   3.349   6.007   1.049
 3947SOL     OW28982   5.098   3.650   7.786
 3947SOL    HW128983   5.181   3.676   7.827
 3947SOL    HW228984   5.074   3.724   7.730
 3948SOL     OW28985   0.981   0.934   6.569
 3948SOL    HW128986   1.076   0.921   6.569
 3948SOL    HW228987   0.947   0.860   6.619
 3949SOL     OW28988   2.889   4.779   1.046
 3949SOL    HW128989   2.919   4.709   0.988
 3949SOL    HW228990   2.929   4.759   1.130
 3950SOL     OW28991   4.025   2.581   7.793
 3950SOL    HW128992   3.990   2.596   7.881
 3950SOL    HW228993   3.962   2.521   7.752
 3951SOL     OW28994   0.628   5.707   6.587
 3951SOL    HW128995   0.603   5.718   6.679
 3951SOL    HW228996   0.544   5.704   6.541
 3952SOL     OW28997   4.034   5.400   6.547
 3952SOL    HW128998   3.989   5.483   6.560
 3952SOL    HW228999   4.112   5.423   6.496
 3953SOL     OW29000   0.303   2.280   7.456
 3953SOL    HW129001   0.235   2.315   7.514
 3953SOL    HW229002   0.354   2.222   7.513
 3954SOL     OW29003   5.849   5.468   0.677
 3954SOL    HW129004   5.924   5.467   0.737
 3954SOL    HW229005   5.773   5.454   0.733
 3955SOL     OW29006   1.345   5.324   6.834
 3955SOL    HW129007   1.417   5.309   6.895
 3955SOL    HW229008   1.275   5.266   6.864
 3956SOL     OW29009   6.274   1.651   6.273
 3956SOL    HW129010   6.229   1.567   6.284
 3956SOL    HW229011   6.288   1.660   6.179
 3957SOL     OW29012   0.922   1.431   6.423
 3957SOL    HW129013   0.907   1.339   6.401
 3957SOL    HW229014   0.869   1.445   6.502
 3958SOL     OW29015   1.944   1.846   1.451
 3958SOL    HW129016   1.921   1.931   1.490
 3958SOL    HW229017   1.860   1.803   1.437
 3959SOL     OW29018   1.132   3.248   7.629
 3959SOL    HW129019   1.210   3.224   7.580
 3959SOL    HW229020   1.161   3.320   7.686
 3960SOL     OW29021   1.016   1.854   2.156
 3960SOL    HW129022   0.931   1.895   2.137
 3960SOL    HW229023   1.005   1.817   2.243
 3961SOL     OW29024   2.875   2.715   1.561
 3961SOL    HW129025   2.787   2.750   1.570
 3961SOL    HW229026   2.863   2.623   1.541
 3962SOL     OW29027   1.327   1.328   1.460
 3962SOL    HW129028   1.420   1.331   1.437
 3962SOL    HW229029   1.282   1.312   1.378
 3963SOL     OW29030   3.859   4.601   6.419
 3963SOL    HW129031   3.856   4.654   6.499
 3963SOL    HW229032   3.920   4.647   6.362
 3964SOL     OW29033   0.809   2.160   5.364
 3964SOL    HW129034   0.845   2.210   5.291
 3964SOL    HW229035   0.771   2.227   5.422
 3965SOL     OW29036   1.968   4.125   7.792
 3965SOL    HW129037   1.940   4.056   7.732
 3965SOL    HW229038   2.033   4.175   7.743
 3966SOL     OW29039   1.997   0.705   6.831
 3966SOL    HW129040   2.003   0.611   6.816
 3966SOL    HW229041   2.073   0.742   6.788
 3967SOL     OW29042   5.730   1.654   7.877
 3967SOL    HW129043   5.777   1.705   7.811
 3967SOL    HW229044   5.639   1.682   7.869
 3968SOL     OW29045   1.562   0.991   5.714
 3968SOL    HW129046   1.488   0.945   5.675
 3968SOL    HW229047   1.554   1.081   5.682
 3969SOL     OW29048   6.178   3.274   6.500
 3969SOL    HW129049   6.249   3.285   6.563
 3969SOL    HW229050   6.106   3.326   6.535
 3970SOL     OW29051   3.182   4.521   0.340
 3970SOL    HW129052   3.231   4.454   0.387
 3970SOL    HW229053   3.247   4.567   0.287
 3971SOL     OW29054   1.484   4.307   0.720
 3971SOL    HW129055   1.398   4.265   0.710
 3971SOL    HW229056   1.547   4.237   0.703
 3972SOL     OW29057   3.550   4.700   0.951
 3972SOL    HW129058   3.511   4.787   0.942
 3972SOL    HW229059   3.522   4.669   1.037
 3973SOL     OW29060   6.385   0.710   6.259
 3973SOL    HW129061   6.359   0.705   6.351
 3973SOL    HW229062   6.310   0.749   6.215
 3974SOL     OW29063   5.439   1.591   0.677
 3974SOL    HW129064   5.361   1.599   0.732
 3974SOL    HW229065   5.511   1.618   0.734
 3975SOL     OW29066   0.598   0.213   0.938
 3975SOL    HW129067   0.505   0.228   0.956
 3975SOL    HW229068   0.639   0.298   0.952
 3976SOL     OW29069   4.876   2.236   0.848
 3976SOL    HW129070   4.887   2.154   0.799
 3976SOL    HW229071   4.837   2.297   0.785
 3977SOL     OW29072   3.998   0.338  -0.002
 3977SOL    HW129073   4.072   0.341   0.058
 3977SOL    HW229074   3.953   0.421   0.011
 3978SOL     OW29075   4.941   4.513   6.437
 3978SOL    HW129076   4.882   4.536   6.365
 3978SOL    HW229077   5.010   4.461   6.395
 3979SOL     OW29078   1.942   2.863   1.346
 3979SOL    HW129079   1.934   2.771   1.319
 3979SOL    HW229080   1.943   2.912   1.264
 3980SOL     OW29081   4.305   3.177   0.402
 3980SOL    HW129082   4.399   3.180   0.419
 3980SOL    HW229083   4.275   3.266   0.420
 3981SOL     OW29084   6.069   3.734   1.617
 3981SOL    HW129085   6.115   3.665   1.666
 3981SOL    HW229086   6.139   3.791   1.585
 3982SOL     OW29087   2.096   0.387   0.939
 3982SOL    HW129088   2.154   0.341   0.879
 3982SOL    HW229089   2.086   0.474   0.901
 3983SOL     OW29090   5.189   1.849   6.359
 3983SOL    HW129091   5.096   1.861   6.345
 3983SOL    HW229092   5.200   1.851   6.454
 3984SOL     OW29093   3.722   4.852   6.367
 3984SOL    HW129094   3.774   4.854   6.287
 3984SOL    HW229095   3.786   4.844   6.437
 3985SOL     OW29096   3.665   2.770   6.792
 3985SOL    HW129097   3.631   2.849   6.752
 3985SOL    HW229098   3.751   2.795   6.826
 3986SOL     OW29099   6.188   3.254   7.552
 3986SOL    HW129100   6.232   3.260   7.467
 3986SOL    HW229101   6.185   3.160   7.571
 3987SOL     OW29102   0.601   0.560   6.674
 3987SOL    HW129103   0.609   0.526   6.763
 3987SOL    HW229104   0.507   0.572   6.661
 3988SOL     OW29105   3.914   2.255   7.317
 3988SOL    HW129106   3.901   2.177   7.370
 3988SOL    HW229107   3.921   2.326   7.380
 3989SOL     OW29108   5.976   1.274   6.338
 3989SOL    HW129109   5.928   1.342   6.386
 3989SOL    HW229110   5.956   1.194   6.385
 3990SOL     OW29111   2.255   5.306   0.141
 3990SOL    HW129112   2.280   5.316   0.049
 3990SOL    HW229113   2.183   5.368   0.152
 3991SOL     OW29114   2.230   3.953   1.615
 3991SOL    HW129115   2.167   3.914   1.675
 3991SOL    HW229116   2.314   3.941   1.658
 3992SOL     OW29117   2.332   6.062   0.524
 3992SOL    HW129118   2.277   5.992   0.489
 3992SOL    HW229119   2.409   6.016   0.560
 3993SOL     OW29120   6.078   2.376   7.911
 3993SOL    HW129121   6.093   2.359   7.818
 3993SOL    HW229122   6.165   2.396   7.945
 3994SOL     OW29123   4.299   6.099   0.491
 3994SOL    HW129124   4.330   6.109   0.582
 3994SOL    HW229125   4.351   6.027   0.457
 3995SOL     OW29126   5.525   3.426   7.672
 3995SOL    HW129127   5.482   3.341   7.661
 3995SOL    HW229128   5.471   3.487   7.623
 3996SOL     OW29129   5.558   1.915   1.879
 3996SOL    HW129130   5.476   1.964   1.872
 3996SOL    HW229131   5.549   1.845   1.814
 3997SOL     OW29132   1.952   1.665   6.643
 3997SOL    HW129133   2.031   1.711   6.672
 3997SOL    HW229134   1.959   1.665   6.548
 3998SOL     OW29135   2.717   4.004   0.902
 3998SOL    HW129136   2.716   4.093   0.935
 3998SOL    HW229137   2.809   3.985   0.885
 3999SOL     OW29138   4.421   0.135   1.548
 3999SOL    HW129139   4.399   0.084   1.627
 3999SOL    HW229140   4.477   0.205   1.581
 4000SOL     OW29141   2.550   1.077   6.788
 4000SOL    HW129142   2.577   1.057   6.878
 4000SOL    HW229143   2.630   1.106   6.745
 4001SOL     OW29144   5.784   1.802   7.146
 4001SOL    HW129145   5.774   1.785   7.052
 4001SOL    HW229146   5.744   1.726   7.188
 4002SOL     OW29147   2.702   5.025   6.279
 4002SOL    HW129148   2.709   5.101   6.337
 4002SOL    HW229149   2.750   4.956   6.325
 4003SOL     OW29150   2.888   2.398   0.888
 4003SOL    HW129151   2.800   2.426   0.911
 4003SOL    HW229152   2.882   2.302   0.884
 4004SOL     OW29153   1.975   0.419   5.635
 4004SOL    HW129154   1.880   0.417   5.649
 4004SOL    HW229155   1.995   0.337   5.590
 4005SOL     OW29156   2.962   4.269   6.822
 4005SOL    HW129157   3.030   4.334   6.839
 4005SOL    HW229158   2.917   4.302   6.744
 4006SOL     OW29159   2.901   3.789   6.623
 4006SOL    HW129160   2.976   3.844   6.603
 4006SOL    HW229161   2.898   3.786   6.719
 4007SOL     OW29162   2.857   3.499   6.553
 4007SOL    HW129163   2.773   3.512   6.507
 4007SOL    HW229164   2.880   3.585   6.585
 4008SOL     OW29165   4.655   1.742   1.820
 4008SOL    HW129166   4.668   1.649   1.799
 4008SOL    HW229167   4.563   1.758   1.799
 4009SOL     OW29168   4.216   1.762   7.694
 4009SOL    HW129169   4.182   1.677   7.723
 4009SOL    HW229170   4.287   1.740   7.633
 4010SOL     OW29171   1.211   5.055   1.082
 4010SOL    HW129172   1.142   5.114   1.113
 4010SOL    HW229173   1.274   5.113   1.038
 4011SOL     OW29174   4.089   3.294   0.156
 4011SOL    HW129175   4.131   3.379   0.166
 4011SOL    HW229176   4.139   3.250   0.087
 4012SOL     OW29177   0.856   5.291   0.745
 4012SOL    HW129178   0.795   5.361   0.768
 4012SOL    HW229179   0.923   5.335   0.692
 4013SOL     OW29180   5.486   2.096   6.197
 4013SOL    HW129181   5.418   2.160   6.177
 4013SOL    HW229182   5.545   2.142   6.257
 4014SOL     OW29183   2.275   4.111   0.638
 4014SOL    HW129184   2.331   4.073   0.706
 4014SOL    HW229185   2.336   4.148   0.575
 4015SOL     OW29186   0.991   3.671   5.960
 4015SOL    HW129187   0.945   3.605   6.011
 4015SOL    HW229188   0.991   3.637   5.871
 4016SOL     OW29189   6.039   3.861   2.244
 4016SOL    HW129190   6.082   3.918   2.307
 4016SOL    HW229191   5.965   3.823   2.292
 4017SOL     OW29192   4.964   5.822   0.017
 4017SOL    HW129193   4.870   5.812   0.001
 4017SOL    HW229194   4.971   5.902   0.068
 4018SOL     OW29195   5.007   4.705   2.491
 4018SOL    HW129196   4.922   4.694   2.533
 4018SOL    HW229197   5.067   4.721   2.564
 4019SOL     OW29198   2.602   4.620   2.078
 4019SOL    HW129199   2.654   4.680   2.130
 4019SOL    HW229200   2.584   4.667   1.997
 4020SOL     OW29201   1.295   2.821   0.200
 4020SOL    HW129202   1.382   2.850   0.172
 4020SOL    HW229203   1.286   2.734   0.161
 4021SOL     OW29204   1.400   0.266   1.557
 4021SOL    HW129205   1.393   0.362   1.558
 4021SOL    HW229206   1.322   0.238   1.509
 4022SOL     OW29207   0.841   1.851   1.839
 4022SOL    HW129208   0.765   1.851   1.896
 4022SOL    HW229209   0.897   1.781   1.873
 4023SOL     OW29210   4.827   4.485   7.588
 4023SOL    HW129211   4.794   4.509   7.502
 4023SOL    HW229212   4.844   4.569   7.632
 4024SOL     OW29213   2.752   4.993   0.688
 4024SOL    HW129214   2.720   4.919   0.635
 4024SOL    HW229215   2.813   4.953   0.749
 4025SOL     OW29216   0.098   0.402   7.206
 4025SOL    HW129217   0.192   0.410   7.189
 4025SOL    HW229218   0.072   0.321   7.162
 4026SOL     OW29219   0.915   3.342   2.040
 4026SOL    HW129220   0.866   3.260   2.032
 4026SOL    HW229221   0.893   3.374   2.128
 4027SOL     OW29222   1.262   0.875   6.594
 4027SOL    HW129223   1.291   0.904   6.680
 4027SOL    HW229224   1.341   0.878   6.539
 4028SOL     OW29225   6.237   0.993   1.602
 4028SOL    HW129226   6.272   0.971   1.516
 4028SOL    HW229227   6.286   0.938   1.663
 4029SOL     OW29228   0.809   6.174   0.067
 4029SOL    HW129229   0.772   6.154  -0.020
 4029SOL    HW229230   0.901   6.150   0.059
 4030SOL     OW29231   0.664   0.386   1.173
 4030SOL    HW129232   0.669   0.479   1.195
 4030SOL    HW229233   0.577   0.359   1.202
 4031SOL     OW29234   5.552   0.658   6.660
 4031SOL    HW129235   5.553   0.562   6.662
 4031SOL    HW229236   5.602   0.684   6.737
 4032SOL     OW29237   4.463   1.574   6.960
 4032SOL    HW129238   4.477   1.627   7.038
 4032SOL    HW229239   4.441   1.487   6.993
 4033SOL     OW29240   5.789   5.806   0.160
 4033SOL    HW129241   5.804   5.713   0.176
 4033SOL    HW229242   5.743   5.809   0.077
 4034SOL     OW29243   0.896   0.635   0.081
 4034SOL    HW129244   0.985   0.609   0.104
 4034SOL    HW229245   0.866   0.687   0.156
 4035SOL     OW29246   5.669   1.421   0.098
 4035SOL    HW129247   5.649   1.352   0.034
 4035SOL    HW229248   5.654   1.503   0.050
 4036SOL     OW29249   1.637   1.760   0.863
 4036SOL    HW129250   1.714   1.720   0.904
 4036SOL    HW229251   1.604   1.693   0.802
 4037SOL     OW29252   2.850   3.626   1.911
 4037SOL    HW129253   2.936   3.620   1.952
 4037SOL    HW229254   2.790   3.646   1.983
 4038SOL     OW29255   5.031   4.414   0.324
 4038SOL    HW129256   5.019   4.383   0.414
 4038SOL    HW229257   4.972   4.488   0.317
 4039SOL     OW29258   4.827   1.073   7.799
 4039SOL    HW129259   4.820   1.139   7.730
 4039SOL    HW229260   4.854   1.121   7.877
 4040SOL     OW29261   5.931   1.890   6.397
 4040SOL    HW129262   5.881   1.895   6.316
 4040SOL    HW229263   5.893   1.816   6.445
 4041SOL     OW29264   5.090   4.083   7.798
 4041SOL    HW129265   5.078   4.157   7.739
 4041SOL    HW229266   5.130   4.120   7.876
 4042SOL     OW29267   1.664   2.837   1.999
 4042SOL    HW129268   1.696   2.926   2.012
 4042SOL    HW229269   1.716   2.784   2.059
 4043SOL     OW29270   2.646   2.581   0.263
 4043SOL    HW129271   2.559   2.554   0.234
 4043SOL    HW229272   2.698   2.500   0.259
 4044SOL     OW29273   2.121   1.969   0.731
 4044SOL    HW129274   2.080   2.005   0.810
 4044SOL    HW229275   2.141   2.047   0.678
 4045SOL     OW29276   2.872   1.316   6.270
 4045SOL    HW129277   2.801   1.303   6.207
 4045SOL    HW229278   2.859   1.248   6.336
 4046SOL     OW29279   5.601   5.073   7.554
 4046SOL    HW129280   5.579   5.101   7.465
 4046SOL    HW229281   5.640   5.151   7.595
 4047SOL     OW29282   0.855   0.667   7.678
 4047SOL    HW129283   0.887   0.580   7.702
 4047SOL    HW229284   0.813   0.653   7.593
 4048SOL     OW29285   2.447   5.647   7.655
 4048SOL    HW129286   2.442   5.699   7.575
 4048SOL    HW229287   2.474   5.560   7.626
 4049SOL     OW29288   5.269   5.383   1.045
 4049SOL    HW129289   5.217   5.316   1.091
 4049SOL    HW229290   5.222   5.465   1.060
 4050SOL     OW29291   5.394   4.422   0.444
 4050SOL    HW129292   5.480   4.466   0.440
 4050SOL    HW229293   5.369   4.411   0.352
 4051SOL     OW29294   5.542   1.680   2.061
 4051SOL    HW129295   5.591   1.727   2.129
 4051SOL    HW229296   5.478   1.743   2.029
 4052SOL     OW29297   1.227   5.259   6.519
 4052SOL    HW129298   1.190   5.322   6.457
 4052SOL    HW229299   1.253   5.311   6.594
 4053SOL     OW29300   3.763   0.273   7.064
 4053SOL    HW129301   3.701   0.323   7.117
 4053SOL    HW229302   3.781   0.195   7.117
 4054SOL     OW29303   2.967   2.644   6.789
 4054SOL    HW129304   2.966   2.564   6.842
 4054SOL    HW229305   3.017   2.620   6.711
 4055SOL     OW29306   2.171   4.117   1.099
 4055SOL    HW129307   2.112   4.064   1.045
 4055SOL    HW229308   2.243   4.057   1.122
 4056SOL     OW29309   3.796   0.917   5.774
 4056SOL    HW129310   3.873   0.963   5.808
 4056SOL    HW229311   3.773   0.854   5.842
 4057SOL     OW29312   5.364   5.019   0.502
 4057SOL    HW129313   5.420   5.090   0.535
 4057SOL    HW229314   5.418   4.940   0.509
 4058SOL     OW29315   3.878   1.945   0.248
 4058SOL    HW129316   3.885   1.869   0.306
 4058SOL    HW229317   3.800   1.992   0.279
 4059SOL     OW29318   1.880   4.633   7.820
 4059SOL    HW129319   1.796   4.606   7.783
 4059SOL    HW229320   1.875   4.728   7.826
 4060SOL     OW29321   4.601   6.000   6.739
 4060SOL    HW129322   4.610   5.955   6.823
 4060SOL    HW229323   4.678   5.972   6.689
 4061SOL     OW29324   1.710   3.632   6.409
 4061SOL    HW129325   1.634   3.670   6.454
 4061SOL    HW229326   1.767   3.603   6.479
 4062SOL     OW29327   6.184   2.050   5.180
 4062SOL    HW129328   6.246   2.122   5.169
 4062SOL    HW229329   6.138   2.070   5.262
 4063SOL     OW29330   4.869   0.143   5.985
 4063SOL    HW129331   4.887   0.050   5.971
 4063SOL    HW229332   4.952   0.186   5.963
 4064SOL     OW29333   4.337   0.570   6.661
 4064SOL    HW129334   4.254   0.603   6.695
 4064SOL    HW229335   4.345   0.482   6.699
 4065SOL     OW29336   6.149   5.489   6.731
 4065SOL    HW129337   6.192   5.455   6.809
 4065SOL    HW229338   6.171   5.427   6.662
 4066SOL     OW29339   2.041   5.337   6.566
 4066SOL    HW129340   2.090   5.419   6.574
 4066SOL    HW229341   2.022   5.330   6.472
 4067SOL     OW29342   1.279   0.605   6.308
 4067SOL    HW129343   1.187   0.608   6.282
 4067SOL    HW229344   1.309   0.518   6.282
 4068SOL     OW29345   1.357   2.740   7.659
 4068SOL    HW129346   1.399   2.808   7.711
 4068SOL    HW229347   1.376   2.764   7.568
 4069SOL     OW29348   4.167   4.032   1.942
 4069SOL    HW129349   4.188   3.997   2.028
 4069SOL    HW229350   4.250   4.064   1.908
 4070SOL     OW29351   2.451   3.711   0.946
 4070SOL    HW129352   2.427   3.623   0.918
 4070SOL    HW229353   2.404   3.769   0.886
 4071SOL     OW29354   3.594   4.001   7.837
 4071SOL    HW129355   3.586   3.906   7.848
 4071SOL    HW229356   3.675   4.023   7.884
 4072SOL     OW29357   1.772   4.453   6.930
 4072SOL    HW129358   1.705   4.386   6.949
 4072SOL    HW229359   1.736   4.534   6.966
 4073SOL     OW29360   4.375   3.679   7.695
 4073SOL    HW129361   4.438   3.617   7.731
 4073SOL    HW229362   4.316   3.697   7.768
 4074SOL     OW29363   2.882   4.011   2.319
 4074SOL    HW129364   2.934   3.937   2.348
 4074SOL    HW229365   2.796   3.973   2.297
 4075SOL     OW29366   5.481   2.272   7.455
 4075SOL    HW129367   5.494   2.216   7.378
 4075SOL    HW229368   5.415   2.336   7.427
 4076SOL     OW29369   6.393   5.508   0.200
 4076SOL    HW129370   6.487   5.500   0.212
 4076SOL    HW229371   6.357   5.427   0.236
 4077SOL     OW29372   4.834   0.378   0.380
 4077SOL    HW129373   4.776   0.312   0.342
 4077SOL    HW229374   4.918   0.334   0.389
 4078SOL     OW29375   6.337   3.689   1.931
 4078SOL    HW129376   6.342   3.682   2.026
 4078SOL    HW229377   6.417   3.647   1.899
 4079SOL     OW29378   0.697   0.075   0.704
 4079SOL    HW129379   0.694  -0.019   0.719
 4079SOL    HW229380   0.641   0.112   0.772
 4080SOL     OW29381   0.416   5.402   2.171
 4080SOL    HW129382   0.427   5.344   2.095
 4080SOL    HW229383   0.382   5.344   2.240
 4081SOL     OW29384   5.994   0.357   1.108
 4081SOL    HW129385   6.073   0.409   1.093
 4081SOL    HW229386   5.928   0.421   1.134
 4082SOL     OW29387   4.513   0.850   7.064
 4082SOL    HW129388   4.515   0.937   7.025
 4082SOL    HW229389   4.477   0.794   6.994
 4083SOL     OW29390   3.563   0.781   2.355
 4083SOL    HW129391   3.523   0.819   2.433
 4083SOL    HW229392   3.553   0.849   2.288
 4084SOL     OW29393   2.080   3.035   1.497
 4084SOL    HW129394   2.021   3.110   1.499
 4084SOL    HW229395   2.031   2.967   1.451
 4085SOL     OW29396   4.665   2.984   0.674
 4085SOL    HW129397   4.748   3.031   0.672
 4085SOL    HW229398   4.626   2.999   0.588
 4086SOL     OW29399   4.493   2.096   0.367
 4086SOL    HW129400   4.403   2.094   0.398
 4086SOL    HW229401   4.501   2.018   0.311
 4087SOL     OW29402   1.431   2.885   5.997
 4087SOL    HW129403   1.451   2.791   5.996
 4087SOL    HW229404   1.390   2.901   5.912
 4088SOL     OW29405   4.836   2.725   0.900
 4088SOL    HW129406   4.766   2.706   0.839
 4088SOL    HW229407   4.916   2.704   0.852
 4089SOL     OW29408   2.925   0.934   7.535
 4089SOL    HW129409   2.885   1.018   7.555
 4089SOL    HW229410   2.945   0.895   7.620
 4090SOL     OW29411   1.169   1.030   1.341
 4090SOL    HW129412   1.172   1.113   1.388
 4090SOL    HW229413   1.099   1.042   1.276
 4091SOL     OW29414   6.104   2.476   6.248
 4091SOL    HW129415   6.152   2.502   6.170
 4091SOL    HW229416   6.147   2.396   6.278
 4092SOL     OW29417   1.108   1.844   1.277
 4092SOL    HW129418   1.059   1.863   1.197
 4092SOL    HW229419   1.093   1.750   1.292
 4093SOL     OW29420   4.898   0.226   1.615
 4093SOL    HW129421   4.973   0.252   1.560
 4093SOL    HW229422   4.897   0.291   1.685
 4094SOL     OW29423   3.181   3.700   1.641
 4094SOL    HW129424   3.226   3.742   1.714
 4094SOL    HW229425   3.156   3.614   1.674
 4095SOL     OW29426   1.358   2.329   7.599
 4095SOL    HW129427   1.266   2.324   7.625
 4095SOL    HW229428   1.362   2.286   7.513
 4096SOL     OW29429   5.520   6.308   6.564
 4096SOL    HW129430   5.510   6.270   6.651
 4096SOL    HW229431   5.473   6.392   6.569
 4097SOL     OW29432   2.173   1.335   0.191
 4097SOL    HW129433   2.194   1.407   0.131
 4097SOL    HW229434   2.254   1.321   0.240
 4098SOL     OW29435   4.343   0.421   1.806
 4098SOL    HW129436   4.301   0.338   1.826
 4098SOL    HW229437   4.436   0.402   1.806
 4099SOL     OW29438   4.404   4.640   0.787
 4099SOL    HW129439   4.318   4.613   0.819
 4099SOL    HW229440   4.426   4.717   0.840
 4100SOL     OW29441   3.314   6.320   0.518
 4100SOL    HW129442   3.297   6.407   0.481
 4100SOL    HW229443   3.397   6.294   0.479
 4101SOL     OW29444   4.341   5.292   6.526
 4101SOL    HW129445   4.435   5.290   6.511
 4101SOL    HW229446   4.312   5.202   6.506
 4102SOL     OW29447   0.901   4.481   0.653
 4102SOL    HW129448   0.938   4.546   0.594
 4102SOL    HW229449   0.916   4.516   0.741
 4103SOL     OW29450   1.275   5.112   0.444
 4103SOL    HW129451   1.250   5.193   0.400
 4103SOL    HW229452   1.341   5.138   0.507
 4104SOL     OW29453   0.630   3.216   7.720
 4104SOL    HW129454   0.720   3.185   7.733
 4104SOL    HW229455   0.635   3.269   7.640
 4105SOL     OW29456   2.102   4.330   6.705
 4105SOL    HW129457   2.189   4.340   6.667
 4105SOL    HW229458   2.105   4.245   6.749
 4106SOL     OW29459   0.796   4.377   1.677
 4106SOL    HW129460   0.714   4.388   1.629
 4106SOL    HW229461   0.784   4.428   1.757
 4107SOL     OW29462   3.144   1.938   1.224
 4107SOL    HW129463   3.149   1.887   1.143
 4107SOL    HW229464   3.055   1.971   1.226
 4108SOL     OW29465   1.489   4.608   6.677
 4108SOL    HW129466   1.582   4.615   6.655
 4108SOL    HW229467   1.454   4.547   6.611
 4109SOL     OW29468   6.129   6.095   6.386
 4109SOL    HW129469   6.180   6.091   6.306
 4109SOL    HW229470   6.165   6.169   6.435
 4110SOL     OW29471   1.305   3.313   6.478
 4110SOL    HW129472   1.309   3.224   6.513
 4110SOL    HW229473   1.358   3.310   6.398
 4111SOL     OW29474   5.223   2.466   7.861
 4111SOL    HW129475   5.212   2.514   7.780
 4111SOL    HW229476   5.294   2.512   7.907
 4112SOL     OW29477   0.474   4.324   7.034
 4112SOL    HW129478   0.512   4.410   7.015
 4112SOL    HW229479   0.394   4.344   7.083
 4113SOL     OW29480   0.022   6.373   0.741
 4113SOL    HW129481   0.032   6.312   0.667
 4113SOL    HW229482  -0.047   6.433   0.713
 4114SOL     OW29483   0.380   5.694   6.447
 4114SOL    HW129484   0.351   5.775   6.488
 4114SOL    HW229485   0.372   5.710   6.353
 4115SOL     OW29486   2.688   4.278   0.932
 4115SOL    HW129487   2.607   4.328   0.916
 4115SOL    HW229488   2.755   4.325   0.883
 4116SOL     OW29489   4.374   6.146   0.783
 4116SOL    HW129490   4.449   6.204   0.784
 4116SOL    HW229491   4.308   6.190   0.838
 4117SOL     OW29492   3.868   1.865   7.872
 4117SOL    HW129493   3.849   1.779   7.910
 4117SOL    HW229494   3.936   1.902   7.928
 4118SOL     OW29495   1.654   3.024   5.343
 4118SOL    HW129496   1.625   2.957   5.406
 4118SOL    HW229497   1.739   3.052   5.377
 4119SOL     OW29498   1.560   1.301   0.392
 4119SOL    HW129499   1.605   1.374   0.433
 4119SOL    HW229500   1.592   1.301   0.301
 4120SOL     OW29501   4.406   4.635   6.810
 4120SOL    HW129502   4.329   4.592   6.772
 4120SOL    HW229503   4.370   4.700   6.871
 4121SOL     OW29504   3.616   4.261   0.165
 4121SOL    HW129505   3.657   4.175   0.155
 4121SOL    HW229506   3.579   4.259   0.253
 4122SOL     OW29507   3.222   1.402   1.246
 4122SOL    HW129508   3.151   1.408   1.310
 4122SOL    HW229509   3.178   1.398   1.161
 4123SOL     OW29510   3.370   1.692   1.183
 4123SOL    HW129511   3.300   1.722   1.125
 4123SOL    HW229512   3.383   1.764   1.244
 4124SOL     OW29513   2.409   4.054   1.799
 4124SOL    HW129514   2.421   3.971   1.846
 4124SOL    HW229515   2.345   4.102   1.850
 4125SOL     OW29516   2.793   1.657   7.938
 4125SOL    HW129517   2.810   1.752   7.939
 4125SOL    HW229518   2.847   1.622   8.008
 4126SOL     OW29519   6.303   5.335   7.615
 4126SOL    HW129520   6.247   5.412   7.617
 4126SOL    HW229521   6.251   5.266   7.657
 4127SOL     OW29522   2.819   4.254   0.230
 4127SOL    HW129523   2.729   4.256   0.265
 4127SOL    HW229524   2.863   4.188   0.284
 4128SOL     OW29525   3.572   2.078   1.473
 4128SOL    HW129526   3.538   2.099   1.560
 4128SOL    HW229527   3.494   2.055   1.422
 4129SOL     OW29528   2.324   1.174   6.668
 4129SOL    HW129529   2.405   1.131   6.696
 4129SOL    HW229530   2.317   1.251   6.725
 4130SOL     OW29531   3.769   2.050   7.478
 4130SOL    HW129532   3.848   2.001   7.501
 4130SOL    HW229533   3.748   2.100   7.557
 4131SOL     OW29534   2.641   0.322   1.276
 4131SOL    HW129535   2.670   0.255   1.338
 4131SOL    HW229536   2.711   0.325   1.210
 4132SOL     OW29537   2.527   5.936   5.868
 4132SOL    HW129538   2.555   5.914   5.957
 4132SOL    HW229539   2.507   5.851   5.828
 4133SOL     OW29540   1.222   3.526   7.651
 4133SOL    HW129541   1.154   3.588   7.626
 4133SOL    HW229542   1.271   3.510   7.570
 4134SOL     OW29543   4.761   4.685   5.989
 4134SOL    HW129544   4.772   4.768   5.942
 4134SOL    HW229545   4.808   4.621   5.935
 4135SOL     OW29546   5.857   3.763   1.195
 4135SOL    HW129547   5.807   3.838   1.165
 4135SOL    HW229548   5.942   3.799   1.222
 4136SOL     OW29549   1.627   5.377   7.021
 4136SOL    HW129550   1.536   5.359   7.044
 4136SOL    HW229551   1.671   5.293   7.032
 4137SOL     OW29552   1.175   4.724   6.750
 4137SOL    HW129553   1.237   4.787   6.714
 4137SOL    HW229554   1.098   4.776   6.773
 4138SOL     OW29555   1.397   0.349   7.052
 4138SOL    HW129556   1.429   0.277   6.998
 4138SOL    HW229557   1.457   0.421   7.034
 4139SOL     OW29558   3.427   6.155   6.277
 4139SOL    HW129559   3.423   6.078   6.220
 4139SOL    HW229560   3.423   6.120   6.366
 4140SOL     OW29561   1.707   4.005   5.831
 4140SOL    HW129562   1.618   3.993   5.797
 4140SOL    HW229563   1.717   4.100   5.839
 4141SOL     OW29564   0.946   1.912   1.079
 4141SOL    HW129565   0.963   1.923   0.985
 4141SOL    HW229566   0.864   1.958   1.094
 4142SOL     OW29567   3.716   0.192   5.753
 4142SOL    HW129568   3.788   0.255   5.746
 4142SOL    HW229569   3.651   0.223   5.689
 4143SOL     OW29570   3.309   5.886   7.931
 4143SOL    HW129571   3.340   5.964   7.886
 4143SOL    HW229572   3.247   5.845   7.870
 4144SOL     OW29573   1.545   2.432   5.526
 4144SOL    HW129574   1.552   2.511   5.472
 4144SOL    HW229575   1.600   2.451   5.602
 4145SOL     OW29576   0.537   3.666   0.224
 4145SOL    HW129577   0.582   3.582   0.221
 4145SOL    HW229578   0.448   3.645   0.251
 4146SOL     OW29579   0.181   3.334   6.357
 4146SOL    HW129580   0.245   3.353   6.288
 4146SOL    HW229581   0.233   3.313   6.434
 4147SOL     OW29582   4.090   3.942   6.327
 4147SOL    HW129583   4.002   3.905   6.318
 4147SOL    HW229584   4.141   3.903   6.257
 4148SOL     OW29585   5.057   3.176   7.019
 4148SOL    HW129586   5.138   3.128   7.001
 4148SOL    HW229587   5.055   3.246   6.953
 4149SOL     OW29588   0.922   4.665   6.540
 4149SOL    HW129589   0.978   4.743   6.529
 4149SOL    HW229590   0.872   4.683   6.620
 4150SOL     OW29591   2.917   3.479   7.734
 4150SOL    HW129592   2.849   3.414   7.718
 4150SOL    HW229593   2.894   3.552   7.677
 4151SOL     OW29594   4.430   0.346   6.787
 4151SOL    HW129595   4.502   0.311   6.736
 4151SOL    HW229596   4.387   0.269   6.825
 4152SOL     OW29597   4.717   6.334   0.336
 4152SOL    HW129598   4.673   6.328   0.252
 4152SOL    HW229599   4.693   6.253   0.381
 4153SOL     OW29600   4.416   1.917   7.037
 4153SOL    HW129601   4.481   1.973   7.080
 4153SOL    HW229602   4.431   1.830   7.072
 4154SOL     OW29603   2.208   3.207   6.052
 4154SOL    HW129604   2.125   3.254   6.052
 4154SOL    HW229605   2.268   3.264   6.005
 4155SOL     OW29606   3.035   1.453   1.852
 4155SOL    HW129607   3.001   1.422   1.768
 4155SOL    HW229608   3.004   1.543   1.859
 4156SOL     OW29609   5.806   5.808   7.136
 4156SOL    HW129610   5.824   5.897   7.168
 4156SOL    HW229611   5.742   5.821   7.065
 4157SOL     OW29612   2.375   3.937   1.144
 4157SOL    HW129613   2.328   3.903   1.220
 4157SOL    HW229614   2.460   3.892   1.146
 4158SOL     OW29615   1.010   6.094   7.357
 4158SOL    HW129616   0.955   6.049   7.293
 4158SOL    HW229617   1.025   6.029   7.426
 4159SOL     OW29618   4.682   3.761   6.677
 4159SOL    HW129619   4.686   3.701   6.603
 4159SOL    HW229620   4.643   3.841   6.641
 4160SOL     OW29621   4.332   0.294   5.798
 4160SOL    HW129622   4.270   0.357   5.760
 4160SOL    HW229623   4.296   0.208   5.774
 4161SOL     OW29624   0.990   2.665   0.088
 4161SOL    HW129625   1.012   2.608   0.162
 4161SOL    HW229626   1.027   2.750   0.112
 4162SOL     OW29627   5.534   4.348   6.474
 4162SOL    HW129628   5.602   4.284   6.452
 4162SOL    HW229629   5.531   4.407   6.398
 4163SOL     OW29630   2.062   0.453   1.245
 4163SOL    HW129631   1.976   0.412   1.252
 4163SOL    HW229632   2.091   0.432   1.156
 4164SOL     OW29633   5.940   0.676   0.841
 4164SOL    HW129634   5.886   0.710   0.770
 4164SOL    HW229635   6.009   0.627   0.797
 4165SOL     OW29636   5.000   4.867   5.451
 4165SOL    HW129637   5.033   4.780   5.427
 4165SOL    HW229638   4.961   4.900   5.370
 4166SOL     OW29639   3.018   1.240   7.564
 4166SOL    HW129640   3.067   1.283   7.634
 4166SOL    HW229641   2.927   1.250   7.591
 4167SOL     OW29642   5.165   0.337   1.986
 4167SOL    HW129643   5.174   0.373   2.074
 4167SOL    HW229644   5.226   0.388   1.933
 4168SOL     OW29645   0.933   4.372   6.551
 4168SOL    HW129646   0.841   4.347   6.562
 4168SOL    HW229647   0.930   4.466   6.532
 4169SOL     OW29648   4.780   3.271   1.336
 4169SOL    HW129649   4.866   3.260   1.295
 4169SOL    HW229650   4.719   3.227   1.277
 4170SOL     OW29651   0.221   2.773   2.161
 4170SOL    HW129652   0.139   2.794   2.206
 4170SOL    HW229653   0.280   2.845   2.184
 4171SOL     OW29654   5.702   0.273   1.561
 4171SOL    HW129655   5.755   0.230   1.628
 4171SOL    HW229656   5.674   0.355   1.602
 4172SOL     OW29657   0.866   2.893   7.239
 4172SOL    HW129658   0.872   2.983   7.207
 4172SOL    HW229659   0.775   2.868   7.226
 4173SOL     OW29660   4.327   5.497   7.490
 4173SOL    HW129661   4.377   5.477   7.411
 4173SOL    HW229662   4.353   5.585   7.514
 4174SOL     OW29663   6.285   3.349   0.718
 4174SOL    HW129664   6.330   3.323   0.798
 4174SOL    HW229665   6.203   3.299   0.719
 4175SOL     OW29666   4.241   5.786   7.362
 4175SOL    HW129667   4.337   5.791   7.367
 4175SOL    HW229668   4.219   5.839   7.285
 4176SOL     OW29669   3.784   3.038   1.526
 4176SOL    HW129670   3.762   3.051   1.618
 4176SOL    HW229671   3.798   3.126   1.492
 4177SOL     OW29672   4.359   5.932   6.000
 4177SOL    HW129673   4.396   5.845   5.989
 4177SOL    HW229674   4.420   5.991   5.955
 4178SOL     OW29675   4.387   0.430   6.246
 4178SOL    HW129676   4.412   0.340   6.226
 4178SOL    HW229677   4.297   0.424   6.277
 4179SOL     OW29678   2.818   6.197   7.794
 4179SOL    HW129679   2.747   6.133   7.802
 4179SOL    HW229680   2.897   6.148   7.818
 4180SOL     OW29681   3.820   6.194   7.637
 4180SOL    HW129682   3.767   6.234   7.568
 4180SOL    HW229683   3.794   6.102   7.637
 4181SOL     OW29684   1.758   5.344   2.029
 4181SOL    HW129685   1.788   5.362   1.940
 4181SOL    HW229686   1.820   5.281   2.064
 4182SOL     OW29687   6.112   4.450   7.791
 4182SOL    HW129688   6.191   4.480   7.747
 4182SOL    HW229689   6.143   4.408   7.871
 4183SOL     OW29690   0.527   0.349   1.973
 4183SOL    HW129691   0.525   0.263   1.932
 4183SOL    HW229692   0.439   0.385   1.958
 4184SOL     OW29693   3.403   4.524   1.265
 4184SOL    HW129694   3.314   4.515   1.230
 4184SOL    HW229695   3.391   4.523   1.360
 4185SOL     OW29696   3.519   6.123   7.092
 4185SOL    HW129697   3.610   6.152   7.091
 4185SOL    HW229698   3.502   6.095   7.003
 4186SOL     OW29699   4.801   4.537   0.015
 4186SOL    HW129700   4.755   4.542   0.099
 4186SOL    HW229701   4.733   4.513  -0.047
 4187SOL     OW29702   1.136   1.389   7.345
 4187SOL    HW129703   1.131   1.483   7.363
 4187SOL    HW229704   1.114   1.347   7.429
 4188SOL     OW29705   4.863   4.754   1.441
 4188SOL    HW129706   4.933   4.700   1.476
 4188SOL    HW229707   4.790   4.742   1.501
 4189SOL     OW29708   2.477   2.194   6.426
 4189SOL    HW129709   2.479   2.240   6.342
 4189SOL    HW229710   2.569   2.177   6.446
 4190SOL     OW29711   1.281   5.917   7.266
 4190SOL    HW129712   1.276   5.924   7.171
 4190SOL    HW229713   1.202   5.962   7.297
 4191SOL     OW29714   4.720   3.512   1.430
 4191SOL    HW129715   4.706   3.544   1.341
 4191SOL    HW229716   4.758   3.425   1.419
 4192SOL     OW29717   5.861   3.575   7.398
 4192SOL    HW129718   5.944   3.560   7.444
 4192SOL    HW229719   5.837   3.489   7.364
 4193SOL     OW29720   3.029   0.413   4.910
 4193SOL    HW129721   3.046   0.487   4.852
 4193SOL    HW229722   2.940   0.387   4.890
 4194SOL     OW29723   5.008   2.328   7.938
 4194SOL    HW129724   5.087   2.371   7.908
 4194SOL    HW229725   4.978   2.275   7.865
 4195SOL     OW29726   5.239   3.271   6.308
 4195SOL    HW129727   5.295   3.345   6.331
 4195SOL    HW229728   5.213   3.288   6.217
 4196SOL     OW29729   3.240   5.344   2.156
 4196SOL    HW129730   3.160   5.351   2.104
 4196SOL    HW229731   3.281   5.263   2.126
 4197SOL     OW29732   1.596   0.708   7.066
 4197SOL    HW129733   1.683   0.748   7.067
 4197SOL    HW229734   1.593   0.655   7.146
 4198SOL     OW29735   3.495   0.251   0.014
 4198SOL    HW129736   3.580   0.205   0.014
 4198SOL    HW229737   3.431   0.183   0.035
 4199SOL     OW29738   1.686   0.351   7.442
 4199SOL    HW129739   1.642   0.267   7.454
 4199SOL    HW229740   1.726   0.346   7.355
 4200SOL     OW29741   2.996   0.130   1.220
 4200SOL    HW129742   3.019   0.057   1.163
 4200SOL    HW229743   3.080   0.169   1.245
 4201SOL     OW29744   4.112   1.947   7.094
 4201SOL    HW129745   4.121   1.873   7.154
 4201SOL    HW229746   4.201   1.964   7.063
 4202SOL     OW29747   6.229   1.126   5.260
 4202SOL    HW129748   6.262   1.178   5.333
 4202SOL    HW229749   6.168   1.064   5.299
 4203SOL     OW29750   4.865   1.556   7.395
 4203SOL    HW129751   4.910   1.553   7.480
 4203SOL    HW229752   4.874   1.467   7.361
 4204SOL     OW29753   4.100   3.781   0.911
 4204SOL    HW129754   4.111   3.865   0.865
 4204SOL    HW229755   4.027   3.738   0.866
 4205SOL     OW29756   1.182   0.908   5.981
 4205SOL    HW129757   1.206   0.846   5.912
 4205SOL    HW229758   1.227   0.989   5.955
 4206SOL     OW29759   4.191   1.503   0.653
 4206SOL    HW129760   4.102   1.469   0.659
 4206SOL    HW229761   4.194   1.548   0.568
 4207SOL     OW29762   1.853   3.986   6.451
 4207SOL    HW129763   1.781   3.963   6.392
 4207SOL    HW229764   1.814   4.047   6.513
 4208SOL     OW29765   4.613   5.668   5.963
 4208SOL    HW129766   4.664   5.748   5.951
 4208SOL    HW229767   4.525   5.691   5.933
 4209SOL     OW29768   3.984   3.757   7.753
 4209SOL    HW129769   3.943   3.676   7.784
 4209SOL    HW229770   4.040   3.729   7.680
 4210SOL     OW29771   5.751   4.347   1.425
 4210SOL    HW129772   5.825   4.378   1.477
 4210SOL    HW229773   5.740   4.256   1.451
 4211SOL     OW29774   5.239   5.173   6.043
 4211SOL    HW129775   5.149   5.142   6.030
 4211SOL    HW229776   5.277   5.177   5.956
 4212SOL     OW29777   2.133   0.124   0.589
 4212SOL    HW129778   2.180   0.052   0.547
 4212SOL    HW229779   2.045   0.090   0.603
 4213SOL     OW29780   5.673   2.618   1.471
 4213SOL    HW129781   5.730   2.636   1.546
 4213SOL    HW229782   5.624   2.698   1.458
 4214SOL     OW29783   0.848   0.334   0.987
 4214SOL    HW129784   0.894   0.258   1.024
 4214SOL    HW229785   0.784   0.358   1.054
 4215SOL     OW29786   0.055   0.018   0.060
 4215SOL    HW129787  -0.016   0.014  -0.003
 4215SOL    HW229788   0.113   0.086   0.027
 4216SOL     OW29789   0.841   1.280   7.366
 4216SOL    HW129790   0.920   1.334   7.373
 4216SOL    HW229791   0.789   1.303   7.442
 4217SOL     OW29792   6.150   5.900   7.471
 4217SOL    HW129793   6.089   5.837   7.430
 4217SOL    HW229794   6.213   5.919   7.402
 4218SOL     OW29795   0.291   4.016   6.538
 4218SOL    HW129796   0.338   4.092   6.501
 4218SOL    HW229797   0.349   3.942   6.520
 4219SOL     OW29798   2.434   1.316   6.889
 4219SOL    HW129799   2.501   1.248   6.879
 4219SOL    HW229800   2.484   1.396   6.907
 4220SOL     OW29801   0.874   5.061   1.366
 4220SOL    HW129802   0.964   5.094   1.363
 4220SOL    HW229803   0.834   5.090   1.284
 4221SOL     OW29804   0.282   0.752   1.717
 4221SOL    HW129805   0.371   0.780   1.741
 4221SOL    HW229806   0.295   0.665   1.678
 4222SOL     OW29807   1.310   5.559   0.720
 4222SOL    HW129808   1.233   5.568   0.777
 4222SOL    HW229809   1.326   5.647   0.687
 4223SOL     OW29810   2.177   0.106   1.287
 4223SOL    HW129811   2.256   0.153   1.261
 4223SOL    HW229812   2.208   0.019   1.312
 4224SOL     OW29813   3.656   4.871   7.047
 4224SOL    HW129814   3.680   4.874   7.140
 4224SOL    HW229815   3.592   4.941   7.037
 4225SOL     OW29816   2.644   5.308   5.994
 4225SOL    HW129817   2.673   5.354   5.915
 4225SOL    HW229818   2.642   5.216   5.969
 4226SOL     OW29819   3.208   2.652   0.179
 4226SOL    HW129820   3.167   2.606   0.253
 4226SOL    HW229821   3.159   2.734   0.173
 4227SOL     OW29822   6.223   6.177   0.817
 4227SOL    HW129823   6.317   6.193   0.803
 4227SOL    HW229824   6.182   6.262   0.800
 4228SOL     OW29825   2.528   5.849   0.055
 4228SOL    HW129826   2.532   5.896   0.138
 4228SOL    HW229827   2.487   5.912  -0.005
 4229SOL     OW29828   4.433   5.236   1.135
 4229SOL    HW129829   4.507   5.293   1.116
 4229SOL    HW229830   4.382   5.236   1.054
 4230SOL     OW29831   3.831   4.619   5.827
 4230SOL    HW129832   3.889   4.559   5.780
 4230SOL    HW229833   3.863   4.707   5.803
 4231SOL     OW29834   4.771   5.384   6.770
 4231SOL    HW129835   4.863   5.399   6.746
 4231SOL    HW229836   4.775   5.334   6.851
 4232SOL     OW29837   0.337   1.877   7.148
 4232SOL    HW129838   0.294   1.946   7.197
 4232SOL    HW229839   0.332   1.906   7.057
 4233SOL     OW29840   0.451   4.033   0.087
 4233SOL    HW129841   0.370   4.006   0.045
 4233SOL    HW229842   0.441   4.127   0.102
 4234SOL     OW29843   0.375   2.592   0.752
 4234SOL    HW129844   0.442   2.658   0.736
 4234SOL    HW229845   0.339   2.615   0.838
 4235SOL     OW29846   4.308   5.590   7.156
 4235SOL    HW129847   4.257   5.627   7.228
 4235SOL    HW229848   4.245   5.537   7.107
 4236SOL     OW29849   0.064   5.948   7.723
 4236SOL    HW129850   0.005   5.881   7.690
 4236SOL    HW229851   0.039   5.960   7.815
 4237SOL     OW29852   4.626   3.034   1.482
 4237SOL    HW129853   4.648   2.993   1.566
 4237SOL    HW229854   4.686   3.108   1.476
 4238SOL     OW29855   4.197   5.972   6.355
 4238SOL    HW129856   4.164   6.003   6.271
 4238SOL    HW229857   4.264   6.035   6.379
 4239SOL     OW29858   5.479   4.915   6.965
 4239SOL    HW129859   5.408   4.853   6.948
 4239SOL    HW229860   5.533   4.911   6.886
 4240SOL     OW29861   1.396   5.314   7.176
 4240SOL    HW129862   1.488   5.323   7.203
 4240SOL    HW229863   1.352   5.275   7.251
 4241SOL     OW29864   4.584   4.401   0.688
 4241SOL    HW129865   4.506   4.457   0.691
 4241SOL    HW229866   4.549   4.312   0.691
 4242SOL     OW29867   0.198   0.869   6.200
 4242SOL    HW129868   0.198   0.853   6.105
 4242SOL    HW229869   0.133   0.807   6.234
 4243SOL     OW29870   4.205   2.450   1.514
 4243SOL    HW129871   4.170   2.513   1.577
 4243SOL    HW229872   4.292   2.429   1.547
 4244SOL     OW29873   2.132   6.114   7.337
 4244SOL    HW129874   2.204   6.126   7.398
 4244SOL    HW229875   2.076   6.190   7.350
 4245SOL     OW29876   5.856   3.613   1.465
 4245SOL    HW129877   5.847   3.674   1.392
 4245SOL    HW229878   5.903   3.664   1.532
 4246SOL     OW29879   3.557   2.147   7.185
 4246SOL    HW129880   3.592   2.220   7.236
 4246SOL    HW229881   3.507   2.189   7.114
 4247SOL     OW29882   3.943   5.184   7.064
 4247SOL    HW129883   3.898   5.143   6.990
 4247SOL    HW229884   4.000   5.249   7.025
 4248SOL     OW29885   0.656   2.711   6.750
 4248SOL    HW129886   0.706   2.685   6.827
 4248SOL    HW229887   0.611   2.631   6.722
 4249SOL     OW29888   5.037   6.349   0.193
 4249SOL    HW129889   5.129   6.344   0.166
 4249SOL    HW229890   5.040   6.391   0.279
 4250SOL     OW29891   2.025   3.932   0.962
 4250SOL    HW129892   2.068   3.848   0.977
 4250SOL    HW229893   2.038   3.949   0.869
 4251SOL     OW29894   4.755   2.326   7.788
 4251SOL    HW129895   4.751   2.317   7.693
 4251SOL    HW229896   4.741   2.420   7.804
 4252SOL     OW29897   5.169   0.314   7.644
 4252SOL    HW129898   5.116   0.340   7.569
 4252SOL    HW229899   5.251   0.282   7.607
 4253SOL     OW29900   4.589   4.297   6.994
 4253SOL    HW129901   4.600   4.331   7.083
 4253SOL    HW229902   4.553   4.209   7.007
 4254SOL     OW29903   4.593   0.712   7.300
 4254SOL    HW129904   4.597   0.763   7.219
 4254SOL    HW229905   4.660   0.645   7.289
 4255SOL     OW29906   4.540   0.779   0.553
 4255SOL    HW129907   4.569   0.794   0.643
 4255SOL    HW229908   4.476   0.849   0.536
 4256SOL     OW29909   5.208   3.346   6.042
 4256SOL    HW129910   5.227   3.440   6.034
 4256SOL    HW229911   5.113   3.340   6.028
 4257SOL     OW29912   5.645   6.378   1.378
 4257SOL    HW129913   5.563   6.356   1.421
 4257SOL    HW229914   5.619   6.419   1.296
 4258SOL     OW29915   0.232   4.552   1.143
 4258SOL    HW129916   0.221   4.612   1.069
 4258SOL    HW229917   0.173   4.479   1.123
 4259SOL     OW29918   3.732   4.008   6.735
 4259SOL    HW129919   3.674   4.025   6.661
 4259SOL    HW229920   3.691   3.935   6.781
 4260SOL     OW29921   5.474   3.068   1.005
 4260SOL    HW129922   5.397   3.109   1.045
 4260SOL    HW229923   5.481   2.983   1.047
 4261SOL     OW29924   5.742   2.125   6.303
 4261SOL    HW129925   5.736   2.052   6.241
 4261SOL    HW229926   5.836   2.145   6.308
 4262SOL     OW29927   3.317   2.711   6.343
 4262SOL    HW129928   3.240   2.751   6.382
 4262SOL    HW229929   3.299   2.617   6.344
 4263SOL     OW29930   2.144   2.485   7.879
 4263SOL    HW129931   2.207   2.437   7.825
 4263SOL    HW229932   2.126   2.426   7.952
 4264SOL     OW29933   5.564   2.764   1.984
 4264SOL    HW129934   5.651   2.790   1.955
 4264SOL    HW229935   5.516   2.846   1.994
 4265SOL     OW29936   3.911   5.122   0.669
 4265SOL    HW129937   3.844   5.096   0.732
 4265SOL    HW229938   3.950   5.040   0.640
 4266SOL     OW29939   1.160   1.581   6.637
 4266SOL    HW129940   1.243   1.617   6.605
 4266SOL    HW229941   1.179   1.488   6.650
 4267SOL     OW29942   4.426   5.872   0.800
 4267SOL    HW129943   4.366   5.822   0.746
 4267SOL    HW229944   4.407   5.963   0.779
 4268SOL     OW29945   2.314   4.722   6.782
 4268SOL    HW129946   2.280   4.761   6.862
 4268SOL    HW229947   2.312   4.793   6.718
 4269SOL     OW29948   1.484   2.364   2.207
 4269SOL    HW129949   1.526   2.315   2.278
 4269SOL    HW229950   1.477   2.453   2.241
 4270SOL     OW29951   5.524   2.196   0.442
 4270SOL    HW129952   5.524   2.153   0.357
 4270SOL    HW229953   5.577   2.275   0.428
 4271SOL     OW29954   2.644   1.377   7.322
 4271SOL    HW129955   2.678   1.309   7.263
 4271SOL    HW229956   2.551   1.357   7.331
 4272SOL     OW29957   5.502   4.175   0.518
 4272SOL    HW129958   5.554   4.187   0.597
 4272SOL    HW229959   5.470   4.263   0.497
 4273SOL     OW29960   2.400   0.226   1.155
 4273SOL    HW129961   2.477   0.231   1.211
 4273SOL    HW229962   2.392   0.313   1.117
 4274SOL     OW29963   4.974   0.241   6.445
 4274SOL    HW129964   4.922   0.161   6.438
 4274SOL    HW229965   4.923   0.306   6.395
 4275SOL     OW29966   5.842   5.182   1.080
 4275SOL    HW129967   5.759   5.151   1.045
 4275SOL    HW229968   5.835   5.171   1.174
 4276SOL     OW29969   4.428   4.910   0.131
 4276SOL    HW129970   4.499   4.968   0.103
 4276SOL    HW229971   4.445   4.828   0.086
 4277SOL     OW29972   6.086   0.637   7.162
 4277SOL    HW129973   6.031   0.564   7.190
 4277SOL    HW229974   6.048   0.665   7.079
 4278SOL     OW29975   3.828   4.622   7.271
 4278SOL    HW129976   3.916   4.651   7.296
 4278SOL    HW229977   3.773   4.699   7.285
 4279SOL     OW29978   2.867   4.160   7.080
 4279SOL    HW129979   2.778   4.127   7.081
 4279SOL    HW229980   2.891   4.163   6.987
 4280SOL     OW29981   5.420   4.590   1.005
 4280SOL    HW129982   5.348   4.540   1.043
 4280SOL    HW229983   5.448   4.649   1.074
 4281SOL     OW29984   3.576   3.317   0.337
 4281SOL    HW129985   3.649   3.281   0.286
 4281SOL    HW229986   3.563   3.255   0.408
 4282SOL     OW29987   1.344   4.318   7.833
 4282SOL    HW129988   1.380   4.268   7.760
 4282SOL    HW229989   1.270   4.365   7.795
 4283SOL     OW29990   2.333   5.844   0.805
 4283SOL    HW129991   2.251   5.892   0.794
 4283SOL    HW229992   2.400   5.912   0.803
 4284SOL     OW29993   2.047   1.541   6.021
 4284SOL    HW129994   1.970   1.508   5.976
 4284SOL    HW229995   2.051   1.634   5.996
 4285SOL     OW29996   2.467   4.361   7.054
 4285SOL    HW129997   2.447   4.313   6.974
 4285SOL    HW229998   2.500   4.294   7.115
 4286SOL     OW29999   4.467   1.191   6.236
 4286SOL    HW130000   4.388   1.176   6.183
 4286SOL    HW230001   4.442   1.262   6.296
 4287SOL     OW30002   1.452   0.628   5.965
 4287SOL    HW130003   1.524   0.574   5.932
 4287SOL    HW230004   1.431   0.590   6.050
 4288SOL     OW30005   5.938   2.526   6.740
 4288SOL    HW130006   6.016   2.474   6.720
 4288SOL    HW230007   5.897   2.543   6.655
 4289SOL     OW30008   4.011   1.464   0.881
 4289SOL    HW130009   4.004   1.516   0.961
 4289SOL    HW230010   4.056   1.384   0.907
 4290SOL     OW30011   3.149   0.667   7.155
 4290SOL    HW130012   3.140   0.745   7.211
 4290SOL    HW230013   3.242   0.664   7.134
 4291SOL     OW30014   4.128   5.332   5.707
 4291SOL    HW130015   4.147   5.239   5.698
 4291SOL    HW230016   4.206   5.376   5.674
 4292SOL     OW30017   0.727   3.815   6.547
 4292SOL    HW130018   0.742   3.909   6.551
 4292SOL    HW230019   0.769   3.780   6.625
 4293SOL     OW30020   4.814   0.507   5.817
 4293SOL    HW130021   4.867   0.484   5.740
 4293SOL    HW230022   4.731   0.536   5.780
 4294SOL     OW30023   1.240   0.491   7.639
 4294SOL    HW130024   1.209   0.564   7.585
 4294SOL    HW230025   1.168   0.428   7.636
 4295SOL     OW30026   1.620   3.114   7.077
 4295SOL    HW130027   1.540   3.098   7.027
 4295SOL    HW230028   1.590   3.149   7.160
 4296SOL     OW30029   5.600   2.395   6.845
 4296SOL    HW130030   5.590   2.302   6.822
 4296SOL    HW230031   5.679   2.422   6.798
 4297SOL     OW30032   3.475   1.815   0.033
 4297SOL    HW130033   3.451   1.749  -0.032
 4297SOL    HW230034   3.545   1.866  -0.009
 4298SOL     OW30035   3.328   5.600   1.632
 4298SOL    HW130036   3.339   5.651   1.551
 4298SOL    HW230037   3.294   5.663   1.695
 4299SOL     OW30038   2.102   5.510   5.787
 4299SOL    HW130039   2.125   5.417   5.792
 4299SOL    HW230040   2.015   5.511   5.748
 4300SOL     OW30041   3.551   1.638   5.246
 4300SOL    HW130042   3.475   1.587   5.273
 4300SOL    HW230043   3.625   1.593   5.287
 4301SOL     OW30044   4.757   0.096   0.699
 4301SOL    HW130045   4.752   0.138   0.613
 4301SOL    HW230046   4.830   0.139   0.742
 4302SOL     OW30047   2.973   3.985   0.968
 4302SOL    HW130048   3.007   3.900   0.996
 4302SOL    HW230049   3.029   4.049   1.013
 4303SOL     OW30050   0.448   1.619   1.795
 4303SOL    HW130051   0.490   1.705   1.802
 4303SOL    HW230052   0.515   1.564   1.753
 4304SOL     OW30053   1.224   1.207   7.635
 4304SOL    HW130054   1.213   1.184   7.728
 4304SOL    HW230055   1.155   1.270   7.617
 4305SOL     OW30056   0.210   1.324   1.323
 4305SOL    HW130057   0.202   1.414   1.356
 4305SOL    HW230058   0.241   1.334   1.233
 4306SOL     OW30059   3.680   5.007   0.397
 4306SOL    HW130060   3.645   5.046   0.316
 4306SOL    HW230061   3.636   4.922   0.404
 4307SOL     OW30062   4.290   4.322   7.238
 4307SOL    HW130063   4.300   4.255   7.171
 4307SOL    HW230064   4.221   4.379   7.205
 4308SOL     OW30065   1.851   1.678   1.833
 4308SOL    HW130066   1.916   1.608   1.848
 4308SOL    HW230067   1.901   1.759   1.840
 4309SOL     OW30068   5.625   1.074   1.598
 4309SOL    HW130069   5.663   1.159   1.622
 4309SOL    HW230070   5.674   1.010   1.650
 4310SOL     OW30071   2.679   6.005   7.353
 4310SOL    HW130072   2.654   6.097   7.359
 4310SOL    HW230073   2.764   6.006   7.310
 4311SOL     OW30074   3.587   0.217   5.994
 4311SOL    HW130075   3.637   0.182   5.920
 4311SOL    HW230076   3.574   0.309   5.972
 4312SOL     OW30077   1.075   2.403   0.164
 4312SOL    HW130078   1.085   2.418   0.258
 4312SOL    HW230079   1.122   2.476   0.123
 4313SOL     OW30080   0.099   3.053   6.674
 4313SOL    HW130081   0.050   3.071   6.594
 4313SOL    HW230082   0.145   2.971   6.656
 4314SOL     OW30083   6.256   0.891   6.118
 4314SOL    HW130084   6.327   0.935   6.072
 4314SOL    HW230085   6.182   0.951   6.110
 4315SOL     OW30086   0.545   4.583   6.932
 4315SOL    HW130087   0.636   4.586   6.905
 4315SOL    HW230088   0.541   4.639   7.010
 4316SOL     OW30089   0.143   0.134   7.688
 4316SOL    HW130090   0.193   0.147   7.769
 4316SOL    HW230091   0.201   0.166   7.619
 4317SOL     OW30092   5.938   2.623   5.484
 4317SOL    HW130093   5.997   2.604   5.557
 4317SOL    HW230094   5.983   2.588   5.407
 4318SOL     OW30095   0.458   2.570   7.841
 4318SOL    HW130096   0.485   2.503   7.903
 4318SOL    HW230097   0.388   2.618   7.885
 4319SOL     OW30098   4.922   1.811   6.525
 4319SOL    HW130099   4.828   1.829   6.513
 4319SOL    HW230100   4.964   1.896   6.513
 4320SOL     OW30101   5.774   2.203   6.612
 4320SOL    HW130102   5.820   2.274   6.568
 4320SOL    HW230103   5.770   2.132   6.548
 4321SOL     OW30104   5.494   2.707   6.360
 4321SOL    HW130105   5.556   2.649   6.404
 4321SOL    HW230106   5.532   2.795   6.368
 4322SOL     OW30107   6.243   4.584   1.940
 4322SOL    HW130108   6.212   4.551   2.024
 4322SOL    HW230109   6.209   4.521   1.876
 4323SOL     OW30110   2.576   4.781   7.339
 4323SOL    HW130111   2.489   4.742   7.348
 4323SOL    HW230112   2.626   4.744   7.412
 4324SOL     OW30113   3.839   1.208   7.408
 4324SOL    HW130114   3.763   1.243   7.454
 4324SOL    HW230115   3.830   1.237   7.318
 4325SOL     OW30116   5.091   0.238   7.189
 4325SOL    HW130117   5.078   0.285   7.106
 4325SOL    HW230118   5.078   0.146   7.166
 4326SOL     OW30119   3.681   2.734   0.832
 4326SOL    HW130120   3.762   2.713   0.785
 4326SOL    HW230121   3.709   2.793   0.902
 4327SOL     OW30122   0.418   4.674   0.068
 4327SOL    HW130123   0.350   4.634   0.122
 4327SOL    HW230124   0.484   4.704   0.130
 4328SOL     OW30125   6.222   4.506   6.415
 4328SOL    HW130126   6.250   4.543   6.499
 4328SOL    HW230127   6.289   4.441   6.395
 4329SOL     OW30128   4.795   4.630   7.369
 4329SOL    HW130129   4.808   4.587   7.284
 4329SOL    HW230130   4.778   4.722   7.347
 4330SOL     OW30131   3.606   3.416   1.680
 4330SOL    HW130132   3.586   3.430   1.772
 4330SOL    HW230133   3.702   3.410   1.677
 4331SOL     OW30134   1.198   1.679   0.754
 4331SOL    HW130135   1.180   1.607   0.814
 4331SOL    HW230136   1.117   1.689   0.704
 4332SOL     OW30137   1.927   0.656   1.455
 4332SOL    HW130138   1.933   0.605   1.374
 4332SOL    HW230139   1.997   0.620   1.511
 4333SOL     OW30140   3.525   5.739   1.378
 4333SOL    HW130141   3.574   5.751   1.459
 4333SOL    HW230142   3.438   5.774   1.397
 4334SOL     OW30143   2.915   2.886   1.289
 4334SOL    HW130144   2.994   2.925   1.327
 4334SOL    HW230145   2.917   2.795   1.318
 4335SOL     OW30146   2.449   6.230   0.177
 4335SOL    HW130147   2.491   6.259   0.258
 4335SOL    HW230148   2.522   6.211   0.118
 4336SOL     OW30149   5.406   6.342   0.359
 4336SOL    HW130150   5.334   6.391   0.398
 4336SOL    HW230151   5.381   6.332   0.267
 4337SOL     OW30152   4.541   5.211   7.183
 4337SOL    HW130153   4.520   5.283   7.124
 4337SOL    HW230154   4.566   5.254   7.265
 4338SOL     OW30155   6.370   6.323   7.736
 4338SOL    HW130156   6.461   6.296   7.751
 4338SOL    HW230157   6.374   6.418   7.725
 4339SOL     OW30158   0.064   0.468   0.733
 4339SOL    HW130159   0.014   0.430   0.661
 4339SOL    HW230160   0.056   0.404   0.804
 4340SOL     OW30161   2.996   3.952   0.567
 4340SOL    HW130162   2.982   4.046   0.557
 4340SOL    HW230163   3.091   3.943   0.575
 4341SOL     OW30164   0.640   4.346   0.947
 4341SOL    HW130165   0.632   4.437   0.920
 4341SOL    HW230166   0.704   4.308   0.886
 4342SOL     OW30167   5.658   0.621   7.847
 4342SOL    HW130168   5.747   0.586   7.843
 4342SOL    HW230169   5.619   0.594   7.764
 4343SOL     OW30170   2.630   2.775   1.005
 4343SOL    HW130171   2.595   2.772   0.916
 4343SOL    HW230172   2.655   2.684   1.025
 4344SOL     OW30173   1.589   6.205   0.728
 4344SOL    HW130174   1.630   6.266   0.789
 4344SOL    HW230175   1.506   6.182   0.769
 4345SOL     OW30176   5.982   0.750   6.929
 4345SOL    HW130177   6.037   0.767   6.852
 4345SOL    HW230178   5.918   0.821   6.929
 4346SOL     OW30179   0.905   2.805   1.231
 4346SOL    HW130180   0.812   2.798   1.213
 4346SOL    HW230181   0.922   2.741   1.299
 4347SOL     OW30182   4.669   1.590   0.837
 4347SOL    HW130183   4.701   1.596   0.927
 4347SOL    HW230184   4.578   1.619   0.842
 4348SOL     OW30185   2.427   0.132   0.438
 4348SOL    HW130186   2.361   0.062   0.436
 4348SOL    HW230187   2.387   0.204   0.388
 4349SOL     OW30188   0.286   3.845   7.576
 4349SOL    HW130189   0.254   3.801   7.497
 4349SOL    HW230190   0.249   3.933   7.572
 4350SOL     OW30191   1.941   4.244   1.205
 4350SOL    HW130192   1.998   4.173   1.235
 4350SOL    HW230193   1.870   4.246   1.269
 4351SOL     OW30194   5.141   2.977   7.270
 4351SOL    HW130195   5.150   3.061   7.225
 4351SOL    HW230196   5.060   2.940   7.236
 4352SOL     OW30197   3.223   2.976   1.748
 4352SOL    HW130198   3.276   3.013   1.818
 4352SOL    HW230199   3.278   2.908   1.709
 4353SOL     OW30200   2.561   3.749   1.263
 4353SOL    HW130201   2.592   3.741   1.353
 4353SOL    HW230202   2.638   3.732   1.209
 4354SOL     OW30203   6.250   4.139   7.466
 4354SOL    HW130204   6.191   4.064   7.464
 4354SOL    HW230205   6.206   4.204   7.520
 4355SOL     OW30206   0.740   5.409   7.139
 4355SOL    HW130207   0.781   5.350   7.076
 4355SOL    HW230208   0.812   5.435   7.198
 4356SOL     OW30209   1.520   3.560   0.535
 4356SOL    HW130210   1.609   3.591   0.521
 4356SOL    HW230211   1.487   3.613   0.608
 4357SOL     OW30212   2.955   4.675   6.633
 4357SOL    HW130213   2.875   4.723   6.652
 4357SOL    HW230214   2.983   4.708   6.548
 4358SOL     OW30215   5.884   2.951   2.078
 4358SOL    HW130216   5.849   2.898   2.149
 4358SOL    HW230217   5.845   3.037   2.090
 4359SOL     OW30218   1.314   1.796   7.896
 4359SOL    HW130219   1.312   1.886   7.864
 4359SOL    HW230220   1.255   1.796   7.971
 4360SOL     OW30221   2.009   2.705   0.672
 4360SOL    HW130222   2.094   2.742   0.652
 4360SOL    HW230223   2.013   2.615   0.638
 4361SOL     OW30224   4.778   1.403   6.680
 4361SOL    HW130225   4.848   1.448   6.728
 4361SOL    HW230226   4.799   1.310   6.686
 4362SOL     OW30227   2.563   4.245   0.301
 4362SOL    HW130228   2.535   4.154   0.297
 4362SOL    HW230229   2.540   4.273   0.390
 4363SOL     OW30230   0.771   2.073   7.628
 4363SOL    HW130231   0.767   2.168   7.642
 4363SOL    HW230232   0.754   2.063   7.534
 4364SOL     OW30233   2.415   2.398   5.941
 4364SOL    HW130234   2.490   2.429   5.993
 4364SOL    HW230235   2.436   2.308   5.920
 4365SOL     OW30236   5.609   5.903   0.923
 4365SOL    HW130237   5.518   5.932   0.929
 4365SOL    HW230238   5.661   5.984   0.931
 4366SOL     OW30239   2.711   3.763   1.019
 4366SOL    HW130240   2.727   3.856   1.010
 4366SOL    HW230241   2.623   3.750   0.984
 4367SOL     OW30242   4.692   2.538   6.470
 4367SOL    HW130243   4.628   2.574   6.407
 4367SOL    HW230244   4.774   2.581   6.447
 4368SOL     OW30245   1.758   3.910   1.807
 4368SOL    HW130246   1.772   3.830   1.756
 4368SOL    HW230247   1.695   3.960   1.755
 4369SOL     OW30248   5.017   6.289   6.290
 4369SOL    HW130249   4.925   6.299   6.264
 4369SOL    HW230250   5.016   6.295   6.385
 4370SOL     OW30251   2.155   4.919   1.448
 4370SOL    HW130252   2.175   4.911   1.355
 4370SOL    HW230253   2.061   4.899   1.455
 4371SOL     OW30254   3.354   3.911   1.211
 4371SOL    HW130255   3.395   3.961   1.141
 4371SOL    HW230256   3.400   3.939   1.291
 4372SOL     OW30257   2.136   3.250   1.768
 4372SOL    HW130258   2.059   3.215   1.812
 4372SOL    HW230259   2.196   3.175   1.762
 4373SOL     OW30260   1.785   2.925   6.926
 4373SOL    HW130261   1.728   2.972   6.987
 4373SOL    HW230262   1.784   2.835   6.956
 4374SOL     OW30263   2.750   5.646   0.258
 4374SOL    HW130264   2.785   5.582   0.320
 4374SOL    HW230265   2.660   5.616   0.242
 4375SOL     OW30266   2.236   3.847   1.349
 4375SOL    HW130267   2.154   3.797   1.347
 4375SOL    HW230268   2.250   3.867   1.441
 4376SOL     OW30269   4.052   5.741   0.389
 4376SOL    HW130270   4.044   5.678   0.317
 4376SOL    HW230271   4.023   5.824   0.351
 4377SOL     OW30272   3.886   0.802   6.324
 4377SOL    HW130273   3.917   0.850   6.247
 4377SOL    HW230274   3.963   0.753   6.354
 4378SOL     OW30275   4.784   0.395   6.319
 4378SOL    HW130276   4.755   0.340   6.246
 4378SOL    HW230277   4.808   0.478   6.279
 4379SOL     OW30278   3.702   6.257   7.402
 4379SOL    HW130279   3.714   6.349   7.425
 4379SOL    HW230280   3.740   6.249   7.315
 4380SOL     OW30281   5.292   5.006   0.860
 4380SOL    HW130282   5.320   4.925   0.816
 4380SOL    HW230283   5.256   4.976   0.943
 4381SOL     OW30284   2.492   2.016   7.215
 4381SOL    HW130285   2.434   1.983   7.284
 4381SOL    HW230286   2.572   2.040   7.261
 4382SOL     OW30287   2.784   0.742   0.893
 4382SOL    HW130288   2.847   0.676   0.921
 4382SOL    HW230289   2.835   0.822   0.884
 4383SOL     OW30290   1.860   2.375   7.476
 4383SOL    HW130291   1.883   2.312   7.545
 4383SOL    HW230292   1.930   2.440   7.480
 4384SOL     OW30293   3.198   4.276   1.664
 4384SOL    HW130294   3.169   4.321   1.743
 4384SOL    HW230295   3.273   4.224   1.692
 4385SOL     OW30296   3.288   5.191   5.775
 4385SOL    HW130297   3.305   5.285   5.767
 4385SOL    HW230298   3.201   5.186   5.816
 4386SOL     OW30299   0.353   5.784   7.679
 4386SOL    HW130300   0.269   5.745   7.657
 4386SOL    HW230301   0.364   5.767   7.772
 4387SOL     OW30302   3.541   1.762   7.473
 4387SOL    HW130303   3.513   1.720   7.391
 4387SOL    HW230304   3.623   1.719   7.495
 4388SOL     OW30305   0.613   4.383   0.667
 4388SOL    HW130306   0.624   4.296   0.630
 4388SOL    HW230307   0.700   4.423   0.661
 4389SOL     OW30308   1.289   1.932   2.086
 4389SOL    HW130309   1.273   1.966   2.175
 4389SOL    HW230310   1.206   1.948   2.040
 4390SOL     OW30311   5.309   5.458   7.732
 4390SOL    HW130312   5.338   5.368   7.716
 4390SOL    HW230313   5.314   5.468   7.827
 4391SOL     OW30314   3.727   6.300   0.906
 4391SOL    HW130315   3.644   6.293   0.860
 4391SOL    HW230316   3.732   6.219   0.958
 4392SOL     OW30317   5.416   5.043   5.484
 4392SOL    HW130318   5.509   5.054   5.502
 4392SOL    HW230319   5.397   4.954   5.512
 4393SOL     OW30320   0.628   4.685   1.638
 4393SOL    HW130321   0.637   4.728   1.722
 4393SOL    HW230322   0.637   4.755   1.573
 4394SOL     OW30323   3.206   6.025   5.463
 4394SOL    HW130324   3.284   5.978   5.489
 4394SOL    HW230325   3.236   6.090   5.400
 4395SOL     OW30326   3.683   5.683   0.884
 4395SOL    HW130327   3.646   5.701   0.971
 4395SOL    HW230328   3.608   5.659   0.831
 4396SOL     OW30329   0.898   3.113   1.264
 4396SOL    HW130330   0.906   3.018   1.271
 4396SOL    HW230331   0.981   3.146   1.297
 4397SOL     OW30332   6.313   5.220   2.154
 4397SOL    HW130333   6.309   5.192   2.246
 4397SOL    HW230334   6.399   5.262   2.145
 4398SOL     OW30335   2.970   1.589   5.364
 4398SOL    HW130336   3.023   1.591   5.284
 4398SOL    HW230337   3.032   1.614   5.433
 4399SOL     OW30338   4.881   5.959   7.705
 4399SOL    HW130339   4.959   5.949   7.760
 4399SOL    HW230340   4.845   6.044   7.729
 4400SOL     OW30341   5.028   1.341   0.779
 4400SOL    HW130342   4.960   1.323   0.715
 4400SOL    HW230343   5.071   1.420   0.746
 4401SOL     OW30344   5.590   3.379   6.110
 4401SOL    HW130345   5.536   3.438   6.164
 4401SOL    HW230346   5.677   3.419   6.112
 4402SOL     OW30347   2.971   0.076   7.808
 4402SOL    HW130348   2.910   0.009   7.775
 4402SOL    HW230349   2.941   0.093   7.897
 4403SOL     OW30350   1.423   6.019   0.371
 4403SOL    HW130351   1.420   5.945   0.431
 4403SOL    HW230352   1.399   6.095   0.424
 4404SOL     OW30353   1.709   3.850   1.426
 4404SOL    HW130354   1.756   3.771   1.399
 4404SOL    HW230355   1.617   3.829   1.413
 4405SOL     OW30356   5.876   1.521   1.394
 4405SOL    HW130357   5.929   1.533   1.315
 4405SOL    HW230358   5.837   1.608   1.410
 4406SOL     OW30359   3.978   5.545   5.759
 4406SOL    HW130360   3.959   5.582   5.673
 4406SOL    HW230361   4.038   5.473   5.742
 4407SOL     OW30362   3.971   6.195   7.875
 4407SOL    HW130363   3.917   6.204   7.797
 4407SOL    HW230364   4.017   6.112   7.863
 4408SOL     OW30365   2.460   0.816   6.574
 4408SOL    HW130366   2.537   0.845   6.524
 4408SOL    HW230367   2.408   0.765   6.512
 4409SOL     OW30368   0.713   2.669   0.111
 4409SOL    HW130369   0.795   2.679   0.063
 4409SOL    HW230370   0.685   2.758   0.130
 4410SOL     OW30371   4.612   0.317   0.553
 4410SOL    HW130372   4.578   0.383   0.492
 4410SOL    HW230373   4.636   0.367   0.631
 4411SOL     OW30374   3.502   3.079   0.471
 4411SOL    HW130375   3.423   3.061   0.523
 4411SOL    HW230376   3.479   3.052   0.382
 4412SOL     OW30377   3.714   4.527   1.412
 4412SOL    HW130378   3.683   4.449   1.366
 4412SOL    HW230379   3.716   4.501   1.504
 4413SOL     OW30380   1.281   3.600   0.364
 4413SOL    HW130381   1.366   3.615   0.406
 4413SOL    HW230382   1.293   3.519   0.315
 4414SOL     OW30383   2.848   5.080   7.877
 4414SOL    HW130384   2.769   5.133   7.863
 4414SOL    HW230385   2.816   4.990   7.882
 4415SOL     OW30386   0.023   3.783   7.506
 4415SOL    HW130387  -0.021   3.764   7.423
 4415SOL    HW230388   0.035   3.878   7.505
 4416SOL     OW30389   1.934   0.938   5.459
 4416SOL    HW130390   1.924   0.856   5.507
 4416SOL    HW230391   1.851   0.949   5.412
 4417SOL     OW30392   1.629   3.615   2.592
 4417SOL    HW130393   1.678   3.691   2.561
 4417SOL    HW230394   1.558   3.604   2.529
 4418SOL     OW30395   0.558   1.470   1.266
 4418SOL    HW130396   0.632   1.510   1.312
 4418SOL    HW230397   0.512   1.420   1.333
 4419SOL     OW30398   6.209   4.833   0.947
 4419SOL    HW130399   6.271   4.830   0.875
 4419SOL    HW230400   6.185   4.742   0.963
 4420SOL     OW30401   0.480   3.719   1.749
 4420SOL    HW130402   0.404   3.756   1.792
 4420SOL    HW230403   0.555   3.759   1.793
 4421SOL     OW30404   6.197   4.190   1.172
 4421SOL    HW130405   6.276   4.177   1.120
 4421SOL    HW230406   6.190   4.285   1.183
 4422SOL     OW30407   5.584   3.113   5.833
 4422SOL    HW130408   5.537   3.196   5.825
 4422SOL    HW230409   5.663   3.125   5.780
 4423SOL     OW30410   3.388   0.579   0.640
 4423SOL    HW130411   3.412   0.594   0.549
 4423SOL    HW230412   3.470   0.589   0.689
 4424SOL     OW30413   3.060   3.724   6.898
 4424SOL    HW130414   3.121   3.666   6.853
 4424SOL    HW230415   3.112   3.802   6.920
 4425SOL     OW30416   2.029   5.848   0.144
 4425SOL    HW130417   2.041   5.942   0.131
 4425SOL    HW230418   1.970   5.821   0.073
 4426SOL     OW30419   0.021   5.183   1.794
 4426SOL    HW130420   0.093   5.146   1.845
 4426SOL    HW230421  -0.036   5.224   1.859
 4427SOL     OW30422   4.662   1.864   6.459
 4427SOL    HW130423   4.626   1.792   6.510
 4427SOL    HW230424   4.585   1.913   6.429
 4428SOL     OW30425   3.349   1.201   1.400
 4428SOL    HW130426   3.331   1.281   1.351
 4428SOL    HW230427   3.329   1.224   1.491
 4429SOL     OW30428   1.208   3.898   7.736
 4429SOL    HW130429   1.270   3.842   7.690
 4429SOL    HW230430   1.182   3.847   7.813
 4430SOL     OW30431   5.610   5.089   7.837
 4430SOL    HW130432   5.596   5.057   7.748
 4430SOL    HW230433   5.662   5.169   7.827
 4431SOL     OW30434   1.704   1.569   7.063
 4431SOL    HW130435   1.762   1.642   7.084
 4431SOL    HW230436   1.756   1.513   7.005
 4432SOL     OW30437   2.037   3.479   7.238
 4432SOL    HW130438   2.075   3.435   7.314
 4432SOL    HW230439   1.942   3.466   7.248
 4433SOL     OW30440   0.789   1.751   6.470
 4433SOL    HW130441   0.878   1.787   6.475
 4433SOL    HW230442   0.792   1.671   6.522
 4434SOL     OW30443   0.942   2.852   0.956
 4434SOL    HW130444   0.974   2.763   0.942
 4434SOL    HW230445   0.937   2.862   1.051
 4435SOL     OW30446   5.790   0.647   2.138
 4435SOL    HW130447   5.816   0.735   2.112
 4435SOL    HW230448   5.770   0.653   2.231
 4436SOL     OW30449   6.105   2.765   7.336
 4436SOL    HW130450   6.119   2.749   7.243
 4436SOL    HW230451   6.110   2.678   7.377
 4437SOL     OW30452   2.563   0.754   0.059
 4437SOL    HW130453   2.612   0.709  -0.010
 4437SOL    HW230454   2.479   0.708   0.062
 4438SOL     OW30455   1.024   4.908   6.476
 4438SOL    HW130456   1.061   4.942   6.394
 4438SOL    HW230457   1.077   4.949   6.545
 4439SOL     OW30458   0.359   1.383   0.117
 4439SOL    HW130459   0.419   1.333   0.172
 4439SOL    HW230460   0.290   1.322   0.095
 4440SOL     OW30461   4.052   6.221   7.429
 4440SOL    HW130462   4.005   6.232   7.511
 4440SOL    HW230463   4.006   6.149   7.385
 4441SOL     OW30464   3.044   2.562   0.388
 4441SOL    HW130465   3.021   2.648   0.424
 4441SOL    HW230466   3.090   2.518   0.459
 4442SOL     OW30467   5.740   0.847   0.069
 4442SOL    HW130468   5.678   0.780   0.038
 4442SOL    HW230469   5.688   0.927   0.073
 4443SOL     OW30470   3.847   3.080   6.617
 4443SOL    HW130471   3.859   3.159   6.669
 4443SOL    HW230472   3.867   3.106   6.527
 4444SOL     OW30473   0.346   3.137   6.996
 4444SOL    HW130474   0.339   3.132   6.901
 4444SOL    HW230475   0.262   3.171   7.025
 4445SOL     OW30476   3.680   2.009   1.249
 4445SOL    HW130477   3.600   2.032   1.203
 4445SOL    HW230478   3.663   2.033   1.340
 4446SOL     OW30479   2.660   4.723   1.522
 4446SOL    HW130480   2.660   4.629   1.538
 4446SOL    HW230481   2.572   4.742   1.490
 4447SOL     OW30482   4.552   2.273   1.897
 4447SOL    HW130483   4.527   2.200   1.954
 4447SOL    HW230484   4.611   2.234   1.833
 4448SOL     OW30485   4.173   5.419   1.554
 4448SOL    HW130486   4.188   5.325   1.552
 4448SOL    HW230487   4.221   5.453   1.479
 4449SOL     OW30488   0.165   6.187   5.553
 4449SOL    HW130489   0.122   6.243   5.617
 4449SOL    HW230490   0.121   6.102   5.561
 4450SOL     OW30491   0.510   0.049   1.915
 4450SOL    HW130492   0.442   0.041   1.981
 4450SOL    HW230493   0.466   0.085   1.838
 4451SOL     OW30494   2.701   0.103   0.921
 4451SOL    HW130495   2.700   0.015   0.958
 4451SOL    HW230496   2.616   0.114   0.880
 4452SOL     OW30497   3.963   4.388   0.910
 4452SOL    HW130498   3.931   4.310   0.865
 4452SOL    HW230499   3.894   4.453   0.898
 4453SOL     OW30500   5.373   2.430   5.881
 4453SOL    HW130501   5.391   2.491   5.809
 4453SOL    HW230502   5.410   2.473   5.958
 4454SOL     OW30503   4.702   5.551   0.626
 4454SOL    HW130504   4.618   5.587   0.597
 4454SOL    HW230505   4.723   5.598   0.706
 4455SOL     OW30506   3.498   6.080   7.477
 4455SOL    HW130507   3.569   6.144   7.471
 4455SOL    HW230508   3.503   6.031   7.395
 4456SOL     OW30509   6.382   3.048   7.273
 4456SOL    HW130510   6.307   3.032   7.215
 4456SOL    HW230511   6.378   3.142   7.291
 4457SOL     OW30512   1.507   3.494   6.565
 4457SOL    HW130513   1.415   3.468   6.564
 4457SOL    HW230514   1.546   3.447   6.490
 4458SOL     OW30515   1.556   2.266   0.357
 4458SOL    HW130516   1.517   2.351   0.378
 4458SOL    HW230517   1.576   2.271   0.264
 4459SOL     OW30518   3.327   0.815   5.362
 4459SOL    HW130519   3.323   0.804   5.456
 4459SOL    HW230520   3.325   0.726   5.326
 4460SOL     OW30521   4.973   0.134   5.174
 4460SOL    HW130522   4.919   0.164   5.248
 4460SOL    HW230523   4.951   0.041   5.164
 4461SOL     OW30524   1.546   2.850   0.092
 4461SOL    HW130525   1.612   2.919   0.094
 4461SOL    HW230526   1.574   2.787   0.158
 4462SOL     OW30527   0.756   2.732   1.701
 4462SOL    HW130528   0.803   2.688   1.772
 4462SOL    HW230529   0.693   2.789   1.746
 4463SOL     OW30530   2.075   3.405   5.663
 4463SOL    HW130531   2.137   3.332   5.656
 4463SOL    HW230532   1.990   3.366   5.644
 4464SOL     OW30533   4.711   2.338   7.508
 4464SOL    HW130534   4.642   2.274   7.522
 4464SOL    HW230535   4.757   2.308   7.430
 4465SOL     OW30536   1.857   3.744   5.551
 4465SOL    HW130537   1.843   3.773   5.641
 4465SOL    HW230538   1.770   3.744   5.511
 4466SOL     OW30539   3.898   1.128   0.144
 4466SOL    HW130540   3.894   1.181   0.065
 4466SOL    HW230541   3.961   1.059   0.124
 4467SOL     OW30542   0.052   3.981   6.942
 4467SOL    HW130543  -0.042   3.965   6.949
 4467SOL    HW230544   0.060   4.076   6.941
 4468SOL     OW30545   3.944   4.074   1.080
 4468SOL    HW130546   4.018   4.095   1.136
 4468SOL    HW230547   3.869   4.072   1.139
 4469SOL     OW30548   5.591   0.248   7.345
 4469SOL    HW130549   5.622   0.226   7.434
 4469SOL    HW230550   5.648   0.198   7.287
 4470SOL     OW30551   5.453   6.141   5.502
 4470SOL    HW130552   5.504   6.210   5.544
 4470SOL    HW230553   5.368   6.143   5.546
 4471SOL     OW30554   0.208   5.093   1.095
 4471SOL    HW130555   0.185   5.181   1.067
 4471SOL    HW230556   0.126   5.044   1.093
 4472SOL     OW30557   1.858   0.822   0.415
 4472SOL    HW130558   1.820   0.767   0.347
 4472SOL    HW230559   1.793   0.824   0.484
 4473SOL     OW30560   0.268   0.815   0.252
 4473SOL    HW130561   0.342   0.849   0.303
 4473SOL    HW230562   0.301   0.734   0.213
 4474SOL     OW30563   2.637   5.028   6.006
 4474SOL    HW130564   2.612   4.937   5.988
 4474SOL    HW230565   2.652   5.030   6.101
 4475SOL     OW30566   4.327   2.905   0.912
 4475SOL    HW130567   4.260   2.972   0.902
 4475SOL    HW230568   4.399   2.949   0.956
 4476SOL     OW30569   4.229   3.441   7.612
 4476SOL    HW130570   4.314   3.408   7.642
 4476SOL    HW230571   4.250   3.525   7.570
 4477SOL     OW30572   3.245   2.084   6.668
 4477SOL    HW130573   3.256   2.066   6.762
 4477SOL    HW230574   3.311   2.150   6.649
 4478SOL     OW30575   3.063   5.360   6.430
 4478SOL    HW130576   3.098   5.315   6.507
 4478SOL    HW230577   2.976   5.391   6.458
 4479SOL     OW30578   3.207   5.559   6.637
 4479SOL    HW130579   3.251   5.488   6.592
 4479SOL    HW230580   3.122   5.566   6.594
 4480SOL     OW30581   5.294   4.836   1.520
 4480SOL    HW130582   5.211   4.845   1.567
 4480SOL    HW230583   5.339   4.764   1.565
 4481SOL     OW30584   1.727   2.946   1.490
 4481SOL    HW130585   1.795   2.906   1.435
 4481SOL    HW230586   1.757   3.036   1.503
 4482SOL     OW30587   3.829   3.889   6.309
 4482SOL    HW130588   3.756   3.948   6.327
 4482SOL    HW230589   3.800   3.835   6.236
 4483SOL     OW30590   5.347   0.830   7.315
 4483SOL    HW130591   5.314   0.914   7.285
 4483SOL    HW230592   5.417   0.808   7.253
 4484SOL     OW30593   5.468   1.245   6.220
 4484SOL    HW130594   5.524   1.211   6.150
 4484SOL    HW230595   5.437   1.166   6.264
 4485SOL     OW30596   0.006   2.747   7.498
 4485SOL    HW130597   0.101   2.747   7.505
 4485SOL    HW230598  -0.020   2.833   7.530
 4486SOL     OW30599   0.825   5.843   7.642
 4486SOL    HW130600   0.758   5.812   7.581
 4486SOL    HW230601   0.858   5.764   7.684
 4487SOL     OW30602   0.376   4.932   7.288
 4487SOL    HW130603   0.296   4.897   7.329
 4487SOL    HW230604   0.358   5.026   7.279
 4488SOL     OW30605   1.596   5.849   5.584
 4488SOL    HW130606   1.674   5.845   5.529
 4488SOL    HW230607   1.560   5.760   5.581
 4489SOL     OW30608   0.787   4.652   7.509
 4489SOL    HW130609   0.816   4.736   7.474
 4489SOL    HW230610   0.847   4.634   7.582
 4490SOL     OW30611   2.991   4.553   6.297
 4490SOL    HW130612   2.971   4.476   6.245
 4490SOL    HW230613   3.086   4.555   6.302
 4491SOL     OW30614   6.101   3.793   2.673
 4491SOL    HW130615   6.033   3.850   2.710
 4491SOL    HW230616   6.170   3.790   2.740
 4492SOL     OW30617   5.840   2.741   0.606
 4492SOL    HW130618   5.776   2.733   0.535
 4492SOL    HW230619   5.837   2.656   0.651
 4493SOL     OW30620   3.469   0.643   5.706
 4493SOL    HW130621   3.419   0.724   5.695
 4493SOL    HW230622   3.438   0.586   5.635
 4494SOL     OW30623   1.825   4.305   1.876
 4494SOL    HW130624   1.895   4.242   1.861
 4494SOL    HW230625   1.865   4.370   1.935
 4495SOL     OW30626   3.862   0.581   0.025
 4495SOL    HW130627   3.773   0.574   0.058
 4495SOL    HW230628   3.908   0.634   0.091
 4496SOL     OW30629   5.362   4.357   1.976
 4496SOL    HW130630   5.390   4.293   1.911
 4496SOL    HW230631   5.285   4.399   1.937
 4497SOL     OW30632   0.240   1.628   7.241
 4497SOL    HW130633   0.318   1.583   7.272
 4497SOL    HW230634   0.271   1.718   7.223
 4498SOL     OW30635   1.528   4.235   6.013
 4498SOL    HW130636   1.613   4.277   6.000
 4498SOL    HW230637   1.493   4.223   5.925
 4499SOL     OW30638   2.417   3.514   6.625
 4499SOL    HW130639   2.334   3.520   6.674
 4499SOL    HW230640   2.464   3.594   6.649
 4500SOL     OW30641   1.571   3.375   0.925
 4500SOL    HW130642   1.567   3.349   0.833
 4500SOL    HW230643   1.541   3.466   0.926
 4501SOL     OW30644   2.289   5.644   5.934
 4501SOL    HW130645   2.360   5.668   5.875
 4501SOL    HW230646   2.226   5.599   5.878
 4502SOL     OW30647   5.432   0.192   6.209
 4502SOL    HW130648   5.368   0.121   6.204
 4502SOL    HW230649   5.384   0.269   6.177
 4503SOL     OW30650   1.237   2.015   7.741
 4503SOL    HW130651   1.168   2.015   7.675
 4503SOL    HW230652   1.209   2.082   7.804
 4504SOL     OW30653   0.136   4.068   0.687
 4504SOL    HW130654   0.102   4.043   0.601
 4504SOL    HW230655   0.183   4.151   0.670
 4505SOL     OW30656   3.053   3.112   2.359
 4505SOL    HW130657   2.994   3.043   2.330
 4505SOL    HW230658   3.137   3.091   2.318
 4506SOL     OW30659   5.818   6.183   0.551
 4506SOL    HW130660   5.813   6.167   0.456
 4506SOL    HW230661   5.816   6.096   0.590
 4507SOL     OW30662   3.963   3.893   6.674
 4507SOL    HW130663   3.870   3.916   6.668
 4507SOL    HW230664   4.009   3.972   6.646
 4508SOL     OW30665   3.264   2.512   5.350
 4508SOL    HW130666   3.257   2.568   5.273
 4508SOL    HW230667   3.329   2.555   5.405
 4509SOL     OW30668   4.124   3.697   7.488
 4509SOL    HW130669   4.053   3.688   7.425
 4509SOL    HW230670   4.185   3.759   7.448
 4510SOL     OW30671   4.677   0.575   1.482
 4510SOL    HW130672   4.612   0.615   1.425
 4510SOL    HW230673   4.665   0.618   1.567
 4511SOL     OW30674   5.390   5.951   1.731
 4511SOL    HW130675   5.466   5.993   1.771
 4511SOL    HW230676   5.421   5.865   1.704
 4512SOL     OW30677   0.921   6.013   0.499
 4512SOL    HW130678   0.899   5.922   0.479
 4512SOL    HW230679   0.987   6.008   0.568
 4513SOL     OW30680   2.524   5.820   1.916
 4513SOL    HW130681   2.493   5.760   1.984
 4513SOL    HW230682   2.468   5.897   1.925
 4514SOL     OW30683   0.287   1.426   2.370
 4514SOL    HW130684   0.206   1.410   2.321
 4514SOL    HW230685   0.267   1.396   2.459
 4515SOL     OW30686   0.096   6.177   5.878
 4515SOL    HW130687   0.078   6.267   5.849
 4515SOL    HW230688   0.140   6.136   5.803
 4516SOL     OW30689   6.314   0.119   0.300
 4516SOL    HW130690   6.373   0.077   0.238
 4516SOL    HW230691   6.244   0.055   0.313
 4517SOL     OW30692   1.521   5.165   1.436
 4517SOL    HW130693   1.440   5.216   1.444
 4517SOL    HW230694   1.517   5.102   1.508
 4518SOL     OW30695   5.972   1.978   1.240
 4518SOL    HW130696   5.938   1.904   1.189
 4518SOL    HW230697   6.061   1.991   1.208
 4519SOL     OW30698   4.534   2.204   6.632
 4519SOL    HW130699   4.492   2.144   6.695
 4519SOL    HW230700   4.535   2.288   6.676
 4520SOL     OW30701   0.386   5.069   6.229
 4520SOL    HW130702   0.366   5.068   6.136
 4520SOL    HW230703   0.424   5.156   6.244
 4521SOL     OW30704   0.449   0.978   7.937
 4521SOL    HW130705   0.378   1.040   7.951
 4521SOL    HW230706   0.434   0.943   7.849
 4522SOL     OW30707   6.357   0.985   1.111
 4522SOL    HW130708   6.333   1.039   1.185
 4522SOL    HW230709   6.453   0.993   1.104
 4523SOL     OW30710   2.159   4.443   1.146
 4523SOL    HW130711   2.148   4.348   1.152
 4523SOL    HW230712   2.254   4.456   1.141
 4524SOL     OW30713   4.320   0.240   0.848
 4524SOL    HW130714   4.372   0.292   0.908
 4524SOL    HW230715   4.250   0.202   0.902
 4525SOL     OW30716   5.445   3.747   1.771
 4525SOL    HW130717   5.427   3.702   1.853
 4525SOL    HW230718   5.378   3.816   1.766
 4526SOL     OW30719   3.000   3.598   0.319
 4526SOL    HW130720   2.968   3.626   0.404
 4526SOL    HW230721   2.955   3.655   0.256
 4527SOL     OW30722   6.376   2.525   1.108
 4527SOL    HW130723   6.424   2.495   1.185
 4527SOL    HW230724   6.285   2.531   1.137
 4528SOL     OW30725   4.601   1.327   0.795
 4528SOL    HW130726   4.639   1.412   0.815
 4528SOL    HW230727   4.606   1.319   0.700
 4529SOL     OW30728   4.129   5.481   0.814
 4529SOL    HW130729   4.081   5.468   0.733
 4529SOL    HW230730   4.097   5.564   0.849
 4530SOL     OW30731   1.988   2.714   6.640
 4530SOL    HW130732   2.043   2.709   6.718
 4530SOL    HW230733   2.003   2.631   6.595
 4531SOL     OW30734   3.518   3.639   0.381
 4531SOL    HW130735   3.488   3.548   0.376
 4531SOL    HW230736   3.596   3.641   0.326
 4532SOL     OW30737   3.593   0.915   1.702
 4532SOL    HW130738   3.673   0.906   1.649
 4532SOL    HW230739   3.523   0.926   1.638
 4533SOL     OW30740   5.381   1.462   5.571
 4533SOL    HW130741   5.447   1.463   5.502
 4533SOL    HW230742   5.426   1.429   5.648
 4534SOL     OW30743   2.455   2.803   5.985
 4534SOL    HW130744   2.532   2.807   6.042
 4534SOL    HW230745   2.440   2.894   5.958
 4535SOL     OW30746   5.315   2.669   2.375
 4535SOL    HW130747   5.230   2.624   2.376
 4535SOL    HW230748   5.303   2.744   2.433
 4536SOL     OW30749   0.798   5.753   1.498
 4536SOL    HW130750   0.717   5.777   1.453
 4536SOL    HW230751   0.793   5.658   1.508
 4537SOL     OW30752   1.031   1.624   5.629
 4537SOL    HW130753   1.002   1.543   5.588
 4537SOL    HW230754   1.113   1.646   5.585
 4538SOL     OW30755   4.669   2.625   6.070
 4538SOL    HW130756   4.741   2.643   6.131
 4538SOL    HW230757   4.595   2.603   6.127
 4539SOL     OW30758   0.873   3.147   5.291
 4539SOL    HW130759   0.904   3.225   5.337
 4539SOL    HW230760   0.878   3.077   5.356
 4540SOL     OW30761   5.296   2.034   1.096
 4540SOL    HW130762   5.314   2.094   1.024
 4540SOL    HW230763   5.338   2.073   1.172
 4541SOL     OW30764   1.257   4.696   7.077
 4541SOL    HW130765   1.251   4.601   7.088
 4541SOL    HW230766   1.265   4.708   6.982
 4542SOL     OW30767   1.449   3.538   2.352
 4542SOL    HW130768   1.379   3.517   2.290
 4542SOL    HW230769   1.455   3.634   2.350
 4543SOL     OW30770   4.220   1.463   7.333
 4543SOL    HW130771   4.250   1.387   7.282
 4543SOL    HW230772   4.259   1.538   7.288
 4544SOL     OW30773   5.961   2.591   7.605
 4544SOL    HW130774   5.955   2.530   7.531
 4544SOL    HW230775   5.889   2.566   7.662
 4545SOL     OW30776   0.047   1.094   6.784
 4545SOL    HW130777   0.049   1.183   6.819
 4545SOL    HW230778   0.017   1.040   6.857
 4546SOL     OW30779   2.904   3.329   2.488
 4546SOL    HW130780   2.957   3.264   2.444
 4546SOL    HW230781   2.819   3.324   2.444
 4547SOL     OW30782   5.616   1.158   5.981
 4547SOL    HW130783   5.687   1.211   5.944
 4547SOL    HW230784   5.555   1.145   5.909
 4548SOL     OW30785   4.384   3.112   1.127
 4548SOL    HW130786   4.467   3.143   1.092
 4548SOL    HW230787   4.398   3.108   1.222
 4549SOL     OW30788   0.469   3.918   7.244
 4549SOL    HW130789   0.443   4.004   7.210
 4549SOL    HW230790   0.558   3.905   7.212
 4550SOL     OW30791   4.802   2.005   7.827
 4550SOL    HW130792   4.791   2.075   7.892
 4550SOL    HW230793   4.861   2.043   7.761
 4551SOL     OW30794   1.635   1.130   1.260
 4551SOL    HW130795   1.587   1.069   1.316
 4551SOL    HW230796   1.634   1.213   1.307
 4552SOL     OW30797   4.869   2.810   6.777
 4552SOL    HW130798   4.886   2.773   6.690
 4552SOL    HW230799   4.945   2.783   6.829
 4553SOL     OW30800   0.712   2.873   5.781
 4553SOL    HW130801   0.634   2.919   5.750
 4553SOL    HW230802   0.742   2.823   5.705
 4554SOL     OW30803   1.174   5.652   0.430
 4554SOL    HW130804   1.089   5.691   0.446
 4554SOL    HW230805   1.237   5.718   0.459
 4555SOL     OW30806   1.772   1.857   7.046
 4555SOL    HW130807   1.777   1.894   7.134
 4555SOL    HW230808   1.715   1.916   6.998
 4556SOL     OW30809   3.359   4.604   1.744
 4556SOL    HW130810   3.424   4.663   1.781
 4556SOL    HW230811   3.351   4.534   1.809
 4557SOL     OW30812   1.453   0.211   0.563
 4557SOL    HW130813   1.408   0.162   0.494
 4557SOL    HW230814   1.542   0.222   0.529
 4558SOL     OW30815   4.321   5.094   7.077
 4558SOL    HW130816   4.400   5.123   7.122
 4558SOL    HW230817   4.320   5.143   6.995
 4559SOL     OW30818   0.933   6.338   7.803
 4559SOL    HW130819   0.876   6.288   7.745
 4559SOL    HW230820   0.875   6.404   7.842
 4560SOL     OW30821   4.230   1.292   1.177
 4560SOL    HW130822   4.153   1.346   1.162
 4560SOL    HW230823   4.292   1.351   1.222
 4561SOL     OW30824   0.909   0.839   5.549
 4561SOL    HW130825   1.004   0.841   5.535
 4561SOL    HW230826   0.879   0.925   5.520
 4562SOL     OW30827   0.595   1.381   6.636
 4562SOL    HW130828   0.593   1.296   6.592
 4562SOL    HW230829   0.504   1.413   6.631
 4563SOL     OW30830   3.900   6.273   1.497
 4563SOL    HW130831   3.974   6.312   1.544
 4563SOL    HW230832   3.870   6.343   1.439
 4564SOL     OW30833   3.322   2.445   6.742
 4564SOL    HW130834   3.376   2.523   6.754
 4564SOL    HW230835   3.385   2.376   6.719
 4565SOL     OW30836   1.852   4.221   0.939
 4565SOL    HW130837   1.899   4.230   1.023
 4565SOL    HW230838   1.851   4.310   0.903
 4566SOL     OW30839   1.776   0.047   0.391
 4566SOL    HW130840   1.688   0.012   0.380
 4566SOL    HW230841   1.832  -0.007   0.335
 4567SOL     OW30842   4.470   1.702   7.199
 4567SOL    HW130843   4.547   1.738   7.242
 4567SOL    HW230844   4.399   1.714   7.262
 4568SOL     OW30845   5.183   0.255   5.506
 4568SOL    HW130846   5.152   0.325   5.563
 4568SOL    HW230847   5.224   0.300   5.432
 4569SOL     OW30848   0.522   4.608   6.626
 4569SOL    HW130849   0.531   4.606   6.721
 4569SOL    HW230850   0.428   4.612   6.610
 4570SOL     OW30851   6.072   0.299   5.380
 4570SOL    HW130852   5.996   0.315   5.436
 4570SOL    HW230853   6.090   0.384   5.340
 4571SOL     OW30854   4.594   0.315   1.738
 4571SOL    HW130855   4.671   0.259   1.724
 4571SOL    HW230856   4.630   0.400   1.763
 4572SOL     OW30857   6.158   3.010   7.103
 4572SOL    HW130858   6.229   2.974   7.051
 4572SOL    HW230859   6.086   2.948   7.093
 4573SOL     OW30860   4.323   0.645   7.188
 4573SOL    HW130861   4.255   0.693   7.234
 4573SOL    HW230862   4.403   0.695   7.204
 4574SOL     OW30863   1.185   2.374   2.460
 4574SOL    HW130864   1.235   2.444   2.502
 4574SOL    HW230865   1.153   2.413   2.378
 4575SOL     OW30866   4.769   3.538   6.800
 4575SOL    HW130867   4.776   3.481   6.723
 4575SOL    HW230868   4.729   3.618   6.766
 4576SOL     OW30869   3.893   4.796   6.589
 4576SOL    HW130870   3.839   4.778   6.666
 4576SOL    HW230871   3.979   4.817   6.624
 4577SOL     OW30872   5.391   5.139   6.277
 4577SOL    HW130873   5.408   5.231   6.299
 4577SOL    HW230874   5.335   5.144   6.199
 4578SOL     OW30875   1.831   4.001   0.473
 4578SOL    HW130876   1.838   4.025   0.381
 4578SOL    HW230877   1.878   4.070   0.520
 4579SOL     OW30878   2.793   0.839   6.667
 4579SOL    HW130879   2.847   0.907   6.706
 4579SOL    HW230880   2.764   0.877   6.584
 4580SOL     OW30881   0.703   2.076   6.499
 4580SOL    HW130882   0.787   2.032   6.492
 4580SOL    HW230883   0.638   2.006   6.493
 4581SOL     OW30884   1.910   1.383   6.342
 4581SOL    HW130885   1.959   1.409   6.264
 4581SOL    HW230886   1.977   1.365   6.408
 4582SOL     OW30887   5.634   5.992   6.256
 4582SOL    HW130888   5.717   6.038   6.260
 4582SOL    HW230889   5.654   5.903   6.284
 4583SOL     OW30890   5.787   4.861   7.442
 4583SOL    HW130891   5.752   4.849   7.353
 4583SOL    HW230892   5.723   4.918   7.484
 4584SOL     OW30893   1.743   1.003   1.648
 4584SOL    HW130894   1.656   0.982   1.681
 4584SOL    HW230895   1.803   0.956   1.705
 4585SOL     OW30896   0.142   6.185   6.153
 4585SOL    HW130897   0.210   6.119   6.162
 4585SOL    HW230898   0.133   6.199   6.059
 4586SOL     OW30899   0.369   6.243   0.696
 4586SOL    HW130900   0.400   6.329   0.668
 4586SOL    HW230901   0.410   6.182   0.634
 4587SOL     OW30902   2.317   0.449   6.698
 4587SOL    HW130903   2.402   0.465   6.656
 4587SOL    HW230904   2.326   0.363   6.739
 4588SOL     OW30905   3.880   0.913   0.986
 4588SOL    HW130906   3.858   0.821   0.969
 4588SOL    HW230907   3.975   0.917   0.981
 4589SOL     OW30908   6.099   3.786   6.180
 4589SOL    HW130909   6.025   3.759   6.125
 4589SOL    HW230910   6.102   3.882   6.170
 4590SOL     OW30911   2.388   0.351   7.555
 4590SOL    HW130912   2.383   0.446   7.549
 4590SOL    HW230913   2.481   0.331   7.546
 4591SOL     OW30914   5.860   1.440   0.857
 4591SOL    HW130915   5.924   1.434   0.786
 4591SOL    HW230916   5.880   1.365   0.914
 4592SOL     OW30917   2.675   2.799   6.184
 4592SOL    HW130918   2.663   2.710   6.218
 4592SOL    HW230919   2.756   2.829   6.224
 4593SOL     OW30920   3.114   2.424   6.905
 4593SOL    HW130921   3.157   2.479   6.971
 4593SOL    HW230922   3.176   2.421   6.832
 4594SOL     OW30923   4.044   4.427   0.582
 4594SOL    HW130924   4.115   4.420   0.518
 4594SOL    HW230925   4.009   4.515   0.568
 4595SOL     OW30926   4.864   4.566   7.121
 4595SOL    HW130927   4.931   4.501   7.140
 4595SOL    HW230928   4.842   4.553   7.029
 4596SOL     OW30929   4.024   4.664   6.874
 4596SOL    HW130930   4.049   4.719   6.800
 4596SOL    HW230931   4.002   4.725   6.944
 4597SOL     OW30932   5.477   1.773   0.004
 4597SOL    HW130933   5.421   1.777   0.081
 4597SOL    HW230934   5.459   1.855  -0.042
 4598SOL     OW30935   6.151   5.260   1.290
 4598SOL    HW130936   6.240   5.288   1.309
 4598SOL    HW230937   6.135   5.188   1.352
 4599SOL     OW30938   1.826   2.923   0.075
 4599SOL    HW130939   1.880   2.986   0.027
 4599SOL    HW230940   1.848   2.838   0.036
 4600SOL     OW30941   3.773   1.731   5.837
 4600SOL    HW130942   3.697   1.703   5.887
 4600SOL    HW230943   3.812   1.801   5.890
 4601SOL     OW30944   2.441   3.615   7.012
 4601SOL    HW130945   2.469   3.629   7.102
 4601SOL    HW230946   2.361   3.564   7.019
 4602SOL     OW30947   0.250   3.672   5.729
 4602SOL    HW130948   0.322   3.617   5.759
 4602SOL    HW230949   0.291   3.739   5.674
 4603SOL     OW30950   2.792   0.435   5.188
 4603SOL    HW130951   2.823   0.525   5.175
 4603SOL    HW230952   2.737   0.439   5.266
 4604SOL     OW30953   1.632   1.341   1.426
 4604SOL    HW130954   1.665   1.425   1.395
 4604SOL    HW230955   1.681   1.326   1.508
 4605SOL     OW30956   0.683   2.977   1.086
 4605SOL    HW130957   0.683   3.037   1.011
 4605SOL    HW230958   0.727   3.025   1.156
 4606SOL     OW30959   2.444   1.647   1.432
 4606SOL    HW130960   2.518   1.587   1.442
 4606SOL    HW230961   2.414   1.662   1.521
 4607SOL     OW30962   2.589   4.137   7.593
 4607SOL    HW130963   2.508   4.124   7.643
 4607SOL    HW230964   2.659   4.114   7.654
 4608SOL     OW30965   0.482   0.048   7.647
 4608SOL    HW130966   0.452   0.052   7.738
 4608SOL    HW230967   0.545   0.119   7.640
 4609SOL     OW30968   6.175   1.215   7.327
 4609SOL    HW130969   6.184   1.119   7.333
 4609SOL    HW230970   6.259   1.249   7.357
 4610SOL     OW30971   5.121   4.034   7.194
 4610SOL    HW130972   5.122   4.114   7.141
 4610SOL    HW230973   5.197   4.043   7.252
 4611SOL     OW30974   6.110   1.088   5.622
 4611SOL    HW130975   6.106   1.006   5.671
 4611SOL    HW230976   6.054   1.073   5.545
 4612SOL     OW30977   2.484   6.144   1.240
 4612SOL    HW130978   2.453   6.087   1.170
 4612SOL    HW230979   2.422   6.217   1.241
 4613SOL     OW30980   1.307   4.377   5.763
 4613SOL    HW130981   1.255   4.379   5.844
 4613SOL    HW230982   1.353   4.293   5.767
 4614SOL     OW30983   2.971   3.323   6.780
 4614SOL    HW130984   2.944   3.388   6.715
 4614SOL    HW230985   3.059   3.299   6.754
 4615SOL     OW30986   3.855   5.732   5.910
 4615SOL    HW130987   3.932   5.679   5.889
 4615SOL    HW230988   3.807   5.737   5.828
 4616SOL     OW30989   5.378   1.790   7.457
 4616SOL    HW130990   5.433   1.814   7.382
 4616SOL    HW230991   5.440   1.758   7.523
 4617SOL     OW30992   5.929   0.404   5.854
 4617SOL    HW130993   5.854   0.423   5.910
 4617SOL    HW230994   6.000   0.382   5.914
 4618SOL     OW30995   0.916   5.198   1.612
 4618SOL    HW130996   0.901   5.152   1.695
 4618SOL    HW230997   0.877   5.141   1.546
 4619SOL     OW30998   3.104   2.649   7.408
 4619SOL    HW130999   3.172   2.716   7.395
 4619SOL    HW231000   3.025   2.698   7.428
 4620SOL     OW31001   2.534   4.691   0.116
 4620SOL    HW131002   2.546   4.611   0.064
 4620SOL    HW231003   2.505   4.756   0.052
 4621SOL     OW31004   3.878   2.444   7.533
 4621SOL    HW131005   3.892   2.385   7.608
 4621SOL    HW231006   3.826   2.516   7.569
 4622SOL     OW31007   1.116   2.174   7.931
 4622SOL    HW131008   1.093   2.202   7.843
 4622SOL    HW231009   1.117   2.255   7.983
 4623SOL     OW31010   3.731   2.313   1.279
 4623SOL    HW131011   3.684   2.312   1.196
 4623SOL    HW231012   3.664   2.298   1.346
 4624SOL     OW31013   2.361   3.319   2.509
 4624SOL    HW131014   2.299   3.252   2.479
 4624SOL    HW231015   2.332   3.339   2.598
 4625SOL     OW31016   1.376   0.087   0.072
 4625SOL    HW131017   1.396   0.000   0.037
 4625SOL    HW231018   1.408   0.148   0.005
 4626SOL     OW31019   5.841   1.119   7.372
 4626SOL    HW131020   5.749   1.143   7.359
 4626SOL    HW231021   5.849   1.032   7.335
 4627SOL     OW31022   5.646   0.601   0.728
 4627SOL    HW131023   5.641   0.532   0.794
 4627SOL    HW231024   5.642   0.683   0.778
 4628SOL     OW31025   1.945   4.162   0.678
 4628SOL    HW131026   2.006   4.230   0.650
 4628SOL    HW231027   1.912   4.193   0.762
 4629SOL     OW31028   5.615   0.147   1.118
 4629SOL    HW131029   5.658   0.213   1.173
 4629SOL    HW231030   5.523   0.171   1.119
 4630SOL     OW31031   5.988   3.261   7.033
 4630SOL    HW131032   5.991   3.255   6.938
 4630SOL    HW231033   6.063   3.208   7.062
 4631SOL     OW31034   2.777   1.743   1.144
 4631SOL    HW131035   2.841   1.696   1.090
 4631SOL    HW231036   2.704   1.759   1.084
 4632SOL     OW31037   6.353   5.904   0.068
 4632SOL    HW131038   6.362   5.939   0.156
 4632SOL    HW231039   6.278   5.845   0.072
 4633SOL     OW31040   2.871   3.567   1.231
 4633SOL    HW131041   2.913   3.558   1.145
 4633SOL    HW231042   2.908   3.647   1.267
 4634SOL     OW31043   0.007   3.311   6.691
 4634SOL    HW131044   0.067   3.237   6.702
 4634SOL    HW231045   0.047   3.364   6.622
 4635SOL     OW31046   0.243   1.761   1.152
 4635SOL    HW131047   0.256   1.855   1.147
 4635SOL    HW231048   0.306   1.724   1.091
 4636SOL     OW31049   0.164   4.384   6.137
 4636SOL    HW131050   0.235   4.448   6.135
 4636SOL    HW231051   0.113   4.401   6.058
 4637SOL     OW31052   4.472   4.282   0.023
 4637SOL    HW131053   4.509   4.311   0.106
 4637SOL    HW231054   4.540   4.301  -0.041
 4638SOL     OW31055   4.254   2.958   7.578
 4638SOL    HW131056   4.293   2.870   7.581
 4638SOL    HW231057   4.312   3.008   7.522
 4639SOL     OW31058   0.502   4.428   1.889
 4639SOL    HW131059   0.572   4.493   1.897
 4639SOL    HW231060   0.532   4.354   1.941
 4640SOL     OW31061   4.127   5.441   7.044
 4640SOL    HW131062   4.141   5.409   7.133
 4640SOL    HW231063   4.035   5.468   7.042
 4641SOL     OW31064   0.277   5.450   6.472
 4641SOL    HW131065   0.329   5.529   6.460
 4641SOL    HW231066   0.255   5.421   6.384
 4642SOL     OW31067   0.042   4.284   6.364
 4642SOL    HW131068   0.104   4.329   6.306
 4642SOL    HW231069   0.028   4.199   6.321
 4643SOL     OW31070   1.003   6.340   1.067
 4643SOL    HW131071   1.028   6.384   0.986
 4643SOL    HW231072   0.992   6.411   1.131
 4644SOL     OW31073   5.190   5.664   1.092
 4644SOL    HW131074   5.197   5.703   1.005
 4644SOL    HW231075   5.126   5.719   1.138
 4645SOL     OW31076   4.761   3.730   7.554
 4645SOL    HW131077   4.851   3.756   7.574
 4645SOL    HW231078   4.770   3.661   7.488
 4646SOL     OW31079   5.958   0.815   6.583
 4646SOL    HW131080   6.043   0.828   6.625
 4646SOL    HW231081   5.942   0.721   6.592
 4647SOL     OW31082   3.524   4.306   1.823
 4647SOL    HW131083   3.451   4.334   1.877
 4647SOL    HW231084   3.494   4.226   1.780
 4648SOL     OW31085   6.215   5.741   0.874
 4648SOL    HW131086   6.281   5.766   0.809
 4648SOL    HW231087   6.148   5.810   0.868
 4649SOL     OW31088   0.632   3.420   0.186
 4649SOL    HW131089   0.644   3.356   0.256
 4649SOL    HW231090   0.567   3.380   0.128
 4650SOL     OW31091   0.074   6.315   6.382
 4650SOL    HW131092   0.106   6.261   6.309
 4650SOL    HW231093   0.150   6.367   6.408
 4651SOL     OW31094   1.540   4.832   1.422
 4651SOL    HW131095   1.529   4.899   1.490
 4651SOL    HW231096   1.585   4.760   1.466
 4652SOL     OW31097   5.827   1.518   1.652
 4652SOL    HW131098   5.868   1.518   1.565
 4652SOL    HW231099   5.830   1.427   1.680
 4653SOL     OW31100   4.103   2.876   1.526
 4653SOL    HW131101   4.083   2.786   1.552
 4653SOL    HW231102   4.190   2.871   1.488
 4654SOL     OW31103   0.496   4.027   2.682
 4654SOL    HW131104   0.471   3.935   2.679
 4654SOL    HW231105   0.421   4.074   2.646
 4655SOL     OW31106   4.332   1.738   0.112
 4655SOL    HW131107   4.291   1.814   0.071
 4655SOL    HW231108   4.326   1.669   0.046
 4656SOL     OW31109   1.310   4.020   7.430
 4656SOL    HW131110   1.219   4.020   7.459
 4656SOL    HW231111   1.307   4.055   7.341
 4657SOL     OW31112   6.174   1.380   7.901
 4657SOL    HW131113   6.163   1.300   7.951
 4657SOL    HW231114   6.128   1.447   7.952
 4658SOL     OW31115   0.455   5.603   0.815
 4658SOL    HW131116   0.391   5.544   0.855
 4658SOL    HW231117   0.461   5.676   0.877
 4659SOL     OW31118   4.137   2.964   0.636
 4659SOL    HW131119   4.113   3.026   0.566
 4659SOL    HW231120   4.188   3.017   0.698
 4660SOL     OW31121   1.406   2.044   0.126
 4660SOL    HW131122   1.474   1.993   0.171
 4660SOL    HW231123   1.354   2.082   0.197
 4661SOL     OW31124   6.121   0.236   0.876
 4661SOL    HW131125   6.076   0.199   0.952
 4661SOL    HW231126   6.122   0.330   0.892
 4662SOL     OW31127   3.701   1.348   7.731
 4662SOL    HW131128   3.653   1.278   7.687
 4662SOL    HW231129   3.637   1.386   7.792
 4663SOL     OW31130   6.138   1.668   5.424
 4663SOL    HW131131   6.145   1.628   5.337
 4663SOL    HW231132   6.178   1.754   5.415
 4664SOL     OW31133   2.348   1.793   1.954
 4664SOL    HW131134   2.303   1.761   2.032
 4664SOL    HW231135   2.302   1.873   1.931
 4665SOL     OW31136   1.465   3.620   7.386
 4665SOL    HW131137   1.494   3.599   7.297
 4665SOL    HW231138   1.418   3.542   7.415
 4666SOL     OW31139   0.158   4.392   7.381
 4666SOL    HW131140   0.076   4.430   7.413
 4666SOL    HW231141   0.224   4.419   7.445
 4667SOL     OW31142   5.251   4.357   7.444
 4667SOL    HW131143   5.310   4.287   7.473
 4667SOL    HW231144   5.281   4.379   7.356
 4668SOL     OW31145   5.662   1.288   6.763
 4668SOL    HW131146   5.580   1.287   6.812
 4668SOL    HW231147   5.702   1.373   6.783
 4669SOL     OW31148   2.314   2.357   7.076
 4669SOL    HW131149   2.264   2.306   7.013
 4669SOL    HW231150   2.405   2.330   7.062
 4670SOL     OW31151   0.714   0.411   7.148
 4670SOL    HW131152   0.731   0.418   7.054
 4670SOL    HW231153   0.677   0.496   7.172
 4671SOL     OW31154   0.101   5.074   0.293
 4671SOL    HW131155   0.007   5.089   0.304
 4671SOL    HW231156   0.108   5.013   0.219
 4672SOL     OW31157   0.692   0.182   6.384
 4672SOL    HW131158   0.718   0.266   6.346
 4672SOL    HW231159   0.764   0.123   6.363
 4673SOL     OW31160   1.455   2.701   7.374
 4673SOL    HW131161   1.451   2.632   7.308
 4673SOL    HW231162   1.369   2.743   7.369
 4674SOL     OW31163   3.608   0.931   0.249
 4674SOL    HW131164   3.517   0.926   0.218
 4674SOL    HW231165   3.661   0.917   0.170
 4675SOL     OW31166   5.809   1.540   5.050
 4675SOL    HW131167   5.737   1.504   4.999
 4675SOL    HW231168   5.766   1.585   5.123
 4676SOL     OW31169   2.599   5.682   6.739
 4676SOL    HW131170   2.589   5.614   6.672
 4676SOL    HW231171   2.648   5.640   6.809
 4677SOL     OW31172   1.380   2.720   0.937
 4677SOL    HW131173   1.451   2.724   1.001
 4677SOL    HW231174   1.343   2.808   0.938
 4678SOL     OW31175   0.152   5.033   0.555
 4678SOL    HW131176   0.242   5.067   0.558
 4678SOL    HW231177   0.120   5.058   0.469
 4679SOL     OW31178   5.649   0.482   5.795
 4679SOL    HW131179   5.615   0.393   5.787
 4679SOL    HW231180   5.675   0.490   5.887
 4680SOL     OW31181   6.089   3.460   1.441
 4680SOL    HW131182   6.126   3.508   1.515
 4680SOL    HW231183   6.009   3.507   1.419
 4681SOL     OW31184   1.949   5.634   0.822
 4681SOL    HW131185   2.033   5.629   0.867
 4681SOL    HW231186   1.970   5.626   0.729
 4682SOL     OW31187   5.291   5.828   5.983
 4682SOL    HW131188   5.224   5.885   5.945
 4682SOL    HW231189   5.324   5.777   5.909
 4683SOL     OW31190   0.595   0.036   7.050
 4683SOL    HW131191   0.536  -0.005   7.112
 4683SOL    HW231192   0.682   0.024   7.089
 4684SOL     OW31193   1.044   1.503   7.094
 4684SOL    HW131194   1.049   1.551   7.011
 4684SOL    HW231195   1.112   1.541   7.148
 4685SOL     OW31196   1.234   2.954   0.973
 4685SOL    HW131197   1.267   2.957   1.063
 4685SOL    HW231198   1.141   2.933   0.982
 4686SOL     OW31199   1.187   3.380   2.273
 4686SOL    HW131200   1.099   3.344   2.287
 4686SOL    HW231201   1.240   3.339   2.342
 4687SOL     OW31202   6.339   3.061   0.674
 4687SOL    HW131203   6.254   3.032   0.705
 4687SOL    HW231204   6.325   3.084   0.582
 4688SOL     OW31205   6.054   3.529   0.980
 4688SOL    HW131206   6.029   3.586   1.053
 4688SOL    HW231207   6.081   3.448   1.022
 4689SOL     OW31208   3.644   5.840   6.681
 4689SOL    HW131209   3.589   5.767   6.709
 4689SOL    HW231210   3.730   5.820   6.718
 4690SOL     OW31211   3.246   2.074   0.114
 4690SOL    HW131212   3.245   2.072   0.018
 4690SOL    HW231213   3.246   1.982   0.140
 4691SOL     OW31214   5.555   5.296   2.082
 4691SOL    HW131215   5.633   5.338   2.046
 4691SOL    HW231216   5.482   5.345   2.044
 4692SOL     OW31217   2.537   3.477   1.881
 4692SOL    HW131218   2.551   3.402   1.823
 4692SOL    HW231219   2.460   3.521   1.845
 4693SOL     OW31220   5.154   0.645   6.326
 4693SOL    HW131221   5.226   0.699   6.357
 4693SOL    HW231222   5.110   0.615   6.406
 4694SOL     OW31223   2.637   4.585   0.375
 4694SOL    HW131224   2.721   4.549   0.345
 4694SOL    HW231225   2.583   4.586   0.296
 4695SOL     OW31226   6.191   2.482   6.567
 4695SOL    HW131227   6.269   2.531   6.542
 4695SOL    HW231228   6.125   2.508   6.502
 4696SOL     OW31229   4.896   6.245   0.812
 4696SOL    HW131230   4.893   6.333   0.776
 4696SOL    HW231231   4.896   6.188   0.735
 4697SOL     OW31232   0.244   3.826   1.909
 4697SOL    HW131233   0.198   3.789   1.985
 4697SOL    HW231234   0.284   3.907   1.943
 4698SOL     OW31235   2.330   1.295   0.698
 4698SOL    HW131236   2.325   1.297   0.793
 4698SOL    HW231237   2.260   1.235   0.671
 4699SOL     OW31238   5.623   5.804   7.469
 4699SOL    HW131239   5.630   5.897   7.448
 4699SOL    HW231240   5.582   5.765   7.392
 4700SOL     OW31241   5.718   0.950   6.681
 4700SOL    HW131242   5.680   1.005   6.613
 4700SOL    HW231243   5.763   0.880   6.634
 4701SOL     OW31244   3.143   2.848   0.938
 4701SOL    HW131245   3.159   2.815   1.027
 4701SOL    HW231246   3.224   2.895   0.915
 4702SOL     OW31247   1.770   2.649   1.224
 4702SOL    HW131248   1.728   2.610   1.301
 4702SOL    HW231249   1.717   2.726   1.204
 4703SOL     OW31250   5.495   3.148   6.232
 4703SOL    HW131251   5.538   3.216   6.180
 4703SOL    HW231252   5.410   3.186   6.255
 4704SOL     OW31253   4.223   2.319   6.863
 4704SOL    HW131254   4.273   2.310   6.944
 4704SOL    HW231255   4.173   2.237   6.856
 4705SOL     OW31256   2.195   5.955   6.452
 4705SOL    HW131257   2.230   5.971   6.540
 4705SOL    HW231258   2.244   6.016   6.396
 4706SOL     OW31259   0.329   0.040   2.107
 4706SOL    HW131260   0.287  -0.036   2.148
 4706SOL    HW231261   0.259   0.103   2.094
 4707SOL     OW31262   3.730   3.848   1.043
 4707SOL    HW131263   3.816   3.888   1.054
 4707SOL    HW231264   3.693   3.890   0.966
 4708SOL     OW31265   4.048   4.348   6.511
 4708SOL    HW131266   3.985   4.333   6.582
 4708SOL    HW231267   4.023   4.433   6.474
 4709SOL     OW31268   3.956   4.838   0.902
 4709SOL    HW131269   4.025   4.887   0.856
 4709SOL    HW231270   3.875   4.885   0.880
 4710SOL     OW31271   2.940   6.337   7.331
 4710SOL    HW131272   2.994   6.341   7.410
 4710SOL    HW231273   2.990   6.284   7.269
 4711SOL     OW31274   2.370   3.133   0.350
 4711SOL    HW131275   2.394   3.110   0.261
 4711SOL    HW231276   2.451   3.124   0.400
 4712SOL     OW31277   2.932   3.428   0.635
 4712SOL    HW131278   2.927   3.503   0.576
 4712SOL    HW231279   3.013   3.383   0.611
 4713SOL     OW31280   3.004   1.918   0.491
 4713SOL    HW131281   2.955   1.850   0.446
 4713SOL    HW231282   3.095   1.892   0.482
 4714SOL     OW31283   5.843   4.473   0.109
 4714SOL    HW131284   5.786   4.531   0.159
 4714SOL    HW231285   5.924   4.469   0.160
 4715SOL     OW31286   1.068   5.890   7.505
 4715SOL    HW131287   0.998   5.880   7.569
 4715SOL    HW231288   1.135   5.828   7.534
 4716SOL     OW31289   3.298   0.353   2.309
 4716SOL    HW131290   3.317   0.446   2.325
 4716SOL    HW231291   3.243   0.354   2.230
 4717SOL     OW31292   4.876   1.272   7.075
 4717SOL    HW131293   4.814   1.202   7.096
 4717SOL    HW231294   4.907   1.252   6.987
 4718SOL     OW31295   4.103   4.360   1.927
 4718SOL    HW131296   4.164   4.381   1.998
 4718SOL    HW231297   4.031   4.422   1.938
 4719SOL     OW31298   2.204   0.913   0.782
 4719SOL    HW131299   2.166   0.917   0.694
 4719SOL    HW231300   2.156   0.980   0.831
 4720SOL     OW31301   4.820   5.230   6.995
 4720SOL    HW131302   4.737   5.204   7.035
 4720SOL    HW231303   4.871   5.267   7.066
 4721SOL     OW31304   1.568   0.924   0.299
 4721SOL    HW131305   1.618   0.998   0.262
 4721SOL    HW231306   1.584   0.852   0.238
 4722SOL     OW31307   2.950   5.162   1.379
 4722SOL    HW131308   2.944   5.073   1.346
 4722SOL    HW231309   2.973   5.215   1.302
 4723SOL     OW31310   4.542   0.952   7.758
 4723SOL    HW131311   4.638   0.959   7.765
 4723SOL    HW231312   4.527   0.893   7.685
 4724SOL     OW31313   2.159   2.292   5.762
 4724SOL    HW131314   2.082   2.347   5.768
 4724SOL    HW231315   2.221   2.330   5.824
 4725SOL     OW31316   5.796   2.760   6.812
 4725SOL    HW131317   5.847   2.682   6.792
 4725SOL    HW231318   5.736   2.732   6.882
 4726SOL     OW31319   3.036   3.132   1.016
 4726SOL    HW131320   3.020   3.041   1.041
 4726SOL    HW231321   3.123   3.152   1.050
 4727SOL     OW31322   3.758   3.632   7.162
 4727SOL    HW131323   3.697   3.579   7.214
 4727SOL    HW231324   3.792   3.571   7.096
 4728SOL     OW31325   2.118   3.435   2.032
 4728SOL    HW131326   2.127   3.417   1.938
 4728SOL    HW231327   2.151   3.524   2.043
 4729SOL     OW31328   3.502   4.588   0.264
 4729SOL    HW131329   3.552   4.577   0.184
 4729SOL    HW231330   3.428   4.644   0.239
 4730SOL     OW31331   2.473   0.982   6.222
 4730SOL    HW131332   2.449   1.071   6.250
 4730SOL    HW231333   2.400   0.927   6.251
 4731SOL     OW31334   0.114   5.293   7.139
 4731SOL    HW131335   0.197   5.258   7.170
 4731SOL    HW231336   0.074   5.332   7.216
 4732SOL     OW31337   0.003   1.302   5.448
 4732SOL    HW131338   0.032   1.386   5.482
 4732SOL    HW231339   0.061   1.283   5.375
 4733SOL     OW31340   0.323   3.748   0.749
 4733SOL    HW131341   0.306   3.747   0.655
 4733SOL    HW231342   0.405   3.796   0.758
 4734SOL     OW31343   6.137   2.786   0.921
 4734SOL    HW131344   6.166   2.853   0.983
 4734SOL    HW231345   6.132   2.706   0.972
 4735SOL     OW31346   2.512   4.736   1.860
 4735SOL    HW131347   2.501   4.829   1.876
 4735SOL    HW231348   2.440   4.714   1.800
 4736SOL     OW31349   2.396   5.919   0.274
 4736SOL    HW131350   2.328   5.857   0.247
 4736SOL    HW231351   2.375   5.999   0.226
 4737SOL     OW31352   5.687   0.603   1.256
 4737SOL    HW131353   5.690   0.670   1.187
 4737SOL    HW231354   5.672   0.652   1.337
 4738SOL     OW31355   4.630   6.314   0.069
 4738SOL    HW131356   4.643   6.399   0.029
 4738SOL    HW231357   4.661   6.251   0.004
 4739SOL     OW31358   6.108   0.588   1.237
 4739SOL    HW131359   6.138   0.650   1.171
 4739SOL    HW231360   6.037   0.632   1.282
 4740SOL     OW31361   6.083   5.208   7.686
 4740SOL    HW131362   6.014   5.266   7.652
 4740SOL    HW231363   6.068   5.124   7.643
 4741SOL     OW31364   3.569   5.616   7.645
 4741SOL    HW131365   3.500   5.554   7.668
 4741SOL    HW231366   3.614   5.633   7.728
 4742SOL     OW31367   1.630   2.621   0.502
 4742SOL    HW131368   1.674   2.663   0.428
 4742SOL    HW231369   1.542   2.602   0.470
 4743SOL     OW31370   2.649   5.267   7.818
 4743SOL    HW131371   2.655   5.324   7.894
 4743SOL    HW231372   2.706   5.308   7.753
 4744SOL     OW31373   4.047   3.523   0.366
 4744SOL    HW131374   3.983   3.457   0.392
 4744SOL    HW231375   3.994   3.591   0.324
 4745SOL     OW31376   3.021   0.537   1.476
 4745SOL    HW131377   2.931   0.533   1.507
 4745SOL    HW231378   3.018   0.596   1.401
 4746SOL     OW31379   0.763   1.973   5.840
 4746SOL    HW131380   0.829   1.931   5.785
 4746SOL    HW231381   0.795   1.961   5.930
 4747SOL     OW31382   0.350   3.592   1.547
 4747SOL    HW131383   0.401   3.653   1.601
 4747SOL    HW231384   0.414   3.553   1.487
 4748SOL     OW31385   6.284   5.116   1.563
 4748SOL    HW131386   6.207   5.062   1.581
 4748SOL    HW231387   6.318   5.140   1.649
 4749SOL     OW31388   1.702   3.782   7.238
 4749SOL    HW131389   1.692   3.871   7.207
 4749SOL    HW231390   1.673   3.785   7.330
 4750SOL     OW31391   4.162   5.062   5.756
 4750SOL    HW131392   4.194   4.992   5.699
 4750SOL    HW231393   4.151   5.020   5.842
 4751SOL     OW31394   3.593   1.981   0.248
 4751SOL    HW131395   3.540   1.986   0.328
 4751SOL    HW231396   3.558   1.905   0.201
 4752SOL     OW31397   4.679   5.512   7.778
 4752SOL    HW131398   4.706   5.457   7.704
 4752SOL    HW231399   4.738   5.487   7.849
 4753SOL     OW31400   5.590   0.954   7.555
 4753SOL    HW131401   5.678   0.975   7.586
 4753SOL    HW231402   5.599   0.867   7.515
 4754SOL     OW31403   2.569   0.818   1.044
 4754SOL    HW131404   2.564   0.907   1.078
 4754SOL    HW231405   2.638   0.821   0.978
 4755SOL     OW31406   1.454   5.055   7.055
 4755SOL    HW131407   1.532   5.033   7.004
 4755SOL    HW231408   1.472   5.019   7.142
 4756SOL     OW31409   4.577   4.505   1.260
 4756SOL    HW131410   4.488   4.526   1.233
 4756SOL    HW231411   4.626   4.587   1.249
 4757SOL     OW31412   6.057   1.654   6.010
 4757SOL    HW131413   6.118   1.625   5.941
 4757SOL    HW231414   5.995   1.581   6.019
 4758SOL     OW31415   3.317   4.103   7.841
 4758SOL    HW131416   3.294   4.014   7.869
 4758SOL    HW231417   3.333   4.150   7.923
 4759SOL     OW31418   5.762   1.948   0.636
 4759SOL    HW131419   5.845   1.995   0.640
 4759SOL    HW231420   5.786   1.855   0.635
 4760SOL     OW31421   0.844   0.991   0.574
 4760SOL    HW131422   0.847   0.983   0.669
 4760SOL    HW231423   0.886   0.910   0.542
 4761SOL     OW31424   0.889   0.294   1.771
 4761SOL    HW131425   0.982   0.294   1.751
 4761SOL    HW231426   0.874   0.209   1.813
 4762SOL     OW31427   4.492   6.127   7.085
 4762SOL    HW131428   4.483   6.184   7.162
 4762SOL    HW231429   4.497   6.188   7.012
 4763SOL     OW31430   3.223   0.970   7.850
 4763SOL    HW131431   3.149   0.917   7.820
 4763SOL    HW231432   3.184   1.037   7.905
 4764SOL     OW31433   4.940   5.676   1.301
 4764SOL    HW131434   4.943   5.632   1.386
 4764SOL    HW231435   4.980   5.762   1.318
 4765SOL     OW31436   2.848   4.788   0.442
 4765SOL    HW131437   2.755   4.795   0.422
 4765SOL    HW231438   2.892   4.824   0.365
 4766SOL     OW31439   6.109   5.766   5.526
 4766SOL    HW131440   6.065   5.781   5.442
 4766SOL    HW231441   6.085   5.841   5.580
 4767SOL     OW31442   5.716   4.192   7.180
 4767SOL    HW131443   5.656   4.152   7.243
 4767SOL    HW231444   5.753   4.266   7.227
 4768SOL     OW31445   5.580   3.649   1.546
 4768SOL    HW131446   5.556   3.680   1.634
 4768SOL    HW231447   5.675   3.644   1.548
 4769SOL     OW31448   5.674   4.150   0.306
 4769SOL    HW131449   5.622   4.169   0.384
 4769SOL    HW231450   5.611   4.150   0.235
 4770SOL     OW31451   2.817   5.525   7.103
 4770SOL    HW131452   2.858   5.496   7.184
 4770SOL    HW231453   2.750   5.587   7.131
 4771SOL     OW31454   4.115   3.132   1.475
 4771SOL    HW131455   4.208   3.126   1.452
 4771SOL    HW231456   4.088   3.042   1.492
 4772SOL     OW31457   2.871   5.826   5.984
 4772SOL    HW131458   2.822   5.877   6.049
 4772SOL    HW231459   2.816   5.751   5.965
 4773SOL     OW31460   6.311   3.818   0.433
 4773SOL    HW131461   6.308   3.740   0.488
 4773SOL    HW231462   6.285   3.787   0.346
 4774SOL     OW31463   4.574   5.953   7.356
 4774SOL    HW131464   4.534   6.035   7.329
 4774SOL    HW231465   4.521   5.922   7.429
 4775SOL     OW31466   0.984   3.773   0.655
 4775SOL    HW131467   0.904   3.726   0.678
 4775SOL    HW231468   1.008   3.739   0.569
 4776SOL     OW31469   0.190   1.125   0.362
 4776SOL    HW131470   0.122   1.061   0.381
 4776SOL    HW231471   0.212   1.111   0.270
 4777SOL     OW31472   1.862   2.048   0.299
 4777SOL    HW131473   1.863   2.092   0.384
 4777SOL    HW231474   1.827   2.114   0.239
 4778SOL     OW31475   5.505   4.300   1.221
 4778SOL    HW131476   5.565   4.360   1.177
 4778SOL    HW231477   5.475   4.347   1.298
 4779SOL     OW31478   1.488   2.944   7.780
 4779SOL    HW131479   1.553   3.008   7.811
 4779SOL    HW231480   1.469   2.890   7.857
 4780SOL     OW31481   2.034   0.454   6.636
 4780SOL    HW131482   2.127   0.457   6.660
 4780SOL    HW231483   2.033   0.460   6.541
 4781SOL     OW31484   1.553   4.237   7.257
 4781SOL    HW131485   1.607   4.314   7.239
 4781SOL    HW231486   1.471   4.254   7.211
 4782SOL     OW31487   4.373   4.785   7.024
 4782SOL    HW131488   4.326   4.867   7.011
 4782SOL    HW231489   4.354   4.760   7.115
 4783SOL     OW31490   5.217   1.161   0.868
 4783SOL    HW131491   5.263   1.122   0.793
 4783SOL    HW231492   5.188   1.247   0.836
 4784SOL     OW31493   0.620   5.034   7.806
 4784SOL    HW131494   0.539   5.066   7.767
 4784SOL    HW231495   0.688   5.052   7.741
 4785SOL     OW31496   2.662   1.263   6.104
 4785SOL    HW131497   2.651   1.200   6.033
 4785SOL    HW231498   2.578   1.264   6.149
 4786SOL     OW31499   0.502   6.259   7.284
 4786SOL    HW131500   0.419   6.288   7.322
 4786SOL    HW231501   0.567   6.321   7.317
 4787SOL     OW31502   2.820   5.237   2.127
 4787SOL    HW131503   2.789   5.251   2.217
 4787SOL    HW231504   2.789   5.149   2.105
 4788SOL     OW31505   3.507   2.476   7.683
 4788SOL    HW131506   3.552   2.451   7.602
 4788SOL    HW231507   3.415   2.484   7.657
 4789SOL     OW31508   1.923   5.214   5.555
 4789SOL    HW131509   1.920   5.123   5.523
 4789SOL    HW231510   1.986   5.212   5.627
 4790SOL     OW31511   5.244   4.564   0.673
 4790SOL    HW131512   5.310   4.499   0.646
 4790SOL    HW231513   5.177   4.512   0.717
 4791SOL     OW31514   5.103   3.769   1.704
 4791SOL    HW131515   5.047   3.695   1.679
 4791SOL    HW231516   5.170   3.771   1.636
 4792SOL     OW31517   2.483   1.045   0.446
 4792SOL    HW131518   2.471   0.992   0.525
 4792SOL    HW231519   2.578   1.043   0.430
 4793SOL     OW31520   3.748   4.342   2.016
 4793SOL    HW131521   3.694   4.392   2.076
 4793SOL    HW231522   3.699   4.339   1.934
 4794SOL     OW31523   2.110   0.731   7.776
 4794SOL    HW131524   2.127   0.637   7.789
 4794SOL    HW231525   2.169   0.775   7.837
 4795SOL     OW31526   2.480   5.127   0.210
 4795SOL    HW131527   2.416   5.194   0.186
 4795SOL    HW231528   2.564   5.164   0.182
 4796SOL     OW31529   4.082   3.700   6.850
 4796SOL    HW131530   4.062   3.766   6.784
 4796SOL    HW231531   4.081   3.748   6.933
 4797SOL     OW31532   3.332   0.476   6.088
 4797SOL    HW131533   3.354   0.565   6.060
 4797SOL    HW231534   3.371   0.420   6.021
 4798SOL     OW31535   5.050   5.641   7.028
 4798SOL    HW131536   4.974   5.597   6.990
 4798SOL    HW231537   5.062   5.600   7.113
 4799SOL     OW31538   1.587   6.003   6.994
 4799SOL    HW131539   1.575   5.909   7.012
 4799SOL    HW231540   1.669   6.025   7.038
 4800SOL     OW31541   5.644   5.438   0.823
 4800SOL    HW131542   5.586   5.364   0.840
 4800SOL    HW231543   5.644   5.488   0.905
 4801SOL     OW31544   1.306   3.407   7.422
 4801SOL    HW131545   1.334   3.319   7.447
 4801SOL    HW231546   1.280   3.399   7.330
 4802SOL     OW31547   2.056   1.081   0.137
 4802SOL    HW131548   2.123   1.019   0.167
 4802SOL    HW231549   2.093   1.167   0.157
 4803SOL     OW31550   3.945   0.975   6.132
 4803SOL    HW131551   3.954   0.994   6.039
 4803SOL    HW231552   3.873   1.031   6.161
 4804SOL     OW31553   2.675   4.942   7.148
 4804SOL    HW131554   2.623   4.898   7.081
 4804SOL    HW231555   2.650   4.900   7.230
 4805SOL     OW31556   6.104   6.189   1.796
 4805SOL    HW131557   6.059   6.268   1.765
 4805SOL    HW231558   6.122   6.139   1.717
 4806SOL     OW31559   0.243   3.362   7.347
 4806SOL    HW131560   0.284   3.383   7.431
 4806SOL    HW231561   0.290   3.415   7.283
 4807SOL     OW31562   4.703   4.713   6.760
 4807SOL    HW131563   4.770   4.778   6.780
 4807SOL    HW231564   4.622   4.751   6.794
 4808SOL     OW31565   5.853   0.191   7.171
 4808SOL    HW131566   5.855   0.100   7.202
 4808SOL    HW231567   5.927   0.233   7.215
 4809SOL     OW31568   2.943   5.069   1.667
 4809SOL    HW131569   2.852   5.060   1.638
 4809SOL    HW231570   2.987   5.112   1.593
 4810SOL     OW31571   1.765   2.019   5.472
 4810SOL    HW131572   1.701   1.947   5.471
 4810SOL    HW231573   1.735   2.076   5.543
 4811SOL     OW31574   3.681   3.414   0.017
 4811SOL    HW131575   3.706   3.341   0.074
 4811SOL    HW231576   3.699   3.382  -0.071
 4812SOL     OW31577   1.676   2.475   6.604
 4812SOL    HW131578   1.657   2.491   6.512
 4812SOL    HW231579   1.725   2.392   6.604
 4813SOL     OW31580   0.541   2.346   7.104
 4813SOL    HW131581   0.497   2.386   7.029
 4813SOL    HW231582   0.473   2.294   7.146
 4814SOL     OW31583   3.411   0.086   7.320
 4814SOL    HW131584   3.456   0.100   7.236
 4814SOL    HW231585   3.377  -0.003   7.315
 4815SOL     OW31586   2.691   3.929   6.510
 4815SOL    HW131587   2.776   3.905   6.547
 4815SOL    HW231588   2.701   4.021   6.486
 4816SOL     OW31589   3.017   1.176   7.913
 4816SOL    HW131590   3.019   1.272   7.913
 4816SOL    HW231591   2.925   1.153   7.900
 4817SOL     OW31592   3.340   0.123   6.099
 4817SOL    HW131593   3.259   0.164   6.068
 4817SOL    HW231594   3.410   0.179   6.067
 4818SOL     OW31595   5.950   5.240   7.398
 4818SOL    HW131596   5.912   5.256   7.311
 4818SOL    HW231597   6.008   5.314   7.413
 4819SOL     OW31598   1.466   0.777   7.426
 4819SOL    HW131599   1.549   0.825   7.422
 4819SOL    HW231600   1.402   0.842   7.457
 4820SOL     OW31601   4.954   6.382   0.471
 4820SOL    HW131602   4.883   6.371   0.408
 4820SOL    HW231603   4.948   6.305   0.528
 4821SOL     OW31604   5.967   5.721   1.234
 4821SOL    HW131605   5.890   5.708   1.178
 4821SOL    HW231606   5.999   5.633   1.251
 4822SOL     OW31607   1.122   2.359   1.355
 4822SOL    HW131608   1.122   2.306   1.276
 4822SOL    HW231609   1.047   2.326   1.406
 4823SOL     OW31610   3.823   1.413   6.716
 4823SOL    HW131611   3.894   1.453   6.767
 4823SOL    HW231612   3.800   1.334   6.765
 4824SOL     OW31613   6.197   5.942   6.730
 4824SOL    HW131614   6.149   5.892   6.796
 4824SOL    HW231615   6.286   5.949   6.765
 4825SOL     OW31616   3.756   2.859   0.097
 4825SOL    HW131617   3.821   2.791   0.079
 4825SOL    HW231618   3.805   2.941   0.097
 4826SOL     OW31619   2.769   0.416   7.825
 4826SOL    HW131620   2.854   0.422   7.780
 4826SOL    HW231621   2.718   0.488   7.789
 4827SOL     OW31622   2.856   4.683   7.149
 4827SOL    HW131623   2.785   4.741   7.176
 4827SOL    HW231624   2.825   4.595   7.172
 4828SOL     OW31625   3.512   5.992   0.637
 4828SOL    HW131626   3.467   6.058   0.585
 4828SOL    HW231627   3.605   6.006   0.619
 4829SOL     OW31628   2.195   4.851   7.626
 4829SOL    HW131629   2.100   4.861   7.626
 4829SOL    HW231630   2.210   4.767   7.671
 4830SOL     OW31631   3.095   3.412   0.895
 4830SOL    HW131632   3.011   3.451   0.868
 4830SOL    HW231633   3.094   3.325   0.857
 4831SOL     OW31634   2.499   5.529   0.286
 4831SOL    HW131635   2.444   5.452   0.304
 4831SOL    HW231636   2.441   5.590   0.242
 4832SOL     OW31637   4.517   5.594   6.373
 4832SOL    HW131638   4.448   5.659   6.359
 4832SOL    HW231639   4.598   5.646   6.375
 4833SOL     OW31640   0.407   5.046   5.632
 4833SOL    HW131641   0.357   5.121   5.665
 4833SOL    HW231642   0.422   5.066   5.540
 4834SOL     OW31643   0.764   0.928   0.876
 4834SOL    HW131644   0.705   0.995   0.911
 4834SOL    HW231645   0.851   0.957   0.902
 4835SOL     OW31646   0.773   1.959   7.876
 4835SOL    HW131647   0.686   1.971   7.916
 4835SOL    HW231648   0.770   2.010   7.796
 4836SOL     OW31649   2.559   6.191   7.604
 4836SOL    HW131650   2.646   6.194   7.565
 4836SOL    HW231651   2.522   6.277   7.586
 4837SOL     OW31652   1.973   2.971   1.052
 4837SOL    HW131653   2.040   2.910   1.082
 4837SOL    HW231654   2.012   3.016   0.977
 4838SOL     OW31655   3.586   0.500   1.782
 4838SOL    HW131656   3.635   0.421   1.807
 4838SOL    HW231657   3.524   0.470   1.716
 4839SOL     OW31658   2.951   3.759   7.235
 4839SOL    HW131659   2.987   3.726   7.317
 4839SOL    HW231660   3.010   3.830   7.210
 4840SOL     OW31661   3.172   4.772   7.821
 4840SOL    HW131662   3.201   4.684   7.795
 4840SOL    HW231663   3.095   4.757   7.875
 4841SOL     OW31664   0.924   3.226   7.804
 4841SOL    HW131665   0.928   3.319   7.781
 4841SOL    HW231666   0.991   3.185   7.750
 4842SOL     OW31667   1.603   1.618   1.284
 4842SOL    HW131668   1.581   1.697   1.333
 4842SOL    HW231669   1.539   1.615   1.213
 4843SOL     OW31670   2.773   3.281   0.982
 4843SOL    HW131671   2.697   3.224   0.969
 4843SOL    HW231672   2.845   3.222   1.003
 4844SOL     OW31673   0.581   5.936   1.428
 4844SOL    HW131674   0.491   5.905   1.432
 4844SOL    HW231675   0.603   5.956   1.519
 4845SOL     OW31676   4.328   2.664   7.087
 4845SOL    HW131677   4.297   2.700   7.171
 4845SOL    HW231678   4.419   2.642   7.103
 4846SOL     OW31679   4.396   5.650   5.793
 4846SOL    HW131680   4.346   5.663   5.712
 4846SOL    HW231681   4.333   5.610   5.854
 4847SOL     OW31682   2.953   2.270   7.894
 4847SOL    HW131683   3.047   2.280   7.912
 4847SOL    HW231684   2.943   2.299   7.804
 4848SOL     OW31685   1.372   4.414   0.449
 4848SOL    HW131686   1.448   4.453   0.492
 4848SOL    HW231687   1.376   4.321   0.475
 4849SOL     OW31688   0.335   3.428   0.366
 4849SOL    HW131689   0.315   3.467   0.281
 4849SOL    HW231690   0.261   3.370   0.384
 4850SOL     OW31691   0.479   4.794   0.561
 4850SOL    HW131692   0.524   4.877   0.577
 4850SOL    HW231693   0.514   4.735   0.628
 4851SOL     OW31694   2.127   0.595   1.947
 4851SOL    HW131695   2.033   0.587   1.958
 4851SOL    HW231696   2.156   0.647   2.021
 4852SOL     OW31697   2.133   1.953   7.166
 4852SOL    HW131698   2.202   1.994   7.113
 4852SOL    HW231699   2.072   2.024   7.185
 4853SOL     OW31700   0.761   3.528   1.885
 4853SOL    HW131701   0.679   3.532   1.934
 4853SOL    HW231702   0.801   3.446   1.913
 4854SOL     OW31703   1.392   3.166   7.507
 4854SOL    HW131704   1.430   3.171   7.595
 4854SOL    HW231705   1.456   3.117   7.456
 4855SOL     OW31706   5.833   6.087   7.120
 4855SOL    HW131707   5.926   6.070   7.104
 4855SOL    HW231708   5.805   6.139   7.045
 4856SOL     OW31709   3.546   5.765   0.185
 4856SOL    HW131710   3.561   5.809   0.101
 4856SOL    HW231711   3.476   5.703   0.167
 4857SOL     OW31712   4.657   1.134   7.123
 4857SOL    HW131713   4.578   1.142   7.176
 4857SOL    HW231714   4.625   1.116   7.035
 4858SOL     OW31715   0.561   3.185   1.462
 4858SOL    HW131716   0.621   3.111   1.454
 4858SOL    HW231717   0.475   3.148   1.440
 4859SOL     OW31718   3.039   5.201   1.125
 4859SOL    HW131719   3.014   5.289   1.097
 4859SOL    HW231720   3.056   5.154   1.043
 4860SOL     OW31721   5.659   5.825   7.851
 4860SOL    HW131722   5.729   5.839   7.787
 4860SOL    HW231723   5.579   5.854   7.806
 4861SOL     OW31724   5.172   1.473   7.219
 4861SOL    HW131725   5.183   1.419   7.141
 4861SOL    HW231726   5.181   1.412   7.292
 4862SOL     OW31727   5.312   0.447   1.342
 4862SOL    HW131728   5.343   0.462   1.432
 4862SOL    HW231729   5.324   0.532   1.299
 4863SOL     OW31730   0.900   5.029   1.838
 4863SOL    HW131731   0.896   4.956   1.900
 4863SOL    HW231732   0.809   5.043   1.812
 4864SOL     OW31733   3.012   2.806   1.782
 4864SOL    HW131734   2.960   2.799   1.701
 4864SOL    HW231735   3.078   2.872   1.762
 4865SOL     OW31736   0.509   3.479   6.534
 4865SOL    HW131737   0.569   3.521   6.595
 4865SOL    HW231738   0.425   3.477   6.580
 4866SOL     OW31739   5.419   1.119   1.423
 4866SOL    HW131740   5.456   1.118   1.335
 4866SOL    HW231741   5.495   1.115   1.481
 4867SOL     OW31742   5.325   1.591   7.745
 4867SOL    HW131743   5.388   1.606   7.675
 4867SOL    HW231744   5.368   1.626   7.824
 4868SOL     OW31745   0.102   2.522   5.932
 4868SOL    HW131746   0.114   2.604   5.979
 4868SOL    HW231747   0.171   2.464   5.966
 4869SOL     OW31748   1.003   3.910   1.199
 4869SOL    HW131749   0.955   3.867   1.270
 4869SOL    HW231750   0.953   3.891   1.121
 4870SOL     OW31751   5.233   5.252   5.517
 4870SOL    HW131752   5.156   5.198   5.531
 4870SOL    HW231753   5.301   5.191   5.489
 4871SOL     OW31754   5.081   2.789   6.929
 4871SOL    HW131755   5.125   2.715   6.972
 4871SOL    HW231756   5.120   2.867   6.967
 4872SOL     OW31757   4.809   5.221   1.530
 4872SOL    HW131758   4.820   5.283   1.602
 4872SOL    HW231759   4.761   5.148   1.568
 4873SOL     OW31760   1.718   5.526   1.264
 4873SOL    HW131761   1.670   5.508   1.345
 4873SOL    HW231762   1.805   5.488   1.278
 4874SOL     OW31763   3.605   0.985   1.019
 4874SOL    HW131764   3.612   0.992   1.114
 4874SOL    HW231765   3.694   0.963   0.991
 4875SOL     OW31766   1.823   3.534   6.636
 4875SOL    HW131767   1.847   3.556   6.726
 4875SOL    HW231768   1.750   3.473   6.645
 4876SOL     OW31769   0.139   3.318   0.197
 4876SOL    HW131770   0.163   3.410   0.191
 4876SOL    HW231771   0.056   3.311   0.150
 4877SOL     OW31772   4.807   2.023   1.012
 4877SOL    HW131773   4.717   2.044   1.037
 4877SOL    HW231774   4.840   2.102   0.968
 4878SOL     OW31775   3.504   0.468   6.841
 4878SOL    HW131776   3.547   0.551   6.857
 4878SOL    HW231777   3.428   0.468   6.900
 4879SOL     OW31778   0.339   1.460   1.981
 4879SOL    HW131779   0.372   1.530   1.926
 4879SOL    HW231780   0.274   1.502   2.037
 4880SOL     OW31781   5.683   1.674   5.278
 4880SOL    HW131782   5.750   1.735   5.249
 4880SOL    HW231783   5.614   1.730   5.314
 4881SOL     OW31784   2.377   5.294   7.801
 4881SOL    HW131785   2.467   5.295   7.769
 4881SOL    HW231786   2.330   5.238   7.739
 4882SOL     OW31787   5.467   0.304   5.561
 4882SOL    HW131788   5.390   0.280   5.613
 4882SOL    HW231789   5.532   0.236   5.582
 4883SOL     OW31790   1.070   4.012   6.301
 4883SOL    HW131791   1.069   3.981   6.210
 4883SOL    HW231792   1.004   4.081   6.303
 4884SOL     OW31793   1.269   2.133   2.362
 4884SOL    HW131794   1.361   2.158   2.351
 4884SOL    HW231795   1.223   2.216   2.371
 4885SOL     OW31796   0.034   6.171   7.104
 4885SOL    HW131797  -0.022   6.174   7.181
 4885SOL    HW231798   0.066   6.081   7.100
 4886SOL     OW31799   5.013   1.786   5.865
 4886SOL    HW131800   4.961   1.860   5.833
 4886SOL    HW231801   5.100   1.800   5.829
 4887SOL     OW31802   6.157   4.066   6.904
 4887SOL    HW131803   6.130   4.153   6.875
 4887SOL    HW231804   6.078   4.013   6.900
 4888SOL     OW31805   5.098   2.697   1.293
 4888SOL    HW131806   5.011   2.707   1.255
 4888SOL    HW231807   5.145   2.640   1.232
 4889SOL     OW31808   2.426   6.020   7.791
 4889SOL    HW131809   2.427   5.957   7.720
 4889SOL    HW231810   2.462   6.100   7.753
 4890SOL     OW31811   1.303   0.339   6.531
 4890SOL    HW131812   1.231   0.366   6.474
 4890SOL    HW231813   1.315   0.412   6.592
 4891SOL     OW31814   2.821   3.461   1.619
 4891SOL    HW131815   2.851   3.477   1.708
 4891SOL    HW231816   2.883   3.509   1.563
 4892SOL     OW31817   5.621   0.213   5.842
 4892SOL    HW131818   5.657   0.158   5.912
 4892SOL    HW231819   5.675   0.191   5.765
 4893SOL     OW31820   2.460   6.266   7.089
 4893SOL    HW131821   2.382   6.320   7.095
 4893SOL    HW231822   2.524   6.311   7.145
 4894SOL     OW31823   2.856   0.697   5.177
 4894SOL    HW131824   2.791   0.698   5.246
 4894SOL    HW231825   2.892   0.786   5.177
 4895SOL     OW31826   1.378   2.508   0.448
 4895SOL    HW131827   1.288   2.511   0.417
 4895SOL    HW231828   1.374   2.537   0.539
 4896SOL     OW31829   3.012   5.951   7.442
 4896SOL    HW131830   3.055   6.012   7.503
 4896SOL    HW231831   2.939   5.915   7.492
 4897SOL     OW31832   0.177   3.864   1.306
 4897SOL    HW131833   0.185   3.959   1.292
 4897SOL    HW231834   0.222   3.848   1.389
 4898SOL     OW31835   2.993   5.610   2.348
 4898SOL    HW131836   3.020   5.700   2.328
 4898SOL    HW231837   2.978   5.570   2.262
 4899SOL     OW31838   4.957   3.705   6.504
 4899SOL    HW131839   5.021   3.634   6.508
 4899SOL    HW231840   4.874   3.661   6.489
 4900SOL     OW31841   2.975   2.102   7.607
 4900SOL    HW131842   3.036   2.096   7.533
 4900SOL    HW231843   2.977   2.015   7.647
 4901SOL     OW31844   4.210   5.134   1.553
 4901SOL    HW131845   4.198   5.135   1.458
 4901SOL    HW231846   4.144   5.073   1.585
 4902SOL     OW31847   1.855   4.011   2.665
 4902SOL    HW131848   1.880   4.103   2.665
 4902SOL    HW231849   1.916   3.970   2.604
 4903SOL     OW31850   3.762   1.402   1.717
 4903SOL    HW131851   3.785   1.310   1.702
 4903SOL    HW231852   3.737   1.405   1.809
 4904SOL     OW31853   3.069   4.020   6.627
 4904SOL    HW131854   3.066   4.064   6.542
 4904SOL    HW231855   3.032   4.084   6.689
 4905SOL     OW31856   6.078   3.616   7.767
 4905SOL    HW131857   5.998   3.661   7.794
 4905SOL    HW231858   6.081   3.537   7.822
 4906SOL     OW31859   3.713   2.875   1.076
 4906SOL    HW131860   3.741   2.898   1.165
 4906SOL    HW231861   3.662   2.950   1.047
 4907SOL     OW31862   3.224   2.741   1.174
 4907SOL    HW131863   3.233   2.648   1.150
 4907SOL    HW231864   3.222   2.740   1.270
 4908SOL     OW31865   5.550   5.776   0.673
 4908SOL    HW131866   5.466   5.815   0.652
 4908SOL    HW231867   5.569   5.807   0.762
 4909SOL     OW31868   4.158   4.098   1.279
 4909SOL    HW131869   4.122   4.187   1.285
 4909SOL    HW231870   4.210   4.088   1.358
 4910SOL     OW31871   4.998   5.298   6.321
 4910SOL    HW131872   5.052   5.280   6.398
 4910SOL    HW231873   4.973   5.211   6.289
 4911SOL     OW31874   4.915   2.349   0.420
 4911SOL    HW131875   4.972   2.272   0.426
 4911SOL    HW231876   4.834   2.316   0.381
 4912SOL     OW31877   3.965   4.010   7.626
 4912SOL    HW131878   4.033   4.028   7.691
 4912SOL    HW231879   3.939   3.919   7.641
 4913SOL     OW31880   6.378   1.938   5.940
 4913SOL    HW131881   6.404   1.943   5.848
 4913SOL    HW231882   6.284   1.919   5.937
 4914SOL     OW31883   1.548   5.244   2.252
 4914SOL    HW131884   1.635   5.259   2.216
 4914SOL    HW231885   1.491   5.242   2.175
 4915SOL     OW31886   4.434   0.027   7.306
 4915SOL    HW131887   4.359   0.044   7.362
 4915SOL    HW231888   4.419   0.081   7.228
 4916SOL     OW31889   3.706   2.181   1.732
 4916SOL    HW131890   3.617   2.181   1.698
 4916SOL    HW231891   3.716   2.096   1.774
 4917SOL     OW31892   5.934   6.120   5.998
 4917SOL    HW131893   6.019   6.125   5.954
 4917SOL    HW231894   5.892   6.043   5.961
 4918SOL     OW31895   3.417   1.205   1.003
 4918SOL    HW131896   3.424   1.251   0.920
 4918SOL    HW231897   3.485   1.138   0.999
 4919SOL     OW31898   5.127   0.361   0.401
 4919SOL    HW131899   5.198   0.398   0.454
 4919SOL    HW231900   5.100   0.433   0.343
 4920SOL     OW31901   2.837   2.362   0.364
 4920SOL    HW131902   2.914   2.418   0.370
 4920SOL    HW231903   2.824   2.330   0.453
 4921SOL     OW31904   0.643   0.969   0.168
 4921SOL    HW131905   0.569   0.956   0.109
 4921SOL    HW231906   0.717   0.987   0.110
 4922SOL     OW31907   2.096   1.986   6.249
 4922SOL    HW131908   2.037   1.912   6.233
 4922SOL    HW231909   2.148   1.994   6.169
 4923SOL     OW31910   2.154   5.759   7.500
 4923SOL    HW131911   2.175   5.829   7.562
 4923SOL    HW231912   2.218   5.769   7.429
 4924SOL     OW31913   4.953   1.404   0.335
 4924SOL    HW131914   4.923   1.489   0.303
 4924SOL    HW231915   4.915   1.341   0.274
 4925SOL     OW31916   5.323   3.140   0.386
 4925SOL    HW131917   5.279   3.091   0.455
 4925SOL    HW231918   5.330   3.078   0.313
 4926SOL     OW31919   1.292   1.182   5.837
 4926SOL    HW131920   1.215   1.187   5.780
 4926SOL    HW231921   1.366   1.203   5.779
 4927SOL     OW31922   5.322   5.995   6.190
 4927SOL    HW131923   5.409   5.969   6.218
 4927SOL    HW231924   5.296   5.929   6.126
 4928SOL     OW31925   0.675   3.662   5.896
 4928SOL    HW131926   0.720   3.685   5.814
 4928SOL    HW231927   0.598   3.612   5.867
 4929SOL     OW31928   1.505   2.209   7.888
 4929SOL    HW131929   1.453   2.150   7.941
 4929SOL    HW231930   1.450   2.228   7.812
 4930SOL     OW31931   5.461   5.712   6.993
 4930SOL    HW131932   5.529   5.750   6.937
 4930SOL    HW231933   5.474   5.754   7.078
 4931SOL     OW31934   2.276   6.310   0.515
 4931SOL    HW131935   2.310   6.328   0.603
 4931SOL    HW231936   2.286   6.215   0.504
 4932SOL     OW31937   0.272   3.489   1.976
 4932SOL    HW131938   0.351   3.452   2.016
 4932SOL    HW231939   0.237   3.548   2.044
 4933SOL     OW31940   0.860   5.577   6.309
 4933SOL    HW131941   0.924   5.590   6.239
 4933SOL    HW231942   0.776   5.597   6.269
 4934SOL     OW31943   5.399   5.682   5.782
 4934SOL    HW131944   5.434   5.742   5.717
 4934SOL    HW231945   5.402   5.596   5.739
 4935SOL     OW31946   0.525   2.445   7.369
 4935SOL    HW131947   0.432   2.421   7.368
 4935SOL    HW231948   0.556   2.425   7.281
 4936SOL     OW31949   6.376   2.173   7.178
 4936SOL    HW131950   6.451   2.131   7.220
 4936SOL    HW231951   6.387   2.155   7.085
 4937SOL     OW31952   3.385   2.988   6.849
 4937SOL    HW131953   3.451   3.007   6.782
 4937SOL    HW231954   3.335   3.070   6.857
 4938SOL     OW31955   2.486   1.527   0.658
 4938SOL    HW131956   2.424   1.591   0.625
 4938SOL    HW231957   2.442   1.443   0.648
 4939SOL     OW31958   4.479   5.011   7.742
 4939SOL    HW131959   4.422   4.937   7.721
 4939SOL    HW231960   4.436   5.088   7.703
 4940SOL     OW31961   0.538   0.579   1.386
 4940SOL    HW131962   0.624   0.619   1.373
 4940SOL    HW231963   0.536   0.556   1.478
 4941SOL     OW31964   2.327   0.327   0.282
 4941SOL    HW131965   2.400   0.388   0.282
 4941SOL    HW231966   2.252   0.380   0.255
 4942SOL     OW31967   5.403   0.349   0.832
 4942SOL    HW131968   5.459   0.392   0.897
 4942SOL    HW231969   5.334   0.308   0.884
 4943SOL     OW31970   6.108   2.646   0.157
 4943SOL    HW131971   6.111   2.658   0.252
 4943SOL    HW231972   6.017   2.623   0.139
 4944SOL     OW31973   4.048   6.022   0.975
 4944SOL    HW131974   4.013   6.103   0.939
 4944SOL    HW231975   4.137   6.044   1.001
 4945SOL     OW31976   1.956   2.374   6.133
 4945SOL    HW131977   1.926   2.393   6.044
 4945SOL    HW231978   2.030   2.314   6.120
 4946SOL     OW31979   3.578   1.216   7.056
 4946SOL    HW131980   3.639   1.148   7.086
 4946SOL    HW231981   3.492   1.186   7.086
 4947SOL     OW31982   1.394   0.914   0.816
 4947SOL    HW131983   1.470   0.928   0.873
 4947SOL    HW231984   1.427   0.928   0.728
 4948SOL     OW31985   4.193   5.642   1.266
 4948SOL    HW131986   4.253   5.569   1.273
 4948SOL    HW231987   4.227   5.695   1.193
 4949SOL     OW31988   3.399   1.993   1.258
 4949SOL    HW131989   3.419   2.023   1.169
 4949SOL    HW231990   3.303   1.997   1.264
 4950SOL     OW31991   2.735   5.289   6.397
 4950SOL    HW131992   2.727   5.376   6.359
 4950SOL    HW231993   2.793   5.301   6.472
 4951SOL     OW31994   5.794   4.683   0.930
 4951SOL    HW131995   5.766   4.725   0.848
 4951SOL    HW231996   5.880   4.721   0.947
 4952SOL     OW31997   0.427   5.607   1.503
 4952SOL    HW131998   0.364   5.679   1.492
 4952SOL    HW231999   0.378   5.539   1.549
 4953SOL     OW32000   1.331   4.404   1.276
 4953SOL    HW132001   1.333   4.433   1.185
 4953SOL    HW232002   1.242   4.372   1.289
 4954SOL     OW32003   2.119   3.902   0.568
 4954SOL    HW132004   2.026   3.924   0.562
 4954SOL    HW232005   2.162   3.985   0.588
 4955SOL     OW32006   2.854   3.556   0.943
 4955SOL    HW132007   2.782   3.493   0.944
 4955SOL    HW232008   2.813   3.640   0.963
 4956SOL     OW32009   0.796   4.091   1.643
 4956SOL    HW132010   0.829   4.167   1.690
 4956SOL    HW232011   0.719   4.064   1.692
 4957SOL     OW32012   0.180   3.230   0.516
 4957SOL    HW132013   0.165   3.270   0.602
 4957SOL    HW232014   0.259   3.178   0.528
 4958SOL     OW32015   3.566   3.097   1.918
 4958SOL    HW132016   3.564   3.103   1.822
 4958SOL    HW232017   3.474   3.093   1.944
 4959SOL     OW32018   4.428   4.961   0.657
 4959SOL    HW132019   4.470   4.899   0.597
 4959SOL    HW232020   4.393   5.030   0.600
 4960SOL     OW32021   2.197   3.783   6.323
 4960SOL    HW132022   2.194   3.879   6.313
 4960SOL    HW232023   2.198   3.768   6.417
 4961SOL     OW32024   3.309   3.354   7.600
 4961SOL    HW132025   3.293   3.260   7.613
 4961SOL    HW232026   3.322   3.364   7.506
 4962SOL     OW32027   1.468   4.353   0.155
 4962SOL    HW132028   1.420   4.432   0.181
 4962SOL    HW232029   1.457   4.348   0.060
 4963SOL     OW32030   5.435   3.794   7.237
 4963SOL    HW132031   5.359   3.760   7.284
 4963SOL    HW232032   5.399   3.835   7.158
 4964SOL     OW32033   0.181   4.666   6.660
 4964SOL    HW132034   0.233   4.728   6.609
 4964SOL    HW232035   0.193   4.694   6.751
 4965SOL     OW32036   1.910   1.169   1.482
 4965SOL    HW132037   1.839   1.119   1.523
 4965SOL    HW232038   1.948   1.108   1.418
 4966SOL     OW32039   0.446   2.859   1.135
 4966SOL    HW132040   0.396   2.886   1.212
 4966SOL    HW232041   0.524   2.915   1.137
 4967SOL     OW32042   3.117   3.356   0.438
 4967SOL    HW132043   3.093   3.431   0.383
 4967SOL    HW232044   3.189   3.314   0.391
 4968SOL     OW32045   5.572   5.544   6.425
 4968SOL    HW132046   5.608   5.488   6.356
 4968SOL    HW232047   5.578   5.632   6.390
 4969SOL     OW32048   0.470   1.912   1.839
 4969SOL    HW132049   0.375   1.923   1.843
 4969SOL    HW232050   0.501   1.942   1.924
 4970SOL     OW32051   3.037   1.234   6.082
 4970SOL    HW132052   3.000   1.220   5.995
 4970SOL    HW232053   2.966   1.274   6.133
 4971SOL     OW32054   2.269   1.177   7.821
 4971SOL    HW132055   2.247   1.237   7.750
 4971SOL    HW232056   2.192   1.179   7.878
 4972SOL     OW32057   2.315   4.505   0.529
 4972SOL    HW132058   2.329   4.539   0.441
 4972SOL    HW232059   2.223   4.477   0.530
 4973SOL     OW32060   1.876   0.608   7.346
 4973SOL    HW132061   1.956   0.650   7.380
 4973SOL    HW232062   1.892   0.602   7.251
 4974SOL     OW32063   5.256   2.331   0.461
 4974SOL    HW132064   5.327   2.271   0.485
 4974SOL    HW232065   5.221   2.294   0.381
 4975SOL     OW32066   3.795   0.616   1.055
 4975SOL    HW132067   3.700   0.610   1.068
 4975SOL    HW232068   3.815   0.553   0.986
 4976SOL     OW32069   1.911   0.576   6.124
 4976SOL    HW132070   1.935   0.667   6.110
 4976SOL    HW232071   1.957   0.528   6.055
 4977SOL     OW32072   2.214   2.869   6.827
 4977SOL    HW132073   2.143   2.929   6.807
 4977SOL    HW232074   2.264   2.912   6.897
 4978SOL     OW32075   4.576   2.806   0.025
 4978SOL    HW132076   4.568   2.860   0.103
 4978SOL    HW232077   4.657   2.756   0.038
 4979SOL     OW32078   6.361   4.023   6.291
 4979SOL    HW132079   6.384   4.000   6.381
 4979SOL    HW232080   6.415   3.966   6.237
 4980SOL     OW32081   0.870   3.413   6.989
 4980SOL    HW132082   0.876   3.420   6.893
 4980SOL    HW232083   0.803   3.478   7.013
 4981SOL     OW32084   3.849   1.162   1.666
 4981SOL    HW132085   3.927   1.153   1.721
 4981SOL    HW232086   3.836   1.074   1.629
 4982SOL     OW32087   4.831   0.010   6.469
 4982SOL    HW132088   4.739  -0.010   6.489
 4982SOL    HW232089   4.880  -0.044   6.531
 4983SOL     OW32090   2.317   3.604   1.821
 4983SOL    HW132091   2.237   3.625   1.772
 4983SOL    HW232092   2.298   3.635   1.910
 4984SOL     OW32093   0.934   2.580   6.916
 4984SOL    HW132094   0.931   2.531   6.998
 4984SOL    HW232095   0.958   2.515   6.850
 4985SOL     OW32096   0.551   3.865   5.662
 4985SOL    HW132097   0.497   3.891   5.737
 4985SOL    HW232098   0.635   3.841   5.700
 4986SOL     OW32099   4.100   3.056   0.293
 4986SOL    HW132100   4.076   3.137   0.246
 4986SOL    HW232101   4.169   3.084   0.353
 4987SOL     OW32102   5.327   5.384   6.185
 4987SOL    HW132103   5.273   5.326   6.131
 4987SOL    HW232104   5.266   5.418   6.251
 4988SOL     OW32105   4.906   2.602   7.807
 4988SOL    HW132106   4.884   2.557   7.888
 4988SOL    HW232107   4.967   2.671   7.833
 4989SOL     OW32108   4.421   3.164   7.447
 4989SOL    HW132109   4.487   3.141   7.512
 4989SOL    HW232110   4.465   3.226   7.389
 4990SOL     OW32111   0.035   2.577   7.836
 4990SOL    HW132112  -0.009   2.550   7.916
 4990SOL    HW232113  -0.033   2.620   7.784
 4991SOL     OW32114   2.509   6.056   0.771
 4991SOL    HW132115   2.588   6.072   0.719
 4991SOL    HW232116   2.465   6.141   0.773
 4992SOL     OW32117   1.867   2.234   6.345
 4992SOL    HW132118   1.883   2.143   6.321
 4992SOL    HW232119   1.898   2.284   6.270
 4993SOL     OW32120   2.603   5.588   6.452
 4993SOL    HW132121   2.517   5.629   6.440
 4993SOL    HW232122   2.631   5.565   6.364
 4994SOL     OW32123   4.317   3.626   6.227
 4994SOL    HW132124   4.290   3.706   6.182
 4994SOL    HW232125   4.387   3.653   6.286
 4995SOL     OW32126   5.986   1.833   1.731
 4995SOL    HW132127   5.947   1.775   1.796
 4995SOL    HW232128   6.077   1.844   1.759
 4996SOL     OW32129   1.740   2.003   6.043
 4996SOL    HW132130   1.773   1.921   6.079
 4996SOL    HW232131   1.802   2.026   5.974
 4997SOL     OW32132   1.161   3.521   6.142
 4997SOL    HW132133   1.111   3.581   6.086
 4997SOL    HW232134   1.125   3.534   6.229
 4998SOL     OW32135   4.184   1.329   7.901
 4998SOL    HW132136   4.161   1.305   7.991
 4998SOL    HW232137   4.133   1.269   7.847
 4999SOL     OW32138   0.153   3.559   1.746
 4999SOL    HW132139   0.215   3.561   1.673
 4999SOL    HW232140   0.208   3.552   1.824
 5000SOL     OW32141   4.121   4.489   7.119
 5000SOL    HW132142   4.182   4.554   7.155
 5000SOL    HW232143   4.124   4.504   7.024
 5001SOL     OW32144   4.376   2.355   7.106
 5001SOL    HW132145   4.375   2.450   7.121
 5001SOL    HW232146   4.321   2.320   7.176
 5002SOL     OW32147   3.433   5.128   6.122
 5002SOL    HW132148   3.426   5.040   6.083
 5002SOL    HW232149   3.350   5.171   6.100
 5003SOL     OW32150   3.902   2.708   0.672
 5003SOL    HW132151   3.973   2.644   0.669
 5003SOL    HW232152   3.932   2.773   0.735
 5004SOL     OW32153   6.046   1.074   1.780
 5004SOL    HW132154   5.953   1.088   1.763
 5004SOL    HW232155   6.083   1.053   1.694
 5005SOL     OW32156   1.164   0.477   1.340
 5005SOL    HW132157   1.186   0.566   1.366
 5005SOL    HW232158   1.098   0.449   1.403
 5006SOL     OW32159   3.992   2.725   1.002
 5006SOL    HW132160   3.932   2.658   1.035
 5006SOL    HW232161   4.017   2.776   1.079
 5007SOL     OW32162   5.838   4.393   7.349
 5007SOL    HW132163   5.907   4.337   7.384
 5007SOL    HW232164   5.883   4.475   7.325
 5008SOL     OW32165   6.021   4.047   0.678
 5008SOL    HW132166   6.058   4.014   0.760
 5008SOL    HW232167   5.933   4.011   0.675
 5009SOL     OW32168   3.768   0.876   0.015
 5009SOL    HW132169   3.860   0.852   0.027
 5009SOL    HW232170   3.770   0.946  -0.050
 5010SOL     OW32171   1.112   3.222   0.890
 5010SOL    HW132172   1.194   3.199   0.847
 5010SOL    HW232173   1.047   3.165   0.848
 5011SOL     OW32174   5.451   4.276   2.212
 5011SOL    HW132175   5.547   4.279   2.211
 5011SOL    HW232176   5.425   4.315   2.129
 5012SOL     OW32177   3.443   4.075   1.008
 5012SOL    HW132178   3.370   4.137   1.009
 5012SOL    HW232179   3.518   4.124   1.040
 5013SOL     OW32180   4.108   4.905   6.694
 5013SOL    HW132181   4.201   4.921   6.710
 5013SOL    HW232182   4.065   4.984   6.727
 5014SOL     OW32183   4.860   2.370   7.258
 5014SOL    HW132184   4.854   2.276   7.240
 5014SOL    HW232185   4.863   2.411   7.172
 5015SOL     OW32186   0.799   5.477   1.497
 5015SOL    HW132187   0.761   5.483   1.409
 5015SOL    HW232188   0.828   5.386   1.504
 5016SOL     OW32189   0.881   4.046   0.263
 5016SOL    HW132190   0.883   4.123   0.206
 5016SOL    HW232191   0.965   4.049   0.310
 5017SOL     OW32192   4.435   0.849   0.815
 5017SOL    HW132193   4.392   0.879   0.736
 5017SOL    HW232194   4.457   0.929   0.863
 5018SOL     OW32195   4.184   5.091   0.008
 5018SOL    HW132196   4.185   4.996   0.024
 5018SOL    HW232197   4.094   5.118   0.029
 5019SOL     OW32198   3.484   4.788   7.642
 5019SOL    HW132199   3.396   4.752   7.632
 5019SOL    HW232200   3.536   4.745   7.574
 5020SOL     OW32201   2.442   2.905   7.682
 5020SOL    HW132202   2.407   2.909   7.593
 5020SOL    HW232203   2.413   2.820   7.716
 5021SOL     OW32204   4.567   1.835   0.262
 5021SOL    HW132205   4.495   1.814   0.203
 5021SOL    HW232206   4.584   1.754   0.310
 5022SOL     OW32207   1.986   2.098   1.614
 5022SOL    HW132208   1.943   2.176   1.578
 5022SOL    HW232209   2.069   2.092   1.566
 5023SOL     OW32210   5.104   4.228   0.534
 5023SOL    HW132211   5.145   4.144   0.558
 5023SOL    HW232212   5.084   4.270   0.617
 5024SOL     OW32213   3.514   0.504   2.083
 5024SOL    HW132214   3.553   0.509   1.995
 5024SOL    HW232215   3.455   0.428   2.079
 5025SOL     OW32216   3.176   3.949   1.532
 5025SOL    HW132217   3.181   3.872   1.589
 5025SOL    HW232218   3.231   4.014   1.575
 5026SOL     OW32219   5.999   4.684   0.540
 5026SOL    HW132220   6.012   4.604   0.489
 5026SOL    HW232221   6.087   4.721   0.549
 5027SOL     OW32222   5.714   1.527   7.429
 5027SOL    HW132223   5.682   1.518   7.339
 5027SOL    HW232224   5.784   1.462   7.436
 5028SOL     OW32225   3.006   4.883   0.253
 5028SOL    HW132226   2.985   4.832   0.175
 5028SOL    HW232227   2.989   4.974   0.227
 5029SOL     OW32228   6.131   3.594   2.263
 5029SOL    HW132229   6.225   3.614   2.263
 5029SOL    HW232230   6.089   3.678   2.246
 5030SOL     OW32231   4.783   3.082   2.065
 5030SOL    HW132232   4.705   3.098   2.012
 5030SOL    HW232233   4.847   3.046   2.003
 5031SOL     OW32234   4.954   4.300   0.088
 5031SOL    HW132235   4.967   4.339   0.175
 5031SOL    HW232236   4.904   4.366   0.040
 5032SOL     OW32237   0.451   4.434   7.839
 5032SOL    HW132238   0.468   4.516   7.886
 5032SOL    HW232239   0.419   4.374   7.907
 5033SOL     OW32240   1.899   0.076   7.695
 5033SOL    HW132241   1.863   0.026   7.621
 5033SOL    HW232242   1.913   0.164   7.659
 5034SOL     OW32243   5.378   4.713   0.286
 5034SOL    HW132244   5.345   4.694   0.373
 5034SOL    HW232245   5.304   4.752   0.240
 5035SOL     OW32246   1.584   5.669   1.674
 5035SOL    HW132247   1.554   5.581   1.652
 5035SOL    HW232248   1.506   5.724   1.664
 5036SOL     OW32249   0.623   0.701   0.740
 5036SOL    HW132250   0.709   0.693   0.781
 5036SOL    HW232251   0.613   0.794   0.723
 5037SOL     OW32252   3.746   0.208   7.832
 5037SOL    HW132253   3.817   0.261   7.867
 5037SOL    HW232254   3.707   0.263   7.764
 5038SOL     OW32255   0.641   4.774   7.879
 5038SOL    HW132256   0.629   4.865   7.853
 5038SOL    HW232257   0.552   4.743   7.898
 5039SOL     OW32258   1.253   3.027   6.366
 5039SOL    HW132259   1.292   2.942   6.385
 5039SOL    HW232260   1.303   3.060   6.292
 5040SOL     OW32261   1.871   1.544   1.369
 5040SOL    HW132262   1.929   1.606   1.325
 5040SOL    HW232263   1.783   1.575   1.350
 5041SOL     OW32264   0.808   6.182   1.499
 5041SOL    HW132265   0.766   6.112   1.549
 5041SOL    HW232266   0.815   6.255   1.560
 5042SOL     OW32267   2.006   1.260   0.396
 5042SOL    HW132268   2.032   1.298   0.480
 5042SOL    HW232269   2.061   1.305   0.332
 5043SOL     OW32270   3.977   5.659   0.111
 5043SOL    HW132271   4.071   5.646   0.124
 5043SOL    HW232272   3.959   5.620   0.025
 5044SOL     OW32273   6.393   1.563   6.795
 5044SOL    HW132274   6.398   1.595   6.885
 5044SOL    HW232275   6.308   1.592   6.764
 5045SOL     OW32276   5.665   6.362   1.736
 5045SOL    HW132277   5.589   6.415   1.715
 5045SOL    HW232278   5.740   6.421   1.726
 5046SOL     OW32279   5.528   2.686   0.838
 5046SOL    HW132280   5.605   2.699   0.892
 5046SOL    HW232281   5.485   2.609   0.874
 5047SOL     OW32282   2.287   4.836   6.536
 5047SOL    HW132283   2.249   4.772   6.476
 5047SOL    HW232284   2.223   4.907   6.539
 5048SOL     OW32285   1.767   3.831   2.493
 5048SOL    HW132286   1.797   3.859   2.406
 5048SOL    HW232287   1.738   3.912   2.535
 5049SOL     OW32288   0.047   3.530   7.106
 5049SOL    HW132289   0.066   3.593   7.036
 5049SOL    HW232290   0.002   3.582   7.173
 5050SOL     OW32291   2.725   2.214   6.520
 5050SOL    HW132292   2.747   2.262   6.440
 5050SOL    HW232293   2.805   2.166   6.542
 5051SOL     OW32294   6.192   6.014   1.582
 5051SOL    HW132295   6.277   5.996   1.622
 5051SOL    HW232296   6.188   5.956   1.506
 5052SOL     OW32297   4.088   2.450   7.099
 5052SOL    HW132298   4.079   2.355   7.097
 5052SOL    HW232299   4.158   2.469   7.037
 5053SOL     OW32300   3.323   3.480   6.513
 5053SOL    HW132301   3.247   3.534   6.491
 5053SOL    HW232302   3.383   3.492   6.439
 5054SOL     OW32303   1.828   1.346   5.708
 5054SOL    HW132304   1.816   1.380   5.797
 5054SOL    HW232305   1.864   1.419   5.659
 5055SOL     OW32306   6.342   2.785   0.172
 5055SOL    HW132307   6.257   2.741   0.161
 5055SOL    HW232308   6.391   2.726   0.231
 5056SOL     OW32309   4.366   6.042   7.610
 5056SOL    HW132310   4.379   5.974   7.677
 5056SOL    HW232311   4.320   6.112   7.656
 5057SOL     OW32312   0.048   1.464   0.174
 5057SOL    HW132313   0.041   1.560   0.171
 5057SOL    HW232314   0.141   1.447   0.184
 5058SOL     OW32315   3.663   5.580   7.907
 5058SOL    HW132316   3.745   5.604   7.951
 5058SOL    HW232317   3.628   5.508   7.959
 5059SOL     OW32318   2.562   1.018   7.361
 5059SOL    HW132319   2.483   1.023   7.413
 5059SOL    HW232320   2.619   0.957   7.408
 5060SOL     OW32321   1.100   2.940   1.381
 5060SOL    HW132322   1.123   2.890   1.459
 5060SOL    HW232323   1.031   2.889   1.339
 5061SOL     OW32324   3.158   1.621   7.773
 5061SOL    HW132325   3.184   1.546   7.721
 5061SOL    HW232326   3.228   1.685   7.759
 5062SOL     OW32327   0.606   5.875   0.629
 5062SOL    HW132328   0.569   5.858   0.715
 5062SOL    HW232329   0.700   5.861   0.639
 5063SOL     OW32330   2.866   5.396   0.391
 5063SOL    HW132331   2.794   5.370   0.449
 5063SOL    HW232332   2.944   5.358   0.430
 5064SOL     OW32333   5.811   3.565   2.545
 5064SOL    HW132334   5.871   3.624   2.591
 5064SOL    HW232335   5.764   3.520   2.615
 5065SOL     OW32336   6.154   4.653   1.411
 5065SOL    HW132337   6.147   4.587   1.481
 5065SOL    HW232338   6.237   4.697   1.428
 5066SOL     OW32339   1.350   0.528   1.574
 5066SOL    HW132340   1.413   0.569   1.515
 5066SOL    HW232341   1.323   0.599   1.632
 5067SOL     OW32342   3.280   3.688   1.401
 5067SOL    HW132343   3.303   3.768   1.353
 5067SOL    HW232344   3.246   3.719   1.485
 5068SOL     OW32345   4.610   6.308   0.807
 5068SOL    HW132346   4.686   6.262   0.841
 5068SOL    HW232347   4.647   6.383   0.759
 5069SOL     OW32348   2.429   3.985   0.285
 5069SOL    HW132349   2.510   3.978   0.336
 5069SOL    HW232350   2.368   3.928   0.331
 5070SOL     OW32351   5.247   5.742   0.001
 5070SOL    HW132352   5.276   5.755   0.091
 5070SOL    HW232353   5.154   5.764   0.002
 5071SOL     OW32354   0.622   3.837   0.054
 5071SOL    HW132355   0.577   3.921   0.063
 5071SOL    HW232356   0.581   3.781   0.119
 5072SOL     OW32357   3.016   4.249   6.438
 5072SOL    HW132358   3.014   4.266   6.344
 5072SOL    HW232359   2.960   4.317   6.476
 5073SOL     OW32360   0.210   0.845   6.649
 5073SOL    HW132361   0.116   0.864   6.647
 5073SOL    HW232362   0.234   0.852   6.741
 5074SOL     OW32363   4.915   4.915   0.082
 5074SOL    HW132364   4.980   4.846   0.065
 5074SOL    HW232365   4.961   4.997   0.063
 5075SOL     OW32366   4.452   3.314   0.053
 5075SOL    HW132367   4.416   3.401   0.072
 5075SOL    HW232368   4.540   3.316   0.090
 5076SOL     OW32369   1.726   0.780   0.658
 5076SOL    HW132370   1.756   0.792   0.748
 5076SOL    HW232371   1.742   0.687   0.639
 5077SOL     OW32372   2.495   5.847   6.337
 5077SOL    HW132373   2.529   5.842   6.426
 5077SOL    HW232374   2.443   5.928   6.336
 5078SOL     OW32375   2.766   2.550   1.364
 5078SOL    HW132376   2.690   2.551   1.306
 5078SOL    HW232377   2.839   2.577   1.308
 5079SOL     OW32378   3.676   3.774   6.881
 5079SOL    HW132379   3.665   3.679   6.888
 5079SOL    HW232380   3.599   3.810   6.926
 5080SOL     OW32381   4.388   0.776   5.456
 5080SOL    HW132382   4.370   0.697   5.508
 5080SOL    HW232383   4.344   0.846   5.503
 5081SOL     OW32384   5.424   5.543   0.325
 5081SOL    HW132385   5.445   5.527   0.417
 5081SOL    HW232386   5.403   5.636   0.321
 5082SOL     OW32387   5.901   3.973   6.796
 5082SOL    HW132388   5.862   3.952   6.881
 5082SOL    HW232389   5.871   4.061   6.777
 5083SOL     OW32390   5.423   1.307   0.631
 5083SOL    HW132391   5.363   1.322   0.558
 5083SOL    HW232392   5.442   1.394   0.666
 5084SOL     OW32393   1.147   4.541   0.505
 5084SOL    HW132394   1.234   4.503   0.494
 5084SOL    HW232395   1.152   4.626   0.460
 5085SOL     OW32396   2.505   0.634   0.744
 5085SOL    HW132397   2.532   0.588   0.823
 5085SOL    HW232398   2.439   0.576   0.705
 5086SOL     OW32399   0.978   3.034   6.380
 5086SOL    HW132400   1.074   3.039   6.382
 5086SOL    HW232401   0.959   2.966   6.315
 5087SOL     OW32402   2.780   3.261   0.062
 5087SOL    HW132403   2.750   3.246   0.151
 5087SOL    HW232404   2.870   3.227   0.061
 5088SOL     OW32405   5.744   2.725   0.975
 5088SOL    HW132406   5.807   2.666   0.933
 5088SOL    HW232407   5.787   2.754   1.055
 5089SOL     OW32408   3.175   3.965   7.323
 5089SOL    HW132409   3.129   4.020   7.387
 5089SOL    HW232410   3.264   3.957   7.359
 5090SOL     OW32411   1.549   6.194   2.343
 5090SOL    HW132412   1.615   6.164   2.405
 5090SOL    HW232413   1.599   6.223   2.266
 5091SOL     OW32414   0.790   5.648   0.967
 5091SOL    HW132415   0.758   5.679   1.052
 5091SOL    HW232416   0.736   5.572   0.948
 5092SOL     OW32417   1.046   1.979   7.550
 5092SOL    HW132418   0.994   1.914   7.598
 5092SOL    HW232419   0.983   2.044   7.521
 5093SOL     OW32420   4.274   1.946   0.971
 5093SOL    HW132421   4.187   1.908   0.974
 5093SOL    HW232422   4.303   1.947   1.062
 5094SOL     OW32423   4.371   3.143   1.426
 5094SOL    HW132424   4.447   3.089   1.447
 5094SOL    HW232425   4.398   3.232   1.450
 5095SOL     OW32426   5.225   0.221   1.020
 5095SOL    HW132427   5.221   0.126   1.010
 5095SOL    HW232428   5.263   0.234   1.107
 5096SOL     OW32429   3.984   4.997   1.636
 5096SOL    HW132430   3.916   5.027   1.697
 5096SOL    HW232431   3.960   4.907   1.615
 5097SOL     OW32432   4.395   1.920   6.358
 5097SOL    HW132433   4.355   1.931   6.272
 5097SOL    HW232434   4.345   1.978   6.415
 5098SOL     OW32435   2.333   2.767   0.128
 5098SOL    HW132436   2.342   2.679   0.164
 5098SOL    HW232437   2.260   2.805   0.176
 5099SOL     OW32438   3.826   1.949   1.866
 5099SOL    HW132439   3.902   1.920   1.916
 5099SOL    HW232440   3.824   1.891   1.790
 5100SOL     OW32441   1.936   5.856   7.383
 5100SOL    HW132442   1.938   5.947   7.414
 5100SOL    HW232443   2.011   5.815   7.426
 5101SOL     OW32444   5.544   1.237   5.727
 5101SOL    HW132445   5.478   1.170   5.741
 5101SOL    HW232446   5.624   1.189   5.707
 5102SOL     OW32447   5.279   2.594   0.378
 5102SOL    HW132448   5.313   2.647   0.450
 5102SOL    HW232449   5.275   2.505   0.414
 5103SOL     OW32450   2.658   0.220   7.622
 5103SOL    HW132451   2.660   0.200   7.715
 5103SOL    HW232452   2.721   0.292   7.612
 5104SOL     OW32453   5.490   6.075   0.450
 5104SOL    HW132454   5.493   6.171   0.453
 5104SOL    HW232455   5.540   6.052   0.371
 5105SOL     OW32456   3.320   0.272   1.086
 5105SOL    HW132457   3.413   0.279   1.064
 5105SOL    HW232458   3.317   0.215   1.163
 5106SOL     OW32459   2.207   1.694   7.738
 5106SOL    HW132460   2.265   1.671   7.665
 5106SOL    HW232461   2.139   1.627   7.737
 5107SOL     OW32462   0.574   3.296   0.433
 5107SOL    HW132463   0.497   3.344   0.403
 5107SOL    HW232464   0.569   3.300   0.529
 5108SOL     OW32465   2.278   1.467   6.620
 5108SOL    HW132466   2.257   1.549   6.664
 5108SOL    HW232467   2.373   1.468   6.612
 5109SOL     OW32468   2.188   4.989   6.894
 5109SOL    HW132469   2.160   5.080   6.906
 5109SOL    HW232470   2.112   4.936   6.918
 5110SOL     OW32471   1.855   2.586   1.669
 5110SOL    HW132472   1.890   2.607   1.756
 5110SOL    HW232473   1.772   2.633   1.665
 5111SOL     OW32474   3.261   1.276   0.103
 5111SOL    HW132475   3.265   1.185   0.133
 5111SOL    HW232476   3.169   1.300   0.112
 5112SOL     OW32477   3.114   5.716   5.997
 5112SOL    HW132478   3.023   5.748   6.000
 5112SOL    HW232479   3.112   5.645   5.933
 5113SOL     OW32480   4.567   1.537   1.480
 5113SOL    HW132481   4.615   1.538   1.563
 5113SOL    HW232482   4.530   1.625   1.473
 5114SOL     OW32483   1.870   6.083   7.490
 5114SOL    HW132484   1.915   6.076   7.574
 5114SOL    HW232485   1.800   6.146   7.505
 5115SOL     OW32486   1.134   0.884   0.034
 5115SOL    HW132487   1.150   0.908   0.125
 5115SOL    HW232488   1.198   0.816   0.015
 5116SOL     OW32489   2.182   4.622   6.392
 5116SOL    HW132490   2.110   4.611   6.454
 5116SOL    HW232491   2.206   4.533   6.366
 5117SOL     OW32492   5.523   1.215   7.868
 5117SOL    HW132493   5.556   1.264   7.793
 5117SOL    HW232494   5.487   1.135   7.831
 5118SOL     OW32495   1.488   3.286   0.670
 5118SOL    HW132496   1.452   3.316   0.587
 5118SOL    HW232497   1.424   3.223   0.703
 5119SOL     OW32498   3.803   4.536   6.764
 5119SOL    HW132499   3.872   4.567   6.823
 5119SOL    HW232500   3.737   4.606   6.767
 5120SOL     OW32501   2.315   1.951   0.975
 5120SOL    HW132502   2.245   1.903   0.931
 5120SOL    HW232503   2.314   1.918   1.065
 5121SOL     OW32504   1.607   5.349   7.364
 5121SOL    HW132505   1.598   5.373   7.456
 5121SOL    HW232506   1.679   5.286   7.362
 5122SOL     OW32507   0.095   0.577   0.354
 5122SOL    HW132508   0.086   0.671   0.339
 5122SOL    HW232509   0.111   0.569   0.448
 5123SOL     OW32510   2.325   2.649   5.817
 5123SOL    HW132511   2.362   2.711   5.880
 5123SOL    HW232512   2.369   2.566   5.838
 5124SOL     OW32513   3.221   3.416   1.387
 5124SOL    HW132514   3.301   3.370   1.413
 5124SOL    HW232515   3.240   3.508   1.402
 5125SOL     OW32516   2.123   4.229   2.367
 5125SOL    HW132517   2.114   4.281   2.287
 5125SOL    HW232518   2.212   4.247   2.397
 5126SOL     OW32519   2.318   4.339   7.503
 5126SOL    HW132520   2.257   4.380   7.441
 5126SOL    HW232521   2.372   4.411   7.535
 5127SOL     OW32522   2.603   2.513   1.596
 5127SOL    HW132523   2.651   2.522   1.514
 5127SOL    HW232524   2.600   2.602   1.631
 5128SOL     OW32525   2.774   6.217   6.288
 5128SOL    HW132526   2.867   6.231   6.304
 5128SOL    HW232527   2.756   6.268   6.209
 5129SOL     OW32528   0.098   0.339   0.228
 5129SOL    HW132529   0.028   0.283   0.262
 5129SOL    HW232530   0.097   0.417   0.283
 5130SOL     OW32531   0.239   5.085   1.363
 5130SOL    HW132532   0.235   5.107   1.270
 5130SOL    HW232533   0.178   5.147   1.404
 5131SOL     OW32534   1.730   5.607   5.392
 5131SOL    HW132535   1.808   5.553   5.395
 5131SOL    HW232536   1.762   5.697   5.398
 5132SOL     OW32537   4.854   5.040   6.215
 5132SOL    HW132538   4.827   5.046   6.307
 5132SOL    HW232539   4.792   4.978   6.176
 5133SOL     OW32540   1.829   0.516   0.596
 5133SOL    HW132541   1.806   0.458   0.524
 5133SOL    HW232542   1.758   0.505   0.659
 5134SOL     OW32543   0.412   2.282   0.766
 5134SOL    HW132544   0.392   2.368   0.730
 5134SOL    HW232545   0.327   2.242   0.783
 5135SOL     OW32546   1.319   2.868   1.213
 5135SOL    HW132547   1.320   2.779   1.246
 5135SOL    HW232548   1.276   2.920   1.281
 5136SOL     OW32549   6.203   4.487   0.139
 5136SOL    HW132550   6.178   4.579   0.149
 5136SOL    HW232551   6.298   4.488   0.138
 5137SOL     OW32552   4.093   0.851   1.624
 5137SOL    HW132553   4.130   0.899   1.698
 5137SOL    HW232554   4.152   0.872   1.551
 5138SOL     OW32555   5.931   4.013   0.320
 5138SOL    HW132556   5.859   4.068   0.353
 5138SOL    HW232557   5.993   4.075   0.283
 5139SOL     OW32558   1.243   3.510   2.049
 5139SOL    HW132559   1.181   3.479   1.984
 5139SOL    HW232560   1.220   3.465   2.130
 5140SOL     OW32561   5.531   5.747   1.409
 5140SOL    HW132562   5.564   5.658   1.392
 5140SOL    HW232563   5.547   5.761   1.502
 5141SOL     OW32564   6.131   1.826   0.999
 5141SOL    HW132565   6.158   1.771   0.926
 5141SOL    HW232566   6.211   1.836   1.052
 5142SOL     OW32567   2.324   0.900   7.838
 5142SOL    HW132568   2.412   0.890   7.801
 5142SOL    HW232569   2.306   0.994   7.831
 5143SOL     OW32570   5.567   5.991   0.192
 5143SOL    HW132571   5.622   5.926   0.150
 5143SOL    HW232572   5.571   6.067   0.134
 5144SOL     OW32573   3.980   3.970   1.741
 5144SOL    HW132574   3.898   3.965   1.789
 5144SOL    HW232575   4.045   3.997   1.806
 5145SOL     OW32576   1.415   5.441   1.302
 5145SOL    HW132577   1.392   5.404   1.387
 5145SOL    HW232578   1.376   5.528   1.303
 5146SOL     OW32579   4.057   0.717   2.400
 5146SOL    HW132580   4.132   0.770   2.375
 5146SOL    HW232581   3.986   0.779   2.415
 5147SOL     OW32582   3.580   3.364   0.700
 5147SOL    HW132583   3.484   3.374   0.705
 5147SOL    HW232584   3.614   3.447   0.734
 5148SOL     OW32585   6.181   2.959   7.515
 5148SOL    HW132586   6.093   2.986   7.540
 5148SOL    HW232587   6.168   2.898   7.443
 5149SOL     OW32588   2.264   2.998   1.751
 5149SOL    HW132589   2.356   2.995   1.724
 5149SOL    HW232590   2.267   3.012   1.845
 5150SOL     OW32591   3.288   6.371   6.346
 5150SOL    HW132592   3.303   6.442   6.283
 5150SOL    HW232593   3.344   6.300   6.315
 5151SOL     OW32594   3.353   0.050   0.112
 5151SOL    HW132595   3.316   0.106   0.180
 5151SOL    HW232596   3.279   0.003   0.076
 5152SOL     OW32597   2.263   4.532   7.142
 5152SOL    HW132598   2.296   4.557   7.229
 5152SOL    HW232599   2.330   4.474   7.107
 5153SOL     OW32600   2.813   1.824   5.900
 5153SOL    HW132601   2.881   1.778   5.850
 5153SOL    HW232602   2.812   1.782   5.985
 5154SOL     OW32603   6.077   3.198   1.811
 5154SOL    HW132604   5.984   3.207   1.830
 5154SOL    HW232605   6.121   3.218   1.894
 5155SOL     OW32606   1.093   0.075   0.178
 5155SOL    HW132607   1.179   0.055   0.139
 5155SOL    HW232608   1.039   0.100   0.104
 5156SOL     OW32609   4.672   4.543   1.969
 5156SOL    HW132610   4.766   4.555   1.956
 5156SOL    HW232611   4.634   4.627   1.941
 5157SOL     OW32612   5.635   0.873   0.819
 5157SOL    HW132613   5.688   0.874   0.739
 5157SOL    HW232614   5.629   0.965   0.844
 5158SOL     OW32615   1.763   3.210   0.644
 5158SOL    HW132616   1.760   3.148   0.717
 5158SOL    HW232617   1.686   3.266   0.657
 5159SOL     OW32618   6.367   4.842   1.353
 5159SOL    HW132619   6.340   4.918   1.405
 5159SOL    HW232620   6.388   4.879   1.267
 5160SOL     OW32621   4.781   4.240   6.731
 5160SOL    HW132622   4.712   4.246   6.665
 5160SOL    HW232623   4.816   4.151   6.721
 5161SOL     OW32624   0.013   0.593   1.456
 5161SOL    HW132625  -0.034   0.520   1.416
 5161SOL    HW232626   0.018   0.570   1.549
 5162SOL     OW32627   4.399   6.310   6.903
 5162SOL    HW132628   4.389   6.352   6.817
 5162SOL    HW232629   4.353   6.227   6.895
 5163SOL     OW32630   2.611   5.775   0.479
 5163SOL    HW132631   2.673   5.848   0.478
 5163SOL    HW232632   2.549   5.796   0.409
 5164SOL     OW32633   4.901   4.295   1.202
 5164SOL    HW132634   4.848   4.305   1.281
 5164SOL    HW232635   4.862   4.220   1.157
 5165SOL     OW32636   4.781   5.649   1.067
 5165SOL    HW132637   4.844   5.637   0.997
 5165SOL    HW232638   4.832   5.640   1.148
 5166SOL     OW32639   4.973   0.467   7.921
 5166SOL    HW132640   4.895   0.480   7.975
 5166SOL    HW232641   5.001   0.378   7.941
 5167SOL     OW32642   3.815   2.210   6.680
 5167SOL    HW132643   3.782   2.164   6.758
 5167SOL    HW232644   3.792   2.153   6.607
 5168SOL     OW32645   5.060   5.157   7.928
 5168SOL    HW132646   5.140   5.121   7.891
 5168SOL    HW232647   5.084   5.247   7.952
 5169SOL     OW32648   5.702   5.943   6.611
 5169SOL    HW132649   5.781   5.997   6.618
 5169SOL    HW232650   5.630   6.006   6.605
 5170SOL     OW32651   5.158   3.530   7.162
 5170SOL    HW132652   5.117   3.562   7.242
 5170SOL    HW232653   5.151   3.604   7.101
 5171SOL     OW32654   2.341   6.327   0.766
 5171SOL    HW132655   2.252   6.319   0.803
 5171SOL    HW232656   2.381   6.397   0.816
 5172SOL     OW32657   4.584   1.900   0.830
 5172SOL    HW132658   4.656   1.843   0.802
 5172SOL    HW232659   4.593   1.903   0.926
 5173SOL     OW32660   5.703   2.635   5.618
 5173SOL    HW132661   5.776   2.632   5.556
 5173SOL    HW232662   5.743   2.663   5.701
 5174SOL     OW32663   3.490   6.017   1.747
 5174SOL    HW132664   3.563   5.980   1.797
 5174SOL    HW232665   3.531   6.086   1.694
 5175SOL     OW32666   5.909   4.290   0.598
 5175SOL    HW132667   5.965   4.212   0.602
 5175SOL    HW232668   5.864   4.291   0.682
 5176SOL     OW32669   5.222   1.238   7.070
 5176SOL    HW132670   5.240   1.145   7.082
 5176SOL    HW232671   5.209   1.249   6.976
 5177SOL     OW32672   3.994   1.563   7.500
 5177SOL    HW132673   4.053   1.494   7.531
 5177SOL    HW232674   3.988   1.624   7.573
 5178SOL     OW32675   4.976   1.765   7.215
 5178SOL    HW132676   5.052   1.776   7.272
 5178SOL    HW232677   4.929   1.690   7.251
 5179SOL     OW32678   3.640   1.575   7.031
 5179SOL    HW132679   3.678   1.650   6.986
 5179SOL    HW232680   3.589   1.530   6.964
 5180SOL     OW32681   0.871   5.565   6.618
 5180SOL    HW132682   0.786   5.607   6.604
 5180SOL    HW232683   0.871   5.492   6.556
 5181SOL     OW32684   3.848   2.234   7.713
 5181SOL    HW132685   3.919   2.200   7.767
 5181SOL    HW232686   3.778   2.254   7.775
 5182SOL     OW32687   5.648   5.505   1.351
 5182SOL    HW132688   5.727   5.490   1.402
 5182SOL    HW232689   5.612   5.418   1.334
 5183SOL     OW32690   5.690   1.776   6.881
 5183SOL    HW132691   5.780   1.800   6.859
 5183SOL    HW232692   5.637   1.814   6.811
 5184SOL     OW32693   0.543   2.773   0.679
 5184SOL    HW132694   0.634   2.746   0.665
 5184SOL    HW232695   0.516   2.812   0.596
 5185SOL     OW32696   3.810   4.795   6.092
 5185SOL    HW132697   3.715   4.786   6.105
 5185SOL    HW232698   3.829   4.737   6.019
 5186SOL     OW32699   3.938   3.866   2.114
 5186SOL    HW132700   3.955   3.959   2.127
 5186SOL    HW232701   3.979   3.823   2.189
 5187SOL     OW32702   4.996   2.639   7.346
 5187SOL    HW132703   4.968   2.712   7.292
 5187SOL    HW232704   4.920   2.618   7.400
 5188SOL     OW32705   3.257   0.716   6.833
 5188SOL    HW132706   3.225   0.685   6.917
 5188SOL    HW232707   3.265   0.637   6.779
 5189SOL     OW32708   6.268   2.078   0.701
 5189SOL    HW132709   6.256   2.028   0.620
 5189SOL    HW232710   6.326   2.024   0.754
 5190SOL     OW32711   0.787   0.399   6.885
 5190SOL    HW132712   0.882   0.409   6.889
 5190SOL    HW232713   0.770   0.356   6.801
 5191SOL     OW32714   0.389   1.136   1.393
 5191SOL    HW132715   0.338   1.054   1.396
 5191SOL    HW232716   0.324   1.204   1.375
 5192SOL     OW32717   0.282   3.728   7.261
 5192SOL    HW132718   0.344   3.797   7.239
 5192SOL    HW232719   0.196   3.768   7.245
 5193SOL     OW32720   2.693   6.387   6.040
 5193SOL    HW132721   2.607   6.405   6.079
 5193SOL    HW232722   2.678   6.312   5.982
 5194SOL     OW32723   5.329   5.105   7.904
 5194SOL    HW132724   5.292   5.022   7.935
 5194SOL    HW232725   5.404   5.121   7.961
 5195SOL     OW32726   4.841   2.190   6.701
 5195SOL    HW132727   4.850   2.286   6.703
 5195SOL    HW232728   4.749   2.176   6.680
 5196SOL     OW32729   2.483   0.048   7.514
 5196SOL    HW132730   2.480   0.083   7.425
 5196SOL    HW232731   2.553   0.098   7.557
 5197SOL     OW32732   4.266   3.354   6.239
 5197SOL    HW132733   4.290   3.432   6.189
 5197SOL    HW232734   4.310   3.282   6.194
 5198SOL     OW32735   2.962   2.504   6.358
 5198SOL    HW132736   2.903   2.436   6.327
 5198SOL    HW232737   3.042   2.490   6.307
 5199SOL     OW32738   0.871   2.398   1.623
 5199SOL    HW132739   0.878   2.318   1.572
 5199SOL    HW232740   0.933   2.385   1.695
 5200SOL     OW32741   1.788   0.287   6.696
 5200SOL    HW132742   1.818   0.202   6.727
 5200SOL    HW232743   1.862   0.346   6.709
 5201SOL     OW32744   0.694   1.677   7.454
 5201SOL    HW132745   0.604   1.650   7.439
 5201SOL    HW232746   0.742   1.642   7.379
 5202SOL     OW32747   5.260   3.010   6.982
 5202SOL    HW132748   5.300   3.013   6.895
 5202SOL    HW232749   5.333   2.993   7.041
 5203SOL     OW32750   3.260   0.438   1.543
 5203SOL    HW132751   3.265   0.431   1.638
 5203SOL    HW232752   3.179   0.486   1.526
 5204SOL     OW32753   2.040   6.210   6.856
 5204SOL    HW132754   2.114   6.245   6.806
 5204SOL    HW232755   2.029   6.272   6.928
 5205SOL     OW32756   2.017   2.177   7.914
 5205SOL    HW132757   1.931   2.174   7.957
 5205SOL    HW232758   2.047   2.086   7.915
 5206SOL     OW32759   0.405   4.256   6.487
 5206SOL    HW132760   0.399   4.288   6.577
 5206SOL    HW232761   0.428   4.334   6.436
 5207SOL     OW32762   1.803   6.023   0.281
 5207SOL    HW132763   1.751   6.023   0.362
 5207SOL    HW232764   1.892   6.002   0.310
 5208SOL     OW32765   0.821   1.210   0.416
 5208SOL    HW132766   0.871   1.192   0.336
 5208SOL    HW232767   0.827   1.130   0.467
 5209SOL     OW32768   1.587   3.023   5.707
 5209SOL    HW132769   1.590   2.979   5.622
 5209SOL    HW232770   1.494   3.042   5.721
 5210SOL     OW32771   5.931   5.164   1.587
 5210SOL    HW132772   5.926   5.152   1.682
 5210SOL    HW232773   5.973   5.084   1.555
 5211SOL     OW32774   2.138   4.795   0.072
 5211SOL    HW132775   2.162   4.702   0.076
 5211SOL    HW232776   2.154   4.828   0.160
 5212SOL     OW32777   0.672   2.433   0.616
 5212SOL    HW132778   0.734   2.376   0.662
 5212SOL    HW232779   0.725   2.482   0.554
 5213SOL     OW32780   0.330   3.093   7.722
 5213SOL    HW132781   0.423   3.090   7.743
 5213SOL    HW232782   0.286   3.081   7.807
 5214SOL     OW32783   4.763   3.340   7.739
 5214SOL    HW132784   4.731   3.430   7.731
 5214SOL    HW232785   4.858   3.350   7.750
 5215SOL     OW32786   2.263   3.393   6.267
 5215SOL    HW132787   2.244   3.319   6.209
 5215SOL    HW232788   2.253   3.357   6.355
 5216SOL     OW32789   4.508   0.746   1.371
 5216SOL    HW132790   4.492   0.781   1.283
 5216SOL    HW232791   4.499   0.821   1.429
 5217SOL     OW32792   0.941   1.310   0.756
 5217SOL    HW132793   0.870   1.355   0.712
 5217SOL    HW232794   1.003   1.288   0.685
 5218SOL     OW32795   2.845   6.057   1.082
 5218SOL    HW132796   2.913   5.990   1.085
 5218SOL    HW232797   2.894   6.140   1.087
 5219SOL     OW32798   3.932   5.345   5.458
 5219SOL    HW132799   3.909   5.358   5.366
 5219SOL    HW232800   3.972   5.427   5.486
 5220SOL     OW32801   5.670   0.454   5.426
 5220SOL    HW132802   5.746   0.432   5.479
 5220SOL    HW232803   5.597   0.408   5.469
 5221SOL     OW32804   6.219   1.956   7.241
 5221SOL    HW132805   6.289   2.011   7.207
 5221SOL    HW232806   6.242   1.941   7.333
 5222SOL     OW32807   2.137   3.024   7.657
 5222SOL    HW132808   2.185   3.106   7.673
 5222SOL    HW232809   2.117   2.990   7.744
 5223SOL     OW32810   1.409   3.564   7.864
 5223SOL    HW132811   1.352   3.558   7.788
 5223SOL    HW232812   1.349   3.557   7.939
 5224SOL     OW32813   5.419   3.993   0.936
 5224SOL    HW132814   5.438   3.949   0.853
 5224SOL    HW232815   5.474   3.948   1.000
 5225SOL     OW32816   4.534   5.658   0.225
 5225SOL    HW132817   4.535   5.634   0.132
 5225SOL    HW232818   4.509   5.578   0.270
 5226SOL     OW32819   4.254   2.850   0.128
 5226SOL    HW132820   4.300   2.926   0.092
 5226SOL    HW232821   4.257   2.863   0.222
 5227SOL     OW32822   5.401   5.126   7.150
 5227SOL    HW132823   5.422   5.049   7.097
 5227SOL    HW232824   5.305   5.127   7.152
 5228SOL     OW32825   1.540   0.658   6.802
 5228SOL    HW132826   1.550   0.657   6.897
 5228SOL    HW232827   1.620   0.699   6.769
 5229SOL     OW32828   4.034   4.743   6.253
 5229SOL    HW132829   3.965   4.766   6.191
 5229SOL    HW232830   4.112   4.734   6.199
 5230SOL     OW32831   6.144   1.418   5.538
 5230SOL    HW132832   6.173   1.500   5.498
 5230SOL    HW232833   6.177   1.350   5.479
 5231SOL     OW32834   0.565   1.803   0.105
 5231SOL    HW132835   0.508   1.875   0.131
 5231SOL    HW232836   0.645   1.816   0.158
 5232SOL     OW32837   0.216   0.967   1.085
 5232SOL    HW132838   0.267   1.037   1.045
 5232SOL    HW232839   0.252   0.957   1.173
 5233SOL     OW32840   5.007   1.572   6.643
 5233SOL    HW132841   4.992   1.594   6.735
 5233SOL    HW232842   4.971   1.647   6.595
 5234SOL     OW32843   0.197   3.017   0.923
 5234SOL    HW132844   0.258   2.943   0.922
 5234SOL    HW232845   0.124   2.987   0.977
 5235SOL     OW32846   2.743   1.140   1.357
 5235SOL    HW132847   2.809   1.207   1.374
 5235SOL    HW232848   2.782   1.059   1.392
 5236SOL     OW32849   2.570   5.717   7.040
 5236SOL    HW132850   2.643   5.766   7.003
 5236SOL    HW232851   2.492   5.757   7.003
 5237SOL     OW32852   0.368   3.317   2.579
 5237SOL    HW132853   0.289   3.266   2.562
 5237SOL    HW232854   0.439   3.266   2.541
 5238SOL     OW32855   0.054   2.844   1.415
 5238SOL    HW132856  -0.009   2.907   1.378
 5238SOL    HW232857   0.028   2.835   1.506
 5239SOL     OW32858   6.083   5.533   1.448
 5239SOL    HW132859   6.070   5.514   1.355
 5239SOL    HW232860   6.003   5.501   1.490
 5240SOL     OW32861   4.660   1.069   7.466
 5240SOL    HW132862   4.591   1.006   7.487
 5240SOL    HW232863   4.740   1.016   7.465
 5241SOL     OW32864   0.140   2.779   5.956
 5241SOL    HW132865   0.172   2.820   5.876
 5241SOL    HW232866   0.045   2.794   5.954
 5242SOL     OW32867   5.887   3.327   0.125
 5242SOL    HW132868   5.793   3.336   0.109
 5242SOL    HW232869   5.923   3.303   0.039
 5243SOL     OW32870   4.989   0.170   0.844
 5243SOL    HW132871   4.936   0.138   0.916
 5243SOL    HW232872   5.058   0.222   0.885
 5244SOL     OW32873   6.015   3.292   7.783
 5244SOL    HW132874   5.934   3.311   7.734
 5244SOL    HW232875   6.067   3.239   7.723
 5245SOL     OW32876   5.310   0.052   5.641
 5245SOL    HW132877   5.279   0.113   5.575
 5245SOL    HW232878   5.382   0.005   5.600
 5246SOL     OW32879   5.778   3.997   1.026
 5246SOL    HW132880   5.824   4.081   1.025
 5246SOL    HW232881   5.785   3.966   0.936
 5247SOL     OW32882   1.665   1.707   6.708
 5247SOL    HW132883   1.748   1.671   6.677
 5247SOL    HW232884   1.620   1.632   6.748
 5248SOL     OW32885   3.760   6.017   0.563
 5248SOL    HW132886   3.791   5.974   0.642
 5248SOL    HW232887   3.820   5.989   0.494
 5249SOL     OW32888   6.197   1.508   5.806
 5249SOL    HW132889   6.173   1.484   5.716
 5249SOL    HW232890   6.222   1.426   5.847
 5250SOL     OW32891   4.032   5.341   1.117
 5250SOL    HW132892   4.023   5.433   1.090
 5250SOL    HW232893   3.953   5.299   1.082
 5251SOL     OW32894   4.034   5.100   6.228
 5251SOL    HW132895   3.951   5.113   6.275
 5251SOL    HW232896   4.101   5.125   6.291
 5252SOL     OW32897   5.004   4.903   0.824
 5252SOL    HW132898   5.020   4.856   0.742
 5252SOL    HW232899   4.931   4.962   0.804
 5253SOL     OW32900   0.806   0.266   0.225
 5253SOL    HW132901   0.729   0.322   0.219
 5253SOL    HW232902   0.805   0.234   0.315
 5254SOL     OW32903   1.521   0.202   7.772
 5254SOL    HW132904   1.525   0.298   7.780
 5254SOL    HW232905   1.509   0.186   7.679
 5255SOL     OW32906   2.681   6.236   1.407
 5255SOL    HW132907   2.632   6.315   1.429
 5255SOL    HW232908   2.639   6.202   1.328
 5256SOL     OW32909   0.763   2.655   7.738
 5256SOL    HW132910   0.709   2.697   7.805
 5256SOL    HW232911   0.723   2.682   7.655
 5257SOL     OW32912   4.332   4.097   1.488
 5257SOL    HW132913   4.361   4.011   1.516
 5257SOL    HW232914   4.340   4.152   1.566
 5258SOL     OW32915   5.907   4.000   0.039
 5258SOL    HW132916   5.909   3.981   0.133
 5258SOL    HW232917   5.873   4.089   0.033
 5259SOL     OW32918   3.306   0.548   6.596
 5259SOL    HW132919   3.299   0.515   6.506
 5259SOL    HW232920   3.370   0.619   6.590
 5260SOL     OW32921   5.782   0.688   6.350
 5260SOL    HW132922   5.733   0.737   6.416
 5260SOL    HW232923   5.865   0.667   6.393
 5261SOL     OW32924   2.658   1.765   0.294
 5261SOL    HW132925   2.569   1.800   0.303
 5261SOL    HW232926   2.648   1.688   0.237
 5262SOL     OW32927   0.845   2.749   0.538
 5262SOL    HW132928   0.876   2.809   0.470
 5262SOL    HW232929   0.789   2.687   0.491
 5263SOL     OW32930   5.991   5.529   0.914
 5263SOL    HW132931   6.054   5.593   0.881
 5263SOL    HW232932   5.918   5.581   0.946
 5264SOL     OW32933   2.282   0.241   7.791
 5264SOL    HW132934   2.230   0.169   7.756
 5264SOL    HW232935   2.327   0.278   7.715
 5265SOL     OW32936   5.428   1.607   6.440
 5265SOL    HW132937   5.380   1.580   6.518
 5265SOL    HW232938   5.435   1.702   6.449
 5266SOL     OW32939   0.679   2.553   1.481
 5266SOL    HW132940   0.707   2.616   1.547
 5266SOL    HW232941   0.748   2.487   1.480
 5267SOL     OW32942   0.923   0.595   0.851
 5267SOL    HW132943   1.003   0.615   0.900
 5267SOL    HW232944   0.887   0.519   0.896
 5268SOL     OW32945   5.720   0.435   0.916
 5268SOL    HW132946   5.798   0.464   0.870
 5268SOL    HW232947   5.742   0.347   0.948
 5269SOL     OW32948   3.444   5.299   2.485
 5269SOL    HW132949   3.358   5.333   2.507
 5269SOL    HW232950   3.497   5.377   2.467
 5270SOL     OW32951   2.914   3.693   0.033
 5270SOL    HW132952   2.992   3.641   0.048
 5270SOL    HW232953   2.851   3.632  -0.006
 5271SOL     OW32954   2.326   2.871   0.523
 5271SOL    HW132955   2.277   2.842   0.447
 5271SOL    HW232956   2.278   2.948   0.555
 5272SOL     OW32957   6.377   1.144   7.538
 5272SOL    HW132958   6.469   1.169   7.537
 5272SOL    HW232959   6.373   1.067   7.481
 5273SOL     OW32960   5.949   2.284   0.175
 5273SOL    HW132961   6.014   2.331   0.123
 5273SOL    HW232962   5.967   2.310   0.266
 5274SOL     OW32963   5.028   0.905   7.737
 5274SOL    HW132964   5.098   0.968   7.719
 5274SOL    HW232965   4.959   0.958   7.776
 5275SOL     OW32966   2.360   0.333   6.409
 5275SOL    HW132967   2.303   0.325   6.485
 5275SOL    HW232968   2.360   0.246   6.369
 5276SOL     OW32969   5.686   0.719   7.412
 5276SOL    HW132970   5.731   0.705   7.329
 5276SOL    HW232971   5.608   0.664   7.407
 5277SOL     OW32972   3.828   0.247   5.296
 5277SOL    HW132973   3.791   0.186   5.361
 5277SOL    HW232974   3.850   0.191   5.222
 5278SOL     OW32975   5.170   0.723   6.968
 5278SOL    HW132976   5.197   0.732   6.877
 5278SOL    HW232977   5.240   0.672   7.009
 5279SOL     OW32978   1.611   3.231   7.326
 5279SOL    HW132979   1.598   3.326   7.325
 5279SOL    HW232980   1.674   3.216   7.397
 5280SOL     OW32981   3.758   1.538   5.392
 5280SOL    HW132982   3.681   1.503   5.436
 5280SOL    HW232983   3.821   1.553   5.461
 5281SOL     OW32984   0.483   1.364   0.637
 5281SOL    HW132985   0.501   1.271   0.626
 5281SOL    HW232986   0.392   1.374   0.609
 5282SOL     OW32987   2.853   0.155   6.829
 5282SOL    HW132988   2.849   0.060   6.818
 5282SOL    HW232989   2.900   0.185   6.751
 5283SOL     OW32990   0.289   1.246   6.203
 5283SOL    HW132991   0.327   1.195   6.274
 5283SOL    HW232992   0.208   1.282   6.240
 5284SOL     OW32993   2.979   3.752   2.386
 5284SOL    HW132994   2.915   3.746   2.456
 5284SOL    HW232995   3.019   3.665   2.383
 5285SOL     OW32996   3.729   4.108   1.248
 5285SOL    HW132997   3.785   4.081   1.321
 5285SOL    HW232998   3.697   4.194   1.273
 5286SOL     OW32999   5.256   0.719   6.695
 5286SOL    HW133000   5.350   0.710   6.676
 5286SOL    HW233001   5.217   0.638   6.664
 5287SOL     OW33002   2.577   0.113   5.731
 5287SOL    HW133003   2.607   0.199   5.702
 5287SOL    HW233004   2.654   0.057   5.723
 5288SOL     OW33005   0.554   2.445   0.130
 5288SOL    HW133006   0.602   2.527   0.140
 5288SOL    HW233007   0.556   2.405   0.217
 5289SOL     OW33008   3.288   5.849   1.743
 5289SOL    HW133009   3.255   5.855   1.832
 5289SOL    HW233010   3.350   5.922   1.736
 5290SOL     OW33011   3.075   0.322   7.757
 5290SOL    HW133012   3.051   0.229   7.761
 5290SOL    HW233013   3.109   0.342   7.844
 5291SOL     OW33014   3.846   1.408   6.450
 5291SOL    HW133015   3.940   1.394   6.442
 5291SOL    HW233016   3.830   1.411   6.544
 5292SOL     OW33017   3.919   4.411   5.660
 5292SOL    HW133018   3.863   4.434   5.586
 5292SOL    HW233019   3.952   4.323   5.638
 5293SOL     OW33020   1.041   2.449   0.435
 5293SOL    HW133021   1.053   2.397   0.515
 5293SOL    HW233022   0.947   2.449   0.421
 5294SOL     OW33023   1.649   3.133   7.899
 5294SOL    HW133024   1.639   3.150   7.992
 5294SOL    HW233025   1.735   3.093   7.891
 5295SOL     OW33026   4.295   2.675   7.606
 5295SOL    HW133027   4.213   2.667   7.656
 5295SOL    HW233028   4.279   2.625   7.526
 5296SOL     OW33029   5.278   5.409   1.999
 5296SOL    HW133030   5.281   5.471   2.072
 5296SOL    HW233031   5.225   5.452   1.933
 5297SOL     OW33032   1.261   2.209   0.667
 5297SOL    HW133033   1.323   2.139   0.687
 5297SOL    HW233034   1.303   2.288   0.701
 5298SOL     OW33035   2.833   5.439   1.098
 5298SOL    HW133036   2.915   5.482   1.122
 5298SOL    HW233037   2.798   5.494   1.028
 5299SOL     OW33038   1.592   2.614   5.341
 5299SOL    HW133039   1.537   2.643   5.268
 5299SOL    HW233040   1.671   2.579   5.299
 5300SOL     OW33041   5.233   2.847   0.245
 5300SOL    HW133042   5.139   2.863   0.241
 5300SOL    HW233043   5.241   2.760   0.283
 5301SOL     OW33044   4.698   5.787   0.833
 5301SOL    HW133045   4.615   5.820   0.798
 5301SOL    HW233046   4.687   5.790   0.928
 5302SOL     OW33047   1.907   5.755   6.658
 5302SOL    HW133048   1.939   5.821   6.720
 5302SOL    HW233049   1.919   5.672   6.704
 5303SOL     OW33050   2.958   1.655   1.696
 5303SOL    HW133051   2.874   1.628   1.662
 5303SOL    HW233052   3.010   1.676   1.618
 5304SOL     OW33053   1.841   1.045   6.655
 5304SOL    HW133054   1.904   1.047   6.583
 5304SOL    HW233055   1.789   1.125   6.643
 5305SOL     OW33056   4.831   6.181   1.090
 5305SOL    HW133057   4.925   6.168   1.102
 5305SOL    HW233058   4.824   6.227   1.006
 5306SOL     OW33059   1.339   5.027   7.574
 5306SOL    HW133060   1.339   5.107   7.627
 5306SOL    HW233061   1.265   4.976   7.607
 5307SOL     OW33062   5.770   3.894   7.017
 5307SOL    HW133063   5.735   3.805   7.011
 5307SOL    HW233064   5.783   3.909   7.111
 5308SOL     OW33065   0.536   4.254   5.618
 5308SOL    HW133066   0.559   4.182   5.559
 5308SOL    HW233067   0.509   4.325   5.560
 5309SOL     OW33068   1.992   1.360   0.884
 5309SOL    HW133069   1.968   1.449   0.909
 5309SOL    HW233070   1.920   1.332   0.827
 5310SOL     OW33071   1.000   4.238   1.923
 5310SOL    HW133072   0.907   4.257   1.910
 5310SOL    HW233073   1.001   4.158   1.976
 5311SOL     OW33074   6.223   4.824   0.467
 5311SOL    HW133075   6.266   4.835   0.552
 5311SOL    HW233076   6.220   4.912   0.430
 5312SOL     OW33077   1.787   4.649   2.260
 5312SOL    HW133078   1.834   4.680   2.183
 5312SOL    HW233079   1.717   4.713   2.272
 5313SOL     OW33080   5.129   3.247   0.774
 5313SOL    HW133081   5.135   3.341   0.758
 5313SOL    HW233082   5.078   3.239   0.855
 5314SOL     OW33083   0.395   5.116   0.409
 5314SOL    HW133084   0.483   5.081   0.397
 5314SOL    HW233085   0.353   5.108   0.324
 5315SOL     OW33086   6.027   3.195   6.783
 5315SOL    HW133087   6.045   3.103   6.761
 5315SOL    HW233088   5.997   3.234   6.701
 5316SOL     OW33089   0.192   5.605   7.214
 5316SOL    HW133090   0.257   5.632   7.149
 5316SOL    HW233091   0.241   5.599   7.296
 5317SOL     OW33092   4.228   1.091   6.126
 5317SOL    HW133093   4.236   1.075   6.032
 5317SOL    HW233094   4.143   1.054   6.150
 5318SOL     OW33095   0.086   2.309   1.463
 5318SOL    HW133096   0.140   2.387   1.449
 5318SOL    HW233097   0.148   2.238   1.474
 5319SOL     OW33098   0.191   0.724   0.662
 5319SOL    HW133099   0.189   0.784   0.737
 5319SOL    HW233100   0.159   0.641   0.697
 5320SOL     OW33101   1.744   3.076   6.653
 5320SOL    HW133102   1.817   3.025   6.619
 5320SOL    HW233103   1.720   3.032   6.735
 5321SOL     OW33104   1.728   3.019   0.913
 5321SOL    HW133105   1.743   2.945   0.854
 5321SOL    HW233106   1.803   3.018   0.973
 5322SOL     OW33107   5.535   2.687   0.176
 5322SOL    HW133108   5.481   2.748   0.126
 5322SOL    HW233109   5.516   2.601   0.138
 5323SOL     OW33110   5.109   3.072   6.663
 5323SOL    HW133111   5.055   3.133   6.614
 5323SOL    HW233112   5.053   3.042   6.735
 5324SOL     OW33113   3.061   5.020   7.705
 5324SOL    HW133114   3.092   4.946   7.758
 5324SOL    HW233115   2.980   5.048   7.748
 5325SOL     OW33116   3.261   4.526   1.501
 5325SOL    HW133117   3.295   4.554   1.586
 5325SOL    HW233118   3.210   4.448   1.520
 5326SOL     OW33119   2.156   1.987   6.540
 5326SOL    HW133120   2.204   2.066   6.564
 5326SOL    HW233121   2.124   2.005   6.451
 5327SOL     OW33122   3.126   2.580   6.559
 5327SOL    HW133123   3.049   2.569   6.502
 5327SOL    HW233124   3.177   2.500   6.546
 5328SOL     OW33125   3.151   2.625   7.825
 5328SOL    HW133126   3.139   2.715   7.795
 5328SOL    HW233127   3.150   2.631   7.920
 5329SOL     OW33128   2.517   5.608   1.204
 5329SOL    HW133129   2.606   5.619   1.171
 5329SOL    HW233130   2.494   5.694   1.240
 5330SOL     OW33131   3.395   3.680   5.866
 5330SOL    HW133132   3.481   3.659   5.829
 5330SOL    HW233133   3.337   3.611   5.832
 5331SOL     OW33134   6.268   3.668   6.333
 5331SOL    HW133135   6.219   3.728   6.277
 5331SOL    HW233136   6.231   3.679   6.420
 5332SOL     OW33137   1.971   0.341   7.172
 5332SOL    HW133138   2.023   0.329   7.093
 5332SOL    HW233139   2.033   0.331   7.244
 5333SOL     OW33140   1.096   0.175   7.840
 5333SOL    HW133141   1.036   0.101   7.831
 5333SOL    HW233142   1.143   0.177   7.756
 5334SOL     OW33143   1.748   6.331   7.529
 5334SOL    HW133144   1.678   6.317   7.593
 5334SOL    HW233145   1.703   6.361   7.450
 5335SOL     OW33146   3.276   5.304   1.284
 5335SOL    HW133147   3.196   5.251   1.297
 5335SOL    HW233148   3.250   5.392   1.309
 5336SOL     OW33149   0.852   0.750   6.723
 5336SOL    HW133150   0.806   0.699   6.790
 5336SOL    HW233151   0.867   0.687   6.652
 5337SOL     OW33152   3.292   1.707   0.705
 5337SOL    HW133153   3.374   1.757   0.704
 5337SOL    HW233154   3.254   1.724   0.618
 5338SOL     OW33155   3.891   5.926   7.445
 5338SOL    HW133156   3.958   5.866   7.479
 5338SOL    HW233157   3.808   5.887   7.474
 5339SOL     OW33158   6.032   4.770   7.881
 5339SOL    HW133159   5.999   4.700   7.824
 5339SOL    HW233160   6.073   4.723   7.953
 5340SOL     OW33161   1.126   4.526   7.832
 5340SOL    HW133162   1.143   4.618   7.855
 5340SOL    HW233163   1.109   4.528   7.738
 5341SOL     OW33164   4.490   5.769   6.985
 5341SOL    HW133165   4.429   5.727   7.045
 5341SOL    HW233166   4.520   5.847   7.031
 5342SOL     OW33167   4.512   5.471   7.056
 5342SOL    HW133168   4.578   5.530   7.091
 5342SOL    HW233169   4.429   5.508   7.084
 5343SOL     OW33170   0.964   1.323   6.087
 5343SOL    HW133171   0.992   1.375   6.011
 5343SOL    HW233172   0.924   1.387   6.146
 5344SOL     OW33173   5.484   0.455   0.053
 5344SOL    HW133174   5.553   0.507   0.013
 5344SOL    HW233175   5.487   0.478   0.146
 5345SOL     OW33176   5.979   4.451   1.540
 5345SOL    HW133177   5.983   4.506   1.619
 5345SOL    HW233178   6.065   4.410   1.535
 5346SOL     OW33179   5.933   5.449   7.934
 5346SOL    HW133180   5.950   5.359   7.907
 5346SOL    HW233181   5.838   5.458   7.931
 5347SOL     OW33182   4.438   3.229   0.782
 5347SOL    HW133183   4.432   3.219   0.687
 5347SOL    HW233184   4.359   3.186   0.816
 5348SOL     OW33185   3.788   5.934   0.821
 5348SOL    HW133186   3.744   6.003   0.871
 5348SOL    HW233187   3.742   5.854   0.844
 5349SOL     OW33188   2.198   3.129   2.333
 5349SOL    HW133189   2.130   3.097   2.273
 5349SOL    HW233190   2.253   3.185   2.278
 5350SOL     OW33191   2.962   2.836   0.451
 5350SOL    HW133192   2.868   2.842   0.450
 5350SOL    HW233193   2.986   2.850   0.543
 5351SOL     OW33194   4.066   5.766   7.592
 5351SOL    HW133195   4.037   5.678   7.616
 5351SOL    HW233196   4.135   5.751   7.528
 5352SOL     OW33197   0.898   2.676   5.908
 5352SOL    HW133198   0.869   2.650   5.996
 5352SOL    HW233199   0.838   2.746   5.883
 5353SOL     OW33200   4.823   5.828   7.280
 5353SOL    HW133201   4.745   5.859   7.326
 5353SOL    HW233202   4.892   5.828   7.346
 5354SOL     OW33203   3.253   4.835   6.947
 5354SOL    HW133204   3.269   4.764   6.885
 5354SOL    HW233205   3.158   4.837   6.959
 5355SOL     OW33206   2.468   4.804   0.852
 5355SOL    HW133207   2.489   4.816   0.759
 5355SOL    HW233208   2.486   4.712   0.869
 5356SOL     OW33209   0.758   3.851   1.029
 5356SOL    HW133210   0.754   3.756   1.021
 5356SOL    HW233211   0.675   3.875   1.070
 5357SOL     OW33212   3.171   1.767   1.023
 5357SOL    HW133213   3.196   1.816   0.945
 5357SOL    HW233214   3.114   1.697   0.990
 5358SOL     OW33215   5.632   1.139   0.880
 5358SOL    HW133216   5.573   1.210   0.857
 5358SOL    HW233217   5.674   1.167   0.961
 5359SOL     OW33218   2.021   2.135   7.365
 5359SOL    HW133219   2.031   2.188   7.443
 5359SOL    HW233220   1.940   2.166   7.325
 5360SOL     OW33221   3.443   5.139   7.361
 5360SOL    HW133222   3.430   5.045   7.347
 5360SOL    HW233223   3.509   5.144   7.431
 5361SOL     OW33224   6.361   5.826   0.666
 5361SOL    HW133225   6.281   5.836   0.615
 5361SOL    HW233226   6.411   5.906   0.647
 5362SOL     OW33227   0.169   0.477  -0.002
 5362SOL    HW133228   0.092   0.534  -0.005
 5362SOL    HW233229   0.163   0.433   0.082
 5363SOL     OW33230   4.022   3.085   7.516
 5363SOL    HW133231   3.970   3.010   7.544
 5363SOL    HW233232   4.113   3.055   7.524
 5364SOL     OW33233   3.659   0.315   1.191
 5364SOL    HW133234   3.642   0.323   1.285
 5364SOL    HW233235   3.631   0.398   1.154
 5365SOL     OW33236   2.436   5.835   7.442
 5365SOL    HW133237   2.438   5.923   7.405
 5365SOL    HW233238   2.432   5.776   7.367
 5366SOL     OW33239   5.990   1.404   6.835
 5366SOL    HW133240   6.004   1.314   6.804
 5366SOL    HW233241   5.986   1.457   6.756
 5367SOL     OW33242   4.889   2.926   7.500
 5367SOL    HW133243   4.892   2.998   7.436
 5367SOL    HW233244   4.812   2.875   7.476
 5368SOL     OW33245   5.809   3.235   1.852
 5368SOL    HW133246   5.745   3.304   1.830
 5368SOL    HW233247   5.793   3.216   1.944
 5369SOL     OW33248   3.365   4.351   0.985
 5369SOL    HW133249   3.449   4.325   1.022
 5369SOL    HW233250   3.387   4.407   0.910
 5370SOL     OW33251   4.007   2.384   0.960
 5370SOL    HW133252   4.051   2.299   0.959
 5370SOL    HW233253   4.000   2.406   1.053
 5371SOL     OW33254   3.172   6.268   6.885
 5371SOL    HW133255   3.154   6.181   6.849
 5371SOL    HW233256   3.193   6.322   6.809
 5372SOL     OW33257   0.592   3.221   6.592
 5372SOL    HW133258   0.586   3.310   6.557
 5372SOL    HW233259   0.653   3.229   6.665
 5373SOL     OW33260   3.245   4.264   0.129
 5373SOL    HW133261   3.293   4.345   0.110
 5373SOL    HW233262   3.219   4.272   0.221
 5374SOL     OW33263   5.395   5.164   5.827
 5374SOL    HW133264   5.391   5.191   5.735
 5374SOL    HW233265   5.460   5.094   5.828
 5375SOL     OW33266   2.013   0.584   0.437
 5375SOL    HW133267   1.984   0.669   0.404
 5375SOL    HW233268   1.945   0.557   0.498
 5376SOL     OW33269   1.752   4.806   6.238
 5376SOL    HW133270   1.729   4.747   6.310
 5376SOL    HW233271   1.759   4.750   6.162
 5377SOL     OW33272   3.941   6.287   6.792
 5377SOL    HW133273   3.995   6.237   6.732
 5377SOL    HW233274   3.851   6.271   6.762
 5378SOL     OW33275   1.718   1.428   7.758
 5378SOL    HW133276   1.740   1.518   7.735
 5378SOL    HW233277   1.733   1.378   7.678
 5379SOL     OW33278   5.368   0.529   1.995
 5379SOL    HW133279   5.326   0.585   1.930
 5379SOL    HW233280   5.385   0.588   2.069
 5380SOL     OW33281   4.946   6.098   0.102
 5380SOL    HW133282   4.855   6.110   0.130
 5380SOL    HW233283   4.990   6.179   0.126
 5381SOL     OW33284   0.261   0.647   1.344
 5381SOL    HW133285   0.181   0.625   1.391
 5381SOL    HW233286   0.328   0.592   1.383
 5382SOL     OW33287   0.106   2.038   7.649
 5382SOL    HW133288   0.155   2.012   7.727
 5382SOL    HW233289   0.019   2.061   7.681
 5383SOL     OW33290   3.306   0.571   0.092
 5383SOL    HW133291   3.319   0.588   0.185
 5383SOL    HW233292   3.363   0.634   0.047
 5384SOL     OW33293   0.013   0.894   0.306
 5384SOL    HW133294  -0.054   0.866   0.244
 5384SOL    HW233295   0.096   0.871   0.263
 5385SOL     OW33296   0.269   3.672   0.489
 5385SOL    HW133297   0.288   3.754   0.443
 5385SOL    HW233298   0.296   3.604   0.427
 5386SOL     OW33299   3.248   4.484   6.209
 5386SOL    HW133300   3.169   4.430   6.200
 5386SOL    HW233301   3.313   4.439   6.155
 5387SOL     OW33302   5.277   1.699   6.682
 5387SOL    HW133303   5.240   1.787   6.686
 5387SOL    HW233304   5.201   1.641   6.690
 5388SOL     OW33305   5.758   4.771   1.452
 5388SOL    HW133306   5.806   4.721   1.386
 5388SOL    HW233307   5.694   4.709   1.488
 5389SOL     OW33308   3.884   2.785   1.994
 5389SOL    HW133309   3.909   2.717   2.057
 5389SOL    HW233310   3.845   2.854   2.048
 5390SOL     OW33311   5.061   4.366   7.175
 5390SOL    HW133312   5.036   4.306   7.105
 5390SOL    HW233313   5.150   4.339   7.199
 5391SOL     OW33314   5.908   1.222   1.519
 5391SOL    HW133315   5.831   1.260   1.476
 5391SOL    HW233316   5.885   1.219   1.611
 5392SOL     OW33317   0.044   2.708   6.524
 5392SOL    HW133318   0.136   2.728   6.539
 5392SOL    HW233319   0.024   2.753   6.441
 5393SOL     OW33320   2.420   5.418   7.191
 5393SOL    HW133321   2.453   5.328   7.188
 5393SOL    HW233322   2.399   5.432   7.283
 5394SOL     OW33323   4.012   4.902   7.049
 5394SOL    HW133324   3.987   4.992   7.029
 5394SOL    HW233325   3.992   4.892   7.142
 5395SOL     OW33326   0.636   4.455   1.467
 5395SOL    HW133327   0.616   4.504   1.547
 5395SOL    HW233328   0.555   4.456   1.417
 5396SOL     OW33329   3.532   3.741   7.834
 5396SOL    HW133330   3.462   3.680   7.856
 5396SOL    HW233331   3.565   3.711   7.749
 5397SOL     OW33332   2.923   4.122   7.396
 5397SOL    HW133333   2.884   4.149   7.313
 5397SOL    HW233334   2.990   4.187   7.414
 5398SOL     OW33335   1.608   2.661   6.104
 5398SOL    HW133336   1.698   2.693   6.105
 5398SOL    HW233337   1.593   2.634   6.013
 5399SOL     OW33338   1.213   0.955   0.555
 5399SOL    HW133339   1.282   1.021   0.562
 5399SOL    HW233340   1.151   0.977   0.625
 5400SOL     OW33341   0.511   1.250   1.943
 5400SOL    HW133342   0.595   1.257   1.989
 5400SOL    HW233343   0.466   1.332   1.962
 5401SOL     OW33344   0.061   1.345   6.950
 5401SOL    HW133345  -0.030   1.345   6.978
 5401SOL    HW233346   0.076   1.432   6.914
 5402SOL     OW33347   1.176   4.789   0.396
 5402SOL    HW133348   1.208   4.836   0.473
 5402SOL    HW233349   1.117   4.850   0.354
 5403SOL     OW33350   0.962   0.071   6.114
 5403SOL    HW133351   1.050   0.046   6.086
 5403SOL    HW233352   0.903   0.020   6.058
 5404SOL     OW33353   6.099   4.602   0.831
 5404SOL    HW133354   6.030   4.555   0.784
 5404SOL    HW233355   6.177   4.548   0.818
 5405SOL     OW33356   4.630   1.569   7.648
 5405SOL    HW133357   4.550   1.612   7.617
 5405SOL    HW233358   4.680   1.552   7.568
 5406SOL     OW33359   4.297   0.055   7.542
 5406SOL    HW133360   4.373   0.096   7.581
 5406SOL    HW233361   4.286  -0.027   7.590
 5407SOL     OW33362   3.909   1.243   7.824
 5407SOL    HW133363   3.924   1.183   7.752
 5407SOL    HW233364   3.834   1.295   7.797
 5408SOL     OW33365   6.067   1.482   5.157
 5408SOL    HW133366   5.974   1.490   5.135
 5408SOL    HW233367   6.099   1.411   5.103
 5409SOL     OW33368   1.836   6.204   0.055
 5409SOL    HW133369   1.793   6.153   0.124
 5409SOL    HW233370   1.908   6.249   0.100
 5410SOL     OW33371   2.773   5.483   7.658
 5410SOL    HW133372   2.842   5.535   7.697
 5410SOL    HW233373   2.757   5.523   7.573
 5411SOL     OW33374   1.558   2.186   2.407
 5411SOL    HW133375   1.551   2.135   2.487
 5411SOL    HW233376   1.616   2.133   2.351
 5412SOL     OW33377   4.126   1.102   6.743
 5412SOL    HW133378   4.065   1.153   6.796
 5412SOL    HW233379   4.141   1.022   6.793
 5413SOL     OW33380   3.983   2.743   0.100
 5413SOL    HW133381   3.994   2.663   0.151
 5413SOL    HW233382   4.060   2.796   0.121
 5414SOL     OW33383   0.326   4.864   6.498
 5414SOL    HW133384   0.321   4.841   6.405
 5414SOL    HW233385   0.414   4.899   6.509
 5415SOL     OW33386   2.657   3.408   7.069
 5415SOL    HW133387   2.747   3.440   7.072
 5415SOL    HW233388   2.604   3.486   7.087
 5416SOL     OW33389   1.624   4.036   6.300
 5416SOL    HW133390   1.532   4.016   6.315
 5416SOL    HW233391   1.647   3.984   6.222
 5417SOL     OW33392   4.562   1.894   7.850
 5417SOL    HW133393   4.650   1.925   7.872
 5417SOL    HW233394   4.568   1.799   7.859
 5418SOL     OW33395   6.151   5.073   6.373
 5418SOL    HW133396   6.150   5.102   6.282
 5418SOL    HW233397   6.064   5.035   6.387
 5419SOL     OW33398   1.575   1.710   0.201
 5419SOL    HW133399   1.649   1.664   0.240
 5419SOL    HW233400   1.581   1.798   0.236
 5420SOL     OW33401   0.377   3.624   6.130
 5420SOL    HW133402   0.444   3.692   6.123
 5420SOL    HW233403   0.299   3.670   6.161
 5421SOL     OW33404   4.715   1.037   6.611
 5421SOL    HW133405   4.754   1.107   6.559
 5421SOL    HW233406   4.663   0.987   6.549
 5422SOL     OW33407   6.034   2.917   0.702
 5422SOL    HW133408   5.957   2.864   0.685
 5422SOL    HW233409   6.074   2.877   0.780
 5423SOL     OW33410   1.242   1.874   6.814
 5423SOL    HW133411   1.307   1.896   6.748
 5423SOL    HW233412   1.290   1.877   6.897
 5424SOL     OW33413   3.996   6.344   6.357
 5424SOL    HW133414   3.922   6.384   6.404
 5424SOL    HW233415   3.966   6.254   6.340
 5425SOL     OW33416   3.085   3.976   0.228
 5425SOL    HW133417   3.145   3.941   0.163
 5425SOL    HW233418   3.137   3.985   0.308
 5426SOL     OW33419   0.969   5.185   0.406
 5426SOL    HW133420   0.905   5.244   0.446
 5426SOL    HW233421   1.048   5.239   0.396
 5427SOL     OW33422   1.767   3.482   7.248
 5427SOL    HW133423   1.726   3.567   7.230
 5427SOL    HW233424   1.762   3.435   7.165
 5428SOL     OW33425   4.570   2.110   7.631
 5428SOL    HW133426   4.587   2.050   7.703
 5428SOL    HW233427   4.510   2.175   7.667
 5429SOL     OW33428   5.779   5.207   6.364
 5429SOL    HW133429   5.808   5.130   6.315
 5429SOL    HW233430   5.831   5.206   6.444
 5430SOL     OW33431   4.601   5.340   7.401
 5430SOL    HW133432   4.638   5.413   7.451
 5430SOL    HW233433   4.649   5.263   7.431
 5431SOL     OW33434   0.643   4.818   1.860
 5431SOL    HW133435   0.601   4.783   1.938
 5431SOL    HW233436   0.731   4.841   1.888
 5432SOL     OW33437   4.316   1.151   0.274
 5432SOL    HW133438   4.341   1.099   0.197
 5432SOL    HW233439   4.224   1.128   0.289
 5433SOL     OW33440   3.467   2.413   1.276
 5433SOL    HW133441   3.429   2.403   1.363
 5433SOL    HW233442   3.498   2.504   1.274
 5434SOL     OW33443   1.317   1.923   1.430
 5434SOL    HW133444   1.278   1.995   1.480
 5434SOL    HW233445   1.251   1.902   1.364
 5435SOL     OW33446   3.736   5.572   0.234
 5435SOL    HW133447   3.673   5.644   0.242
 5435SOL    HW233448   3.820   5.615   0.217
 5436SOL     OW33449   3.730   6.368   6.450
 5436SOL    HW133450   3.644   6.410   6.452
 5436SOL    HW233451   3.734   6.318   6.531
 5437SOL     OW33452   2.795   3.943   1.508
 5437SOL    HW133453   2.799   3.880   1.581
 5437SOL    HW233454   2.735   4.011   1.538
 5438SOL     OW33455   4.530   2.495   0.165
 5438SOL    HW133456   4.465   2.501   0.095
 5438SOL    HW233457   4.488   2.537   0.240
 5439SOL     OW33458   1.385   1.165   0.561
 5439SOL    HW133459   1.431   1.200   0.485
 5439SOL    HW233460   1.447   1.175   0.633
 5440SOL     OW33461   0.955   4.041   5.304
 5440SOL    HW133462   1.045   4.059   5.333
 5440SOL    HW233463   0.920   4.127   5.281
 5441SOL     OW33464   6.065   2.085   6.794
 5441SOL    HW133465   6.020   2.090   6.879
 5441SOL    HW233466   6.070   2.176   6.764
 5442SOL     OW33467   5.206   1.863   1.759
 5442SOL    HW133468   5.118   1.853   1.796
 5442SOL    HW233469   5.202   1.813   1.677
 5443SOL     OW33470   3.431   3.483   7.819
 5443SOL    HW133471   3.423   3.434   7.737
 5443SOL    HW233472   3.520   3.464   7.850
 5444SOL     OW33473   5.780   2.732   6.327
 5444SOL    HW133474   5.847   2.772   6.273
 5444SOL    HW233475   5.718   2.803   6.346
 5445SOL     OW33476   5.470   2.242   6.463
 5445SOL    HW133477   5.411   2.294   6.410
 5445SOL    HW233478   5.421   2.224   6.543
 5446SOL     OW33479   0.432   2.430   1.113
 5446SOL    HW133480   0.443   2.499   1.178
 5446SOL    HW233481   0.357   2.459   1.061
 5447SOL     OW33482   1.519   2.529   1.717
 5447SOL    HW133483   1.503   2.578   1.798
 5447SOL    HW233484   1.459   2.455   1.720
 5448SOL     OW33485   5.807   2.849   2.313
 5448SOL    HW133486   5.769   2.762   2.303
 5448SOL    HW233487   5.871   2.840   2.384
 5449SOL     OW33488   0.349   3.254   1.043
 5449SOL    HW133489   0.311   3.184   0.990
 5449SOL    HW233490   0.440   3.258   1.015
 5450SOL     OW33491   4.331   0.846   0.285
 5450SOL    HW133492   4.332   0.878   0.375
 5450SOL    HW233493   4.417   0.806   0.273
 5451SOL     OW33494   2.182   3.545   6.737
 5451SOL    HW133495   2.124   3.496   6.795
 5451SOL    HW233496   2.129   3.560   6.658
 5452SOL     OW33497   1.356   5.386   6.183
 5452SOL    HW133498   1.368   5.292   6.191
 5452SOL    HW233499   1.406   5.410   6.105
 5453SOL     OW33500   5.227   4.576   1.343
 5453SOL    HW133501   5.310   4.608   1.307
 5453SOL    HW233502   5.160   4.624   1.295
 5454SOL     OW33503   1.110   4.084   6.801
 5454SOL    HW133504   1.168   4.012   6.827
 5454SOL    HW233505   1.055   4.099   6.878
 5455SOL     OW33506   2.252   0.542   0.561
 5455SOL    HW133507   2.174   0.542   0.505
 5455SOL    HW233508   2.325   0.524   0.502
 5456SOL     OW33509   1.432   3.632   6.837
 5456SOL    HW133510   1.475   3.712   6.807
 5456SOL    HW233511   1.360   3.620   6.776
 5457SOL     OW33512   4.921   6.257   6.015
 5457SOL    HW133513   4.904   6.195   5.945
 5457SOL    HW233514   5.011   6.238   6.043
 5458SOL     OW33515   5.762   5.671   1.003
 5458SOL    HW133516   5.691   5.616   1.035
 5458SOL    HW233517   5.718   5.750   0.972
 5459SOL     OW33518   0.090   5.128   7.870
 5459SOL    HW133519   0.078   5.067   7.798
 5459SOL    HW233520   0.002   5.159   7.891
 5460SOL     OW33521   0.992   4.628   0.864
 5460SOL    HW133522   1.034   4.678   0.933
 5460SOL    HW233523   0.919   4.682   0.836
 5461SOL     OW33524   0.578   1.286   6.238
 5461SOL    HW133525   0.498   1.297   6.187
 5461SOL    HW233526   0.612   1.374   6.248
 5462SOL     OW33527   4.977   3.059   0.998
 5462SOL    HW133528   4.899   3.006   1.012
 5462SOL    HW233529   5.040   3.026   1.062
 5463SOL     OW33530   3.725   3.001   2.179
 5463SOL    HW133531   3.752   3.009   2.271
 5463SOL    HW233532   3.648   2.944   2.181
 5464SOL     OW33533   3.101   2.189   6.333
 5464SOL    HW133534   3.104   2.104   6.287
 5464SOL    HW233535   3.096   2.165   6.426
 5465SOL     OW33536   1.096   4.323   0.854
 5465SOL    HW133537   1.098   4.363   0.766
 5465SOL    HW233538   1.029   4.255   0.848
 5466SOL     OW33539   4.684   0.740   6.514
 5466SOL    HW133540   4.603   0.701   6.481
 5466SOL    HW233541   4.753   0.699   6.462
 5467SOL     OW33542   5.366   3.771   2.501
 5467SOL    HW133543   5.286   3.823   2.498
 5467SOL    HW233544   5.351   3.700   2.438
 5468SOL     OW33545   2.101   3.825   1.821
 5468SOL    HW133546   2.045   3.752   1.847
 5468SOL    HW233547   2.117   3.874   1.901
 5469SOL     OW33548   3.505   5.218   0.675
 5469SOL    HW133549   3.562   5.256   0.742
 5469SOL    HW233550   3.437   5.283   0.661
 5470SOL     OW33551   2.481   3.205   1.038
 5470SOL    HW133552   2.465   3.126   0.986
 5470SOL    HW233553   2.432   3.191   1.119
 5471SOL     OW33554   2.560   1.088   1.144
 5471SOL    HW133555   2.624   1.090   1.216
 5471SOL    HW233556   2.490   1.146   1.173
 5472SOL     OW33557   0.585   6.132   1.968
 5472SOL    HW133558   0.536   6.195   2.019
 5472SOL    HW233559   0.520   6.089   1.912
 5473SOL     OW33560   1.687   5.082   6.806
 5473SOL    HW133561   1.698   5.166   6.760
 5473SOL    HW233562   1.735   5.094   6.888
 5474SOL     OW33563   1.433   4.404   6.515
 5474SOL    HW133564   1.415   4.327   6.569
 5474SOL    HW233565   1.496   4.373   6.450
 5475SOL     OW33566   2.166   1.682   0.749
 5475SOL    HW133567   2.170   1.772   0.715
 5475SOL    HW233568   2.249   1.671   0.796
 5476SOL     OW33569   4.943   5.536   0.836
 5476SOL    HW133570   5.005   5.497   0.774
 5476SOL    HW233571   4.913   5.464   0.890
 5477SOL     OW33572   3.437   6.262   6.737
 5477SOL    HW133573   3.425   6.319   6.813
 5477SOL    HW233574   3.428   6.320   6.661
 5478SOL     OW33575   0.156   0.177   1.150
 5478SOL    HW133576   0.093   0.149   1.083
 5478SOL    HW233577   0.220   0.107   1.154
 5479SOL     OW33578   2.862   5.015   6.509
 5479SOL    HW133579   2.807   4.953   6.557
 5479SOL    HW233580   2.932   4.961   6.472
 5480SOL     OW33581   3.267   3.105   7.750
 5480SOL    HW133582   3.218   3.026   7.771
 5480SOL    HW233583   3.329   3.078   7.682
 5481SOL     OW33584   0.463   2.195   6.743
 5481SOL    HW133585   0.411   2.202   6.823
 5481SOL    HW233586   0.460   2.103   6.721
 5482SOL     OW33587   3.136   5.588   0.447
 5482SOL    HW133588   3.149   5.645   0.524
 5482SOL    HW233589   3.135   5.500   0.483
 5483SOL     OW33590   3.475   3.525   6.274
 5483SOL    HW133591   3.569   3.547   6.275
 5483SOL    HW233592   3.459   3.493   6.185
 5484SOL     OW33593   6.123   0.873   1.947
 5484SOL    HW133594   6.116   0.953   1.894
 5484SOL    HW233595   6.217   0.858   1.954
 5485SOL     OW33596   1.189   0.836   1.125
 5485SOL    HW133597   1.211   0.832   1.218
 5485SOL    HW233598   1.125   0.766   1.112
 5486SOL     OW33599   4.417   2.559   0.425
 5486SOL    HW133600   4.400   2.507   0.503
 5486SOL    HW233601   4.369   2.640   0.439
 5487SOL     OW33602   2.347   2.050   1.526
 5487SOL    HW133603   2.309   1.964   1.545
 5487SOL    HW233604   2.376   2.083   1.611
 5488SOL     OW33605   2.473   1.372   7.707
 5488SOL    HW133606   2.377   1.371   7.715
 5488SOL    HW233607   2.497   1.463   7.726
 5489SOL     OW33608   3.517   4.299   7.698
 5489SOL    HW133609   3.593   4.265   7.651
 5489SOL    HW233610   3.481   4.223   7.744
 5490SOL     OW33611   1.017   0.511   0.515
 5490SOL    HW133612   1.035   0.490   0.424
 5490SOL    HW233613   1.043   0.432   0.563
 5491SOL     OW33614   4.006   1.631   6.384
 5491SOL    HW133615   3.971   1.645   6.472
 5491SOL    HW233616   4.056   1.550   6.391
 5492SOL     OW33617   1.552   5.488   7.635
 5492SOL    HW133618   1.587   5.484   7.725
 5492SOL    HW233619   1.608   5.551   7.590
 5493SOL     OW33620   1.787   5.134   7.044
 5493SOL    HW133621   1.779   5.154   7.137
 5493SOL    HW233622   1.824   5.045   7.042
 5494SOL     OW33623   6.332   0.856   1.360
 5494SOL    HW133624   6.332   0.765   1.391
 5494SOL    HW233625   6.311   0.849   1.267
 5495SOL     OW33626   6.260   2.755   6.710
 5495SOL    HW133627   6.266   2.683   6.774
 5495SOL    HW233628   6.335   2.742   6.652
 5496SOL     OW33629   1.598   1.496   1.865
 5496SOL    HW133630   1.552   1.519   1.947
 5496SOL    HW233631   1.562   1.556   1.800
 5497SOL     OW33632   3.761   2.075   0.498
 5497SOL    HW133633   3.678   2.089   0.454
 5497SOL    HW233634   3.796   2.163   0.513
 5498SOL     OW33635   4.316   0.657   1.984
 5498SOL    HW133636   4.348   0.605   2.057
 5498SOL    HW233637   4.327   0.600   1.907
 5499SOL     OW33638   3.671   5.699   1.173
 5499SOL    HW133639   3.717   5.783   1.171
 5499SOL    HW233640   3.608   5.707   1.244
 5500SOL     OW33641   3.090   1.142   0.785
 5500SOL    HW133642   3.108   1.169   0.875
 5500SOL    HW233643   3.010   1.189   0.761
 5501SOL     OW33644   3.016   2.452   7.237
 5501SOL    HW133645   2.972   2.379   7.280
 5501SOL    HW233646   3.052   2.504   7.309
 5502SOL     OW33647   6.255   2.295   0.842
 5502SOL    HW133648   6.268   2.212   0.797
 5502SOL    HW233649   6.343   2.333   0.846
 5503SOL     OW33650   1.649   6.368   6.510
 5503SOL    HW133651   1.560   6.401   6.500
 5503SOL    HW233652   1.646   6.310   6.586
 5504SOL     OW33653   1.740   5.640   7.190
 5504SOL    HW133654   1.830   5.662   7.168
 5504SOL    HW233655   1.723   5.557   7.144
 5505SOL     OW33656   0.202   2.576   1.378
 5505SOL    HW133657   0.283   2.628   1.377
 5505SOL    HW233658   0.132   2.639   1.365
 5506SOL     OW33659   4.849   3.944   7.268
 5506SOL    HW133660   4.785   3.983   7.326
 5506SOL    HW233661   4.926   4.001   7.274
 5507SOL     OW33662   0.626   2.967   6.870
 5507SOL    HW133663   0.677   3.040   6.835
 5507SOL    HW233664   0.673   2.889   6.842
 5508SOL     OW33665   5.342   5.811   0.263
 5508SOL    HW133666   5.408   5.875   0.236
 5508SOL    HW233667   5.275   5.863   0.308
 5509SOL     OW33668   3.140   4.265   0.734
 5509SOL    HW133669   3.221   4.221   0.707
 5509SOL    HW233670   3.080   4.251   0.661
 5510SOL     OW33671   0.265   5.366   0.238
 5510SOL    HW133672   0.272   5.349   0.144
 5510SOL    HW233673   0.213   5.294   0.272
 5511SOL     OW33674   5.615   2.128   6.813
 5511SOL    HW133675   5.644   2.044   6.847
 5511SOL    HW233676   5.682   2.153   6.749
 5512SOL     OW33677   1.885   1.795   5.831
 5512SOL    HW133678   1.823   1.753   5.890
 5512SOL    HW233679   1.966   1.803   5.882
 5513SOL     OW33680   1.406   5.799   0.549
 5513SOL    HW133681   1.492   5.762   0.533
 5513SOL    HW233682   1.403   5.811   0.644
 5514SOL     OW33683   0.537   0.209   1.559
 5514SOL    HW133684   0.483   0.203   1.480
 5514SOL    HW233685   0.482   0.174   1.628
 5515SOL     OW33686   1.521   1.482   7.453
 5515SOL    HW133687   1.469   1.497   7.374
 5515SOL    HW233688   1.523   1.387   7.463
 5516SOL     OW33689   0.887   2.629   1.934
 5516SOL    HW133690   0.934   2.660   2.012
 5516SOL    HW233691   0.950   2.570   1.890
 5517SOL     OW33692   4.713   0.193   0.216
 5517SOL    HW133693   4.617   0.189   0.210
 5517SOL    HW233694   4.740   0.103   0.234
 5518SOL     OW33695   0.959   2.638   7.377
 5518SOL    HW133696   0.981   2.589   7.297
 5518SOL    HW233697   0.896   2.704   7.348
 5519SOL     OW33698   1.430   4.926   7.301
 5519SOL    HW133699   1.393   4.968   7.378
 5519SOL    HW233700   1.362   4.864   7.273
 5520SOL     OW33701   3.829   5.375   7.658
 5520SOL    HW133702   3.774   5.405   7.585
 5520SOL    HW233703   3.917   5.405   7.635
 5521SOL     OW33704   4.631   4.759   1.634
 5521SOL    HW133705   4.681   4.699   1.690
 5521SOL    HW233706   4.613   4.834   1.689
 5522SOL     OW33707   1.495   3.310   7.720
 5522SOL    HW133708   1.472   3.397   7.754
 5522SOL    HW233709   1.550   3.272   7.788
 5523SOL     OW33710   1.874   1.866   7.477
 5523SOL    HW133711   1.784   1.849   7.448
 5523SOL    HW233712   1.894   1.953   7.442
 5524SOL     OW33713   4.830   1.959   6.103
 5524SOL    HW133714   4.827   1.867   6.125
 5524SOL    HW233715   4.920   1.973   6.071
 5525SOL     OW33716   5.062   3.852   2.170
 5525SOL    HW133717   5.142   3.830   2.122
 5525SOL    HW233718   4.999   3.784   2.143
 5526SOL     OW33719   2.903   5.131   7.047
 5526SOL    HW133720   2.936   5.063   6.988
 5526SOL    HW233721   2.814   5.101   7.069
 5527SOL     OW33722   3.838   4.466   7.053
 5527SOL    HW133723   3.929   4.482   7.028
 5527SOL    HW233724   3.821   4.532   7.120
 5528SOL     OW33725   3.596   4.381   6.930
 5528SOL    HW133726   3.546   4.462   6.941
 5528SOL    HW233727   3.687   4.407   6.947
 5529SOL     OW33728   4.206   6.327   6.041
 5529SOL    HW133729   4.146   6.399   6.059
 5529SOL    HW233730   4.231   6.338   5.949
 5530SOL     OW33731   1.896   6.009   6.473
 5530SOL    HW133732   1.990   6.024   6.485
 5530SOL    HW233733   1.872   5.948   6.542
 5531SOL     OW33734   3.249   0.373   1.799
 5531SOL    HW133735   3.182   0.315   1.764
 5531SOL    HW233736   3.248   0.357   1.893
 5532SOL     OW33737   2.849   0.208   1.477
 5532SOL    HW133738   2.884   0.196   1.389
 5532SOL    HW233739   2.926   0.215   1.533
 5533SOL     OW33740   5.474   2.143   1.298
 5533SOL    HW133741   5.560   2.100   1.291
 5533SOL    HW233742   5.492   2.224   1.345
 5534SOL     OW33743   3.416   5.158   0.402
 5534SOL    HW133744   3.449   5.207   0.478
 5534SOL    HW233745   3.494   5.128   0.356
 5535SOL     OW33746   2.941   6.000   7.159
 5535SOL    HW133747   2.953   5.977   7.251
 5535SOL    HW233748   3.018   6.052   7.136
 5536SOL     OW33749   6.173   2.391   1.293
 5536SOL    HW133750   6.132   2.388   1.206
 5536SOL    HW233751   6.140   2.471   1.333
 5537SOL     OW33752   5.948   4.211   1.050
 5537SOL    HW133753   5.905   4.273   1.108
 5537SOL    HW233754   6.039   4.208   1.080
 5538SOL     OW33755   6.109   3.199   5.714
 5538SOL    HW133756   6.204   3.206   5.707
 5538SOL    HW233757   6.092   3.107   5.731
 5539SOL     OW33758   2.849   2.126   6.204
 5539SOL    HW133759   2.763   2.116   6.163
 5539SOL    HW233760   2.850   2.216   6.236
 5540SOL     OW33761   1.268   3.882   6.901
 5540SOL    HW133762   1.200   3.818   6.881
 5540SOL    HW233763   1.340   3.830   6.936
 5541SOL     OW33764   1.904   5.307   1.807
 5541SOL    HW133765   1.846   5.243   1.765
 5541SOL    HW233766   1.955   5.345   1.735
 5542SOL     OW33767   5.005   3.391   6.875
 5542SOL    HW133768   4.924   3.441   6.880
 5542SOL    HW233769   5.070   3.454   6.843
 5543SOL     OW33770   0.512   5.296   6.570
 5543SOL    HW133771   0.428   5.285   6.615
 5543SOL    HW233772   0.570   5.335   6.636
 5544SOL     OW33773   4.226   0.890   6.881
 5544SOL    HW133774   4.172   0.812   6.873
 5544SOL    HW233775   4.292   0.881   6.813
 5545SOL     OW33776   6.027   1.023   1.391
 5545SOL    HW133777   5.991   1.105   1.424
 5545SOL    HW233778   6.080   1.049   1.315
 5546SOL     OW33779   3.914   2.148   7.067
 5546SOL    HW133780   3.985   2.084   7.070
 5546SOL    HW233781   3.903   2.177   7.157
 5547SOL     OW33782   3.639   6.007   6.875
 5547SOL    HW133783   3.714   5.980   6.928
 5547SOL    HW233784   3.640   5.949   6.800
 5548SOL     OW33785   1.533   3.540   1.197
 5548SOL    HW133786   1.453   3.545   1.144
 5548SOL    HW233787   1.573   3.627   1.189
 5549SOL     OW33788   5.341   3.489   1.688
 5549SOL    HW133789   5.360   3.505   1.780
 5549SOL    HW233790   5.364   3.571   1.644
 5550SOL     OW33791   5.232   4.654   1.790
 5550SOL    HW133792   5.175   4.729   1.773
 5550SOL    HW233793   5.176   4.590   1.834
 5551SOL     OW33794   4.041   0.182   0.497
 5551SOL    HW133795   4.059   0.146   0.410
 5551SOL    HW233796   3.968   0.130   0.530
 5552SOL     OW33797   2.148   2.750   0.354
 5552SOL    HW133798   2.096   2.679   0.316
 5552SOL    HW233799   2.096   2.829   0.337
 5553SOL     OW33800   5.820   1.038   7.647
 5553SOL    HW133801   5.837   1.089   7.727
 5553SOL    HW233802   5.883   1.071   7.583
 5554SOL     OW33803   1.399   6.232   7.919
 5554SOL    HW133804   1.452   6.161   7.953
 5554SOL    HW233805   1.321   6.190   7.884
 5555SOL     OW33806   1.191   4.134   1.448
 5555SOL    HW133807   1.139   4.074   1.502
 5555SOL    HW233808   1.170   4.221   1.483
 5556SOL     OW33809   3.291   3.505   6.984
 5556SOL    HW133810   3.204   3.494   7.022
 5556SOL    HW233811   3.343   3.545   7.053
 5557SOL     OW33812   3.784   2.852   1.337
 5557SOL    HW133813   3.786   2.931   1.391
 5557SOL    HW233814   3.876   2.836   1.316
 5558SOL     OW33815   4.413   3.858   1.168
 5558SOL    HW133816   4.332   3.836   1.213
 5558SOL    HW233817   4.480   3.852   1.236
 5559SOL     OW33818   5.126   0.750   6.011
 5559SOL    HW133819   5.150   0.691   6.082
 5559SOL    HW233820   5.122   0.837   6.052
 5560SOL     OW33821   2.529   3.094   6.719
 5560SOL    HW133822   2.590   3.147   6.769
 5560SOL    HW233823   2.508   3.147   6.642
 5561SOL     OW33824   2.577   5.352   1.078
 5561SOL    HW133825   2.670   5.361   1.097
 5561SOL    HW233826   2.538   5.433   1.112
 5562SOL     OW33827   1.072   5.951   1.008
 5562SOL    HW133828   0.981   5.978   0.998
 5562SOL    HW233829   1.115   6.027   1.048
 5563SOL     OW33830   0.837   5.904   6.551
 5563SOL    HW133831   0.899   5.917   6.479
 5563SOL    HW233832   0.792   5.822   6.530
 5564SOL     OW33833   2.559   5.860   1.649
 5564SOL    HW133834   2.563   5.845   1.743
 5564SOL    HW233835   2.537   5.953   1.641
 5565SOL     OW33836   0.971   3.772   7.045
 5565SOL    HW133837   0.975   3.755   6.951
 5565SOL    HW233838   1.062   3.780   7.072
 5566SOL     OW33839   4.240   2.875   7.273
 5566SOL    HW133840   4.223   2.969   7.262
 5566SOL    HW233841   4.334   2.870   7.290
 5567SOL     OW33842   1.117   5.663   0.896
 5567SOL    HW133843   1.147   5.748   0.929
 5567SOL    HW233844   1.022   5.667   0.905
 5568SOL     OW33845   4.758   4.373   5.865
 5568SOL    HW133846   4.674   4.371   5.910
 5568SOL    HW233847   4.738   4.350   5.774
 5569SOL     OW33848   2.766   1.075   7.886
 5569SOL    HW133849   2.707   1.071   7.961
 5569SOL    HW233850   2.709   1.062   7.811
 5570SOL     OW33851   3.354   2.165   5.597
 5570SOL    HW133852   3.364   2.168   5.501
 5570SOL    HW233853   3.263   2.140   5.611
 5571SOL     OW33854   0.495   2.647   5.630
 5571SOL    HW133855   0.483   2.575   5.568
 5571SOL    HW233856   0.583   2.681   5.609
 5572SOL     OW33857   5.244   1.290   1.270
 5572SOL    HW133858   5.248   1.231   1.195
 5572SOL    HW233859   5.245   1.232   1.346
 5573SOL     OW33860   5.192   4.904   1.096
 5573SOL    HW133861   5.104   4.871   1.116
 5573SOL    HW233862   5.240   4.895   1.178
 5574SOL     OW33863   2.538   1.753   1.019
 5574SOL    HW133864   2.480   1.793   1.084
 5574SOL    HW233865   2.498   1.669   0.999
 5575SOL     OW33866   2.775   1.482   6.581
 5575SOL    HW133867   2.772   1.528   6.665
 5575SOL    HW233868   2.864   1.498   6.549
 5576SOL     OW33869   0.241   1.150   6.597
 5576SOL    HW133870   0.260   1.071   6.546
 5576SOL    HW233871   0.182   1.120   6.666
 5577SOL     OW33872   2.899   5.871   0.346
 5577SOL    HW133873   2.856   5.786   0.348
 5577SOL    HW233874   2.858   5.917   0.272
 5578SOL     OW33875   0.160   1.719   6.592
 5578SOL    HW133876   0.097   1.666   6.640
 5578SOL    HW233877   0.242   1.670   6.598
 5579SOL     OW33878   6.073   2.359   1.033
 5579SOL    HW133879   6.010   2.287   1.030
 5579SOL    HW233880   6.140   2.336   0.969
 5580SOL     OW33881   4.176   0.449   0.161
 5580SOL    HW133882   4.245   0.434   0.225
 5580SOL    HW233883   4.208   0.522   0.107
 5581SOL     OW33884   6.244   6.300   6.513
 5581SOL    HW133885   6.318   6.310   6.453
 5581SOL    HW233886   6.257   6.367   6.580
 5582SOL     OW33887   4.300   5.436   6.755
 5582SOL    HW133888   4.292   5.521   6.712
 5582SOL    HW233889   4.244   5.378   6.703
 5583SOL     OW33890   1.275   1.548   6.918
 5583SOL    HW133891   1.221   1.619   6.882
 5583SOL    HW233892   1.217   1.472   6.920
 5584SOL     OW33893   2.868   0.079   4.724
 5584SOL    HW133894   2.891  -0.014   4.726
 5584SOL    HW233895   2.952   0.123   4.712
 5585SOL     OW33896   1.468   4.057   6.871
 5585SOL    HW133897   1.388   4.006   6.886
 5585SOL    HW233898   1.527   3.998   6.825
 5586SOL     OW33899   4.464   4.620   0.096
 5586SOL    HW133900   4.504   4.553   0.152
 5586SOL    HW233901   4.501   4.604   0.009
 5587SOL     OW33902   2.116   3.220   6.455
 5587SOL    HW133903   2.071   3.150   6.409
 5587SOL    HW233904   2.135   3.183   6.542
 5588SOL     OW33905   6.214   3.792   5.522
 5588SOL    HW133906   6.125   3.755   5.517
 5588SOL    HW233907   6.203   3.876   5.565
 5589SOL     OW33908   1.450   2.659   2.003
 5589SOL    HW133909   1.468   2.638   2.095
 5589SOL    HW233910   1.515   2.724   1.980
 5590SOL     OW33911   2.809   4.294   7.796
 5590SOL    HW133912   2.868   4.339   7.856
 5590SOL    HW233913   2.855   4.214   7.771
 5591SOL     OW33914   0.226   6.211   7.736
 5591SOL    HW133915   0.168   6.136   7.721
 5591SOL    HW233916   0.258   6.198   7.826
 5592SOL     OW33917   0.117   5.931   7.053
 5592SOL    HW133918   0.206   5.940   7.087
 5592SOL    HW233919   0.126   5.933   6.958
 5593SOL     OW33920   0.556   6.127   5.999
 5593SOL    HW133921   0.631   6.073   5.976
 5593SOL    HW233922   0.481   6.081   5.962
 5594SOL     OW33923   6.151   4.509   7.456
 5594SOL    HW133924   6.111   4.559   7.385
 5594SOL    HW233925   6.188   4.576   7.514
 5595SOL     OW33926   1.110   0.969   7.240
 5595SOL    HW133927   1.051   1.037   7.207
 5595SOL    HW233928   1.175   0.958   7.170
 5596SOL     OW33929   5.425   2.533   6.120
 5596SOL    HW133930   5.422   2.591   6.196
 5596SOL    HW233931   5.384   2.452   6.150
 5597SOL     OW33932   5.590   3.947   2.471
 5597SOL    HW133933   5.517   3.891   2.498
 5597SOL    HW233934   5.555   4.036   2.477
 5598SOL     OW33935   5.544   1.042   0.518
 5598SOL    HW133936   5.527   1.129   0.553
 5598SOL    HW233937   5.459   1.013   0.484
 5599SOL     OW33938   6.314   0.928   7.014
 5599SOL    HW133939   6.338   0.837   7.031
 5599SOL    HW233940   6.252   0.950   7.084
 5600SOL     OW33941   3.073   2.042   2.052
 5600SOL    HW133942   3.066   2.135   2.030
 5600SOL    HW233943   3.009   1.999   1.995
 5601SOL     OW33944   1.729   4.855   1.070
 5601SOL    HW133945   1.656   4.911   1.044
 5601SOL    HW233946   1.688   4.772   1.096
 5602SOL     OW33947   3.043   5.267   5.923
 5602SOL    HW133948   2.987   5.252   5.999
 5602SOL    HW233949   2.985   5.305   5.857
 5603SOL     OW33950   6.295   2.456   0.110
 5603SOL    HW133951   6.225   2.499   0.158
 5603SOL    HW233952   6.347   2.412   0.177
 5604SOL     OW33953   2.903   0.874   0.185
 5604SOL    HW133954   2.818   0.849   0.149
 5604SOL    HW233955   2.912   0.821   0.264
 5605SOL     OW33956   3.654   6.254   1.930
 5605SOL    HW133957   3.665   6.162   1.954
 5605SOL    HW233958   3.603   6.292   2.003
 5606SOL     OW33959   2.818   5.263   5.475
 5606SOL    HW133960   2.794   5.172   5.495
 5606SOL    HW233961   2.761   5.288   5.403
 5607SOL     OW33962   6.344   2.148   1.304
 5607SOL    HW133963   6.416   2.171   1.363
 5607SOL    HW233964   6.308   2.233   1.277
 5608SOL     OW33965   1.634   6.237   6.749
 5608SOL    HW133966   1.545   6.271   6.763
 5608SOL    HW233967   1.630   6.147   6.781
 5609SOL     OW33968   5.327   0.474   0.585
 5609SOL    HW133969   5.361   0.423   0.658
 5609SOL    HW233970   5.284   0.550   0.625
 5610SOL     OW33971   1.306   4.478   6.862
 5610SOL    HW133972   1.214   4.476   6.837
 5610SOL    HW233973   1.349   4.528   6.793
 5611SOL     OW33974   1.023   0.597   6.201
 5611SOL    HW133975   0.929   0.597   6.222
 5611SOL    HW233976   1.034   0.521   6.144
 5612SOL     OW33977   3.899   3.547   5.507
 5612SOL    HW133978   3.937   3.599   5.436
 5612SOL    HW233979   3.953   3.568   5.584
 5613SOL     OW33980   1.997   5.114   0.624
 5613SOL    HW133981   2.024   5.174   0.555
 5613SOL    HW233982   2.012   5.162   0.705
 5614SOL     OW33983   2.847   1.838   5.544
 5614SOL    HW133984   2.758   1.822   5.512
 5614SOL    HW233985   2.850   1.932   5.560
 5615SOL     OW33986   4.283   1.960   7.854
 5615SOL    HW133987   4.271   1.896   7.784
 5615SOL    HW233988   4.377   1.979   7.853
 5616SOL     OW33989   0.306   3.516   6.732
 5616SOL    HW133990   0.356   3.454   6.786
 5616SOL    HW233991   0.346   3.601   6.750
 5617SOL     OW33992   5.874   1.903   5.250
 5617SOL    HW133993   5.947   1.934   5.303
 5617SOL    HW233994   5.876   1.958   5.172
 5618SOL     OW33995   2.484   3.520   0.641
 5618SOL    HW133996   2.469   3.478   0.725
 5618SOL    HW233997   2.397   3.524   0.600
 5619SOL     OW33998   2.970   2.881   7.205
 5619SOL    HW133999   2.961   2.946   7.136
 5619SOL    HW234000   3.022   2.811   7.166
 5620SOL     OW34001   4.447   2.728   6.758
 5620SOL    HW134002   4.399   2.718   6.840
 5620SOL    HW234003   4.537   2.744   6.784
 5621SOL     OW34004   5.874   1.463   6.509
 5621SOL    HW134005   5.860   1.558   6.519
 5621SOL    HW234006   5.794   1.432   6.466
 5622SOL     OW34007   4.556   4.394   6.761
 5622SOL    HW134008   4.565   4.351   6.846
 5622SOL    HW234009   4.516   4.479   6.781
 5623SOL     OW34010   0.287   5.857   1.470
 5623SOL    HW134011   0.193   5.852   1.450
 5623SOL    HW234012   0.290   5.874   1.564
 5624SOL     OW34013   4.588   5.056   1.726
 5624SOL    HW134014   4.628   5.140   1.748
 5624SOL    HW234015   4.555   5.022   1.809
 5625SOL     OW34016   3.573   2.851   5.568
 5625SOL    HW134017   3.598   2.942   5.558
 5625SOL    HW234018   3.576   2.835   5.663
 5626SOL     OW34019   3.737   4.820   6.800
 5626SOL    HW134020   3.717   4.902   6.754
 5626SOL    HW234021   3.726   4.842   6.893
 5627SOL     OW34022   2.690   4.974   1.698
 5627SOL    HW134023   2.637   4.975   1.778
 5627SOL    HW234024   2.694   4.882   1.673
 5628SOL     OW34025   5.846   3.743   7.845
 5628SOL    HW134026   5.757   3.734   7.878
 5628SOL    HW234027   5.873   3.831   7.872
 5629SOL     OW34028   1.829   4.855   0.198
 5629SOL    HW134029   1.786   4.770   0.190
 5629SOL    HW234030   1.896   4.855   0.130
 5630SOL     OW34031   1.972   4.546   2.430
 5630SOL    HW134032   2.029   4.622   2.422
 5630SOL    HW234033   1.890   4.572   2.387
 5631SOL     OW34034   0.871   4.296   7.646
 5631SOL    HW134035   0.885   4.206   7.675
 5631SOL    HW234036   0.850   4.344   7.725
 5632SOL     OW34037   0.930   4.052   0.633
 5632SOL    HW134038   0.959   4.102   0.556
 5632SOL    HW234039   0.992   3.980   0.639
 5633SOL     OW34040   1.946   5.500   0.344
 5633SOL    HW134041   2.000   5.542   0.277
 5633SOL    HW234042   1.866   5.552   0.346
 5634SOL     OW34043   3.638   5.141   7.571
 5634SOL    HW134044   3.644   5.133   7.666
 5634SOL    HW234045   3.729   5.136   7.541
 5635SOL     OW34046   1.608   4.082   0.611
 5635SOL    HW134047   1.695   4.045   0.626
 5635SOL    HW234048   1.608   4.108   0.519
 5636SOL     OW34049   0.761   4.547   1.915
 5636SOL    HW134050   0.759   4.495   1.996
 5636SOL    HW234051   0.849   4.586   1.914
 5637SOL     OW34052   5.938   4.625   1.761
 5637SOL    HW134053   6.000   4.692   1.732
 5637SOL    HW234054   5.950   4.621   1.856
 5638SOL     OW34055   5.689   2.251   0.076
 5638SOL    HW134056   5.754   2.275   0.142
 5638SOL    HW234057   5.619   2.209   0.126
 5639SOL     OW34058   4.409   6.310   1.022
 5639SOL    HW134059   4.488   6.318   0.968
 5639SOL    HW234060   4.374   6.399   1.025
 5640SOL     OW34061   1.492   2.097   1.995
 5640SOL    HW134062   1.432   2.025   2.012
 5640SOL    HW234063   1.447   2.174   2.030
 5641SOL     OW34064   2.518   4.531   7.508
 5641SOL    HW134065   2.596   4.478   7.495
 5641SOL    HW234066   2.539   4.585   7.584
 5642SOL     OW34067   5.228   1.466   0.972
 5642SOL    HW134068   5.216   1.546   0.921
 5642SOL    HW234069   5.145   1.454   1.019
 5643SOL     OW34070   0.178   5.580   1.679
 5643SOL    HW134071   0.243   5.651   1.678
 5643SOL    HW234072   0.104   5.614   1.628
 5644SOL     OW34073   3.527   6.021   0.313
 5644SOL    HW134074   3.595   6.021   0.246
 5644SOL    HW234075   3.485   5.935   0.305
 5645SOL     OW34076   5.235   2.435   6.461
 5645SOL    HW134077   5.144   2.451   6.436
 5645SOL    HW234078   5.258   2.508   6.519
 5646SOL     OW34079   2.497   2.977   0.082
 5646SOL    HW134080   2.427   2.911   0.085
 5646SOL    HW234081   2.488   3.017  -0.004
 5647SOL     OW34082   4.305   4.210   7.581
 5647SOL    HW134083   4.254   4.131   7.566
 5647SOL    HW234084   4.286   4.265   7.505
 5648SOL     OW34085   5.674   5.466   7.851
 5648SOL    HW134086   5.636   5.506   7.773
 5648SOL    HW234087   5.638   5.516   7.923
 5649SOL     OW34088   3.133   5.042   0.506
 5649SOL    HW134089   3.100   4.959   0.541
 5649SOL    HW234090   3.216   5.018   0.465
 5650SOL     OW34091   0.046   1.414   2.210
 5650SOL    HW134092  -0.044   1.438   2.232
 5650SOL    HW234093   0.071   1.475   2.140
 5651SOL     OW34094   0.263   0.213   7.912
 5651SOL    HW134095   0.232   0.304   7.905
 5651SOL    HW234096   0.351   0.221   7.948
 5652SOL     OW34097   4.680   3.507   1.128
 5652SOL    HW134098   4.605   3.469   1.084
 5652SOL    HW234099   4.755   3.456   1.097
 5653SOL     OW34100   5.324   2.062   7.532
 5653SOL    HW134101   5.366   2.136   7.488
 5653SOL    HW234102   5.374   1.985   7.503
 5654SOL     OW34103   2.448   4.359   0.061
 5654SOL    HW134104   2.495   4.331   0.140
 5654SOL    HW234105   2.376   4.412   0.094
 5655SOL     OW34106   1.532   0.260   1.285
 5655SOL    HW134107   1.450   0.266   1.237
 5655SOL    HW234108   1.514   0.303   1.369
 5656MOL     C134109   4.044   3.024   6.954
 5656MOL     C234110   3.959   2.906   6.933
 5656MOL     N134111   3.850   3.181   6.930
 5656MOL     N234112   3.847   2.892   6.996
 5656MOL     C334113   3.754   3.123   7.010
 5656MOL     C434114   3.800   2.998   7.085
 5656MOL     H134115   3.875   3.021   7.161
 5656MOL     H234116   3.710   2.959   7.134
 5656MOL     C534117   4.068   3.266   6.946
 5656MOL     C634118   4.204   3.260   6.976
 5656MOL     C734119   3.988   3.151   6.936
 5656MOL     C834120   4.255   3.132   7.002
 5656MOL     C934121   4.181   3.015   6.981
 5656MOL     H334122   4.262   3.352   6.974
 5656MOL     H434123   4.233   2.920   6.979
 5656MOL     H534124   4.024   3.362   6.920
 5656MOL     O134125   3.642   3.172   7.012
 5656MOL    C1034126   3.999   2.802   6.836
 5656MOL    C1134127   3.974   2.667   6.864
 5656MOL     N334128   4.043   2.837   6.714
 5656MOL    C1234129   3.997   2.571   6.765
 5656MOL    C1334130   4.069   2.747   6.619
 5656MOL    C1434131   4.062   2.610   6.647
 5656MOL     H634132   3.945   2.641   6.965
 5656MOL     H734133   3.986   2.468   6.797
 5656MOL     H834134   4.114   2.785   6.528
 5656MOL     H934135   4.094   2.542   6.569
 5656MOL    H1034136   3.827   3.276   6.903
 5656MOL    BR134137   4.444   3.122   7.022
 5656MOL     EP34138   4.644   3.110   7.043
   6.39857   6.39857   7.94347
