POPC bilayer and 5FIBZ with EP hydrated t= 10960.00000 step= 480000
34138
    1PA    C116    1   1.754   5.669   4.125
    1PA    H16R    2   1.707   5.655   4.028
    1PA    H16S    3   1.733   5.578   4.183
    1PA    H16T    4   1.862   5.682   4.115
    1PA    C115    5   1.694   5.784   4.207
    1PA    H15R    6   1.732   5.782   4.309
    1PA    H15S    7   1.723   5.872   4.148
    1PA    C114    8   1.541   5.773   4.213
    1PA    H14R    9   1.496   5.769   4.114
    1PA    H14S   10   1.514   5.682   4.266
    1PA    C113   11   1.476   5.897   4.277
    1PA    H13R   12   1.541   5.984   4.261
    1PA    H13S   13   1.378   5.910   4.231
    1PA    C112   14   1.451   5.871   4.426
    1PA    H12R   15   1.396   5.777   4.439
    1PA    H12S   16   1.543   5.873   4.485
    1PA    C111   17   1.365   5.989   4.473
    1PA    H11R   18   1.421   6.081   4.493
    1PA    H11S   19   1.297   6.006   4.389
    1PA    C110   20   1.290   5.953   4.602
    1PA    H10R   21   1.197   6.008   4.620
    1PA    H10S   22   1.275   5.845   4.606
    1PA     C19   23   1.375   5.990   4.724
    1PA     H9R   24   1.474   5.945   4.716
    1PA     H9S   25   1.392   6.097   4.712
    1PA     C18   26   1.292   5.955   4.848
    1PA     H8R   27   1.193   6.000   4.840
    1PA     H8S   28   1.272   5.848   4.852
    1PA     C17   29   1.360   5.991   4.981
    1PA     H7R   30   1.332   6.095   4.999
    1PA     H7S   31   1.319   5.921   5.055
    1PA     C16   32   1.513   5.988   4.982
    1PA     H6R   33   1.535   5.899   4.922
    1PA     H6S   34   1.540   6.084   4.938
    1PA     C15   35   1.571   5.985   5.124
    1PA     H5R   36   1.558   5.887   5.170
    1PA     H5S   37   1.678   6.005   5.122
    1PA     C14   38   1.510   6.084   5.224
    1PA     H4R   39   1.519   6.185   5.182
    1PA     H4S   40   1.406   6.054   5.237
    1PA     C13   41   1.589   6.071   5.355
    1PA     H3R   42   1.565   5.970   5.387
    1PA     H3S   43   1.695   6.087   5.334
    1PA     C12   44   1.541   6.154   5.476
    1PA     H2R   45   1.565   6.258   5.450
    1PA     H2S   46   1.432   6.155   5.483
    2PC     C11   47   1.587   6.106   5.611
    2PC     O12   48   1.543   6.145   5.717
    2PC     O11   49   1.687   6.016   5.608
    2PC      C1   50   1.729   5.932   5.717
    2PC      HR   51   1.818   5.874   5.690
    2PC      HS   52   1.747   5.981   5.813
    2PC      C2   53   1.608   5.842   5.748
    2PC      HX   54   1.521   5.897   5.783
    2PC      C3   55   1.630   5.740   5.861
    2PC      HA   56   1.688   5.653   5.830
    2PC      HB   57   1.686   5.783   5.945
    2PC     O31   58   1.499   5.700   5.908
    2PC     P31   59   1.510   5.591   6.024
    2PC     O32   60   1.473   5.674   6.156
    2PC     C31   61   1.574   5.690   6.257
    2PC     H1A   62   1.635   5.599   6.265
    2PC     H1B   63   1.635   5.776   6.226
    2PC     C32   64   1.513   5.728   6.392
    2PC     H2A   65   1.590   5.764   6.461
    2PC     H2B   66   1.439   5.806   6.376
    2PC     N31   67   1.448   5.621   6.474
    2PC     C33   68   1.541   5.506   6.502
    2PC     H3A   69   1.642   5.538   6.527
    2PC     H3B   70   1.514   5.459   6.596
    2PC     H3C   71   1.544   5.436   6.419
    2PC     C34   72   1.416   5.688   6.604
    2PC     H4A   73   1.508   5.733   6.643
    2PC     H4B   74   1.340   5.759   6.570
    2PC     H4C   75   1.362   5.623   6.672
    2PC     C35   76   1.325   5.568   6.406
    2PC     H5A   77   1.297   5.467   6.434
    2PC     H5B   78   1.335   5.576   6.297
    2PC     H5C   79   1.249   5.635   6.446
    2PC     O33   80   1.409   5.483   6.022
    2PC     O34   81   1.637   5.517   6.045
    2PC     O21   82   1.589   5.766   5.628
    2PC     C21   83   1.462   5.739   5.594
    2PC     O22   84   1.368   5.799   5.642
    3OL     C12   85   1.439   5.630   5.492
    3OL     H2R   86   1.350   5.649   5.433
    3OL     H2S   87   1.436   5.533   5.541
    3OL     C13   88   1.551   5.633   5.388
    3OL     H3R   89   1.640   5.601   5.443
    3OL     H3S   90   1.568   5.738   5.360
    3OL     C14   91   1.530   5.524   5.282
    3OL     H4R   92   1.489   5.433   5.325
    3OL     H4S   93   1.627   5.508   5.234
    3OL     C15   94   1.436   5.576   5.172
    3OL     H5R   95   1.485   5.665   5.132
    3OL     H5S   96   1.345   5.608   5.222
    3OL     C16   97   1.407   5.480   5.056
    3OL     H6R   98   1.341   5.405   5.100
    3OL     H6S   99   1.499   5.429   5.023
    3OL     C17  100   1.335   5.552   4.942
    3OL     H7R  101   1.400   5.635   4.913
    3OL     H7S  102   1.253   5.608   4.988
    3OL     C18  103   1.282   5.463   4.828
    3OL     H8R  104   1.224   5.379   4.868
    3OL     H8S  105   1.366   5.430   4.768
    3OL     C19  106   1.204   5.551   4.734
    3OL     H9R  107   1.261   5.614   4.666
    3OL    C110  108   1.073   5.560   4.713
    3OL    H10R  109   1.037   5.627   4.635
    3OL    C111  110   0.977   5.461   4.774
    3OL    H11R  111   0.977   5.431   4.879
    3OL    H11S  112   1.003   5.368   4.723
    3OL    C112  113   0.832   5.503   4.750
    3OL    H12R  114   0.760   5.422   4.765
    3OL    H12S  115   0.821   5.534   4.646
    3OL    C113  116   0.792   5.610   4.853
    3OL    H13R  117   0.870   5.687   4.857
    3OL    H13S  118   0.801   5.569   4.954
    3OL    C114  119   0.654   5.674   4.833
    3OL    H14R  120   0.586   5.590   4.815
    3OL    H14S  121   0.672   5.740   4.748
    3OL    C115  122   0.611   5.765   4.949
    3OL    H15R  123   0.552   5.827   4.881
    3OL    H15S  124   0.684   5.836   4.989
    3OL    C116  125   0.526   5.699   5.058
    3OL    H16R  126   0.444   5.642   5.013
    3OL    H16S  127   0.472   5.778   5.110
    3OL    C117  128   0.610   5.616   5.156
    3OL    H17R  129   0.696   5.669   5.197
    3OL    H17S  130   0.643   5.528   5.100
    3OL    C118  131   0.529   5.560   5.273
    3OL    H18R  132   0.592   5.487   5.324
    3OL    H18S  133   0.438   5.512   5.234
    3OL    H18T  134   0.509   5.642   5.343
    1PA    C116  135   1.164   4.414   4.095
    1PA    H16R  136   1.205   4.348   4.018
    1PA    H16S  137   1.186   4.518   4.070
    1PA    H16T  138   1.055   4.406   4.096
    1PA    C115  139   1.233   4.375   4.226
    1PA    H15R  140   1.217   4.269   4.250
    1PA    H15S  141   1.341   4.376   4.207
    1PA    C114  142   1.191   4.462   4.344
    1PA    H14R  143   1.209   4.567   4.320
    1PA    H14S  144   1.083   4.458   4.362
    1PA    C113  145   1.277   4.436   4.468
    1PA    H13R  146   1.273   4.335   4.510
    1PA    H13S  147   1.384   4.452   4.451
    1PA    C112  148   1.230   4.536   4.574
    1PA    H12R  149   1.314   4.555   4.641
    1PA    H12S  150   1.212   4.639   4.542
    1PA    C111  151   1.118   4.483   4.665
    1PA    H11R  152   1.044   4.453   4.591
    1PA    H11S  153   1.145   4.390   4.716
    1PA    C110  154   1.052   4.593   4.749
    1PA    H10R  155   1.016   4.668   4.679
    1PA    H10S  156   0.959   4.560   4.797
    1PA     C19  157   1.154   4.645   4.851
    1PA     H9R  158   1.186   4.552   4.898
    1PA     H9S  159   1.243   4.696   4.814
    1PA     C18  160   1.097   4.752   4.945
    1PA     H8R  161   1.178   4.789   5.009
    1PA     H8S  162   1.065   4.837   4.884
    1PA     C17  163   0.982   4.695   5.029
    1PA     H7R  164   0.945   4.788   5.074
    1PA     H7S  165   0.892   4.670   4.972
    1PA     C16  166   1.013   4.582   5.128
    1PA     H6R  167   1.057   4.500   5.072
    1PA     H6S  168   1.095   4.604   5.197
    1PA     C15  169   0.894   4.515   5.198
    1PA     H5R  170   0.828   4.490   5.115
    1PA     H5S  171   0.923   4.426   5.254
    1PA     C14  172   0.829   4.619   5.290
    1PA     H4R  173   0.831   4.718   5.242
    1PA     H4S  174   0.726   4.588   5.308
    1PA     C13  175   0.893   4.634   5.429
    1PA     H3R  176   0.869   4.545   5.488
    1PA     H3S  177   1.002   4.643   5.421
    1PA     C12  178   0.848   4.762   5.501
    1PA     H2R  179   0.838   4.854   5.442
    1PA     H2S  180   0.751   4.738   5.544
    2PC     C11  181   0.925   4.792   5.627
    2PC     O12  182   1.035   4.842   5.622
    2PC     O11  183   0.846   4.778   5.735
    2PC      C1  184   0.901   4.780   5.868
    2PC      HR  185   0.947   4.876   5.892
    2PC      HS  186   0.824   4.758   5.943
    2PC      C2  187   1.011   4.677   5.895
    2PC      HX  188   0.980   4.578   5.860
    2PC      C3  189   1.042   4.652   6.043
    2PC      HA  190   0.953   4.611   6.091
    2PC      HB  191   1.127   4.586   6.065
    2PC     O31  192   1.068   4.772   6.118
    2PC     P31  193   1.067   4.766   6.278
    2PC     O32  194   0.914   4.727   6.307
    2PC     C31  195   0.894   4.669   6.437
    2PC     H1A  196   0.967   4.589   6.446
    2PC     H1B  197   0.922   4.742   6.513
    2PC     C32  198   0.744   4.638   6.439
    2PC     H2A  199   0.685   4.721   6.400
    2PC     H2B  200   0.725   4.559   6.367
    2PC     N31  201   0.697   4.605   6.578
    2PC     C33  202   0.553   4.564   6.573
    2PC     H3A  203   0.520   4.536   6.673
    2PC     H3B  204   0.482   4.641   6.540
    2PC     H3C  205   0.548   4.480   6.504
    2PC     C34  206   0.769   4.491   6.644
    2PC     H4A  207   0.738   4.469   6.746
    2PC     H4B  208   0.752   4.394   6.597
    2PC     H4C  209   0.876   4.509   6.635
    2PC     C35  210   0.692   4.731   6.659
    2PC     H5A  211   0.792   4.777   6.662
    2PC     H5B  212   0.662   4.713   6.762
    2PC     H5C  213   0.621   4.799   6.612
    2PC     O33  214   1.185   4.684   6.315
    2PC     O34  215   1.090   4.900   6.335
    2PC     O21  216   1.140   4.714   5.842
    2PC     C21  217   1.227   4.614   5.818
    2PC     O22  218   1.209   4.500   5.856
    3OL     C12  219   1.341   4.660   5.731
    3OL     H2R  220   1.417   4.706   5.795
    3OL     H2S  221   1.306   4.740   5.665
    3OL     C13  222   1.400   4.557   5.634
    3OL     H3R  223   1.400   4.461   5.686
    3OL     H3S  224   1.504   4.582   5.613
    3OL     C14  225   1.318   4.546   5.505
    3OL     H4R  226   1.218   4.568   5.543
    3OL     H4S  227   1.317   4.439   5.483
    3OL     C15  228   1.360   4.641   5.392
    3OL     H5R  229   1.416   4.720   5.442
    3OL     H5S  230   1.277   4.685   5.337
    3OL     C16  231   1.454   4.565   5.297
    3OL     H6R  232   1.407   4.475   5.256
    3OL     H6S  233   1.533   4.516   5.354
    3OL     C17  234   1.506   4.666   5.194
    3OL     H7R  235   1.567   4.738   5.249
    3OL     H7S  236   1.434   4.730   5.143
    3OL     C18  237   1.592   4.599   5.085
    3OL     H8R  238   1.517   4.538   5.033
    3OL     H8S  239   1.656   4.539   5.150
    3OL     C19  240   1.660   4.708   5.008
    3OL     H9R  241   1.697   4.790   5.069
    3OL    C110  242   1.654   4.722   4.877
    3OL    H10R  243   1.686   4.817   4.833
    3OL    C111  244   1.587   4.625   4.783
    3OL    H11R  245   1.550   4.671   4.691
    3OL    H11S  246   1.492   4.587   4.823
    3OL    C112  247   1.681   4.508   4.751
    3OL    H12R  248   1.644   4.447   4.668
    3OL    H12S  249   1.689   4.446   4.840
    3OL    C113  250   1.825   4.544   4.712
    3OL    H13R  251   1.879   4.574   4.803
    3OL    H13S  252   1.838   4.621   4.637
    3OL    C114  253   1.885   4.412   4.661
    3OL    H14R  254   1.851   4.322   4.713
    3OL    H14S  255   1.992   4.432   4.672
    3OL    C115  256   1.868   4.399   4.509
    3OL    H15R  257   1.930   4.474   4.459
    3OL    H15S  258   1.766   4.402   4.471
    3OL    C116  259   1.915   4.264   4.453
    3OL    H16R  260   1.858   4.181   4.496
    3OL    H16S  261   2.019   4.243   4.477
    3OL    C117  262   1.888   4.268   4.302
    3OL    H17R  263   1.946   4.352   4.261
    3OL    H17S  264   1.781   4.282   4.284
    3OL    C118  265   1.940   4.143   4.230
    3OL    H18R  266   1.921   4.146   4.123
    3OL    H18S  267   1.886   4.053   4.262
    3OL    H18T  268   2.046   4.130   4.255
    1PA    C116  269  -0.353   4.958   4.289
    1PA    H16R  270  -0.383   5.063   4.296
    1PA    H16S  271  -0.441   4.893   4.295
    1PA    H16T  272  -0.303   4.934   4.195
    1PA    C115  273  -0.252   4.946   4.405
    1PA    H15R  274  -0.169   5.001   4.362
    1PA    H15S  275  -0.290   4.994   4.496
    1PA    C114  276  -0.193   4.807   4.431
    1PA    H14R  277  -0.269   4.745   4.479
    1PA    H14S  278  -0.159   4.771   4.333
    1PA    C113  279  -0.066   4.808   4.516
    1PA    H13R  280   0.004   4.873   4.461
    1PA    H13S  281  -0.077   4.868   4.606
    1PA    C112  282  -0.002   4.676   4.562
    1PA    H12R  283  -0.080   4.624   4.618
    1PA    H12S  284   0.026   4.616   4.476
    1PA    C111  285   0.113   4.699   4.661
    1PA    H11R  286   0.071   4.763   4.738
    1PA    H11S  287   0.125   4.601   4.708
    1PA    C110  288   0.242   4.752   4.596
    1PA    H10R  289   0.295   4.672   4.544
    1PA    H10S  290   0.221   4.825   4.517
    1PA     C19  291   0.348   4.816   4.686
    1PA     H9R  292   0.437   4.855   4.636
    1PA     H9S  293   0.290   4.883   4.751
    1PA     C18  294   0.408   4.708   4.777
    1PA     H8R  295   0.329   4.671   4.842
    1PA     H8S  296   0.443   4.625   4.715
    1PA     C17  297   0.526   4.749   4.866
    1PA     H7R  298   0.593   4.663   4.866
    1PA     H7S  299   0.569   4.842   4.827
    1PA     C16  300   0.469   4.770   5.006
    1PA     H6R  301   0.403   4.857   5.006
    1PA     H6S  302   0.415   4.683   5.043
    1PA     C15  303   0.581   4.804   5.106
    1PA     H5R  304   0.640   4.712   5.115
    1PA     H5S  305   0.646   4.877   5.057
    1PA     C14  306   0.542   4.872   5.238
    1PA     H4R  307   0.633   4.899   5.292
    1PA     H4S  308   0.496   4.966   5.206
    1PA     C13  309   0.447   4.803   5.336
    1PA     H3R  310   0.361   4.781   5.272
    1PA     H3S  311   0.490   4.703   5.343
    1PA     C12  312   0.426   4.878   5.469
    1PA     H2R  313   0.520   4.924   5.498
    1PA     H2S  314   0.344   4.950   5.460
    2PC     C11  315   0.377   4.777   5.570
    2PC     O12  316   0.446   4.689   5.618
    2PC     O11  317   0.258   4.813   5.620
    2PC      C1  318   0.219   4.759   5.747
    2PC      HR  319   0.126   4.703   5.752
    2PC      HS  320   0.296   4.694   5.790
    2PC      C2  321   0.209   4.876   5.847
    2PC      HX  322   0.310   4.916   5.853
    2PC      C3  323   0.153   4.824   5.981
    2PC      HA  324   0.217   4.744   6.020
    2PC      HB  325   0.153   4.906   6.053
    2PC     O31  326   0.022   4.767   5.973
    2PC     P31  327  -0.039   4.695   6.103
    2PC     O32  328  -0.009   4.815   6.204
    2PC     C31  329  -0.065   4.789   6.335
    2PC     H1A  330  -0.084   4.682   6.352
    2PC     H1B  331   0.019   4.820   6.398
    2PC     C32  332  -0.196   4.861   6.367
    2PC     H2A  333  -0.266   4.832   6.288
    2PC     H2B  334  -0.237   4.827   6.462
    2PC     N31  335  -0.199   5.010   6.353
    2PC     C33  336  -0.341   5.057   6.357
    2PC     H3A  337  -0.396   5.027   6.446
    2PC     H3B  338  -0.337   5.165   6.345
    2PC     H3C  339  -0.392   5.018   6.269
    2PC     C34  340  -0.115   5.076   6.459
    2PC     H4A  341  -0.023   5.019   6.473
    2PC     H4B  342  -0.085   5.178   6.433
    2PC     H4C  343  -0.177   5.076   6.548
    2PC     C35  344  -0.154   5.051   6.216
    2PC     H5A  345  -0.046   5.042   6.206
    2PC     H5B  346  -0.179   5.157   6.208
    2PC     H5C  347  -0.202   4.988   6.141
    2PC     O33  348  -0.184   4.667   6.091
    2PC     O34  349   0.009   4.561   6.143
    2PC     O21  350   0.126   4.980   5.793
    2PC     C21  351   0.120   5.102   5.848
    2PC     O22  352   0.135   5.129   5.965
    3OL     C12  353   0.083   5.206   5.745
    3OL     H2R  354   0.073   5.300   5.800
    3OL     H2S  355  -0.014   5.182   5.702
    3OL     C13  356   0.188   5.218   5.634
    3OL     H3R  357   0.221   5.128   5.581
    3OL     H3S  358   0.275   5.248   5.692
    3OL     C14  359   0.167   5.341   5.546
    3OL     H4R  360   0.188   5.428   5.609
    3OL     H4S  361   0.068   5.342   5.500
    3OL     C15  362   0.272   5.342   5.433
    3OL     H5R  363   0.369   5.312   5.474
    3OL     H5S  364   0.275   5.444   5.395
    3OL     C16  365   0.232   5.237   5.328
    3OL     H6R  366   0.128   5.256   5.300
    3OL     H6S  367   0.252   5.142   5.377
    3OL     C17  368   0.318   5.232   5.201
    3OL     H7R  369   0.425   5.222   5.224
    3OL     H7S  370   0.310   5.321   5.138
    3OL     C18  371   0.279   5.118   5.106
    3OL     H8R  372   0.174   5.112   5.078
    3OL     H8S  373   0.302   5.022   5.151
    3OL     C19  374   0.358   5.124   4.977
    3OL     H9R  375   0.461   5.091   4.990
    3OL    C110  376   0.309   5.136   4.855
    3OL    H10R  377   0.373   5.130   4.768
    3OL    C111  378   0.177   5.199   4.817
    3OL    H11R  379   0.196   5.301   4.783
    3OL    H11S  380   0.109   5.209   4.902
    3OL    C112  381   0.107   5.125   4.703
    3OL    H12R  382   0.094   5.022   4.734
    3OL    H12S  383   0.176   5.107   4.620
    3OL    C113  384  -0.021   5.196   4.656
    3OL    H13R  385  -0.046   5.158   4.557
    3OL    H13S  386   0.018   5.297   4.642
    3OL    C114  387  -0.135   5.188   4.760
    3OL    H14R  388  -0.092   5.211   4.857
    3OL    H14S  389  -0.184   5.091   4.764
    3OL    C115  390  -0.248   5.283   4.720
    3OL    H15R  391  -0.282   5.254   4.620
    3OL    H15S  392  -0.208   5.383   4.702
    3OL    C116  393  -0.365   5.290   4.820
    3OL    H16R  394  -0.409   5.191   4.835
    3OL    H16S  395  -0.441   5.358   4.784
    3OL    C117  396  -0.324   5.340   4.959
    3OL    H17R  397  -0.280   5.440   4.967
    3OL    H17S  398  -0.245   5.283   5.010
    3OL    C118  399  -0.444   5.346   5.055
    3OL    H18R  400  -0.429   5.414   5.139
    3OL    H18S  401  -0.481   5.248   5.086
    3OL    H18T  402  -0.530   5.392   5.006
    1PA    C116  403   1.016   4.836   4.001
    1PA    H16R  404   1.097   4.861   3.932
    1PA    H16S  405   0.918   4.836   3.953
    1PA    H16T  406   1.029   4.729   4.017
    1PA    C115  407   1.002   4.897   4.141
    1PA    H15R  408   0.974   5.002   4.134
    1PA    H15S  409   0.922   4.847   4.196
    1PA    C114  410   1.137   4.887   4.214
    1PA    H14R  411   1.166   4.782   4.221
    1PA    H14S  412   1.204   4.954   4.160
    1PA    C113  413   1.126   4.944   4.355
    1PA    H13R  414   1.091   5.047   4.344
    1PA    H13S  415   1.050   4.882   4.403
    1PA    C112  416   1.260   4.941   4.430
    1PA    H12R  417   1.300   4.840   4.437
    1PA    H12S  418   1.335   5.012   4.391
    1PA    C111  419   1.245   4.978   4.578
    1PA    H11R  420   1.187   5.071   4.580
    1PA    H11S  421   1.196   4.894   4.628
    1PA    C110  422   1.379   5.017   4.640
    1PA    H10R  423   1.462   4.947   4.629
    1PA    H10S  424   1.413   5.105   4.586
    1PA     C19  425   1.360   5.038   4.791
    1PA     H9R  426   1.283   5.112   4.815
    1PA     H9S  427   1.327   4.950   4.847
    1PA     C18  428   1.497   5.076   4.849
    1PA     H8R  429   1.571   4.997   4.835
    1PA     H8S  430   1.538   5.162   4.796
    1PA     C17  431   1.488   5.094   5.001
    1PA     H7R  432   1.412   5.171   4.999
    1PA     H7S  433   1.445   5.013   5.060
    1PA     C16  434   1.623   5.130   5.066
    1PA     H6R  435   1.689   5.045   5.051
    1PA     H6S  436   1.659   5.222   5.018
    1PA     C15  437   1.614   5.154   5.217
    1PA     H5R  438   1.551   5.243   5.224
    1PA     H5S  439   1.560   5.077   5.274
    1PA     C14  440   1.752   5.185   5.277
    1PA     H4R  441   1.825   5.110   5.247
    1PA     H4S  442   1.785   5.281   5.235
    1PA     C13  443   1.748   5.195   5.430
    1PA     H3R  444   1.686   5.282   5.452
    1PA     H3S  445   1.718   5.102   5.480
    1PA     C12  446   1.890   5.217   5.483
    1PA     H2R  447   1.961   5.139   5.452
    1PA     H2S  448   1.926   5.308   5.434
    2PC     C11  449   1.901   5.236   5.632
    2PC     O12  450   1.822   5.301   5.698
    2PC     O11  451   2.003   5.173   5.694
    2PC      C1  452   2.004   5.166   5.837
    2PC      HR  453   2.100   5.127   5.873
    2PC      HS  454   1.991   5.266   5.880
    2PC      C2  455   1.894   5.080   5.900
    2PC      HX  456   1.794   5.120   5.882
    2PC      C3  457   1.901   5.080   6.053
    2PC      HA  458   1.881   5.184   6.081
    2PC      HB  459   1.814   5.038   6.104
    2PC     O31  460   2.024   5.023   6.103
    2PC     P31  461   2.058   5.036   6.259
    2PC     O32  462   2.076   4.882   6.301
    2PC     C31  463   1.970   4.796   6.345
    2PC     H1A  464   1.911   4.843   6.424
    2PC     H1B  465   1.908   4.787   6.255
    2PC     C32  466   2.001   4.654   6.396
    2PC     H2A  467   1.921   4.627   6.464
    2PC     H2B  468   1.996   4.580   6.316
    2PC     N31  469   2.132   4.626   6.463
    2PC     C33  470   2.123   4.489   6.524
    2PC     H3A  471   2.098   4.418   6.446
    2PC     H3B  472   2.221   4.455   6.556
    2PC     H3C  473   2.045   4.488   6.601
    2PC     C34  474   2.245   4.635   6.365
    2PC     H4A  475   2.335   4.610   6.421
    2PC     H4B  476   2.221   4.549   6.302
    2PC     H4C  477   2.251   4.736   6.324
    2PC     C35  478   2.159   4.722   6.575
    2PC     H5A  479   2.258   4.692   6.612
    2PC     H5B  480   2.079   4.696   6.644
    2PC     H5C  481   2.151   4.827   6.546
    2PC     O33  482   2.183   5.115   6.268
    2PC     O34  483   1.965   5.110   6.348
    2PC     O21  484   1.913   4.952   5.837
    2PC     C21  485   1.817   4.858   5.847
    2PC     O22  486   1.721   4.874   5.921
    3OL     C12  487   1.841   4.738   5.760
    3OL     H2R  488   1.771   4.659   5.789
    3OL     H2S  489   1.944   4.705   5.775
    3OL     C13  490   1.825   4.784   5.615
    3OL     H3R  491   1.884   4.876   5.619
    3OL     H3S  492   1.720   4.809   5.598
    3OL     C14  493   1.875   4.686   5.508
    3OL     H4R  494   1.816   4.594   5.502
    3OL     H4S  495   1.981   4.662   5.525
    3OL     C15  496   1.866   4.769   5.379
    3OL     H5R  497   1.920   4.862   5.398
    3OL     H5S  498   1.762   4.802   5.373
    3OL     C16  499   1.909   4.696   5.252
    3OL     H6R  500   1.828   4.693   5.179
    3OL     H6S  501   1.927   4.590   5.274
    3OL     C17  502   2.045   4.748   5.204
    3OL     H7R  503   2.119   4.725   5.280
    3OL     H7S  504   2.034   4.855   5.184
    3OL     C18  505   2.080   4.682   5.070
    3OL     H8R  506   2.004   4.702   4.994
    3OL     H8S  507   2.082   4.575   5.092
    3OL     C19  508   2.217   4.729   5.028
    3OL     H9R  509   2.277   4.771   5.109
    3OL    C110  510   2.271   4.718   4.908
    3OL    H10R  511   2.373   4.752   4.891
    3OL    C111  512   2.207   4.653   4.788
    3OL    H11R  513   2.101   4.637   4.809
    3OL    H11S  514   2.253   4.556   4.765
    3OL    C112  515   2.243   4.737   4.664
    3OL    H12R  516   2.347   4.769   4.662
    3OL    H12S  517   2.183   4.828   4.668
    3OL    C113  518   2.201   4.664   4.536
    3OL    H13R  519   2.110   4.607   4.556
    3OL    H13S  520   2.269   4.586   4.501
    3OL    C114  521   2.176   4.761   4.420
    3OL    H14R  522   2.270   4.810   4.394
    3OL    H14S  523   2.100   4.833   4.452
    3OL    C115  524   2.126   4.688   4.294
    3OL    H15R  525   2.032   4.636   4.313
    3OL    H15S  526   2.192   4.608   4.259
    3OL    C116  527   2.124   4.793   4.182
    3OL    H16R  528   2.216   4.852   4.178
    3OL    H16S  529   2.042   4.862   4.205
    3OL    C117  530   2.094   4.736   4.043
    3OL    H17R  531   2.066   4.812   3.969
    3OL    H17S  532   2.008   4.671   4.057
    3OL    C118  533   2.212   4.657   3.985
    3OL    H18R  534   2.206   4.637   3.878
    3OL    H18S  535   2.228   4.568   4.047
    3OL    H18T  536   2.306   4.712   3.995
    1PA    C116  537   1.470   4.090   4.058
    1PA    H16R  538   1.431   4.021   3.982
    1PA    H16S  539   1.579   4.093   4.054
    1PA    H16T  540   1.435   4.191   4.033
    1PA    C115  541   1.425   4.046   4.198
    1PA    H15R  542   1.318   4.064   4.206
    1PA    H15S  543   1.440   3.938   4.203
    1PA    C114  544   1.517   4.101   4.309
    1PA    H14R  545   1.620   4.076   4.285
    1PA    H14S  546   1.505   4.209   4.310
    1PA    C113  547   1.482   4.053   4.451
    1PA    H13R  548   1.380   4.079   4.477
    1PA    H13S  549   1.496   3.945   4.461
    1PA    C112  550   1.568   4.126   4.554
    1PA    H12R  551   1.669   4.088   4.539
    1PA    H12S  552   1.568   4.233   4.529
    1PA    C111  553   1.539   4.105   4.704
    1PA    H11R  554   1.527   4.006   4.748
    1PA    H11S  555   1.611   4.154   4.770
    1PA    C110  556   1.406   4.170   4.745
    1PA    H10R  557   1.402   4.273   4.709
    1PA    H10S  558   1.339   4.108   4.685
    1PA     C19  559   1.371   4.149   4.893
    1PA     H9R  560   1.270   4.183   4.918
    1PA     H9S  561   1.366   4.041   4.908
    1PA     C18  562   1.471   4.203   4.996
    1PA     H8R  563   1.556   4.136   4.982
    1PA     H8S  564   1.504   4.304   4.971
    1PA     C17  565   1.428   4.200   5.143
    1PA     H7R  566   1.495   4.265   5.200
    1PA     H7S  567   1.325   4.235   5.158
    1PA     C16  568   1.442   4.062   5.208
    1PA     H6R  569   1.375   3.992   5.156
    1PA     H6S  570   1.546   4.030   5.206
    1PA     C15  571   1.401   4.065   5.356
    1PA     H5R  572   1.475   4.104   5.425
    1PA     H5S  573   1.306   4.117   5.371
    1PA     C14  574   1.376   3.922   5.406
    1PA     H4R  575   1.302   3.866   5.349
    1PA     H4S  576   1.470   3.867   5.398
    1PA     C13  577   1.330   3.909   5.552
    1PA     H3R  578   1.413   3.947   5.611
    1PA     H3S  579   1.243   3.970   5.578
    1PA     C12  580   1.314   3.762   5.595
    1PA     H2R  581   1.232   3.733   5.529
    1PA     H2S  582   1.406   3.708   5.571
    2PC     C11  583   1.285   3.753   5.743
    2PC     O12  584   1.296   3.839   5.828
    2PC     O11  585   1.243   3.628   5.767
    2PC      C1  586   1.189   3.598   5.897
    2PC      HR  587   1.272   3.618   5.965
    2PC      HS  588   1.102   3.662   5.913
    2PC      C2  589   1.143   3.451   5.894
    2PC      HX  590   1.055   3.456   5.830
    2PC      C3  591   1.099   3.404   6.034
    2PC      HA  592   1.015   3.460   6.076
    2PC      HB  593   1.076   3.298   6.045
    2PC     O31  594   1.200   3.426   6.134
    2PC     P31  595   1.162   3.418   6.289
    2PC     O32  596   1.159   3.571   6.335
    2PC     C31  597   1.274   3.658   6.329
    2PC     H1A  598   1.337   3.594   6.392
    2PC     H1B  599   1.315   3.672   6.228
    2PC     C32  600   1.224   3.789   6.391
    2PC     H2A  601   1.203   3.775   6.497
    2PC     H2B  602   1.308   3.858   6.392
    2PC     N31  603   1.120   3.860   6.311
    2PC     C33  604   1.159   3.898   6.171
    2PC     H3A  605   1.076   3.957   6.132
    2PC     H3B  606   1.248   3.962   6.174
    2PC     H3C  607   1.172   3.813   6.104
    2PC     C34  608   0.989   3.787   6.303
    2PC     H4A  609   0.911   3.863   6.291
    2PC     H4B  610   0.993   3.727   6.212
    2PC     H4C  611   0.977   3.733   6.397
    2PC     C35  612   1.092   3.986   6.388
    2PC     H5A  613   1.187   4.038   6.400
    2PC     H5B  614   1.051   3.981   6.488
    2PC     H5C  615   1.033   4.049   6.322
    2PC     O33  616   1.033   3.347   6.306
    2PC     O34  617   1.258   3.358   6.384
    2PC     O21  618   1.245   3.365   5.842
    2PC     C21  619   1.202   3.256   5.775
    2PC     O22  620   1.087   3.228   5.751
    3OL     C12  621   1.315   3.176   5.716
    3OL     H2R  622   1.264   3.117   5.640
    3OL     H2S  623   1.363   3.112   5.790
    3OL     C13  624   1.422   3.269   5.657
    3OL     H3R  625   1.494   3.199   5.613
    3OL     H3S  626   1.455   3.336   5.737
    3OL     C14  627   1.360   3.354   5.546
    3OL     H4R  628   1.282   3.410   5.598
    3OL     H4S  629   1.313   3.289   5.472
    3OL     C15  630   1.465   3.440   5.475
    3OL     H5R  631   1.550   3.385   5.434
    3OL     H5S  632   1.495   3.516   5.547
    3OL     C16  633   1.389   3.500   5.356
    3OL     H6R  634   1.307   3.560   5.397
    3OL     H6S  635   1.334   3.420   5.307
    3OL     C17  636   1.478   3.578   5.259
    3OL     H7R  637   1.570   3.524   5.236
    3OL     H7S  638   1.524   3.666   5.304
    3OL     C18  639   1.396   3.622   5.137
    3OL     H8R  640   1.310   3.679   5.174
    3OL     H8S  641   1.360   3.535   5.082
    3OL     C19  642   1.477   3.709   5.045
    3OL     H9R  643   1.563   3.756   5.091
    3OL    C110  644   1.458   3.722   4.914
    3OL    H10R  645   1.521   3.791   4.859
    3OL    C111  646   1.335   3.673   4.841
    3OL    H11R  647   1.255   3.743   4.865
    3OL    H11S  648   1.297   3.577   4.876
    3OL    C112  649   1.371   3.676   4.692
    3OL    H12R  650   1.438   3.597   4.657
    3OL    H12S  651   1.417   3.774   4.679
    3OL    C113  652   1.244   3.668   4.607
    3OL    H13R  653   1.174   3.743   4.644
    3OL    H13S  654   1.193   3.571   4.613
    3OL    C114  655   1.290   3.718   4.469
    3OL    H14R  656   1.374   3.656   4.438
    3OL    H14S  657   1.333   3.818   4.479
    3OL    C115  658   1.166   3.710   4.379
    3OL    H15R  659   1.101   3.791   4.417
    3OL    H15S  660   1.126   3.609   4.383
    3OL    C116  661   1.196   3.744   4.233
    3OL    H16R  662   1.287   3.697   4.195
    3OL    H16S  663   1.206   3.852   4.222
    3OL    C117  664   1.075   3.704   4.147
    3OL    H17R  665   0.987   3.735   4.204
    3OL    H17S  666   1.070   3.597   4.125
    3OL    C118  667   1.078   3.780   4.014
    3OL    H18R  668   1.003   3.735   3.947
    3OL    H18S  669   1.176   3.771   3.966
    3OL    H18T  670   1.065   3.886   4.035
    1PA    C116  671   0.117   4.673   3.847
    1PA    H16R  672   0.097   4.631   3.946
    1PA    H16S  673   0.190   4.612   3.792
    1PA    H16T  674   0.023   4.678   3.792
    1PA    C115  675   0.186   4.808   3.870
    1PA    H15R  676   0.289   4.791   3.903
    1PA    H15S  677   0.173   4.854   3.772
    1PA    C114  678   0.115   4.891   3.978
    1PA    H14R  679   0.007   4.884   3.958
    1PA    H14S  680   0.124   4.838   4.073
    1PA    C113  681   0.165   5.033   4.003
    1PA    H13R  682   0.151   5.094   3.913
    1PA    H13S  683   0.103   5.081   4.080
    1PA    C112  684   0.313   5.041   4.041
    1PA    H12R  685   0.368   4.975   3.972
    1PA    H12S  686   0.357   5.140   4.031
    1PA    C111  687   0.345   5.000   4.185
    1PA    H11R  688   0.281   5.053   4.256
    1PA    H11S  689   0.335   4.894   4.208
    1PA    C110  690   0.489   5.033   4.226
    1PA    H10R  691   0.565   4.981   4.167
    1PA    H10S  692   0.501   5.141   4.211
    1PA     C19  693   0.516   5.000   4.373
    1PA     H9R  694   0.434   5.032   4.438
    1PA     H9S  695   0.515   4.892   4.385
    1PA     C18  696   0.651   5.067   4.406
    1PA     H8R  697   0.729   5.055   4.331
    1PA     H8S  698   0.633   5.173   4.427
    1PA     C17  699   0.702   5.019   4.543
    1PA     H7R  700   0.620   5.029   4.614
    1PA     H7S  701   0.720   4.911   4.542
    1PA     C16  702   0.833   5.090   4.580
    1PA     H6R  703   0.917   5.078   4.510
    1PA     H6S  704   0.821   5.198   4.585
    1PA     C15  705   0.881   5.040   4.717
    1PA     H5R  706   0.883   4.931   4.711
    1PA     H5S  707   0.986   5.069   4.726
    1PA     C14  708   0.799   5.089   4.837
    1PA     H4R  709   0.756   5.188   4.823
    1PA     H4S  710   0.708   5.029   4.825
    1PA     C13  711   0.865   5.079   4.975
    1PA     H3R  712   0.890   4.978   5.007
    1PA     H3S  713   0.952   5.145   4.968
    1PA     C12  714   0.783   5.141   5.088
    1PA     H2R  715   0.773   5.248   5.071
    1PA     H2S  716   0.681   5.105   5.070
    2PC     C11  717   0.841   5.118   5.225
    2PC     O12  718   0.927   5.036   5.250
    2PC     O11  719   0.792   5.194   5.325
    2PC      C1  720   0.832   5.172   5.461
    2PC      HR  721   0.765   5.238   5.516
    2PC      HS  722   0.824   5.064   5.481
    2PC      C2  723   0.974   5.219   5.496
    2PC      HX  724   1.045   5.172   5.427
    2PC      C3  725   1.014   5.192   5.642
    2PC      HA  726   1.037   5.087   5.661
    2PC      HB  727   1.102   5.253   5.662
    2PC     O31  728   0.909   5.233   5.731
    2PC     P31  729   0.934   5.254   5.888
    2PC     O32  730   1.026   5.131   5.931
    2PC     C31  731   1.153   5.168   5.988
    2PC     H1A  732   1.217   5.225   5.920
    2PC     H1B  733   1.137   5.239   6.069
    2PC     C32  734   1.215   5.040   6.045
    2PC     H2A  735   1.247   5.064   6.147
    2PC     H2B  736   1.142   4.960   6.053
    2PC     N31  737   1.331   4.984   5.968
    2PC     C33  738   1.353   4.848   6.027
    2PC     H3A  739   1.439   4.785   6.002
    2PC     H3B  740   1.340   4.856   6.135
    2PC     H3C  741   1.269   4.800   5.978
    2PC     C34  742   1.307   4.981   5.820
    2PC     H4A  743   1.386   4.917   5.780
    2PC     H4B  744   1.208   4.942   5.793
    2PC     H4C  745   1.314   5.081   5.777
    2PC     C35  746   1.452   5.068   5.989
    2PC     H5A  747   1.449   5.175   5.966
    2PC     H5B  748   1.530   5.026   5.925
    2PC     H5C  749   1.477   5.060   6.095
    2PC     O33  750   0.999   5.387   5.888
    2PC     O34  751   0.812   5.248   5.972
    2PC     O21  752   0.993   5.361   5.483
    2PC     C21  753   0.994   5.414   5.360
    2PC     O22  754   1.009   5.351   5.257
    3OL     C12  755   0.981   5.564   5.363
    3OL     H2R  756   1.044   5.610   5.440
    3OL     H2S  757   0.875   5.570   5.391
    3OL     C13  758   1.004   5.642   5.233
    3OL     H3R  759   0.947   5.589   5.156
    3OL     H3S  760   1.111   5.637   5.209
    3OL     C14  761   0.961   5.786   5.265
    3OL     H4R  762   1.012   5.826   5.353
    3OL     H4S  763   0.853   5.788   5.282
    3OL     C15  764   0.993   5.870   5.141
    3OL     H5R  765   0.919   5.862   5.061
    3OL     H5S  766   1.088   5.842   5.095
    3OL     C16  767   0.996   6.015   5.190
    3OL     H6R  768   1.075   6.028   5.264
    3OL     H6S  769   0.902   6.045   5.237
    3OL     C17  770   1.011   6.118   5.077
    3OL     H7R  771   0.933   6.099   5.002
    3OL     H7S  772   1.107   6.102   5.028
    3OL     C18  773   1.002   6.263   5.128
    3OL     H8R  774   1.055   6.282   5.221
    3OL     H8S  775   0.897   6.275   5.156
    3OL     C19  776   1.033   6.355   5.013
    3OL     H9R  777   0.948   6.380   4.950
    3OL    C110  778   1.142   6.429   4.996
    3OL    H10R  779   1.141   6.499   4.913
    3OL    C111  780   1.267   6.423   5.080
    3OL    H11R  781   1.252   6.353   5.162
    3OL    H11S  782   1.277   6.523   5.123
    3OL    C112  783   1.397   6.401   5.001
    3OL    H12R  784   1.389   6.297   4.970
    3OL    H12S  785   1.483   6.414   5.066
    3OL    C113  786   1.412   6.503   4.887
    3OL    H13R  787   1.424   6.601   4.935
    3OL    H13S  788   1.319   6.517   4.832
    3OL    C114  789   1.528   6.477   4.790
    3OL    H14R  790   1.510   6.375   4.756
    3OL    H14S  791   1.623   6.475   4.844
    3OL    C115  792   1.537   6.575   4.673
    3OL    H15R  793   1.565   6.673   4.712
    3OL    H15S  794   1.445   6.594   4.616
    3OL    C116  795   1.639   6.528   4.569
    3OL    H16R  796   1.604   6.434   4.527
    3OL    H16S  797   1.736   6.509   4.616
    3OL    C117  798   1.648   6.633   4.458
    3OL    H17R  799   1.644   6.739   4.487
    3OL    H17S  800   1.576   6.609   4.380
    3OL    C118  801   1.781   6.634   4.381
    3OL    H18R  802   1.810   6.531   4.355
    3OL    H18S  803   1.863   6.670   4.443
    3OL    H18T  804   1.769   6.685   4.285
    1PA    C116  805   5.085   3.315   4.025
    1PA    H16R  806   5.184   3.273   4.045
    1PA    H16S  807   5.088   3.338   3.919
    1PA    H16T  808   5.006   3.241   4.040
    1PA    C115  809   5.068   3.447   4.101
    1PA    H15R  810   5.115   3.532   4.051
    1PA    H15S  811   4.964   3.478   4.101
    1PA    C114  812   5.121   3.448   4.245
    1PA    H14R  813   5.230   3.444   4.245
    1PA    H14S  814   5.091   3.539   4.297
    1PA    C113  815   5.057   3.334   4.327
    1PA    H13R  816   4.949   3.340   4.316
    1PA    H13S  817   5.092   3.239   4.287
    1PA    C112  818   5.083   3.342   4.478
    1PA    H12R  819   5.028   3.413   4.540
    1PA    H12S  820   5.055   3.246   4.523
    1PA    C111  821   5.230   3.371   4.511
    1PA    H11R  822   5.290   3.303   4.451
    1PA    H11S  823   5.247   3.474   4.481
    1PA    C110  824   5.268   3.346   4.658
    1PA    H10R  825   5.224   3.427   4.717
    1PA    H10S  826   5.219   3.253   4.689
    1PA     C19  827   5.417   3.315   4.672
    1PA     H9R  828   5.448   3.230   4.611
    1PA     H9S  829   5.458   3.411   4.638
    1PA     C18  830   5.457   3.286   4.818
    1PA     H8R  831   5.413   3.369   4.874
    1PA     H8S  832   5.412   3.191   4.846
    1PA     C17  833   5.608   3.270   4.836
    1PA     H7R  834   5.651   3.353   4.780
    1PA     H7S  835   5.639   3.285   4.940
    1PA     C16  836   5.668   3.138   4.785
    1PA     H6R  837   5.625   3.054   4.840
    1PA     H6S  838   5.642   3.127   4.680
    1PA     C15  839   5.820   3.156   4.788
    1PA     H5R  840   5.859   3.093   4.708
    1PA     H5S  841   5.846   3.260   4.767
    1PA     C14  842   5.891   3.105   4.914
    1PA     H4R  843   5.859   3.005   4.942
    1PA     H4S  844   5.997   3.101   4.889
    1PA     C13  845   5.893   3.205   5.031
    1PA     H3R  846   5.997   3.210   5.064
    1PA     H3S  847   5.868   3.300   4.983
    1PA     C12  848   5.803   3.159   5.147
    1PA     H2R  849   5.700   3.176   5.115
    1PA     H2S  850   5.816   3.051   5.161
    2PC     C11  851   5.826   3.236   5.274
    2PC     O12  852   5.806   3.355   5.287
    2PC     O11  853   5.865   3.151   5.370
    2PC      C1  854   5.912   3.208   5.494
    2PC      HR  855   5.984   3.288   5.475
    2PC      HS  856   5.824   3.248   5.546
    2PC      C2  857   5.982   3.101   5.579
    2PC      HX  858   5.914   3.018   5.601
    2PC      C3  859   6.014   3.154   5.719
    2PC      HA  860   5.918   3.138   5.770
    2PC      HB  861   6.090   3.097   5.772
    2PC     O31  862   6.053   3.292   5.724
    2PC     P31  863   6.088   3.360   5.864
    2PC     O32  864   6.126   3.513   5.832
    2PC     C31  865   6.051   3.582   5.731
    2PC     H1A  866   6.102   3.564   5.635
    2PC     H1B  867   5.947   3.549   5.734
    2PC     C32  868   6.048   3.733   5.758
    2PC     H2A  869   6.139   3.791   5.744
    2PC     H2B  870   5.985   3.773   5.679
    2PC     N31  871   5.978   3.785   5.880
    2PC     C33  872   5.854   3.711   5.919
    2PC     H3A  873   5.828   3.757   6.015
    2PC     H3B  874   5.771   3.723   5.849
    2PC     H3C  875   5.875   3.605   5.932
    2PC     C34  876   6.063   3.755   6.000
    2PC     H4A  877   6.160   3.804   5.985
    2PC     H4B  878   6.027   3.807   6.088
    2PC     H4C  879   6.072   3.647   6.013
    2PC     C35  880   5.957   3.933   5.873
    2PC     H5A  881   5.919   3.968   5.969
    2PC     H5B  882   5.880   3.949   5.797
    2PC     H5C  883   6.045   3.990   5.843
    2PC     O33  884   5.978   3.355   5.962
    2PC     O34  885   6.195   3.288   5.937
    2PC     O21  886   6.096   3.056   5.503
    2PC     C21  887   6.142   2.935   5.538
    2PC     O22  888   6.105   2.873   5.635
    3OL     C12  889   6.244   2.871   5.446
    3OL     H2R  890   6.247   2.764   5.468
    3OL     H2S  891   6.340   2.909   5.483
    3OL     C13  892   6.212   2.900   5.299
    3OL     H3R  893   6.306   2.885   5.246
    3OL     H3S  894   6.195   3.008   5.286
    3OL     C14  895   6.096   2.822   5.236
    3OL     H4R  896   6.010   2.846   5.300
    3OL     H4S  897   6.108   2.715   5.256
    3OL     C15  898   6.069   2.853   5.088
    3OL     H5R  899   6.074   2.962   5.076
    3OL     H5S  900   5.965   2.830   5.065
    3OL     C16  901   6.157   2.783   4.985
    3OL     H6R  902   6.140   2.676   4.997
    3OL     H6S  903   6.258   2.819   5.006
    3OL     C17  904   6.123   2.830   4.843
    3OL     H7R  905   6.169   2.928   4.832
    3OL     H7S  906   6.014   2.827   4.834
    3OL     C18  907   6.185   2.736   4.739
    3OL     H8R  908   6.154   2.633   4.756
    3OL     H8S  909   6.292   2.733   4.760
    3OL     C19  910   6.151   2.780   4.599
    3OL     H9R  911   6.061   2.734   4.559
    3OL    C110  912   6.222   2.869   4.530
    3OL    H10R  913   6.195   2.882   4.426
    3OL    C111  914   6.349   2.936   4.574
    3OL    H11R  915   6.367   2.922   4.681
    3OL    H11S  916   6.330   3.043   4.557
    3OL    C112  917   6.472   2.897   4.491
    3OL    H12R  918   6.459   2.904   4.383
    3OL    H12S  919   6.505   2.794   4.508
    3OL    C113  920   6.593   2.976   4.543
    3OL    H13R  921   6.571   3.083   4.541
    3OL    H13S  922   6.667   2.959   4.464
    3OL    C114  923   6.650   2.941   4.681
    3OL    H14R  924   6.691   2.840   4.681
    3OL    H14S  925   6.575   2.948   4.760
    3OL    C115  926   6.754   3.048   4.719
    3OL    H15R  927   6.782   3.024   4.822
    3OL    H15S  928   6.711   3.148   4.719
    3OL    C116  929   6.875   3.066   4.627
    3OL    H16R  930   6.919   3.165   4.632
    3OL    H16S  931   6.850   3.026   4.529
    3OL    C117  932   6.992   2.977   4.672
    3OL    H17R  933   6.959   2.874   4.688
    3OL    H17S  934   7.026   3.013   4.769
    3OL    C118  935   7.098   2.973   4.560
    3OL    H18R  936   7.183   2.909   4.582
    3OL    H18S  937   7.132   3.076   4.545
    3OL    H18T  938   7.043   2.939   4.472
    1PA    C116  939   1.607   5.356   4.380
    1PA    H16R  940   1.508   5.322   4.412
    1PA    H16S  941   1.676   5.271   4.384
    1PA    H16T  942   1.605   5.391   4.277
    1PA    C115  943   1.646   5.475   4.469
    1PA    H15R  944   1.748   5.507   4.446
    1PA    H15S  945   1.584   5.560   4.442
    1PA    C114  946   1.632   5.428   4.614
    1PA    H14R  947   1.530   5.396   4.640
    1PA    H14S  948   1.699   5.342   4.627
    1PA    C113  949   1.665   5.542   4.711
    1PA    H13R  950   1.658   5.639   4.660
    1PA    H13S  951   1.600   5.546   4.799
    1PA    C112  952   1.811   5.550   4.758
    1PA    H12R  953   1.822   5.460   4.819
    1PA    H12S  954   1.885   5.546   4.678
    1PA    C111  955   1.846   5.674   4.841
    1PA    H11R  956   1.945   5.710   4.813
    1PA    H11S  957   1.783   5.754   4.801
    1PA    C110  958   1.842   5.653   4.993
    1PA    H10R  959   1.734   5.644   5.011
    1PA    H10S  960   1.883   5.558   5.027
    1PA     C19  961   1.906   5.767   5.073
    1PA     H9R  962   2.008   5.775   5.033
    1PA     H9S  963   1.853   5.859   5.050
    1PA     C18  964   1.889   5.736   5.222
    1PA     H8R  965   1.782   5.732   5.241
    1PA     H8S  966   1.927   5.638   5.252
    1PA     C17  967   1.943   5.842   5.319
    1PA     H7R  968   1.908   5.944   5.302
    1PA     H7S  969   1.903   5.828   5.420
    1PA     C16  970   2.096   5.848   5.319
    1PA     H6R  971   2.134   5.746   5.313
    1PA     H6S  972   2.128   5.909   5.234
    1PA     C15  973   2.162   5.922   5.436
    1PA     H5R  974   2.269   5.927   5.415
    1PA     H5S  975   2.138   6.029   5.429
    1PA     C14  976   2.142   5.847   5.568
    1PA     H4R  977   2.034   5.835   5.580
    1PA     H4S  978   2.177   5.745   5.550
    1PA     C13  979   2.203   5.909   5.695
    1PA     H3R  980   2.312   5.910   5.691
    1PA     H3S  981   2.172   6.013   5.699
    1PA     C12  982   2.154   5.824   5.813
    1PA     H2R  983   2.051   5.844   5.843
    1PA     H2S  984   2.158   5.719   5.783
    2PC     C11  985   2.246   5.850   5.930
    2PC     O12  986   2.293   5.959   5.954
    2PC     O11  987   2.274   5.741   6.003
    2PC      C1  988   2.403   5.743   6.065
    2PC      HR  989   2.431   5.840   6.108
    2PC      HS  990   2.404   5.679   6.154
    2PC      C2  991   2.506   5.696   5.961
    2PC      HX  992   2.470   5.604   5.916
    2PC      C3  993   2.642   5.687   6.032
    2PC      HA  994   2.631   5.622   6.120
    2PC      HB  995   2.718   5.646   5.965
    2PC     O31  996   2.688   5.814   6.079
    2PC     P31  997   2.821   5.809   6.169
    2PC     O32  998   2.927   5.723   6.084
    2PC     C31  999   3.010   5.800   5.995
    2PC     H1A 1000   2.951   5.882   5.952
    2PC     H1B 1001   3.091   5.849   6.050
    2PC     C32 1002   3.062   5.717   5.877
    2PC     H2A 1003   2.983   5.680   5.811
    2PC     H2B 1004   3.117   5.792   5.820
    2PC     N31 1005   3.136   5.589   5.901
    2PC     C33 1006   3.258   5.609   5.986
    2PC     H3A 1007   3.224   5.605   6.090
    2PC     H3B 1008   3.329   5.529   5.968
    2PC     H3C 1009   3.295   5.709   5.961
    2PC     C34 1010   3.047   5.492   5.972
    2PC     H4A 1011   2.959   5.494   5.908
    2PC     H4B 1012   3.100   5.397   5.981
    2PC     H4C 1013   3.018   5.534   6.069
    2PC     C35 1014   3.190   5.521   5.778
    2PC     H5A 1015   3.113   5.487   5.709
    2PC     H5B 1016   3.251   5.434   5.800
    2PC     H5C 1017   3.254   5.592   5.724
    2PC     O33 1018   2.878   5.944   6.191
    2PC     O34 1019   2.787   5.740   6.295
    2PC     O21 1020   2.517   5.791   5.853
    2PC     C21 1021   2.565   5.748   5.735
    2PC     O22 1022   2.582   5.633   5.700
    3OL     C12 1023   2.603   5.871   5.656
    3OL     H2R 1024   2.666   5.938   5.714
    3OL     H2S 1025   2.517   5.935   5.636
    3OL     C13 1026   2.687   5.829   5.535
    3OL     H3R 1027   2.639   5.761   5.465
    3OL     H3S 1028   2.777   5.773   5.562
    3OL     C14 1029   2.724   5.956   5.457
    3OL     H4R 1030   2.808   5.996   5.515
    3OL     H4S 1031   2.652   6.037   5.444
    3OL     C15 1032   2.755   5.906   5.315
    3OL     H5R 1033   2.666   5.876   5.259
    3OL     H5S 1034   2.834   5.831   5.314
    3OL     C16 1035   2.791   6.028   5.229
    3OL     H6R 1036   2.735   6.118   5.255
    3OL     H6S 1037   2.792   6.003   5.123
    3OL     C17 1038   2.935   6.078   5.250
    3OL     H7R 1039   2.953   6.084   5.358
    3OL     H7S 1040   2.948   6.181   5.216
    3OL     C18 1041   3.036   5.983   5.185
    3OL     H8R 1042   3.056   5.888   5.236
    3OL     H8S 1043   3.132   6.034   5.198
    3OL     C19 1044   2.999   5.974   5.039
    3OL     H9R 1045   3.003   6.073   4.994
    3OL    C110 1046   2.958   5.866   4.974
    3OL    H10R 1047   2.915   5.883   4.876
    3OL    C111 1048   2.933   5.729   5.032
    3OL    H11R 1049   2.829   5.704   5.010
    3OL    H11S 1050   2.944   5.722   5.141
    3OL    C112 1051   3.020   5.625   4.960
    3OL    H12R 1052   3.124   5.622   4.991
    3OL    H12S 1053   3.006   5.628   4.852
    3OL    C113 1054   2.982   5.480   4.992
    3OL    H13R 1055   2.984   5.462   5.100
    3OL    H13S 1056   3.059   5.409   4.960
    3OL    C114 1057   2.852   5.448   4.918
    3OL    H14R 1058   2.860   5.463   4.810
    3OL    H14S 1059   2.784   5.526   4.953
    3OL    C115 1060   2.805   5.304   4.942
    3OL    H15R 1061   2.875   5.236   4.893
    3OL    H15S 1062   2.705   5.300   4.899
    3OL    C116 1063   2.790   5.269   5.091
    3OL    H16R 1064   2.752   5.168   5.107
    3OL    H16S 1065   2.886   5.260   5.142
    3OL    C117 1066   2.685   5.360   5.158
    3OL    H17R 1067   2.588   5.334   5.116
    3OL    H17S 1068   2.706   5.467   5.146
    3OL    C118 1069   2.679   5.342   5.310
    3OL    H18R 1070   2.628   5.432   5.346
    3OL    H18S 1071   2.626   5.251   5.339
    3OL    H18T 1072   2.782   5.355   5.345
    1PA    C116 1073   0.794   6.220   4.691
    1PA    H16R 1074   0.890   6.172   4.674
    1PA    H16S 1075   0.741   6.153   4.760
    1PA    H16T 1076   0.810   6.312   4.747
    1PA    C115 1077   0.719   6.261   4.563
    1PA    H15R 1078   0.629   6.320   4.583
    1PA    H15S 1079   0.776   6.329   4.500
    1PA    C114 1080   0.684   6.140   4.476
    1PA    H14R 1081   0.661   6.194   4.384
    1PA    H14S 1082   0.775   6.080   4.467
    1PA    C113 1083   0.565   6.060   4.532
    1PA    H13R 1084   0.596   6.013   4.625
    1PA    H13S 1085   0.478   6.122   4.555
    1PA    C112 1086   0.516   5.964   4.422
    1PA    H12R 1087   0.497   6.011   4.326
    1PA    H12S 1088   0.591   5.885   4.408
    1PA    C111 1089   0.381   5.903   4.461
    1PA    H11R 1090   0.326   5.997   4.469
    1PA    H11S 1091   0.349   5.843   4.375
    1PA    C110 1092   0.380   5.810   4.583
    1PA    H10R 1093   0.432   5.718   4.555
    1PA    H10S 1094   0.431   5.856   4.668
    1PA     C19 1095   0.233   5.778   4.614
    1PA     H9R 1096   0.183   5.873   4.635
    1PA     H9S 1097   0.184   5.731   4.528
    1PA     C18 1098   0.211   5.681   4.731
    1PA     H8R 1099   0.262   5.588   4.703
    1PA     H8S 1100   0.249   5.727   4.822
    1PA     C17 1101   0.060   5.655   4.743
    1PA     H7R 1102   0.004   5.744   4.773
    1PA     H7S 1103   0.027   5.616   4.647
    1PA     C16 1104   0.032   5.540   4.840
    1PA     H6R 1105  -0.071   5.505   4.837
    1PA     H6S 1106   0.101   5.455   4.837
    1PA     C15 1107   0.044   5.603   4.980
    1PA     H5R 1108   0.138   5.657   4.994
    1PA     H5S 1109  -0.031   5.681   4.996
    1PA     C14 1110   0.031   5.495   5.088
    1PA     H4R 1111  -0.058   5.434   5.074
    1PA     H4S 1112   0.120   5.432   5.090
    1PA     C13 1113   0.018   5.564   5.224
    1PA     H3R 1114  -0.068   5.631   5.216
    1PA     H3S 1115   0.007   5.479   5.291
    1PA     C12 1116   0.144   5.642   5.263
    1PA     H2R 1117   0.229   5.577   5.239
    1PA     H2S 1118   0.162   5.735   5.207
    2PC     C11 1119   0.132   5.675   5.409
    2PC     O12 1120   0.031   5.690   5.476
    2PC     O11 1121   0.258   5.699   5.449
    2PC      C1 1122   0.280   5.739   5.585
    2PC      HR 1123   0.241   5.841   5.598
    2PC      HS 1124   0.229   5.677   5.659
    2PC      C2 1125   0.432   5.728   5.606
    2PC      HX 1126   0.468   5.633   5.564
    2PC      C3 1127   0.476   5.751   5.751
    2PC      HA 1128   0.428   5.682   5.821
    2PC      HB 1129   0.585   5.741   5.753
    2PC     O31 1130   0.432   5.878   5.803
    2PC     P31 1131   0.481   5.930   5.947
    2PC     O32 1132   0.510   5.800   6.034
    2PC     C31 1133   0.416   5.764   6.137
    2PC     H1A 1134   0.448   5.831   6.217
    2PC     H1B 1135   0.312   5.772   6.104
    2PC     C32 1136   0.445   5.616   6.163
    2PC     H2A 1137   0.366   5.570   6.222
    2PC     H2B 1138   0.449   5.571   6.064
    2PC     N31 1139   0.578   5.582   6.225
    2PC     C33 1140   0.675   5.568   6.112
    2PC     H3A 1141   0.767   5.522   6.151
    2PC     H3B 1142   0.643   5.496   6.037
    2PC     H3C 1143   0.690   5.668   6.072
    2PC     C34 1144   0.625   5.686   6.322
    2PC     H4A 1145   0.562   5.670   6.410
    2PC     H4B 1146   0.728   5.655   6.341
    2PC     H4C 1147   0.621   5.787   6.282
    2PC     C35 1148   0.568   5.445   6.285
    2PC     H5A 1149   0.670   5.421   6.313
    2PC     H5B 1150   0.527   5.379   6.208
    2PC     H5C 1151   0.511   5.448   6.378
    2PC     O33 1152   0.617   5.985   5.927
    2PC     O34 1153   0.404   6.031   6.024
    2PC     O21 1154   0.486   5.837   5.530
    2PC     C21 1155   0.614   5.840   5.491
    2PC     O22 1156   0.695   5.753   5.514
    3OL     C12 1157   0.658   5.971   5.429
    3OL     H2R 1158   0.755   5.960   5.381
    3OL     H2S 1159   0.662   6.049   5.505
    3OL     C13 1160   0.566   6.009   5.313
    3OL     H3R 1161   0.465   5.991   5.352
    3OL     H3S 1162   0.579   5.939   5.230
    3OL     C14 1163   0.583   6.155   5.268
    3OL     H4R 1164   0.675   6.169   5.212
    3OL     H4S 1165   0.600   6.218   5.356
    3OL     C15 1166   0.463   6.199   5.184
    3OL     H5R 1167   0.387   6.235   5.255
    3OL     H5S 1168   0.422   6.116   5.127
    3OL     C16 1169   0.505   6.306   5.082
    3OL     H6R 1170   0.410   6.329   5.033
    3OL     H6S 1171   0.562   6.268   4.997
    3OL     C17 1172   0.568   6.436   5.135
    3OL     H7R 1173   0.639   6.416   5.215
    3OL     H7S 1174   0.491   6.489   5.192
    3OL     C18 1175   0.623   6.526   5.024
    3OL     H8R 1176   0.550   6.561   4.951
    3OL     H8S 1177   0.696   6.462   4.974
    3OL     C19 1178   0.696   6.650   5.071
    3OL     H9R 1179   0.691   6.670   5.178
    3OL    C110 1180   0.776   6.722   4.995
    3OL    H10R 1181   0.828   6.803   5.046
    3OL    C111 1182   0.796   6.706   4.846
    3OL    H11R 1183   0.777   6.802   4.797
    3OL    H11S 1184   0.722   6.647   4.791
    3OL    C112 1185   0.935   6.650   4.813
    3OL    H12R 1186   0.920   6.542   4.823
    3OL    H12S 1187   0.996   6.689   4.895
    3OL    C113 1188   0.981   6.689   4.672
    3OL    H13R 1189   0.995   6.796   4.682
    3OL    H13S 1190   0.903   6.667   4.598
    3OL    C114 1191   1.114   6.619   4.641
    3OL    H14R 1192   1.116   6.518   4.683
    3OL    H14S 1193   1.192   6.672   4.695
    3OL    C115 1194   1.158   6.620   4.494
    3OL    H15R 1195   1.263   6.590   4.481
    3OL    H15S 1196   1.150   6.716   4.444
    3OL    C116 1197   1.078   6.520   4.409
    3OL    H16R 1198   1.128   6.524   4.312
    3OL    H16S 1199   0.975   6.553   4.395
    3OL    C117 1200   1.083   6.378   4.466
    3OL    H17R 1201   1.026   6.298   4.418
    3OL    H17S 1202   1.038   6.373   4.565
    3OL    C118 1203   1.228   6.327   4.475
    3OL    H18R 1204   1.277   6.319   4.378
    3OL    H18S 1205   1.221   6.227   4.519
    3OL    H18T 1206   1.288   6.388   4.542
    1PA    C116 1207   7.442   4.102   4.244
    1PA    H16R 1208   7.506   4.017   4.268
    1PA    H16S 1209   7.459   4.178   4.320
    1PA    H16T 1210   7.484   4.127   4.147
    1PA    C115 1211   7.296   4.054   4.247
    1PA    H15R 1212   7.228   4.139   4.233
    1PA    H15S 1213   7.271   3.978   4.174
    1PA    C114 1214   7.269   4.003   4.390
    1PA    H14R 1215   7.339   3.933   4.435
    1PA    H14S 1216   7.260   4.093   4.451
    1PA    C113 1217   7.125   3.950   4.384
    1PA    H13R 1218   7.053   4.016   4.337
    1PA    H13S 1219   7.121   3.863   4.318
    1PA    C112 1220   7.076   3.917   4.526
    1PA    H12R 1221   7.158   3.852   4.558
    1PA    H12S 1222   7.065   4.014   4.575
    1PA    C111 1223   6.945   3.839   4.512
    1PA    H11R 1224   6.947   3.778   4.422
    1PA    H11S 1225   6.948   3.777   4.602
    1PA    C110 1226   6.820   3.929   4.516
    1PA    H10R 1227   6.840   4.006   4.441
    1PA    H10S 1228   6.730   3.877   4.480
    1PA     C19 1229   6.791   3.993   4.652
    1PA     H9R 1230   6.773   3.909   4.720
    1PA     H9S 1231   6.875   4.054   4.686
    1PA     C18 1232   6.669   4.085   4.645
    1PA     H8R 1233   6.705   4.167   4.584
    1PA     H8S 1234   6.590   4.028   4.594
    1PA     C17 1235   6.628   4.134   4.784
    1PA     H7R 1236   6.573   4.054   4.835
    1PA     H7S 1237   6.718   4.161   4.840
    1PA     C16 1238   6.534   4.254   4.778
    1PA     H6R 1239   6.590   4.333   4.726
    1PA     H6S 1240   6.444   4.228   4.721
    1PA     C15 1241   6.482   4.319   4.907
    1PA     H5R 1242   6.417   4.403   4.882
    1PA     H5S 1243   6.416   4.238   4.940
    1PA     C14 1244   6.593   4.341   5.010
    1PA     H4R 1245   6.549   4.350   5.109
    1PA     H4S 1246   6.663   4.257   5.010
    1PA     C13 1247   6.684   4.462   4.987
    1PA     H3R 1248   6.768   4.464   5.057
    1PA     H3S 1249   6.719   4.467   4.883
    1PA     C12 1250   6.602   4.590   5.008
    1PA     H2R 1251   6.675   4.672   5.010
    1PA     H2S 1252   6.535   4.601   4.923
    2PC     C11 1253   6.525   4.601   5.137
    2PC     O12 1254   6.413   4.556   5.153
    2PC     O11 1255   6.603   4.657   5.231
    2PC      C1 1256   6.553   4.684   5.363
    2PC      HR 1257   6.481   4.607   5.390
    2PC      HS 1258   6.638   4.682   5.432
    2PC      C2 1259   6.484   4.821   5.365
    2PC      HX 1260   6.565   4.895   5.372
    2PC      C3 1261   6.394   4.833   5.489
    2PC      HA 1262   6.444   4.803   5.581
    2PC      HB 1263   6.352   4.934   5.498
    2PC     O31 1264   6.293   4.733   5.471
    2PC     P31 1265   6.164   4.755   5.564
    2PC     O32 1266   6.065   4.646   5.501
    2PC     C31 1267   5.991   4.555   5.584
    2PC     H1A 1268   6.059   4.483   5.631
    2PC     H1B 1269   5.943   4.616   5.661
    2PC     C32 1270   5.906   4.467   5.492
    2PC     H2A 1271   5.967   4.404   5.428
    2PC     H2B 1272   5.857   4.394   5.557
    2PC     N31 1273   5.811   4.527   5.392
    2PC     C33 1274   5.888   4.586   5.278
    2PC     H3A 1275   5.934   4.680   5.309
    2PC     H3B 1276   5.956   4.509   5.243
    2PC     H3C 1277   5.816   4.611   5.199
    2PC     C34 1278   5.723   4.417   5.340
    2PC     H4A 1279   5.657   4.383   5.420
    2PC     H4B 1280   5.674   4.448   5.248
    2PC     H4C 1281   5.791   4.334   5.321
    2PC     C35 1282   5.722   4.627   5.459
    2PC     H5A 1283   5.658   4.578   5.532
    2PC     H5B 1284   5.662   4.661   5.375
    2PC     H5C 1285   5.779   4.703   5.513
    2PC     O33 1286   6.169   4.731   5.710
    2PC     O34 1287   6.113   4.894   5.553
    2PC     O21 1288   6.424   4.852   5.238
    2PC     C21 1289   6.374   4.974   5.208
    2PC     O22 1290   6.385   5.069   5.282
    3OL     C12 1291   6.314   4.986   5.070
    3OL     H2R 1292   6.367   4.924   4.997
    3OL     H2S 1293   6.348   5.086   5.043
    3OL     C13 1294   6.162   4.972   5.067
    3OL     H3R 1295   6.128   5.005   4.968
    3OL     H3S 1296   6.122   5.040   5.142
    3OL     C14 1297   6.111   4.833   5.109
    3OL     H4R 1298   6.002   4.830   5.107
    3OL     H4S 1299   6.149   4.809   5.209
    3OL     C15 1300   6.154   4.725   5.009
    3OL     H5R 1301   6.261   4.708   5.000
    3OL     H5S 1302   6.119   4.750   4.909
    3OL     C16 1303   6.088   4.592   5.049
    3OL     H6R 1304   5.981   4.596   5.028
    3OL     H6S 1305   6.096   4.565   5.154
    3OL     C17 1306   6.145   4.472   4.972
    3OL     H7R 1307   6.254   4.473   4.986
    3OL     H7S 1308   6.121   4.481   4.866
    3OL     C18 1309   6.087   4.348   5.042
    3OL     H8R 1310   5.980   4.365   5.037
    3OL     H8S 1311   6.122   4.337   5.145
    3OL     C19 1312   6.135   4.229   4.964
    3OL     H9R 1313   6.230   4.188   4.997
    3OL    C110 1314   6.068   4.155   4.877
    3OL    H10R 1315   6.116   4.064   4.840
    3OL    C111 1316   5.932   4.185   4.819
    3OL    H11R 1317   5.908   4.288   4.847
    3OL    H11S 1318   5.859   4.119   4.866
    3OL    C112 1319   5.930   4.169   4.667
    3OL    H12R 1320   5.977   4.073   4.643
    3OL    H12S 1321   6.000   4.247   4.633
    3OL    C113 1322   5.792   4.189   4.603
    3OL    H13R 1323   5.804   4.232   4.503
    3OL    H13S 1324   5.742   4.267   4.660
    3OL    C114 1325   5.701   4.065   4.598
    3OL    H14R 1326   5.685   4.010   4.690
    3OL    H14S 1327   5.756   4.000   4.529
    3OL    C115 1328   5.567   4.091   4.528
    3OL    H15R 1329   5.513   4.171   4.579
    3OL    H15S 1330   5.507   4.003   4.549
    3OL    C116 1331   5.567   4.102   4.375
    3OL    H16R 1332   5.599   4.005   4.338
    3OL    H16S 1333   5.640   4.178   4.345
    3OL    C117 1334   5.429   4.150   4.325
    3OL    H17R 1335   5.390   4.241   4.370
    3OL    H17S 1336   5.351   4.075   4.339
    3OL    C118 1337   5.434   4.160   4.172
    3OL    H18R 1338   5.335   4.159   4.126
    3OL    H18S 1339   5.478   4.075   4.119
    3OL    H18T 1340   5.488   4.246   4.133
    1PA    C116 1341   0.231   3.575   4.339
    1PA    H16R 1342   0.340   3.578   4.343
    1PA    H16S 1343   0.200   3.680   4.339
    1PA    H16T 1344   0.202   3.530   4.244
    1PA    C115 1345   0.164   3.491   4.448
    1PA    H15R 1346   0.056   3.508   4.445
    1PA    H15S 1347   0.191   3.387   4.429
    1PA    C114 1348   0.217   3.534   4.586
    1PA    H14R 1349   0.325   3.546   4.579
    1PA    H14S 1350   0.173   3.627   4.623
    1PA    C113 1351   0.185   3.432   4.695
    1PA    H13R 1352   0.087   3.452   4.739
    1PA    H13S 1353   0.192   3.326   4.668
    1PA    C112 1354   0.287   3.444   4.810
    1PA    H12R 1355   0.275   3.371   4.890
    1PA    H12S 1356   0.384   3.417   4.768
    1PA    C111 1357   0.294   3.587   4.864
    1PA    H11R 1358   0.332   3.658   4.791
    1PA    H11S 1359   0.195   3.623   4.895
    1PA    C110 1360   0.379   3.577   4.991
    1PA    H10R 1361   0.313   3.525   5.061
    1PA    H10S 1362   0.461   3.508   4.970
    1PA     C19 1363   0.420   3.720   5.028
    1PA     H9R 1364   0.333   3.785   5.018
    1PA     H9S 1365   0.435   3.718   5.136
    1PA     C18 1366   0.543   3.784   4.961
    1PA     H8R 1367   0.630   3.731   5.001
    1PA     H8S 1368   0.549   3.757   4.855
    1PA     C17 1369   0.546   3.934   4.993
    1PA     H7R 1370   0.640   3.977   4.958
    1PA     H7S 1371   0.454   3.983   4.960
    1PA     C16 1372   0.551   3.959   5.144
    1PA     H6R 1373   0.456   3.925   5.186
    1PA     H6S 1374   0.643   3.915   5.183
    1PA     C15 1375   0.567   4.110   5.165
    1PA     H5R 1376   0.661   4.135   5.114
    1PA     H5S 1377   0.485   4.163   5.116
    1PA     C14 1378   0.584   4.145   5.313
    1PA     H4R 1379   0.489   4.120   5.362
    1PA     H4S 1380   0.655   4.076   5.360
    1PA     C13 1381   0.614   4.292   5.346
    1PA     H3R 1382   0.622   4.304   5.454
    1PA     H3S 1383   0.708   4.310   5.293
    1PA     C12 1384   0.520   4.386   5.270
    1PA     H2R 1385   0.550   4.489   5.290
    1PA     H2S 1386   0.524   4.361   5.164
    2PC     C11 1387   0.379   4.365   5.318
    2PC     O12 1388   0.298   4.286   5.273
    2PC     O11 1389   0.349   4.447   5.420
    2PC      C1 1390   0.231   4.414   5.495
    2PC      HR 1391   0.201   4.501   5.554
    2PC      HS 1392   0.145   4.410   5.429
    2PC      C2 1393   0.247   4.291   5.585
    2PC      HX 1394   0.150   4.291   5.637
    2PC      C3 1395   0.362   4.297   5.686
    2PC      HA 1396   0.453   4.261   5.638
    2PC      HB 1397   0.383   4.397   5.726
    2PC     O31 1398   0.337   4.219   5.805
    2PC     P31 1399   0.448   4.198   5.918
    2PC     O32 1400   0.358   4.117   6.023
    2PC     C31 1401   0.242   4.185   6.076
    2PC     H1A 1402   0.270   4.281   6.119
    2PC     H1B 1403   0.167   4.197   5.997
    2PC     C32 1404   0.168   4.093   6.174
    2PC     H2A 1405   0.084   4.157   6.204
    2PC     H2B 1406   0.148   4.000   6.122
    2PC     N31 1407   0.241   4.062   6.301
    2PC     C33 1408   0.267   4.184   6.384
    2PC     H3A 1409   0.352   4.239   6.342
    2PC     H3B 1410   0.178   4.247   6.389
    2PC     H3C 1411   0.289   4.153   6.486
    2PC     C34 1412   0.158   3.973   6.389
    2PC     H4A 1413   0.062   4.025   6.392
    2PC     H4B 1414   0.135   3.880   6.337
    2PC     H4C 1415   0.205   3.963   6.487
    2PC     C35 1416   0.370   3.992   6.271
    2PC     H5A 1417   0.406   3.947   6.363
    2PC     H5B 1418   0.432   4.065   6.218
    2PC     H5C 1419   0.349   3.920   6.192
    2PC     O33 1420   0.570   4.123   5.879
    2PC     O34 1421   0.494   4.326   5.977
    2PC     O21 1422   0.263   4.172   5.507
    2PC     C21 1423   0.154   4.119   5.449
    2PC     O22 1424   0.037   4.145   5.470
    3OL     C12 1425   0.191   4.018   5.344
    3OL     H2R 1426   0.198   3.919   5.391
    3OL     H2S 1427   0.282   4.046   5.291
    3OL     C13 1428   0.079   4.015   5.240
    3OL     H3R 1429   0.074   4.111   5.188
    3OL     H3S 1430  -0.017   3.991   5.287
    3OL     C14 1431   0.101   3.905   5.136
    3OL     H4R 1432   0.099   3.808   5.186
    3OL     H4S 1433   0.199   3.914   5.088
    3OL     C15 1434  -0.008   3.909   5.027
    3OL     H5R 1435  -0.015   4.005   4.976
    3OL     H5S 1436  -0.103   3.897   5.079
    3OL     C16 1437   0.010   3.800   4.922
    3OL     H6R 1438   0.014   3.701   4.967
    3OL     H6S 1439   0.096   3.802   4.854
    3OL     C17 1440  -0.109   3.806   4.825
    3OL     H7R 1441  -0.196   3.809   4.891
    3OL     H7S 1442  -0.114   3.708   4.776
    3OL     C18 1443  -0.112   3.912   4.715
    3OL     H8R 1444  -0.015   3.908   4.665
    3OL     H8S 1445  -0.114   4.016   4.750
    3OL     C19 1446  -0.218   3.881   4.613
    3OL     H9R 1447  -0.321   3.898   4.645
    3OL    C110 1448  -0.190   3.838   4.490
    3OL    H10R 1449  -0.278   3.814   4.431
    3OL    C111 1450  -0.056   3.814   4.425
    3OL    H11R 1451  -0.015   3.722   4.467
    3OL    H11S 1452   0.012   3.897   4.444
    3OL    C112 1453  -0.070   3.795   4.274
    3OL    H12R 1454  -0.132   3.713   4.237
    3OL    H12S 1455   0.031   3.767   4.243
    3OL    C113 1456  -0.092   3.932   4.208
    3OL    H13R 1457  -0.017   4.005   4.240
    3OL    H13S 1458  -0.185   3.982   4.236
    3OL    C114 1459  -0.091   3.925   4.054
    3OL    H14R 1460  -0.169   3.856   4.025
    3OL    H14S 1461   0.006   3.883   4.026
    3OL    C115 1462  -0.107   4.065   3.993
    3OL    H15R 1463  -0.010   4.115   4.003
    3OL    H15S 1464  -0.181   4.131   4.038
    3OL    C116 1465  -0.122   4.064   3.840
    3OL    H16R 1466  -0.028   4.019   3.807
    3OL    H16S 1467  -0.132   4.164   3.800
    3OL    C117 1468  -0.234   3.977   3.780
    3OL    H17R 1469  -0.329   4.015   3.819
    3OL    H17S 1470  -0.215   3.873   3.806
    3OL    C118 1471  -0.247   3.988   3.628
    3OL    H18R 1472  -0.305   4.079   3.610
    3OL    H18S 1473  -0.314   3.909   3.594
    3OL    H18T 1474  -0.148   3.993   3.581
    1PA    C116 1475   1.676   2.468   4.729
    1PA    H16R 1476   1.730   2.548   4.779
    1PA    H16S 1477   1.747   2.390   4.702
    1PA    H16T 1478   1.592   2.429   4.787
    1PA    C115 1479   1.614   2.528   4.602
    1PA    H15R 1480   1.692   2.557   4.531
    1PA    H15S 1481   1.559   2.444   4.559
    1PA    C114 1482   1.520   2.645   4.630
    1PA    H14R 1483   1.559   2.721   4.697
    1PA    H14S 1484   1.509   2.696   4.533
    1PA    C113 1485   1.385   2.606   4.692
    1PA    H13R 1486   1.315   2.544   4.635
    1PA    H13S 1487   1.414   2.542   4.776
    1PA    C112 1488   1.312   2.732   4.740
    1PA    H12R 1489   1.372   2.778   4.819
    1PA    H12S 1490   1.295   2.805   4.661
    1PA    C111 1491   1.186   2.681   4.810
    1PA    H11R 1492   1.150   2.601   4.744
    1PA    H11S 1493   1.222   2.620   4.893
    1PA    C110 1494   1.073   2.779   4.842
    1PA    H10R 1495   1.102   2.839   4.929
    1PA    H10S 1496   1.040   2.841   4.758
    1PA     C19 1497   0.956   2.691   4.888
    1PA     H9R 1498   0.933   2.627   4.802
    1PA     H9S 1499   0.991   2.628   4.970
    1PA     C18 1500   0.821   2.757   4.918
    1PA     H8R 1501   0.802   2.842   4.853
    1PA     H8S 1502   0.738   2.685   4.919
    1PA     C17 1503   0.812   2.827   5.054
    1PA     H7R 1504   0.848   2.760   5.133
    1PA     H7S 1505   0.887   2.906   5.062
    1PA     C16 1506   0.684   2.910   5.066
    1PA     H6R 1507   0.676   2.980   4.983
    1PA     H6S 1508   0.597   2.843   5.058
    1PA     C15 1509   0.678   2.979   5.203
    1PA     H5R 1510   0.701   2.909   5.284
    1PA     H5S 1511   0.750   3.060   5.199
    1PA     C14 1512   0.542   3.042   5.235
    1PA     H4R 1513   0.468   2.962   5.231
    1PA     H4S 1514   0.541   3.075   5.339
    1PA     C13 1515   0.501   3.155   5.139
    1PA     H3R 1516   0.586   3.223   5.127
    1PA     H3S 1517   0.480   3.106   5.044
    1PA     C12 1518   0.368   3.225   5.169
    1PA     H2R 1519   0.331   3.281   5.083
    1PA     H2S 1520   0.298   3.141   5.184
    2PC     C11 1521   0.369   3.308   5.295
    2PC     O12 1522   0.413   3.421   5.303
    2PC     O11 1523   0.309   3.246   5.398
    2PC      C1 1524   0.324   3.301   5.530
    2PC      HR 1525   0.311   3.409   5.543
    2PC      HS 1526   0.250   3.254   5.596
    2PC      C2 1527   0.458   3.256   5.591
    2PC      HX 1528   0.491   3.165   5.539
    2PC      C3 1529   0.447   3.240   5.743
    2PC      HA 1530   0.418   3.136   5.765
    2PC      HB 1531   0.540   3.256   5.798
    2PC     O31 1532   0.340   3.319   5.798
    2PC     P31 1533   0.356   3.384   5.943
    2PC     O32 1534   0.297   3.269   6.037
    2PC     C31 1535   0.357   3.243   6.165
    2PC     H1A 1536   0.343   3.135   6.175
    2PC     H1B 1537   0.466   3.254   6.175
    2PC     C32 1538   0.288   3.337   6.265
    2PC     H2A 1539   0.341   3.325   6.360
    2PC     H2B 1540   0.296   3.441   6.234
    2PC     N31 1541   0.145   3.316   6.303
    2PC     C33 1542   0.063   3.333   6.179
    2PC     H3A 1543  -0.043   3.322   6.203
    2PC     H3B 1544   0.078   3.433   6.139
    2PC     H3C 1545   0.092   3.259   6.103
    2PC     C34 1546   0.118   3.177   6.354
    2PC     H4A 1547   0.010   3.173   6.368
    2PC     H4B 1548   0.144   3.099   6.283
    2PC     H4C 1549   0.161   3.159   6.453
    2PC     C35 1550   0.103   3.408   6.414
    2PC     H5A 1551  -0.003   3.383   6.424
    2PC     H5B 1552   0.123   3.512   6.386
    2PC     H5C 1553   0.163   3.386   6.502
    2PC     O33 1554   0.495   3.428   5.967
    2PC     O34 1555   0.276   3.508   5.965
    2PC     O21 1556   0.552   3.362   5.563
    2PC     C21 1557   0.676   3.321   5.534
    2PC     O22 1558   0.712   3.205   5.527
    3OL     C12 1559   0.767   3.430   5.482
    3OL     H2R 1560   0.702   3.490   5.419
    3OL     H2S 1561   0.832   3.381   5.409
    3OL     C13 1562   0.843   3.505   5.591
    3OL     H3R 1563   0.897   3.439   5.660
    3OL     H3S 1564   0.781   3.566   5.658
    3OL     C14 1565   0.948   3.600   5.532
    3OL     H4R 1566   1.025   3.538   5.486
    3OL     H4S 1567   0.997   3.651   5.616
    3OL     C15 1568   0.891   3.704   5.434
    3OL     H5R 1569   0.793   3.737   5.469
    3OL     H5S 1570   0.880   3.655   5.337
    3OL     C16 1571   0.982   3.827   5.420
    3OL     H6R 1572   1.078   3.797   5.377
    3OL     H6S 1573   1.003   3.868   5.520
    3OL     C17 1574   0.926   3.936   5.328
    3OL     H7R 1575   0.852   3.999   5.378
    3OL     H7S 1576   0.874   3.900   5.239
    3OL     C18 1577   1.032   4.029   5.269
    3OL     H8R 1578   1.119   3.968   5.245
    3OL     H8S 1579   1.077   4.090   5.348
    3OL     C19 1580   0.988   4.122   5.158
    3OL     H9R 1581   0.951   4.213   5.203
    3OL    C110 1582   1.007   4.102   5.028
    3OL    H10R 1583   0.971   4.183   4.964
    3OL    C111 1584   1.050   3.975   4.960
    3OL    H11R 1585   1.009   3.898   5.026
    3OL    H11S 1586   1.159   3.966   4.964
    3OL    C112 1587   0.988   3.936   4.825
    3OL    H12R 1588   0.881   3.935   4.849
    3OL    H12S 1589   1.004   3.830   4.806
    3OL    C113 1590   1.028   4.018   4.702
    3OL    H13R 1591   0.981   3.975   4.613
    3OL    H13S 1592   1.135   4.008   4.684
    3OL    C114 1593   0.981   4.164   4.701
    3OL    H14R 1594   1.028   4.200   4.609
    3OL    H14S 1595   1.044   4.215   4.775
    3OL    C115 1596   0.829   4.182   4.710
    3OL    H15R 1597   0.810   4.161   4.815
    3OL    H15S 1598   0.768   4.110   4.655
    3OL    C116 1599   0.772   4.323   4.689
    3OL    H16R 1600   0.788   4.361   4.588
    3OL    H16S 1601   0.822   4.388   4.761
    3OL    C117 1602   0.620   4.319   4.708
    3OL    H17R 1603   0.573   4.232   4.663
    3OL    H17S 1604   0.579   4.408   4.659
    3OL    C118 1605   0.585   4.313   4.857
    3OL    H18R 1606   0.614   4.219   4.906
    3OL    H18S 1607   0.478   4.325   4.876
    3OL    H18T 1608   0.627   4.401   4.906
    1PA    C116 1609   5.273   1.577   3.976
    1PA    H16R 1610   5.166   1.599   3.984
    1PA    H16S 1611   5.292   1.549   3.873
    1PA    H16T 1612   5.310   1.676   4.001
    1PA    C115 1613   5.330   1.475   4.076
    1PA    H15R 1614   5.437   1.492   4.081
    1PA    H15S 1615   5.278   1.482   4.172
    1PA    C114 1616   5.305   1.327   4.041
    1PA    H14R 1617   5.198   1.303   4.040
    1PA    H14S 1618   5.337   1.317   3.937
    1PA    C113 1619   5.376   1.231   4.137
    1PA    H13R 1620   5.484   1.242   4.124
    1PA    H13S 1621   5.348   1.260   4.238
    1PA    C112 1622   5.339   1.085   4.104
    1PA    H12R 1623   5.232   1.068   4.107
    1PA    H12S 1624   5.353   1.054   4.000
    1PA    C111 1625   5.407   0.982   4.196
    1PA    H11R 1626   5.386   0.887   4.148
    1PA    H11S 1627   5.515   0.993   4.193
    1PA    C110 1628   5.363   0.968   4.343
    1PA    H10R 1629   5.423   0.892   4.392
    1PA    H10S 1630   5.395   1.057   4.398
    1PA     C19 1631   5.210   0.953   4.354
    1PA     H9R 1632   5.156   1.044   4.327
    1PA     H9S 1633   5.176   0.872   4.290
    1PA     C18 1634   5.181   0.922   4.502
    1PA     H8R 1635   5.215   1.003   4.566
    1PA     H8S 1636   5.073   0.930   4.509
    1PA     C17 1637   5.228   0.780   4.537
    1PA     H7R 1638   5.179   0.710   4.469
    1PA     H7S 1639   5.337   0.771   4.543
    1PA     C16 1640   5.182   0.732   4.675
    1PA     H6R 1641   5.074   0.740   4.685
    1PA     H6S 1642   5.205   0.626   4.694
    1PA     C15 1643   5.243   0.810   4.792
    1PA     H5R 1644   5.351   0.815   4.778
    1PA     H5S 1645   5.213   0.915   4.794
    1PA     C14 1646   5.212   0.746   4.928
    1PA     H4R 1647   5.105   0.738   4.947
    1PA     H4S 1648   5.246   0.642   4.924
    1PA     C13 1649   5.272   0.824   5.046
    1PA     H3R 1650   5.375   0.856   5.027
    1PA     H3S 1651   5.215   0.917   5.048
    1PA     C12 1652   5.270   0.740   5.174
    1PA     H2R 1653   5.167   0.715   5.201
    1PA     H2S 1654   5.327   0.647   5.181
    2PC     C11 1655   5.322   0.806   5.300
    2PC     O12 1656   5.433   0.851   5.318
    2PC     O11 1657   5.217   0.809   5.384
    2PC      C1 1658   5.230   0.852   5.521
    2PC      HR 1659   5.304   0.930   5.540
    2PC      HS 1660   5.132   0.890   5.552
    2PC      C2 1661   5.259   0.732   5.612
    2PC      HX 1662   5.197   0.649   5.577
    2PC      C3 1663   5.224   0.767   5.757
    2PC      HA 1664   5.116   0.779   5.769
    2PC      HB 1665   5.257   0.683   5.819
    2PC     O31 1666   5.288   0.887   5.803
    2PC     P31 1667   5.286   0.920   5.960
    2PC     O32 1668   5.314   1.077   5.967
    2PC     C31 1669   5.287   1.165   5.856
    2PC     H1A 1670   5.307   1.115   5.761
    2PC     H1B 1671   5.185   1.203   5.864
    2PC     C32 1672   5.389   1.280   5.862
    2PC     H2A 1673   5.372   1.333   5.769
    2PC     H2B 1674   5.375   1.344   5.949
    2PC     N31 1675   5.535   1.243   5.858
    2PC     C33 1676   5.563   1.188   5.722
    2PC     H3A 1677   5.512   1.091   5.722
    2PC     H3B 1678   5.529   1.260   5.648
    2PC     H3C 1679   5.671   1.176   5.710
    2PC     C34 1680   5.608   1.373   5.872
    2PC     H4A 1681   5.572   1.453   5.807
    2PC     H4B 1682   5.591   1.411   5.973
    2PC     H4C 1683   5.712   1.349   5.849
    2PC     C35 1684   5.580   1.155   5.970
    2PC     H5A 1685   5.688   1.148   5.954
    2PC     H5B 1686   5.545   1.052   5.963
    2PC     H5C 1687   5.563   1.205   6.066
    2PC     O33 1688   5.161   0.869   6.022
    2PC     O34 1689   5.395   0.837   6.016
    2PC     O21 1690   5.398   0.701   5.597
    2PC     C21 1691   5.443   0.580   5.632
    2PC     O22 1692   5.368   0.492   5.670
    3OL     C12 1693   5.581   0.549   5.580
    3OL     H2R 1694   5.591   0.447   5.617
    3OL     H2S 1695   5.654   0.616   5.628
    3OL     C13 1696   5.589   0.559   5.427
    3OL     H3R 1697   5.570   0.661   5.394
    3OL     H3S 1698   5.511   0.496   5.384
    3OL     C14 1699   5.724   0.504   5.381
    3OL     H4R 1700   5.737   0.403   5.418
    3OL     H4S 1701   5.797   0.572   5.426
    3OL     C15 1702   5.738   0.505   5.228
    3OL     H5R 1703   5.703   0.598   5.183
    3OL     H5S 1704   5.678   0.420   5.193
    3OL     C16 1705   5.883   0.475   5.189
    3OL     H6R 1706   5.938   0.569   5.203
    3OL     H6S 1707   5.889   0.451   5.083
    3OL     C17 1708   5.942   0.358   5.269
    3OL     H7R 1709   5.869   0.277   5.269
    3OL     H7S 1710   5.950   0.385   5.375
    3OL     C18 1711   6.087   0.331   5.226
    3OL     H8R 1712   6.152   0.305   5.310
    3OL     H8S 1713   6.130   0.426   5.193
    3OL     C19 1714   6.092   0.237   5.108
    3OL     H9R 1715   6.047   0.139   5.120
    3OL    C110 1716   6.115   0.277   4.984
    3OL    H10R 1717   6.100   0.201   4.907
    3OL    C111 1718   6.177   0.408   4.943
    3OL    H11R 1719   6.270   0.420   4.998
    3OL    H11S 1720   6.112   0.488   4.979
    3OL    C112 1721   6.187   0.428   4.791
    3OL    H12R 1722   6.206   0.535   4.785
    3OL    H12S 1723   6.098   0.400   4.735
    3OL    C113 1724   6.304   0.354   4.725
    3OL    H13R 1725   6.275   0.249   4.736
    3OL    H13S 1726   6.400   0.375   4.774
    3OL    C114 1727   6.313   0.392   4.576
    3OL    H14R 1728   6.309   0.498   4.553
    3OL    H14S 1729   6.223   0.346   4.535
    3OL    C115 1730   6.416   0.305   4.503
    3OL    H15R 1731   6.403   0.199   4.526
    3OL    H15S 1732   6.516   0.344   4.523
    3OL    C116 1733   6.399   0.320   4.351
    3OL    H16R 1734   6.432   0.421   4.325
    3OL    H16S 1735   6.292   0.312   4.330
    3OL    C117 1736   6.476   0.225   4.258
    3OL    H17R 1737   6.441   0.128   4.293
    3OL    H17S 1738   6.583   0.236   4.277
    3OL    C118 1739   6.431   0.232   4.111
    3OL    H18R 1740   6.442   0.330   4.064
    3OL    H18S 1741   6.331   0.190   4.098
    3OL    H18T 1742   6.489   0.165   4.047
    1PA    C116 1743   1.037   0.692   4.277
    1PA    H16R 1744   1.138   0.733   4.278
    1PA    H16S 1745   1.003   0.696   4.173
    1PA    H16T 1746   1.027   0.594   4.325
    1PA    C115 1747   0.950   0.792   4.353
    1PA    H15R 1748   0.936   0.881   4.291
    1PA    H15S 1749   0.848   0.753   4.361
    1PA    C114 1750   1.003   0.823   4.494
    1PA    H14R 1751   1.111   0.841   4.499
    1PA    H14S 1752   0.941   0.907   4.525
    1PA    C113 1753   0.966   0.712   4.593
    1PA    H13R 1754   0.861   0.683   4.583
    1PA    H13S 1755   1.018   0.618   4.570
    1PA    C112 1756   0.989   0.761   4.737
    1PA    H12R 1757   1.093   0.784   4.760
    1PA    H12S 1758   0.930   0.852   4.744
    1PA    C111 1759   0.926   0.664   4.838
    1PA    H11R 1760   0.834   0.622   4.797
    1PA    H11S 1761   0.991   0.580   4.862
    1PA    C110 1762   0.900   0.734   4.973
    1PA    H10R 1763   1.002   0.762   5.000
    1PA    H10S 1764   0.833   0.819   4.959
    1PA     C19 1765   0.841   0.656   5.091
    1PA     H9R 1766   0.893   0.563   5.114
    1PA     H9S 1767   0.857   0.717   5.180
    1PA     C18 1768   0.692   0.623   5.073
    1PA     H8R 1769   0.633   0.714   5.063
    1PA     H8S 1770   0.675   0.566   4.981
    1PA     C17 1771   0.662   0.535   5.195
    1PA     H7R 1772   0.733   0.454   5.215
    1PA     H7S 1773   0.670   0.588   5.290
    1PA     C16 1774   0.519   0.480   5.185
    1PA     H6R 1775   0.447   0.562   5.184
    1PA     H6S 1776   0.510   0.417   5.097
    1PA     C15 1777   0.481   0.378   5.292
    1PA     H5R 1778   0.397   0.317   5.256
    1PA     H5S 1779   0.569   0.315   5.305
    1PA     C14 1780   0.464   0.433   5.435
    1PA     H4R 1781   0.555   0.486   5.464
    1PA     H4S 1782   0.373   0.492   5.439
    1PA     C13 1783   0.455   0.312   5.528
    1PA     H3R 1784   0.376   0.245   5.493
    1PA     H3S 1785   0.547   0.256   5.511
    1PA     C12 1786   0.434   0.352   5.675
    1PA     H2R 1787   0.527   0.395   5.712
    1PA     H2S 1788   0.354   0.426   5.683
    2PC     C11 1789   0.410   0.244   5.778
    2PC     O12 1790   0.435   0.129   5.749
    2PC     O11 1791   0.371   0.298   5.895
    2PC      C1 1792   0.311   0.215   5.996
    2PC      HR 1793   0.371   0.124   6.009
    2PC      HS 1794   0.318   0.273   6.088
    2PC      C2 1795   0.165   0.180   5.961
    2PC      HX 1796   0.105   0.263   5.923
    2PC      C3 1797   0.086   0.120   6.077
    2PC      HA 1798   0.067   0.205   6.143
    2PC      HB 1799  -0.007   0.067   6.052
    2PC     O31 1800   0.172   0.027   6.145
    2PC     P31 1801   0.151   0.013   6.304
    2PC     O32 1802   0.291   0.045   6.374
    2PC     C31 1803   0.393  -0.055   6.358
    2PC     H1A 1804   0.353  -0.149   6.397
    2PC     H1B 1805   0.413  -0.062   6.251
    2PC     C32 1806   0.525  -0.005   6.418
    2PC     H2A 1807   0.597  -0.081   6.386
    2PC     H2B 1808   0.555   0.090   6.373
    2PC     N31 1809   0.528   0.013   6.567
    2PC     C33 1810   0.665   0.064   6.600
    2PC     H3A 1811   0.673   0.165   6.559
    2PC     H3B 1812   0.685   0.061   6.707
    2PC     H3C 1813   0.746   0.006   6.557
    2PC     C34 1814   0.433   0.116   6.620
    2PC     H4A 1815   0.468   0.204   6.566
    2PC     H4B 1816   0.329   0.093   6.596
    2PC     H4C 1817   0.435   0.133   6.728
    2PC     C35 1818   0.499  -0.119   6.631
    2PC     H5A 1819   0.549  -0.201   6.578
    2PC     H5B 1820   0.391  -0.131   6.622
    2PC     H5C 1821   0.530  -0.120   6.735
    2PC     O33 1822   0.046   0.090   6.374
    2PC     O34 1823   0.109  -0.129   6.317
    2PC     O21 1824   0.181   0.087   5.853
    2PC     C21 1825   0.076   0.061   5.773
    2PC     O22 1826  -0.032   0.113   5.786
    3OL     C12 1827   0.109  -0.038   5.664
    3OL     H2R 1828   0.041  -0.123   5.667
    3OL     H2S 1829   0.207  -0.083   5.681
    3OL     C13 1830   0.133   0.036   5.531
    3OL     H3R 1831   0.226   0.093   5.525
    3OL     H3S 1832   0.044   0.096   5.510
    3OL     C14 1833   0.144  -0.065   5.416
    3OL     H4R 1834   0.067  -0.143   5.413
    3OL     H4S 1835   0.236  -0.124   5.421
    3OL     C15 1836   0.145  -0.007   5.274
    3OL     H5R 1837   0.193  -0.070   5.198
    3OL     H5S 1838   0.213   0.078   5.278
    3OL     C16 1839   0.005   0.035   5.228
    3OL     H6R 1840  -0.057   0.092   5.298
    3OL     H6S 1841  -0.049  -0.058   5.210
    3OL     C17 1842   0.013   0.120   5.100
    3OL     H7R 1843   0.077   0.205   5.125
    3OL     H7S 1844  -0.088   0.149   5.070
    3OL     C18 1845   0.076   0.052   4.978
    3OL     H8R 1846   0.028  -0.045   4.957
    3OL     H8S 1847   0.176   0.031   5.015
    3OL     C19 1848   0.081   0.145   4.860
    3OL     H9R 1849  -0.014   0.143   4.806
    3OL    C110 1850   0.184   0.216   4.816
    3OL    H10R 1851   0.159   0.278   4.730
    3OL    C111 1852   0.327   0.227   4.864
    3OL    H11R 1853   0.378   0.135   4.837
    3OL    H11S 1854   0.328   0.235   4.973
    3OL    C112 1855   0.412   0.342   4.807
    3OL    H12R 1856   0.503   0.356   4.866
    3OL    H12S 1857   0.351   0.430   4.825
    3OL    C113 1858   0.454   0.314   4.662
    3OL    H13R 1859   0.364   0.300   4.602
    3OL    H13S 1860   0.507   0.219   4.660
    3OL    C114 1861   0.534   0.428   4.596
    3OL    H14R 1862   0.614   0.473   4.655
    3OL    H14S 1863   0.467   0.514   4.589
    3OL    C115 1864   0.585   0.384   4.458
    3OL    H15R 1865   0.499   0.361   4.396
    3OL    H15S 1866   0.644   0.291   4.459
    3OL    C116 1867   0.670   0.492   4.391
    3OL    H16R 1868   0.739   0.541   4.461
    3OL    H16S 1869   0.609   0.573   4.351
    3OL    C117 1870   0.741   0.440   4.265
    3OL    H17R 1871   0.794   0.525   4.222
    3OL    H17S 1872   0.670   0.400   4.193
    3OL    C118 1873   0.854   0.339   4.289
    3OL    H18R 1874   0.920   0.339   4.202
    3OL    H18S 1875   0.807   0.244   4.316
    3OL    H18T 1876   0.916   0.377   4.370
    1PA    C116 1877   2.974   3.684   5.209
    1PA    H16R 1878   2.945   3.596   5.267
    1PA    H16S 1879   2.924   3.771   5.251
    1PA    H16T 1880   3.082   3.694   5.208
    1PA    C115 1881   2.933   3.667   5.062
    1PA    H15R 1882   2.983   3.584   5.011
    1PA    H15S 1883   2.824   3.660   5.064
    1PA    C114 1884   2.963   3.800   4.991
    1PA    H14R 1885   2.915   3.882   5.045
    1PA    H14S 1886   3.071   3.816   5.000
    1PA    C113 1887   2.933   3.810   4.841
    1PA    H13R 1888   2.993   3.884   4.789
    1PA    H13S 1889   2.956   3.710   4.804
    1PA    C112 1890   2.785   3.834   4.809
    1PA    H12R 1891   2.767   3.818   4.703
    1PA    H12S 1892   2.724   3.758   4.859
    1PA    C111 1893   2.726   3.970   4.849
    1PA    H11R 1894   2.746   3.980   4.956
    1PA    H11S 1895   2.784   4.047   4.796
    1PA    C110 1896   2.577   3.981   4.814
    1PA    H10R 1897   2.558   4.088   4.823
    1PA    H10S 1898   2.562   3.950   4.711
    1PA     C19 1899   2.478   3.914   4.911
    1PA     H9R 1900   2.379   3.947   4.881
    1PA     H9S 1901   2.488   3.807   4.889
    1PA     C18 1902   2.487   3.931   5.064
    1PA     H8R 1903   2.582   3.895   5.103
    1PA     H8S 1904   2.483   4.036   5.092
    1PA     C17 1905   2.382   3.851   5.142
    1PA     H7R 1906   2.283   3.872   5.101
    1PA     H7S 1907   2.391   3.743   5.127
    1PA     C16 1908   2.375   3.883   5.292
    1PA     H6R 1909   2.473   3.860   5.333
    1PA     H6S 1910   2.352   3.989   5.307
    1PA     C15 1911   2.277   3.787   5.361
    1PA     H5R 1912   2.185   3.791   5.301
    1PA     H5S 1913   2.308   3.683   5.363
    1PA     C14 1914   2.245   3.831   5.504
    1PA     H4R 1915   2.241   3.940   5.504
    1PA     H4S 1916   2.149   3.791   5.539
    1PA     C13 1917   2.340   3.788   5.617
    1PA     H3R 1918   2.345   3.679   5.620
    1PA     H3S 1919   2.442   3.822   5.600
    1PA     C12 1920   2.300   3.859   5.747
    1PA     H2R 1921   2.333   3.963   5.749
    1PA     H2S 1922   2.192   3.861   5.764
    2PC     C11 1923   2.383   3.794   5.855
    2PC     O12 1924   2.335   3.790   5.966
    2PC     O11 1925   2.503   3.741   5.826
    2PC      C1 1926   2.591   3.693   5.930
    2PC      HR 1927   2.673   3.654   5.870
    2PC      HS 1928   2.612   3.775   5.999
    2PC      C2 1929   2.541   3.564   5.997
    2PC      HX 1930   2.442   3.584   6.040
    2PC      C3 1931   2.625   3.536   6.121
    2PC      HA 1932   2.598   3.617   6.189
    2PC      HB 1933   2.585   3.447   6.171
    2PC     O31 1934   2.767   3.527   6.097
    2PC     P31 1935   2.871   3.545   6.217
    2PC     O32 1936   2.937   3.689   6.194
    2PC     C31 1937   3.077   3.694   6.162
    2PC     H1A 1938   3.125   3.623   6.229
    2PC     H1B 1939   3.098   3.675   6.056
    2PC     C32 1940   3.142   3.829   6.197
    2PC     H2A 1941   3.251   3.818   6.194
    2PC     H2B 1942   3.113   3.895   6.115
    2PC     N31 1943   3.126   3.892   6.332
    2PC     C33 1944   2.982   3.922   6.360
    2PC     H3A 1945   2.977   3.980   6.453
    2PC     H3B 1946   2.948   3.988   6.280
    2PC     H3C 1947   2.934   3.827   6.381
    2PC     C34 1948   3.177   3.802   6.440
    2PC     H4A 1949   3.100   3.724   6.443
    2PC     H4B 1950   3.273   3.765   6.405
    2PC     H4C 1951   3.176   3.858   6.534
    2PC     C35 1952   3.195   4.025   6.327
    2PC     H5A 1953   3.174   4.072   6.423
    2PC     H5B 1954   3.158   4.088   6.247
    2PC     H5C 1955   3.302   4.007   6.319
    2PC     O33 1956   2.802   3.525   6.347
    2PC     O34 1957   2.977   3.442   6.211
    2PC     O21 1958   2.532   3.467   5.891
    2PC     C21 1959   2.483   3.344   5.912
    2PC     O22 1960   2.433   3.310   6.017
    3OL     C12 1961   2.496   3.258   5.788
    3OL     H2R 1962   2.486   3.154   5.820
    3OL     H2S 1963   2.595   3.265   5.743
    3OL     C13 1964   2.401   3.300   5.676
    3OL     H3R 1965   2.460   3.367   5.612
    3OL     H3S 1966   2.320   3.363   5.714
    3OL     C14 1967   2.355   3.186   5.583
    3OL     H4R 1968   2.307   3.123   5.658
    3OL     H4S 1969   2.446   3.143   5.543
    3OL     C15 1970   2.265   3.248   5.476
    3OL     H5R 1971   2.293   3.335   5.416
    3OL     H5S 1972   2.170   3.284   5.516
    3OL     C16 1973   2.236   3.130   5.382
    3OL     H6R 1974   2.144   3.162   5.331
    3OL     H6S 1975   2.224   3.037   5.438
    3OL     C17 1976   2.339   3.116   5.269
    3OL     H7R 1977   2.434   3.103   5.321
    3OL     H7S 1978   2.348   3.205   5.205
    3OL     C18 1979   2.311   2.994   5.180
    3OL     H8R 1980   2.213   3.000   5.134
    3OL     H8S 1981   2.317   2.907   5.247
    3OL     C19 1982   2.412   2.991   5.068
    3OL     H9R 1983   2.490   3.066   5.076
    3OL    C110 1984   2.411   2.901   4.971
    3OL    H10R 1985   2.489   2.891   4.896
    3OL    C111 1986   2.308   2.792   4.952
    3OL    H11R 1987   2.219   2.809   5.013
    3OL    H11S 1988   2.337   2.694   4.992
    3OL    C112 1989   2.276   2.771   4.803
    3OL    H12R 1990   2.211   2.684   4.812
    3OL    H12S 1991   2.369   2.734   4.760
    3OL    C113 1992   2.204   2.877   4.719
    3OL    H13R 1993   2.272   2.960   4.699
    3OL    H13S 1994   2.120   2.904   4.784
    3OL    C114 1995   2.157   2.812   4.588
    3OL    H14R 1996   2.086   2.732   4.612
    3OL    H14S 1997   2.243   2.760   4.545
    3OL    C115 1998   2.081   2.903   4.492
    3OL    H15R 1999   2.151   2.979   4.457
    3OL    H15S 2000   1.993   2.947   4.540
    3OL    C116 2001   2.033   2.818   4.374
    3OL    H16R 2002   1.971   2.736   4.412
    3OL    H16S 2003   2.118   2.775   4.320
    3OL    C117 2004   1.957   2.896   4.266
    3OL    H17R 2005   1.859   2.927   4.305
    3OL    H17S 2006   1.932   2.825   4.188
    3OL    C118 2007   2.027   3.024   4.217
    3OL    H18R 2008   2.134   3.010   4.200
    3OL    H18S 2009   2.017   3.095   4.298
    3OL    H18T 2010   1.982   3.069   4.128
    1PA    C116 2011   2.776   6.775   4.255
    1PA    H16R 2012   2.754   6.881   4.267
    1PA    H16S 2013   2.757   6.746   4.151
    1PA    H16T 2014   2.879   6.752   4.283
    1PA    C115 2015   2.693   6.694   4.355
    1PA    H15R 2016   2.589   6.692   4.324
    1PA    H15S 2017   2.739   6.595   4.357
    1PA    C114 2018   2.703   6.754   4.496
    1PA    H14R 2019   2.677   6.682   4.574
    1PA    H14S 2020   2.803   6.794   4.517
    1PA    C113 2021   2.602   6.868   4.506
    1PA    H13R 2022   2.635   6.948   4.438
    1PA    H13S 2023   2.503   6.832   4.477
    1PA    C112 2024   2.586   6.924   4.648
    1PA    H12R 2025   2.680   6.928   4.704
    1PA    H12S 2026   2.557   7.029   4.641
    1PA    C111 2027   2.484   6.846   4.733
    1PA    H11R 2028   2.385   6.851   4.688
    1PA    H11S 2029   2.516   6.742   4.737
    1PA    C110 2030   2.495   6.898   4.877
    1PA    H10R 2031   2.601   6.901   4.904
    1PA    H10S 2032   2.466   7.003   4.884
    1PA     C19 2033   2.405   6.809   4.963
    1PA     H9R 2034   2.304   6.809   4.920
    1PA     H9S 2035   2.450   6.710   4.956
    1PA     C18 2036   2.397   6.858   5.108
    1PA     H8R 2037   2.497   6.847   5.148
    1PA     H8S 2038   2.374   6.965   5.114
    1PA     C17 2039   2.293   6.779   5.188
    1PA     H7R 2040   2.190   6.792   5.155
    1PA     H7S 2041   2.314   6.675   5.165
    1PA     C16 2042   2.307   6.814   5.337
    1PA     H6R 2043   2.409   6.820   5.376
    1PA     H6S 2044   2.269   6.916   5.352
    1PA     C15 2045   2.223   6.709   5.411
    1PA     H5R 2046   2.122   6.717   5.370
    1PA     H5S 2047   2.264   6.610   5.389
    1PA     C14 2048   2.230   6.743   5.560
    1PA     H4R 2049   2.333   6.725   5.595
    1PA     H4S 2050   2.199   6.847   5.567
    1PA     C13 2051   2.133   6.666   5.651
    1PA     H3R 2052   2.104   6.736   5.729
    1PA     H3S 2053   2.041   6.640   5.598
    1PA     C12 2054   2.210   6.545   5.705
    1PA     H2R 2055   2.244   6.473   5.630
    1PA     H2S 2056   2.309   6.573   5.742
    2PC     C11 2057   2.145   6.476   5.822
    2PC     O12 2058   2.079   6.523   5.912
    2PC     O11 2059   2.172   6.345   5.821
    2PC      C1 2060   2.122   6.249   5.916
    2PC      HR 2061   2.158   6.151   5.884
    2PC      HS 2062   2.157   6.274   6.017
    2PC      C2 2063   1.969   6.239   5.923
    2PC      HX 2064   1.916   6.333   5.938
    2PC      C3 2065   1.920   6.135   6.024
    2PC      HA 2066   1.956   6.033   6.012
    2PC      HB 2067   1.952   6.170   6.122
    2PC     O31 2068   1.776   6.136   6.012
    2PC     P31 2069   1.696   6.054   6.124
    2PC     O32 2070   1.571   5.998   6.040
    2PC     C31 2071   1.437   6.019   6.088
    2PC     H1A 2072   1.425   5.954   6.175
    2PC     H1B 2073   1.428   6.127   6.104
    2PC     C32 2074   1.342   5.973   5.977
    2PC     H2A 2075   1.355   6.040   5.892
    2PC     H2B 2076   1.380   5.877   5.941
    2PC     N31 2077   1.195   5.965   6.007
    2PC     C33 2078   1.132   6.090   6.061
    2PC     H3A 2079   1.039   6.054   6.106
    2PC     H3B 2080   1.199   6.141   6.130
    2PC     H3C 2081   1.093   6.161   5.988
    2PC     C34 2082   1.126   5.920   5.882
    2PC     H4A 2083   1.018   5.914   5.896
    2PC     H4B 2084   1.160   5.991   5.806
    2PC     H4C 2085   1.161   5.822   5.851
    2PC     C35 2086   1.180   5.860   6.114
    2PC     H5A 2087   1.192   5.904   6.213
    2PC     H5B 2088   1.241   5.772   6.095
    2PC     H5C 2089   1.078   5.823   6.102
    2PC     O33 2090   1.781   5.952   6.189
    2PC     O34 2091   1.665   6.154   6.228
    2PC     O21 2092   1.932   6.187   5.794
    2PC     C21 2093   1.921   6.278   5.695
    2PC     O22 2094   1.876   6.388   5.720
    3OL     C12 2095   1.956   6.224   5.559
    3OL     H2R 2096   1.927   6.119   5.545
    3OL     H2S 2097   2.064   6.227   5.551
    3OL     C13 2098   1.897   6.315   5.450
    3OL     H3R 2099   1.929   6.419   5.452
    3OL     H3S 2100   1.789   6.323   5.462
    3OL     C14 2101   1.930   6.259   5.311
    3OL     H4R 2102   1.916   6.151   5.299
    3OL     H4S 2103   2.038   6.257   5.297
    3OL     C15 2104   1.865   6.336   5.195
    3OL     H5R 2105   1.887   6.442   5.200
    3OL     H5S 2106   1.756   6.332   5.198
    3OL     C16 2107   1.908   6.279   5.059
    3OL     H6R 2108   1.907   6.170   5.065
    3OL     H6S 2109   2.011   6.311   5.043
    3OL     C17 2110   1.825   6.333   4.942
    3OL     H7R 2111   1.831   6.442   4.939
    3OL     H7S 2112   1.723   6.300   4.960
    3OL     C18 2113   1.876   6.272   4.811
    3OL     H8R 2114   1.985   6.271   4.814
    3OL     H8S 2115   1.851   6.331   4.722
    3OL     C19 2116   1.824   6.131   4.800
    3OL     H9R 2117   1.845   6.072   4.889
    3OL    C110 2118   1.751   6.094   4.696
    3OL    H10R 2119   1.710   5.994   4.689
    3OL    C111 2120   1.739   6.151   4.558
    3OL    H11R 2121   1.752   6.260   4.560
    3OL    H11S 2122   1.641   6.125   4.517
    3OL    C112 2123   1.847   6.091   4.466
    3OL    H12R 2124   1.812   5.990   4.445
    3OL    H12S 2125   1.944   6.082   4.515
    3OL    C113 2126   1.858   6.168   4.334
    3OL    H13R 2127   1.891   6.270   4.355
    3OL    H13S 2128   1.761   6.179   4.285
    3OL    C114 2129   1.943   6.090   4.234
    3OL    H14R 2130   1.955   6.159   4.150
    3OL    H14S 2131   1.893   6.000   4.196
    3OL    C115 2132   2.089   6.075   4.279
    3OL    H15R 2133   2.104   5.993   4.349
    3OL    H15S 2134   2.108   6.173   4.325
    3OL    C116 2135   2.185   6.064   4.160
    3OL    H16R 2136   2.158   6.132   4.078
    3OL    H16S 2137   2.159   5.970   4.111
    3OL    C117 2138   2.331   6.059   4.206
    3OL    H17R 2139   2.399   6.025   4.128
    3OL    H17S 2140   2.333   5.978   4.279
    3OL    C118 2141   2.374   6.190   4.274
    3OL    H18R 2142   2.325   6.272   4.220
    3OL    H18S 2143   2.483   6.194   4.265
    3OL    H18T 2144   2.337   6.186   4.376
    1PA    C116 2145   3.350   3.864   5.179
    1PA    H16R 2146   3.294   3.790   5.236
    1PA    H16S 2147   3.454   3.868   5.212
    1PA    H16T 2148   3.352   3.851   5.071
    1PA    C115 2149   3.287   4.000   5.212
    1PA    H15R 2150   3.353   4.080   5.177
    1PA    H15S 2151   3.183   4.006   5.181
    1PA    C114 2152   3.292   4.028   5.363
    1PA    H14R 2153   3.226   3.955   5.409
    1PA    H14S 2154   3.392   4.014   5.404
    1PA    C113 2155   3.233   4.166   5.397
    1PA    H13R 2156   3.130   4.161   5.361
    1PA    H13S 2157   3.217   4.171   5.505
    1PA    C112 2158   3.320   4.286   5.358
    1PA    H12R 2159   3.412   4.270   5.413
    1PA    H12S 2160   3.348   4.288   5.252
    1PA    C111 2161   3.256   4.419   5.399
    1PA    H11R 2162   3.154   4.421   5.360
    1PA    H11S 2163   3.261   4.432   5.507
    1PA    C110 2164   3.340   4.533   5.340
    1PA    H10R 2165   3.436   4.530   5.392
    1PA    H10S 2166   3.354   4.518   5.232
    1PA     C19 2167   3.279   4.673   5.357
    1PA     H9R 2168   3.347   4.745   5.311
    1PA     H9S 2169   3.184   4.668   5.303
    1PA     C18 2170   3.261   4.720   5.502
    1PA     H8R 2171   3.200   4.649   5.558
    1PA     H8S 2172   3.362   4.721   5.543
    1PA     C17 2173   3.208   4.863   5.520
    1PA     H7R 2174   3.299   4.922   5.522
    1PA     H7S 2175   3.143   4.904   5.442
    1PA     C16 2176   3.132   4.882   5.652
    1PA     H6R 2177   3.120   4.990   5.659
    1PA     H6S 2178   3.038   4.825   5.649
    1PA     C15 2179   3.205   4.837   5.779
    1PA     H5R 2180   3.137   4.830   5.864
    1PA     H5S 2181   3.244   4.735   5.775
    1PA     C14 2182   3.322   4.930   5.814
    1PA     H4R 2183   3.380   4.956   5.724
    1PA     H4S 2184   3.276   5.024   5.846
    1PA     C13 2185   3.409   4.873   5.927
    1PA     H3R 2186   3.456   4.957   5.979
    1PA     H3S 2187   3.355   4.824   6.008
    1PA     C12 2188   3.522   4.778   5.885
    1PA     H2R 2189   3.480   4.686   5.844
    1PA     H2S 2190   3.582   4.833   5.812
    2PC     C11 2191   3.618   4.748   5.998
    2PC     O12 2192   3.627   4.797   6.109
    2PC     O11 2193   3.698   4.649   5.957
    2PC      C1 2194   3.811   4.620   6.041
    2PC      HR 2195   3.868   4.707   6.074
    2PC      HS 2196   3.770   4.576   6.132
    2PC      C2 2197   3.899   4.511   5.979
    2PC      HX 2198   3.849   4.413   5.975
    2PC      C3 2199   4.025   4.490   6.063
    2PC      HA 2200   3.991   4.485   6.167
    2PC      HB 2201   4.070   4.394   6.038
    2PC     O31 2202   4.118   4.599   6.049
    2PC     P31 2203   4.264   4.572   6.109
    2PC     O32 2204   4.248   4.600   6.266
    2PC     C31 2205   4.349   4.548   6.353
    2PC     H1A 2206   4.343   4.439   6.358
    2PC     H1B 2207   4.449   4.580   6.320
    2PC     C32 2208   4.331   4.608   6.493
    2PC     H2A 2209   4.425   4.594   6.547
    2PC     H2B 2210   4.314   4.715   6.480
    2PC     N31 2211   4.214   4.567   6.577
    2PC     C33 2212   4.215   4.647   6.704
    2PC     H3A 2213   4.292   4.609   6.771
    2PC     H3B 2214   4.213   4.754   6.684
    2PC     H3C 2215   4.121   4.616   6.750
    2PC     C34 2216   4.087   4.599   6.504
    2PC     H4A 2217   4.076   4.546   6.409
    2PC     H4B 2218   4.002   4.569   6.565
    2PC     H4C 2219   4.081   4.704   6.477
    2PC     C35 2220   4.216   4.422   6.616
    2PC     H5A 2221   4.116   4.406   6.656
    2PC     H5B 2222   4.303   4.403   6.680
    2PC     H5C 2223   4.227   4.359   6.527
    2PC     O33 2224   4.326   4.448   6.057
    2PC     O34 2225   4.350   4.678   6.053
    2PC     O21 2226   3.928   4.554   5.845
    2PC     C21 2227   3.982   4.457   5.769
    2PC     O22 2228   3.986   4.339   5.793
    3OL     C12 2229   4.030   4.521   5.641
    3OL     H2R 2230   4.130   4.486   5.616
    3OL     H2S 2231   4.047   4.629   5.651
    3OL     C13 2232   3.939   4.496   5.519
    3OL     H3R 2233   3.930   4.387   5.512
    3OL     H3S 2234   3.981   4.529   5.424
    3OL     C14 2235   3.792   4.523   5.552
    3OL     H4R 2236   3.763   4.497   5.655
    3OL     H4S 2237   3.732   4.446   5.503
    3OL     C15 2238   3.748   4.663   5.508
    3OL     H5R 2239   3.831   4.730   5.531
    3OL     H5S 2240   3.664   4.690   5.572
    3OL     C16 2241   3.715   4.681   5.359
    3OL     H6R 2242   3.619   4.638   5.332
    3OL     H6S 2243   3.781   4.617   5.299
    3OL     C17 2244   3.710   4.829   5.319
    3OL     H7R 2245   3.804   4.884   5.322
    3OL     H7S 2246   3.653   4.882   5.396
    3OL     C18 2247   3.655   4.867   5.181
    3OL     H8R 2248   3.644   4.974   5.163
    3OL     H8S 2249   3.555   4.822   5.181
    3OL     C19 2250   3.744   4.826   5.066
    3OL     H9R 2251   3.830   4.892   5.059
    3OL    C110 2252   3.734   4.723   4.983
    3OL    H10R 2253   3.810   4.708   4.906
    3OL    C111 2254   3.630   4.617   5.007
    3OL    H11R 2255   3.565   4.638   5.093
    3OL    H11S 2256   3.684   4.525   5.030
    3OL    C112 2257   3.541   4.604   4.883
    3OL    H12R 2258   3.499   4.702   4.859
    3OL    H12S 2259   3.470   4.523   4.899
    3OL    C113 2260   3.609   4.551   4.756
    3OL    H13R 2261   3.649   4.451   4.771
    3OL    H13S 2262   3.688   4.613   4.714
    3OL    C114 2263   3.505   4.542   4.643
    3OL    H14R 2264   3.466   4.643   4.625
    3OL    H14S 2265   3.418   4.481   4.667
    3OL    C115 2266   3.578   4.495   4.517
    3OL    H15R 2267   3.678   4.538   4.518
    3OL    H15S 2268   3.526   4.532   4.428
    3OL    C116 2269   3.586   4.341   4.508
    3OL    H16R 2270   3.492   4.303   4.547
    3OL    H16S 2271   3.657   4.304   4.582
    3OL    C117 2272   3.621   4.294   4.366
    3OL    H17R 2273   3.699   4.360   4.328
    3OL    H17S 2274   3.535   4.327   4.308
    3OL    C118 2275   3.660   4.146   4.352
    3OL    H18R 2276   3.729   4.127   4.271
    3OL    H18S 2277   3.570   4.087   4.331
    3OL    H18T 2278   3.707   4.108   4.443
    1PA    C116 2279   4.710   4.215   3.716
    1PA    H16R 2280   4.743   4.171   3.622
    1PA    H16S 2281   4.697   4.323   3.703
    1PA    H16T 2282   4.614   4.168   3.737
    1PA    C115 2283   4.809   4.179   3.827
    1PA    H15R 2284   4.773   4.222   3.921
    1PA    H15S 2285   4.802   4.070   3.825
    1PA    C114 2286   4.954   4.231   3.830
    1PA    H14R 2287   4.998   4.203   3.925
    1PA    H14S 2288   5.016   4.184   3.754
    1PA    C113 2289   4.958   4.383   3.811
    1PA    H13R 2290   4.941   4.415   3.708
    1PA    H13S 2291   4.886   4.445   3.865
    1PA    C112 2292   5.091   4.448   3.853
    1PA    H12R 2293   5.167   4.392   3.799
    1PA    H12S 2294   5.087   4.549   3.812
    1PA    C111 2295   5.114   4.455   4.005
    1PA    H11R 2296   5.041   4.524   4.046
    1PA    H11S 2297   5.105   4.360   4.058
    1PA    C110 2298   5.252   4.512   4.040
    1PA    H10R 2299   5.328   4.435   4.028
    1PA    H10S 2300   5.289   4.592   3.976
    1PA     C19 2301   5.270   4.542   4.190
    1PA     H9R 2302   5.211   4.463   4.238
    1PA     H9S 2303   5.375   4.523   4.211
    1PA     C18 2304   5.216   4.682   4.221
    1PA     H8R 2305   5.276   4.749   4.159
    1PA     H8S 2306   5.109   4.692   4.200
    1PA     C17 2307   5.248   4.713   4.368
    1PA     H7R 2308   5.199   4.637   4.429
    1PA     H7S 2309   5.356   4.717   4.378
    1PA     C16 2310   5.200   4.855   4.401
    1PA     H6R 2311   5.260   4.925   4.341
    1PA     H6S 2312   5.096   4.863   4.370
    1PA     C15 2313   5.214   4.912   4.543
    1PA     H5R 2314   5.318   4.912   4.575
    1PA     H5S 2315   5.183   5.017   4.547
    1PA     C14 2316   5.129   4.834   4.644
    1PA     H4R 2317   5.023   4.831   4.618
    1PA     H4S 2318   5.159   4.730   4.632
    1PA     C13 2319   5.155   4.870   4.791
    1PA     H3R 2320   5.136   4.780   4.850
    1PA     H3S 2321   5.260   4.899   4.803
    1PA     C12 2322   5.056   4.972   4.848
    1PA     H2R 2323   5.068   5.056   4.780
    1PA     H2S 2324   4.954   4.945   4.821
    2PC     C11 2325   5.081   5.002   4.994
    2PC     O12 2326   5.159   5.084   5.038
    2PC     O11 2327   4.996   4.934   5.072
    2PC      C1 2328   4.991   4.961   5.214
    2PC      HR 2329   5.092   4.956   5.255
    2PC      HS 2330   4.951   5.057   5.245
    2PC      C2 2331   4.902   4.860   5.288
    2PC      HX 2332   4.805   4.862   5.237
    2PC      C3 2333   4.898   4.885   5.439
    2PC      HA 2334   4.839   4.975   5.461
    2PC      HB 2335   4.862   4.799   5.495
    2PC     O31 2336   5.038   4.901   5.470
    2PC     P31 2337   5.090   4.890   5.621
    2PC     O32 2338   5.168   5.028   5.649
    2PC     C31 2339   5.107   5.158   5.647
    2PC     H1A 2340   5.036   5.169   5.565
    2PC     H1B 2341   5.049   5.169   5.740
    2PC     C32 2342   5.221   5.260   5.632
    2PC     H2A 2343   5.287   5.249   5.719
    2PC     H2B 2344   5.280   5.235   5.544
    2PC     N31 2345   5.175   5.402   5.627
    2PC     C33 2346   5.109   5.440   5.756
    2PC     H3A 2347   5.012   5.391   5.764
    2PC     H3B 2348   5.180   5.419   5.835
    2PC     H3C 2349   5.092   5.547   5.739
    2PC     C34 2350   5.297   5.488   5.613
    2PC     H4A 2351   5.350   5.459   5.522
    2PC     H4B 2352   5.272   5.594   5.604
    2PC     H4C 2353   5.360   5.464   5.698
    2PC     C35 2354   5.084   5.437   5.513
    2PC     H5A 2355   5.153   5.427   5.429
    2PC     H5B 2356   5.056   5.543   5.517
    2PC     H5C 2357   4.993   5.381   5.491
    2PC     O33 2358   4.978   4.886   5.718
    2PC     O34 2359   5.172   4.771   5.654
    2PC     O21 2360   4.961   4.732   5.259
    2PC     C21 2361   4.893   4.618   5.281
    2PC     O22 2362   4.785   4.617   5.337
    3OL     C12 2363   4.982   4.504   5.241
    3OL     H2R 2364   4.923   4.412   5.244
    3OL     H2S 2365   5.068   4.497   5.308
    3OL     C13 2366   5.043   4.517   5.100
    3OL     H3R 2367   5.117   4.596   5.089
    3OL     H3S 2368   4.969   4.535   5.022
    3OL     C14 2369   5.099   4.378   5.066
    3OL     H4R 2370   5.012   4.314   5.054
    3OL     H4S 2371   5.153   4.329   5.148
    3OL     C15 2372   5.194   4.385   4.945
    3OL     H5R 2373   5.273   4.457   4.964
    3OL     H5S 2374   5.136   4.413   4.857
    3OL     C16 2375   5.259   4.253   4.903
    3OL     H6R 2376   5.334   4.224   4.978
    3OL     H6S 2377   5.315   4.275   4.812
    3OL     C17 2378   5.166   4.134   4.876
    3OL     H7R 2379   5.122   4.103   4.971
    3OL     H7S 2380   5.239   4.059   4.843
    3OL     C18 2381   5.053   4.141   4.772
    3OL     H8R 2382   4.973   4.210   4.799
    3OL     H8S 2383   5.003   4.045   4.759
    3OL     C19 2384   5.107   4.174   4.635
    3OL     H9R 2385   5.198   4.118   4.617
    3OL    C110 2386   5.057   4.253   4.541
    3OL    H10R 2387   5.107   4.256   4.445
    3OL    C111 2388   4.927   4.328   4.554
    3OL    H11R 2389   4.868   4.300   4.642
    3OL    H11S 2390   4.877   4.327   4.457
    3OL    C112 2391   4.974   4.471   4.584
    3OL    H12R 2392   5.053   4.494   4.512
    3OL    H12S 2393   5.021   4.470   4.682
    3OL    C113 2394   4.854   4.568   4.591
    3OL    H13R 2395   4.896   4.664   4.622
    3OL    H13S 2396   4.782   4.528   4.662
    3OL    C114 2397   4.790   4.574   4.452
    3OL    H14R 2398   4.741   4.478   4.436
    3OL    H14S 2399   4.867   4.591   4.377
    3OL    C115 2400   4.678   4.678   4.434
    3OL    H15R 2401   4.722   4.776   4.412
    3OL    H15S 2402   4.609   4.692   4.518
    3OL    C116 2403   4.607   4.651   4.301
    3OL    H16R 2404   4.532   4.728   4.283
    3OL    H16S 2405   4.550   4.558   4.316
    3OL    C117 2406   4.701   4.639   4.181
    3OL    H17R 2407   4.746   4.542   4.205
    3OL    H17S 2408   4.767   4.726   4.186
    3OL    C118 2409   4.619   4.623   4.052
    3OL    H18R 2410   4.687   4.623   3.967
    3OL    H18S 2411   4.570   4.720   4.044
    3OL    H18T 2412   4.547   4.541   4.045
    1PA    C116 2413   4.697   3.563   4.277
    1PA    H16R 2414   4.804   3.547   4.266
    1PA    H16S 2415   4.668   3.542   4.380
    1PA    H16T 2416   4.681   3.670   4.260
    1PA    C115 2417   4.609   3.491   4.173
    1PA    H15R 2418   4.510   3.536   4.178
    1PA    H15S 2419   4.661   3.518   4.081
    1PA    C114 2420   4.605   3.338   4.188
    1PA    H14R 2421   4.551   3.288   4.108
    1PA    H14S 2422   4.705   3.299   4.207
    1PA    C113 2423   4.525   3.303   4.314
    1PA    H13R 2424   4.462   3.386   4.346
    1PA    H13S 2425   4.462   3.217   4.292
    1PA    C112 2426   4.613   3.270   4.436
    1PA    H12R 2427   4.674   3.184   4.408
    1PA    H12S 2428   4.689   3.346   4.455
    1PA    C111 2429   4.529   3.241   4.561
    1PA    H11R 2430   4.502   3.340   4.597
    1PA    H11S 2431   4.438   3.185   4.542
    1PA    C110 2432   4.631   3.180   4.660
    1PA    H10R 2433   4.677   3.092   4.616
    1PA    H10S 2434   4.713   3.250   4.677
    1PA     C19 2435   4.561   3.161   4.795
    1PA     H9R 2436   4.635   3.163   4.874
    1PA     H9S 2437   4.500   3.250   4.813
    1PA     C18 2438   4.464   3.042   4.806
    1PA     H8R 2439   4.401   3.028   4.718
    1PA     H8S 2440   4.525   2.952   4.806
    1PA     C17 2441   4.373   3.054   4.929
    1PA     H7R 2442   4.356   3.161   4.944
    1PA     H7S 2443   4.289   2.994   4.894
    1PA     C16 2444   4.430   3.008   5.064
    1PA     H6R 2445   4.443   2.900   5.050
    1PA     H6S 2446   4.530   3.049   5.081
    1PA     C15 2447   4.350   3.042   5.190
    1PA     H5R 2448   4.316   3.145   5.180
    1PA     H5S 2449   4.260   2.981   5.180
    1PA     C14 2450   4.414   3.018   5.327
    1PA     H4R 2451   4.441   2.913   5.340
    1PA     H4S 2452   4.506   3.077   5.332
    1PA     C13 2453   4.320   3.064   5.440
    1PA     H3R 2454   4.284   3.166   5.424
    1PA     H3S 2455   4.234   2.999   5.455
    1PA     C12 2456   4.392   3.068   5.575
    1PA     H2R 2457   4.452   2.979   5.595
    1PA     H2S 2458   4.465   3.149   5.570
    2PC     C11 2459   4.294   3.082   5.690
    2PC     O12 2460   4.312   3.024   5.795
    2PC     O11 2461   4.187   3.158   5.662
    2PC      C1 2462   4.079   3.156   5.757
    2PC      HR 2463   3.995   3.102   5.710
    2PC      HS 2464   4.108   3.105   5.849
    2PC      C2 2465   4.030   3.296   5.793
    2PC      HX 2466   4.113   3.368   5.794
    2PC      C3 2467   3.967   3.298   5.933
    2PC      HA 2468   4.043   3.289   6.010
    2PC      HB 2469   3.918   3.395   5.948
    2PC     O31 2470   3.872   3.189   5.933
    2PC     P31 2471   3.800   3.144   6.068
    2PC     O32 2472   3.650   3.104   6.029
    2PC     C31 2473   3.564   3.215   6.000
    2PC     H1A 2474   3.516   3.251   6.092
    2PC     H1B 2475   3.617   3.295   5.947
    2PC     C32 2476   3.450   3.168   5.909
    2PC     H2A 2477   3.389   3.258   5.905
    2PC     H2B 2478   3.494   3.146   5.811
    2PC     N31 2479   3.355   3.060   5.952
    2PC     C33 2480   3.434   2.933   5.947
    2PC     H3A 2481   3.373   2.844   5.957
    2PC     H3B 2482   3.495   2.928   5.856
    2PC     H3C 2483   3.504   2.934   6.031
    2PC     C34 2484   3.303   3.089   6.089
    2PC     H4A 2485   3.384   3.065   6.158
    2PC     H4B 2486   3.286   3.197   6.098
    2PC     H4C 2487   3.214   3.029   6.111
    2PC     C35 2488   3.250   3.059   5.844
    2PC     H5A 2489   3.178   3.139   5.857
    2PC     H5B 2490   3.194   2.966   5.853
    2PC     H5C 2491   3.306   3.063   5.750
    2PC     O33 2492   3.874   3.031   6.128
    2PC     O34 2493   3.801   3.244   6.178
    2PC     O21 2494   3.928   3.331   5.696
    2PC     C21 2495   3.890   3.459   5.684
    2PC     O22 2496   3.941   3.554   5.739
    3OL     C12 2497   3.773   3.463   5.589
    3OL     H2R 2498   3.677   3.473   5.639
    3OL     H2S 2499   3.762   3.368   5.536
    3OL     C13 2500   3.804   3.559   5.473
    3OL     H3R 2501   3.892   3.531   5.415
    3OL     H3S 2502   3.829   3.651   5.525
    3OL     C14 2503   3.684   3.598   5.386
    3OL     H4R 2504   3.710   3.691   5.336
    3OL     H4S 2505   3.594   3.623   5.442
    3OL     C15 2506   3.639   3.491   5.285
    3OL     H5R 2507   3.593   3.404   5.332
    3OL     H5S 2508   3.727   3.464   5.227
    3OL     C16 2509   3.543   3.549   5.179
    3OL     H6R 2510   3.588   3.640   5.138
    3OL     H6S 2511   3.453   3.576   5.234
    3OL     C17 2512   3.512   3.457   5.060
    3OL     H7R 2513   3.460   3.366   5.092
    3OL     H7S 2514   3.606   3.420   5.019
    3OL     C18 2515   3.412   3.517   4.960
    3OL     H8R 2516   3.468   3.609   4.940
    3OL     H8S 2517   3.318   3.536   5.012
    3OL     C19 2518   3.392   3.438   4.833
    3OL     H9R 2519   3.440   3.341   4.834
    3OL    C110 2520   3.322   3.484   4.730
    3OL    H10R 2521   3.314   3.427   4.639
    3OL    C111 2522   3.229   3.603   4.729
    3OL    H11R 2523   3.210   3.638   4.831
    3OL    H11S 2524   3.134   3.576   4.684
    3OL    C112 2525   3.268   3.727   4.648
    3OL    H12R 2526   3.184   3.797   4.651
    3OL    H12S 2527   3.277   3.698   4.543
    3OL    C113 2528   3.397   3.792   4.699
    3OL    H13R 2529   3.485   3.729   4.691
    3OL    H13S 2530   3.381   3.797   4.807
    3OL    C114 2531   3.417   3.930   4.633
    3OL    H14R 2532   3.331   3.996   4.639
    3OL    H14S 2533   3.445   3.911   4.529
    3OL    C115 2534   3.540   3.993   4.699
    3OL    H15R 2535   3.580   4.076   4.639
    3OL    H15S 2536   3.615   3.916   4.718
    3OL    C116 2537   3.498   4.072   4.824
    3OL    H16R 2538   3.443   4.014   4.899
    3OL    H16S 2539   3.421   4.142   4.791
    3OL    C117 2540   3.620   4.151   4.874
    3OL    H17R 2541   3.663   4.220   4.802
    3OL    H17S 2542   3.701   4.082   4.898
    3OL    C118 2543   3.583   4.230   5.000
    3OL    H18R 2544   3.561   4.175   5.092
    3OL    H18S 2545   3.491   4.282   4.973
    3OL    H18T 2546   3.660   4.300   5.033
    1PA    C116 2547   6.916   1.764   3.924
    1PA    H16R 2548   6.856   1.843   3.880
    1PA    H16S 2549   6.874   1.669   3.889
    1PA    H16T 2550   7.017   1.764   3.881
    1PA    C115 2551   6.912   1.765   4.077
    1PA    H15R 2552   7.010   1.737   4.114
    1PA    H15S 2553   6.899   1.867   4.114
    1PA    C114 2554   6.802   1.680   4.142
    1PA    H14R 2555   6.717   1.684   4.074
    1PA    H14S 2556   6.840   1.578   4.131
    1PA    C113 2557   6.758   1.717   4.285
    1PA    H13R 2558   6.734   1.623   4.336
    1PA    H13S 2559   6.843   1.760   4.339
    1PA    C112 2560   6.629   1.800   4.284
    1PA    H12R 2561   6.647   1.883   4.215
    1PA    H12S 2562   6.552   1.737   4.239
    1PA    C111 2563   6.574   1.844   4.420
    1PA    H11R 2564   6.654   1.898   4.471
    1PA    H11S 2565   6.494   1.917   4.403
    1PA    C110 2566   6.524   1.735   4.515
    1PA    H10R 2567   6.471   1.653   4.468
    1PA    H10S 2568   6.613   1.681   4.548
    1PA     C19 2569   6.458   1.790   4.643
    1PA     H9R 2570   6.361   1.837   4.626
    1PA     H9S 2571   6.427   1.700   4.697
    1PA     C18 2572   6.551   1.870   4.736
    1PA     H8R 2573   6.644   1.812   4.742
    1PA     H8S 2574   6.583   1.961   4.685
    1PA     C17 2575   6.492   1.915   4.870
    1PA     H7R 2576   6.556   1.981   4.929
    1PA     H7S 2577   6.406   1.977   4.846
    1PA     C16 2578   6.459   1.803   4.970
    1PA     H6R 2579   6.380   1.751   4.915
    1PA     H6S 2580   6.543   1.737   4.994
    1PA     C15 2581   6.403   1.861   5.101
    1PA     H5R 2582   6.473   1.938   5.132
    1PA     H5S 2583   6.310   1.913   5.079
    1PA     C14 2584   6.389   1.743   5.197
    1PA     H4R 2585   6.331   1.662   5.152
    1PA     H4S 2586   6.491   1.708   5.211
    1PA     C13 2587   6.321   1.784   5.329
    1PA     H3R 2588   6.346   1.705   5.400
    1PA     H3S 2589   6.368   1.876   5.364
    1PA     C12 2590   6.168   1.798   5.323
    1PA     H2R 2591   6.143   1.851   5.231
    1PA     H2S 2592   6.121   1.701   5.312
    2PC     C11 2593   6.120   1.887   5.434
    2PC     O12 2594   6.159   2.002   5.445
    2PC     O11 2595   6.025   1.828   5.509
    2PC      C1 2596   5.976   1.889   5.629
    2PC      HR 2597   5.904   1.817   5.669
    2PC      HS 2598   6.060   1.890   5.698
    2PC      C2 2599   5.897   2.018   5.600
    2PC      HX 2600   5.964   2.088   5.549
    2PC      C3 2601   5.868   2.087   5.734
    2PC      HA 2602   5.957   2.130   5.781
    2PC      HB 2603   5.797   2.169   5.721
    2PC     O31 2604   5.824   1.981   5.821
    2PC     P31 2605   5.776   2.024   5.968
    2PC     O32 2606   5.916   2.050   6.041
    2PC     C31 2607   5.994   1.938   6.086
    2PC     H1A 2608   5.937   1.883   6.162
    2PC     H1B 2609   6.022   1.880   5.998
    2PC     C32 2610   6.117   2.002   6.152
    2PC     H2A 2611   6.188   2.033   6.075
    2PC     H2B 2612   6.088   2.092   6.207
    2PC     N31 2613   6.197   1.917   6.246
    2PC     C33 2614   6.122   1.887   6.372
    2PC     H3A 2615   6.182   1.823   6.438
    2PC     H3B 2616   6.097   1.980   6.424
    2PC     H3C 2617   6.033   1.832   6.341
    2PC     C34 2618   6.244   1.794   6.174
    2PC     H4A 2619   6.294   1.734   6.250
    2PC     H4B 2620   6.153   1.753   6.129
    2PC     H4C 2621   6.311   1.814   6.091
    2PC     C35 2622   6.318   1.994   6.289
    2PC     H5A 2623   6.365   2.042   6.202
    2PC     H5B 2624   6.387   1.921   6.332
    2PC     H5C 2625   6.283   2.065   6.363
    2PC     O33 2626   5.696   2.147   5.948
    2PC     O34 2627   5.695   1.921   6.036
    2PC     O21 2628   5.789   1.995   5.508
    2PC     C21 2629   5.710   2.097   5.469
    2PC     O22 2630   5.731   2.214   5.492
    3OL     C12 2631   5.599   2.051   5.378
    3OL     H2R 2632   5.545   1.968   5.424
    3OL     H2S 2633   5.643   2.012   5.286
    3OL     C13 2634   5.505   2.170   5.353
    3OL     H3R 2635   5.559   2.250   5.302
    3OL     H3S 2636   5.465   2.203   5.449
    3OL     C14 2637   5.390   2.139   5.257
    3OL     H4R 2638   5.426   2.082   5.171
    3OL     H4S 2639   5.351   2.236   5.225
    3OL     C15 2640   5.274   2.073   5.333
    3OL     H5R 2641   5.239   2.154   5.397
    3OL     H5S 2642   5.326   2.000   5.395
    3OL     C16 2643   5.163   2.019   5.240
    3OL     H6R 2644   5.211   1.949   5.172
    3OL     H6S 2645   5.122   2.100   5.180
    3OL     C17 2646   5.060   1.968   5.342
    3OL     H7R 2647   5.040   2.041   5.421
    3OL     H7S 2648   5.088   1.873   5.388
    3OL     C18 2649   4.928   1.931   5.273
    3OL     H8R 2650   4.860   1.904   5.354
    3OL     H8S 2651   4.947   1.837   5.221
    3OL     C19 2652   4.877   2.048   5.193
    3OL     H9R 2653   4.887   2.144   5.243
    3OL    C110 2654   4.845   2.047   5.065
    3OL    H10R 2655   4.807   2.139   5.022
    3OL    C111 2656   4.832   1.931   4.969
    3OL    H11R 2657   4.726   1.924   4.943
    3OL    H11S 2658   4.845   1.839   5.025
    3OL    C112 2659   4.909   1.950   4.838
    3OL    H12R 2660   4.887   2.038   4.778
    3OL    H12S 2661   4.876   1.861   4.784
    3OL    C113 2662   5.061   1.940   4.861
    3OL    H13R 2663   5.109   2.005   4.935
    3OL    H13S 2664   5.100   1.966   4.762
    3OL    C114 2665   5.118   1.802   4.896
    3OL    H14R 2666   5.086   1.714   4.841
    3OL    H14S 2667   5.088   1.778   4.998
    3OL    C115 2668   5.271   1.809   4.885
    3OL    H15R 2669   5.310   1.901   4.929
    3OL    H15S 2670   5.306   1.819   4.782
    3OL    C116 2671   5.338   1.684   4.944
    3OL    H16R 2672   5.441   1.679   4.906
    3OL    H16S 2673   5.286   1.594   4.909
    3OL    C117 2674   5.346   1.684   5.097
    3OL    H17R 2675   5.365   1.587   5.142
    3OL    H17S 2676   5.254   1.713   5.149
    3OL    C118 2677   5.452   1.784   5.144
    3OL    H18R 2678   5.427   1.884   5.109
    3OL    H18S 2679   5.547   1.759   5.096
    3OL    H18T 2680   5.462   1.784   5.253
    1PA    C116 2681   2.712   4.575   4.312
    1PA    H16R 2682   2.766   4.514   4.385
    1PA    H16S 2683   2.773   4.664   4.294
    1PA    H16T 2684   2.702   4.513   4.222
    1PA    C115 2685   2.574   4.619   4.362
    1PA    H15R 2686   2.507   4.634   4.277
    1PA    H15S 2687   2.532   4.534   4.417
    1PA    C114 2688   2.580   4.729   4.469
    1PA    H14R 2689   2.622   4.819   4.423
    1PA    H14S 2690   2.480   4.759   4.502
    1PA    C113 2691   2.667   4.690   4.589
    1PA    H13R 2692   2.773   4.675   4.567
    1PA    H13S 2693   2.656   4.765   4.667
    1PA    C112 2694   2.618   4.575   4.678
    1PA    H12R 2695   2.514   4.581   4.709
    1PA    H12S 2696   2.625   4.490   4.610
    1PA    C111 2697   2.700   4.560   4.807
    1PA    H11R 2698   2.803   4.541   4.776
    1PA    H11S 2699   2.702   4.658   4.857
    1PA    C110 2700   2.648   4.451   4.902
    1PA    H10R 2701   2.627   4.370   4.832
    1PA    H10S 2702   2.732   4.418   4.962
    1PA     C19 2703   2.527   4.496   4.986
    1PA     H9R 2704   2.530   4.603   5.004
    1PA     H9S 2705   2.439   4.473   4.925
    1PA     C18 2706   2.520   4.425   5.122
    1PA     H8R 2707   2.508   4.317   5.111
    1PA     H8S 2708   2.606   4.442   5.187
    1PA     C17 2709   2.395   4.474   5.197
    1PA     H7R 2710   2.387   4.582   5.190
    1PA     H7S 2711   2.306   4.438   5.145
    1PA     C16 2712   2.393   4.427   5.343
    1PA     H6R 2713   2.418   4.321   5.343
    1PA     H6S 2714   2.472   4.477   5.399
    1PA     C15 2715   2.250   4.445   5.394
    1PA     H5R 2716   2.223   4.551   5.398
    1PA     H5S 2717   2.173   4.394   5.336
    1PA     C14 2718   2.237   4.391   5.537
    1PA     H4R 2719   2.242   4.282   5.535
    1PA     H4S 2720   2.305   4.423   5.616
    1PA     C13 2721   2.097   4.416   5.594
    1PA     H3R 2722   2.093   4.516   5.638
    1PA     H3S 2723   2.019   4.416   5.518
    1PA     C12 2724   2.062   4.326   5.713
    1PA     H2R 2725   2.082   4.219   5.697
    1PA     H2S 2726   2.128   4.351   5.797
    2PC     C11 2727   1.917   4.335   5.756
    2PC     O12 2728   1.832   4.416   5.724
    2PC     O11 2729   1.881   4.232   5.834
    2PC      C1 2730   1.748   4.232   5.888
    2PC      HR 2731   1.738   4.326   5.944
    2PC      HS 2732   1.673   4.235   5.809
    2PC      C2 2733   1.728   4.110   5.979
    2PC      HX 2734   1.627   4.105   6.019
    2PC      C3 2735   1.831   4.114   6.092
    2PC      HA 2736   1.923   4.082   6.041
    2PC      HB 2737   1.831   4.211   6.142
    2PC     O31 2738   1.784   4.012   6.183
    2PC     P31 2739   1.826   4.020   6.338
    2PC     O32 2740   1.933   3.907   6.375
    2PC     C31 2741   1.917   3.775   6.320
    2PC     H1A 2742   1.859   3.713   6.389
    2PC     H1B 2743   1.867   3.775   6.222
    2PC     C32 2744   2.055   3.715   6.291
    2PC     H2A 2745   2.040   3.616   6.246
    2PC     H2B 2746   2.100   3.784   6.220
    2PC     N31 2747   2.145   3.693   6.409
    2PC     C33 2748   2.087   3.592   6.503
    2PC     H3A 2749   2.068   3.503   6.443
    2PC     H3B 2750   2.144   3.574   6.594
    2PC     H3C 2751   1.987   3.628   6.529
    2PC     C34 2752   2.275   3.654   6.346
    2PC     H4A 2753   2.351   3.638   6.422
    2PC     H4B 2754   2.261   3.565   6.285
    2PC     H4C 2755   2.294   3.741   6.282
    2PC     C35 2756   2.170   3.819   6.487
    2PC     H5A 2757   2.201   3.902   6.424
    2PC     H5B 2758   2.233   3.794   6.572
    2PC     H5C 2759   2.072   3.847   6.525
    2PC     O33 2760   1.895   4.149   6.362
    2PC     O34 2761   1.704   4.012   6.421
    2PC     O21 2762   1.759   3.994   5.899
    2PC     C21 2763   1.663   3.950   5.816
    2PC     O22 2764   1.550   3.994   5.821
    3OL     C12 2765   1.713   3.849   5.716
    3OL     H2R 2766   1.642   3.767   5.705
    3OL     H2S 2767   1.805   3.803   5.753
    3OL     C13 2768   1.756   3.911   5.582
    3OL     H3R 2769   1.676   3.958   5.524
    3OL     H3S 2770   1.795   3.830   5.521
    3OL     C14 2771   1.862   4.019   5.606
    3OL     H4R 2772   1.936   3.975   5.674
    3OL     H4S 2773   1.824   4.111   5.651
    3OL     C15 2774   1.928   4.057   5.473
    3OL     H5R 2775   1.958   3.962   5.428
    3OL     H5S 2776   2.018   4.116   5.494
    3OL     C16 2777   1.836   4.128   5.373
    3OL     H6R 2778   1.778   4.207   5.421
    3OL     H6S 2779   1.773   4.048   5.335
    3OL     C17 2780   1.916   4.176   5.251
    3OL     H7R 2781   1.938   4.087   5.191
    3OL     H7S 2782   1.994   4.243   5.287
    3OL     C18 2783   1.826   4.255   5.155
    3OL     H8R 2784   1.780   4.330   5.220
    3OL     H8S 2785   1.752   4.182   5.121
    3OL     C19 2786   1.888   4.334   5.043
    3OL     H9R 2787   1.845   4.430   5.016
    3OL    C110 2788   1.997   4.303   4.973
    3OL    H10R 2789   2.026   4.376   4.897
    3OL    C111 2790   2.080   4.177   4.978
    3OL    H11R 2791   2.033   4.098   5.036
    3OL    H11S 2792   2.174   4.198   5.030
    3OL    C112 2793   2.127   4.128   4.841
    3OL    H12R 2794   2.049   4.130   4.764
    3OL    H12S 2795   2.164   4.026   4.842
    3OL    C113 2796   2.238   4.221   4.789
    3OL    H13R 2797   2.330   4.226   4.847
    3OL    H13S 2798   2.189   4.319   4.792
    3OL    C114 2799   2.274   4.189   4.644
    3OL    H14R 2800   2.185   4.184   4.581
    3OL    H14S 2801   2.319   4.090   4.631
    3OL    C115 2802   2.377   4.287   4.587
    3OL    H15R 2803   2.475   4.290   4.635
    3OL    H15S 2804   2.336   4.387   4.600
    3OL    C116 2805   2.400   4.256   4.438
    3OL    H16R 2806   2.402   4.147   4.431
    3OL    H16S 2807   2.489   4.306   4.401
    3OL    C117 2808   2.282   4.302   4.351
    3OL    H17R 2809   2.268   4.409   4.369
    3OL    H17S 2810   2.187   4.254   4.374
    3OL    C118 2811   2.315   4.300   4.201
    3OL    H18R 2812   2.225   4.339   4.152
    3OL    H18S 2813   2.333   4.198   4.167
    3OL    H18T 2814   2.400   4.364   4.176
    1PA    C116 2815   2.047   0.965   4.261
    1PA    H16R 2816   2.072   0.863   4.231
    1PA    H16S 2817   2.088   0.990   4.359
    1PA    H16T 2818   2.097   1.035   4.194
    1PA    C115 2819   1.896   0.989   4.262
    1PA    H15R 2820   1.884   1.097   4.268
    1PA    H15S 2821   1.846   0.966   4.167
    1PA    C114 2822   1.823   0.898   4.362
    1PA    H14R 2823   1.717   0.910   4.338
    1PA    H14S 2824   1.837   0.790   4.356
    1PA    C113 2825   1.840   0.944   4.508
    1PA    H13R 2826   1.947   0.951   4.528
    1PA    H13S 2827   1.785   1.038   4.513
    1PA    C112 2828   1.784   0.837   4.602
    1PA    H12R 2829   1.679   0.813   4.581
    1PA    H12S 2830   1.844   0.747   4.592
    1PA    C111 2831   1.794   0.883   4.748
    1PA    H11R 2832   1.897   0.894   4.783
    1PA    H11S 2833   1.754   0.985   4.750
    1PA    C110 2834   1.711   0.800   4.846
    1PA    H10R 2835   1.608   0.786   4.813
    1PA    H10S 2836   1.753   0.700   4.838
    1PA     C19 2837   1.726   0.849   4.991
    1PA     H9R 2838   1.826   0.864   5.033
    1PA     H9S 2839   1.680   0.947   4.980
    1PA     C18 2840   1.640   0.757   5.080
    1PA     H8R 2841   1.538   0.754   5.040
    1PA     H8S 2842   1.689   0.660   5.069
    1PA     C17 2843   1.644   0.791   5.230
    1PA     H7R 2844   1.745   0.809   5.265
    1PA     H7S 2845   1.586   0.884   5.237
    1PA     C16 2846   1.563   0.694   5.317
    1PA     H6R 2847   1.468   0.670   5.269
    1PA     H6S 2848   1.628   0.606   5.319
    1PA     C15 2849   1.546   0.732   5.465
    1PA     H5R 2850   1.648   0.733   5.505
    1PA     H5S 2851   1.493   0.827   5.470
    1PA     C14 2852   1.465   0.627   5.542
    1PA     H4R 2853   1.501   0.530   5.509
    1PA     H4S 2854   1.494   0.631   5.648
    1PA     C13 2855   1.312   0.643   5.536
    1PA     H3R 2856   1.288   0.726   5.603
    1PA     H3S 2857   1.288   0.674   5.434
    1PA     C12 2858   1.244   0.518   5.593
    1PA     H2R 2859   1.149   0.494   5.543
    1PA     H2S 2860   1.316   0.440   5.571
    2PC     C11 2861   1.215   0.530   5.741
    2PC     O12 2862   1.295   0.571   5.822
    2PC     O11 2863   1.089   0.496   5.775
    2PC      C1 2864   1.029   0.540   5.898
    2PC      HR 2865   1.082   0.488   5.978
    2PC      HS 2866   1.027   0.648   5.915
    2PC      C2 2867   0.890   0.476   5.909
    2PC      HX 2868   0.828   0.507   5.824
    2PC      C3 2869   0.825   0.512   6.044
    2PC      HA 2870   0.791   0.615   6.031
    2PC      HB 2871   0.735   0.452   6.054
    2PC     O31 2872   0.912   0.493   6.157
    2PC     P31 2873   0.862   0.530   6.305
    2PC     O32 2874   0.846   0.689   6.291
    2PC     C31 2875   0.966   0.768   6.289
    2PC     H1A 2876   1.023   0.742   6.379
    2PC     H1B 2877   1.028   0.731   6.206
    2PC     C32 2878   0.924   0.913   6.263
    2PC     H2A 2879   1.014   0.970   6.241
    2PC     H2B 2880   0.858   0.926   6.177
    2PC     N31 2881   0.863   0.992   6.375
    2PC     C33 2882   0.744   0.929   6.440
    2PC     H3A 2883   0.668   0.895   6.368
    2PC     H3B 2884   0.782   0.847   6.500
    2PC     H3C 2885   0.702   1.000   6.512
    2PC     C34 2886   0.974   1.016   6.472
    2PC     H4A 2887   1.068   1.040   6.421
    2PC     H4B 2888   0.946   1.098   6.539
    2PC     H4C 2889   0.991   0.927   6.532
    2PC     C35 2890   0.822   1.124   6.318
    2PC     H5A 2891   0.902   1.192   6.288
    2PC     H5B 2892   0.754   1.169   6.391
    2PC     H5C 2893   0.762   1.108   6.228
    2PC     O33 2894   0.758   0.444   6.364
    2PC     O34 2895   0.972   0.506   6.400
    2PC     O21 2896   0.916   0.335   5.905
    2PC     C21 2897   0.811   0.259   5.873
    2PC     O22 2898   0.702   0.302   5.841
    3OL     C12 2899   0.839   0.111   5.876
    3OL     H2R 2900   0.762   0.058   5.819
    3OL     H2S 2901   0.847   0.085   5.982
    3OL     C13 2902   0.975   0.075   5.815
    3OL     H3R 2903   1.003  -0.031   5.818
    3OL     H3S 2904   1.056   0.129   5.863
    3OL     C14 2905   0.971   0.109   5.665
    3OL     H4R 2906   0.960   0.217   5.658
    3OL     H4S 2907   0.888   0.049   5.628
    3OL     C15 2908   1.103   0.079   5.592
    3OL     H5R 2909   1.131  -0.025   5.608
    3OL     H5S 2910   1.180   0.143   5.637
    3OL     C16 2911   1.097   0.103   5.440
    3OL     H6R 2912   1.002   0.076   5.393
    3OL     H6S 2913   1.173   0.042   5.391
    3OL     C17 2914   1.117   0.252   5.408
    3OL     H7R 2915   1.220   0.280   5.427
    3OL     H7S 2916   1.055   0.314   5.474
    3OL     C18 2917   1.080   0.271   5.260
    3OL     H8R 2918   0.978   0.240   5.239
    3OL     H8S 2919   1.150   0.210   5.203
    3OL     C19 2920   1.093   0.419   5.232
    3OL     H9R 2921   0.996   0.467   5.244
    3OL    C110 2922   1.203   0.477   5.187
    3OL    H10R 2923   1.194   0.584   5.171
    3OL    C111 2924   1.337   0.421   5.149
    3OL    H11R 2925   1.347   0.313   5.158
    3OL    H11S 2926   1.408   0.452   5.226
    3OL    C112 2927   1.373   0.471   5.008
    3OL    H12R 2928   1.457   0.414   4.968
    3OL    H12S 2929   1.398   0.577   5.015
    3OL    C113 2930   1.261   0.454   4.905
    3OL    H13R 2931   1.164   0.487   4.943
    3OL    H13S 2932   1.255   0.350   4.871
    3OL    C114 2933   1.293   0.542   4.784
    3OL    H14R 2934   1.332   0.639   4.816
    3OL    H14S 2935   1.208   0.573   4.723
    3OL    C115 2936   1.391   0.487   4.680
    3OL    H15R 2937   1.347   0.394   4.643
    3OL    H15S 2938   1.491   0.467   4.719
    3OL    C116 2939   1.421   0.585   4.565
    3OL    H16R 2940   1.491   0.660   4.602
    3OL    H16S 2941   1.327   0.633   4.536
    3OL    C117 2942   1.484   0.534   4.435
    3OL    H17R 2943   1.577   0.478   4.447
    3OL    H17S 2944   1.497   0.624   4.374
    3OL    C118 2945   1.380   0.450   4.360
    3OL    H18R 2946   1.339   0.369   4.422
    3OL    H18S 2947   1.423   0.401   4.272
    3OL    H18T 2948   1.292   0.509   4.337
    1PA    C116 2949   6.917   5.323   4.562
    1PA    H16R 2950   7.011   5.375   4.581
    1PA    H16S 2951   6.933   5.215   4.560
    1PA    H16T 2952   6.857   5.361   4.645
    1PA    C115 2953   6.860   5.372   4.428
    1PA    H15R 2954   6.851   5.481   4.429
    1PA    H15S 2955   6.926   5.334   4.350
    1PA    C114 2956   6.716   5.324   4.408
    1PA    H14R 2957   6.706   5.215   4.408
    1PA    H14S 2958   6.652   5.362   4.487
    1PA    C113 2959   6.671   5.367   4.268
    1PA    H13R 2960   6.671   5.477   4.269
    1PA    H13S 2961   6.740   5.332   4.191
    1PA    C112 2962   6.530   5.315   4.237
    1PA    H12R 2963   6.505   5.332   4.132
    1PA    H12S 2964   6.526   5.207   4.253
    1PA    C111 2965   6.435   5.391   4.330
    1PA    H11R 2966   6.462   5.356   4.430
    1PA    H11S 2967   6.459   5.498   4.333
    1PA    C110 2968   6.286   5.363   4.307
    1PA    H10R 2969   6.263   5.391   4.204
    1PA    H10S 2970   6.260   5.258   4.319
    1PA     C19 2971   6.200   5.452   4.399
    1PA     H9R 2972   6.252   5.466   4.494
    1PA     H9S 2973   6.197   5.549   4.350
    1PA     C18 2974   6.054   5.413   4.423
    1PA     H8R 2975   6.002   5.389   4.330
    1PA     H8S 2976   6.043   5.323   4.484
    1PA     C17 2977   5.983   5.526   4.499
    1PA     H7R 2978   6.021   5.526   4.601
    1PA     H7S 2979   5.991   5.626   4.455
    1PA     C16 2980   5.833   5.500   4.511
    1PA     H6R 2981   5.801   5.496   4.406
    1PA     H6S 2982   5.814   5.399   4.547
    1PA     C15 2983   5.751   5.592   4.602
    1PA     H5R 2984   5.762   5.696   4.570
    1PA     H5S 2985   5.645   5.571   4.587
    1PA     C14 2986   5.776   5.584   4.753
    1PA     H4R 2987   5.773   5.479   4.784
    1PA     H4S 2988   5.880   5.605   4.780
    1PA     C13 2989   5.698   5.670   4.853
    1PA     H3R 2990   5.734   5.771   4.832
    1PA     H3S 2991   5.589   5.670   4.840
    1PA     C12 2992   5.737   5.635   4.997
    1PA     H2R 2993   5.729   5.528   5.015
    1PA     H2S 2994   5.841   5.640   5.029
    2PC     C11 2995   5.637   5.693   5.094
    2PC     O12 2996   5.525   5.652   5.119
    2PC     O11 2997   5.686   5.801   5.157
    2PC      C1 2998   5.624   5.858   5.274
    2PC      HR 2999   5.661   5.958   5.296
    2PC      HS 3000   5.519   5.881   5.256
    2PC      C2 3001   5.654   5.774   5.399
    2PC      HX 3002   5.636   5.669   5.375
    2PC      C3 3003   5.561   5.821   5.513
    2PC      HA 3004   5.604   5.916   5.543
    2PC      HB 3005   5.459   5.839   5.479
    2PC     O31 3006   5.562   5.720   5.616
    2PC     P31 3007   5.510   5.743   5.766
    2PC     O32 3008   5.632   5.831   5.819
    2PC     C31 3009   5.613   5.973   5.816
    2PC     H1A 3010   5.601   6.011   5.714
    2PC     H1B 3011   5.516   5.995   5.862
    2PC     C32 3012   5.716   6.042   5.906
    2PC     H2A 3013   5.709   6.148   5.881
    2PC     H2B 3014   5.691   6.023   6.011
    2PC     N31 3015   5.861   6.006   5.888
    2PC     C33 3016   5.903   6.012   5.745
    2PC     H3A 3017   5.876   6.111   5.707
    2PC     H3B 3018   6.010   5.997   5.726
    2PC     H3C 3019   5.850   5.936   5.687
    2PC     C34 3020   5.949   6.104   5.959
    2PC     H4A 3021   5.925   6.086   6.064
    2PC     H4B 3022   6.055   6.078   5.952
    2PC     H4C 3023   5.932   6.210   5.938
    2PC     C35 3024   5.892   5.869   5.942
    2PC     H5A 3025   5.841   5.803   5.872
    2PC     H5B 3026   5.862   5.856   6.046
    2PC     H5C 3027   6.000   5.851   5.944
    2PC     O33 3028   5.381   5.816   5.767
    2PC     O34 3029   5.492   5.617   5.843
    2PC     O21 3030   5.788   5.801   5.443
    2PC     C21 3031   5.896   5.742   5.390
    2PC     O22 3032   5.892   5.637   5.329
    3OL     C12 3033   6.023   5.824   5.392
    3OL     H2R 3034   6.072   5.792   5.484
    3OL     H2S 3035   5.987   5.926   5.406
    3OL     C13 3036   6.118   5.802   5.274
    3OL     H3R 3037   6.148   5.697   5.275
    3OL     H3S 3038   6.205   5.868   5.285
    3OL     C14 3039   6.046   5.843   5.145
    3OL     H4R 3040   6.014   5.947   5.154
    3OL     H4S 3041   5.958   5.779   5.137
    3OL     C15 3042   6.148   5.825   5.031
    3OL     H5R 3043   6.175   5.720   5.032
    3OL     H5S 3044   6.236   5.881   5.062
    3OL     C16 3045   6.100   5.854   4.888
    3OL     H6R 3046   6.061   5.956   4.880
    3OL     H6S 3047   6.013   5.793   4.864
    3OL     C17 3048   6.211   5.829   4.785
    3OL     H7R 3049   6.235   5.723   4.798
    3OL     H7S 3050   6.300   5.889   4.804
    3OL     C18 3051   6.175   5.845   4.637
    3OL     H8R 3052   6.140   5.944   4.607
    3OL     H8S 3053   6.084   5.790   4.615
    3OL     C19 3054   6.286   5.795   4.547
    3OL     H9R 3055   6.291   5.687   4.540
    3OL    C110 3056   6.378   5.864   4.481
    3OL    H10R 3057   6.461   5.813   4.433
    3OL    C111 3058   6.389   6.014   4.490
    3OL    H11R 3059   6.495   6.043   4.485
    3OL    H11S 3060   6.362   6.049   4.590
    3OL    C112 3061   6.316   6.072   4.368
    3OL    H12R 3062   6.209   6.065   4.390
    3OL    H12S 3063   6.345   6.020   4.277
    3OL    C113 3064   6.343   6.222   4.349
    3OL    H13R 3065   6.448   6.237   4.322
    3OL    H13S 3066   6.323   6.276   4.441
    3OL    C114 3067   6.259   6.285   4.237
    3OL    H14R 3068   6.263   6.394   4.240
    3OL    H14S 3069   6.157   6.250   4.252
    3OL    C115 3070   6.303   6.242   4.096
    3OL    H15R 3071   6.295   6.134   4.087
    3OL    H15S 3072   6.407   6.272   4.085
    3OL    C116 3073   6.214   6.306   3.989
    3OL    H16R 3074   6.254   6.286   3.889
    3OL    H16S 3075   6.212   6.415   4.002
    3OL    C117 3076   6.071   6.251   3.986
    3OL    H17R 3077   6.009   6.330   3.942
    3OL    H17S 3078   6.029   6.229   4.085
    3OL    C118 3079   6.063   6.130   3.893
    3OL    H18R 3080   5.968   6.075   3.896
    3OL    H18S 3081   6.141   6.058   3.918
    3OL    H18T 3082   6.082   6.159   3.789
    1PA    C116 3083   5.827   5.104   4.483
    1PA    H16R 3084   5.855   5.203   4.518
    1PA    H16S 3085   5.878   5.089   4.388
    1PA    H16T 3086   5.857   5.024   4.551
    1PA    C115 3087   5.675   5.108   4.461
    1PA    H15R 3088   5.617   5.141   4.548
    1PA    H15S 3089   5.664   5.195   4.396
    1PA    C114 3090   5.615   4.983   4.394
    1PA    H14R 3091   5.628   4.900   4.464
    1PA    H14S 3092   5.509   5.005   4.378
    1PA    C113 3093   5.688   4.942   4.266
    1PA    H13R 3094   5.692   5.027   4.198
    1PA    H13S 3095   5.788   4.915   4.300
    1PA    C112 3096   5.612   4.819   4.213
    1PA    H12R 3097   5.574   4.753   4.291
    1PA    H12S 3098   5.517   4.844   4.164
    1PA    C111 3099   5.680   4.730   4.108
    1PA    H11R 3100   5.609   4.657   4.071
    1PA    H11S 3101   5.697   4.784   4.015
    1PA    C110 3102   5.813   4.663   4.144
    1PA    H10R 3103   5.864   4.626   4.055
    1PA    H10S 3104   5.874   4.746   4.180
    1PA     C19 3105   5.809   4.558   4.257
    1PA     H9R 3106   5.708   4.522   4.278
    1PA     H9S 3107   5.876   4.475   4.236
    1PA     C18 3108   5.853   4.620   4.390
    1PA     H8R 3109   5.959   4.647   4.382
    1PA     H8S 3110   5.799   4.714   4.402
    1PA     C17 3111   5.818   4.528   4.508
    1PA     H7R 3112   5.709   4.535   4.513
    1PA     H7S 3113   5.850   4.427   4.485
    1PA     C16 3114   5.892   4.568   4.636
    1PA     H6R 3115   5.915   4.480   4.695
    1PA     H6S 3116   5.980   4.629   4.616
    1PA     C15 3117   5.794   4.651   4.720
    1PA     H5R 3118   5.846   4.714   4.792
    1PA     H5S 3119   5.721   4.716   4.671
    1PA     C14 3120   5.704   4.559   4.804
    1PA     H4R 3121   5.651   4.501   4.729
    1PA     H4S 3122   5.762   4.490   4.866
    1PA     C13 3123   5.613   4.644   4.895
    1PA     H3R 3124   5.684   4.717   4.933
    1PA     H3S 3125   5.533   4.688   4.836
    1PA     C12 3126   5.549   4.554   5.002
    1PA     H2R 3127   5.504   4.471   4.947
    1PA     H2S 3128   5.636   4.513   5.055
    2PC     C11 3129   5.469   4.624   5.109
    2PC     O12 3130   5.450   4.564   5.213
    2PC     O11 3131   5.414   4.744   5.085
    2PC      C1 3132   5.352   4.816   5.193
    2PC      HR 3133   5.281   4.890   5.156
    2PC      HS 3134   5.289   4.746   5.248
    2PC      C2 3135   5.456   4.877   5.288
    2PC      HX 3136   5.508   4.799   5.345
    2PC      C3 3137   5.394   4.958   5.403
    2PC      HA 3138   5.316   5.022   5.360
    2PC      HB 3139   5.336   4.889   5.465
    2PC     O31 3140   5.501   5.023   5.474
    2PC     P31 3141   5.583   4.948   5.589
    2PC     O32 3142   5.549   5.021   5.727
    2PC     C31 3143   5.435   4.981   5.806
    2PC     H1A 3144   5.385   5.072   5.839
    2PC     H1B 3145   5.368   4.916   5.750
    2PC     C32 3146   5.501   4.915   5.928
    2PC     H2A 3147   5.586   4.850   5.909
    2PC     H2B 3148   5.524   4.989   6.005
    2PC     N31 3149   5.414   4.820   6.006
    2PC     C33 3150   5.501   4.765   6.115
    2PC     H3A 3151   5.446   4.682   6.159
    2PC     H3B 3152   5.595   4.728   6.072
    2PC     H3C 3153   5.523   4.839   6.192
    2PC     C34 3154   5.299   4.897   6.064
    2PC     H4A 3155   5.241   4.842   6.137
    2PC     H4B 3156   5.335   4.988   6.114
    2PC     H4C 3157   5.232   4.926   5.983
    2PC     C35 3158   5.359   4.709   5.922
    2PC     H5A 3159   5.274   4.745   5.864
    2PC     H5B 3160   5.308   4.636   5.985
    2PC     H5C 3161   5.436   4.664   5.860
    2PC     O33 3162   5.555   4.804   5.607
    2PC     O34 3163   5.730   4.949   5.576
    2PC     O21 3164   5.538   4.963   5.207
    2PC     C21 3165   5.653   4.927   5.148
    2PC     O22 3166   5.686   4.810   5.155
    3OL     C12 3167   5.730   5.029   5.068
    3OL     H2R 3168   5.780   4.986   4.981
    3OL     H2S 3169   5.815   5.074   5.120
    3OL     C13 3170   5.639   5.147   5.034
    3OL     H3R 3171   5.706   5.223   4.993
    3OL     H3S 3172   5.575   5.177   5.117
    3OL     C14 3173   5.542   5.101   4.923
    3OL     H4R 3174   5.470   5.026   4.955
    3OL     H4S 3175   5.593   5.058   4.837
    3OL     C15 3176   5.468   5.223   4.866
    3OL     H5R 3177   5.535   5.305   4.839
    3OL     H5S 3178   5.410   5.259   4.951
    3OL     C16 3179   5.379   5.192   4.745
    3OL     H6R 3180   5.300   5.125   4.778
    3OL     H6S 3181   5.431   5.156   4.656
    3OL     C17 3182   5.317   5.326   4.704
    3OL     H7R 3183   5.375   5.366   4.620
    3OL     H7S 3184   5.310   5.397   4.787
    3OL     C18 3185   5.174   5.308   4.649
    3OL     H8R 3186   5.109   5.268   4.727
    3OL     H8S 3187   5.180   5.242   4.563
    3OL     C19 3188   5.122   5.440   4.597
    3OL     H9R 3189   5.167   5.482   4.507
    3OL    C110 3190   5.027   5.505   4.661
    3OL    H10R 3191   5.005   5.606   4.625
    3OL    C111 3192   4.947   5.468   4.784
    3OL    H11R 3193   5.015   5.470   4.870
    3OL    H11S 3194   4.922   5.364   4.762
    3OL    C112 3195   4.818   5.545   4.812
    3OL    H12R 3196   4.845   5.643   4.854
    3OL    H12S 3197   4.773   5.485   4.891
    3OL    C113 3198   4.724   5.563   4.692
    3OL    H13R 3199   4.716   5.465   4.643
    3OL    H13S 3200   4.780   5.618   4.616
    3OL    C114 3201   4.590   5.622   4.736
    3OL    H14R 3202   4.619   5.710   4.794
    3OL    H14S 3203   4.538   5.555   4.806
    3OL    C115 3204   4.505   5.671   4.618
    3OL    H15R 3205   4.474   5.583   4.562
    3OL    H15S 3206   4.569   5.736   4.558
    3OL    C116 3207   4.371   5.735   4.657
    3OL    H16R 3208   4.374   5.838   4.694
    3OL    H16S 3209   4.321   5.679   4.736
    3OL    C117 3210   4.285   5.719   4.531
    3OL    H17R 3211   4.264   5.613   4.517
    3OL    H17S 3212   4.337   5.751   4.441
    3OL    C118 3213   4.145   5.781   4.545
    3OL    H18R 3214   4.097   5.757   4.640
    3OL    H18S 3215   4.077   5.761   4.461
    3OL    H18T 3216   4.159   5.889   4.551
    1PA    C116 3217   1.069   2.663   3.991
    1PA    H16R 3218   1.038   2.730   3.910
    1PA    H16S 3219   1.152   2.715   4.037
    1PA    H16T 3220   0.997   2.637   4.069
    1PA    C115 3221   1.104   2.533   3.916
    1PA    H15R 3222   1.011   2.479   3.896
    1PA    H15S 3223   1.144   2.542   3.815
    1PA    C114 3224   1.201   2.441   3.991
    1PA    H14R 3225   1.212   2.345   3.939
    1PA    H14S 3226   1.297   2.491   4.006
    1PA    C113 3227   1.140   2.409   4.129
    1PA    H13R 3228   1.106   2.497   4.184
    1PA    H13S 3229   1.045   2.359   4.113
    1PA    C112 3230   1.225   2.322   4.222
    1PA    H12R 3231   1.232   2.230   4.163
    1PA    H12S 3232   1.324   2.363   4.243
    1PA    C111 3233   1.146   2.288   4.348
    1PA    H11R 3234   1.131   2.373   4.415
    1PA    H11S 3235   1.048   2.247   4.323
    1PA    C110 3236   1.219   2.182   4.432
    1PA    H10R 3237   1.228   2.093   4.370
    1PA    H10S 3238   1.323   2.213   4.442
    1PA     C19 3239   1.150   2.162   4.568
    1PA     H9R 3240   1.043   2.146   4.551
    1PA     H9S 3241   1.200   2.081   4.620
    1PA     C18 3242   1.158   2.282   4.664
    1PA     H8R 3243   1.266   2.294   4.679
    1PA     H8S 3244   1.111   2.377   4.640
    1PA     C17 3245   1.099   2.252   4.802
    1PA     H7R 3246   1.155   2.164   4.835
    1PA     H7S 3247   1.111   2.335   4.872
    1PA     C16 3248   0.951   2.213   4.806
    1PA     H6R 3249   0.894   2.287   4.749
    1PA     H6S 3250   0.920   2.124   4.750
    1PA     C15 3251   0.901   2.202   4.951
    1PA     H5R 3252   0.834   2.115   4.952
    1PA     H5S 3253   0.981   2.187   5.023
    1PA     C14 3254   0.820   2.327   4.989
    1PA     H4R 3255   0.890   2.410   4.976
    1PA     H4S 3256   0.732   2.338   4.925
    1PA     C13 3257   0.777   2.311   5.135
    1PA     H3R 3258   0.733   2.211   5.143
    1PA     H3S 3259   0.859   2.304   5.207
    1PA     C12 3260   0.670   2.412   5.182
    1PA     H2R 3261   0.717   2.508   5.204
    1PA     H2S 3262   0.582   2.418   5.117
    2PC     C11 3263   0.610   2.365   5.312
    2PC     O12 3264   0.598   2.254   5.359
    2PC     O11 3265   0.564   2.470   5.382
    2PC      C1 3266   0.516   2.461   5.517
    2PC      HR 3267   0.413   2.426   5.514
    2PC      HS 3268   0.576   2.393   5.579
    2PC      C2 3269   0.514   2.602   5.577
    2PC      HX 3270   0.598   2.659   5.537
    2PC      C3 3271   0.546   2.602   5.727
    2PC      HA 3272   0.655   2.598   5.733
    2PC      HB 3273   0.510   2.694   5.773
    2PC     O31 3274   0.481   2.489   5.789
    2PC     P31 3275   0.511   2.442   5.940
    2PC     O32 3276   0.378   2.486   6.018
    2PC     C31 3277   0.250   2.428   5.984
    2PC     H1A 3278   0.227   2.445   5.879
    2PC     H1B 3279   0.258   2.323   6.014
    2PC     C32 3280   0.143   2.483   6.079
    2PC     H2A 3281   0.056   2.417   6.073
    2PC     H2B 3282   0.181   2.479   6.182
    2PC     N31 3283   0.095   2.624   6.064
    2PC     C33 3284   0.214   2.715   6.068
    2PC     H3A 3285   0.254   2.711   6.169
    2PC     H3B 3286   0.281   2.689   5.986
    2PC     H3C 3287   0.176   2.813   6.039
    2PC     C34 3288   0.024   2.643   5.933
    2PC     H4A 3289  -0.072   2.590   5.933
    2PC     H4B 3290   0.014   2.752   5.927
    2PC     H4C 3291   0.086   2.597   5.857
    2PC     C35 3292   0.004   2.667   6.175
    2PC     H5A 3293   0.061   2.694   6.264
    2PC     H5B 3294  -0.050   2.576   6.204
    2PC     H5C 3295  -0.064   2.746   6.144
    2PC     O33 3296   0.541   2.298   5.952
    2PC     O34 3297   0.634   2.494   6.004
    2PC     O21 3298   0.393   2.666   5.530
    2PC     C21 3299   0.381   2.800   5.541
    2PC     O22 3300   0.473   2.878   5.554
    3OL     C12 3301   0.236   2.840   5.532
    3OL     H2R 3302   0.219   2.911   5.613
    3OL     H2S 3303   0.169   2.758   5.561
    3OL     C13 3304   0.198   2.888   5.392
    3OL     H3R 3305   0.280   2.946   5.350
    3OL     H3S 3306   0.102   2.941   5.397
    3OL     C14 3307   0.187   2.766   5.299
    3OL     H4R 3308   0.098   2.707   5.321
    3OL     H4S 3309   0.281   2.711   5.307
    3OL     C15 3310   0.176   2.807   5.152
    3OL     H5R 3311   0.271   2.853   5.123
    3OL     H5S 3312   0.093   2.878   5.144
    3OL     C16 3313   0.144   2.689   5.059
    3OL     H6R 3314   0.106   2.744   4.973
    3OL     H6S 3315   0.065   2.632   5.109
    3OL     C17 3316   0.272   2.611   5.026
    3OL     H7R 3317   0.299   2.558   5.118
    3OL     H7S 3318   0.351   2.679   4.993
    3OL     C18 3319   0.251   2.512   4.911
    3OL     H8R 3320   0.210   2.555   4.819
    3OL     H8S 3321   0.185   2.438   4.956
    3OL     C19 3322   0.370   2.437   4.858
    3OL     H9R 3323   0.394   2.355   4.924
    3OL    C110 3324   0.437   2.464   4.747
    3OL    H10R 3325   0.519   2.395   4.729
    3OL    C111 3326   0.422   2.586   4.660
    3OL    H11R 3327   0.520   2.629   4.640
    3OL    H11S 3328   0.379   2.667   4.719
    3OL    C112 3329   0.355   2.560   4.524
    3OL    H12R 3330   0.250   2.534   4.538
    3OL    H12S 3331   0.410   2.479   4.475
    3OL    C113 3332   0.348   2.680   4.427
    3OL    H13R 3333   0.451   2.713   4.412
    3OL    H13S 3334   0.291   2.763   4.469
    3OL    C114 3335   0.278   2.637   4.297
    3OL    H14R 3336   0.179   2.596   4.316
    3OL    H14S 3337   0.341   2.555   4.260
    3OL    C115 3338   0.279   2.753   4.197
    3OL    H15R 3339   0.281   2.853   4.242
    3OL    H15S 3340   0.191   2.747   4.132
    3OL    C116 3341   0.394   2.742   4.097
    3OL    H16R 3342   0.374   2.804   4.009
    3OL    H16S 3343   0.410   2.642   4.056
    3OL    C117 3344   0.527   2.792   4.154
    3OL    H17R 3345   0.568   2.718   4.223
    3OL    H17S 3346   0.507   2.885   4.208
    3OL    C118 3347   0.633   2.820   4.045
    3OL    H18R 3348   0.704   2.737   4.038
    3OL    H18S 3349   0.682   2.916   4.059
    3OL    H18T 3350   0.581   2.822   3.949
    1PA    C116 3351  -0.346   1.073   4.371
    1PA    H16R 3352  -0.371   1.086   4.265
    1PA    H16S 3353  -0.435   1.061   4.433
    1PA    H16T 3354  -0.291   0.979   4.378
    1PA    C115 3355  -0.264   1.188   4.431
    1PA    H15R 3356  -0.321   1.277   4.456
    1PA    H15S 3357  -0.235   1.142   4.526
    1PA    C114 3358  -0.138   1.212   4.347
    1PA    H14R 3359  -0.057   1.140   4.363
    1PA    H14S 3360  -0.168   1.223   4.242
    1PA    C113 3361  -0.072   1.345   4.383
    1PA    H13R 3362  -0.153   1.417   4.371
    1PA    H13S 3363  -0.034   1.334   4.485
    1PA    C112 3364   0.041   1.382   4.285
    1PA    H12R 3365   0.002   1.397   4.184
    1PA    H12S 3366   0.085   1.477   4.318
    1PA    C111 3367   0.160   1.286   4.275
    1PA    H11R 3368   0.133   1.194   4.223
    1PA    H11S 3369   0.234   1.326   4.205
    1PA    C110 3370   0.218   1.245   4.411
    1PA    H10R 3371   0.148   1.250   4.494
    1PA    H10S 3372   0.252   1.144   4.388
    1PA     C19 3373   0.348   1.324   4.435
    1PA     H9R 3374   0.417   1.305   4.353
    1PA     H9S 3375   0.346   1.433   4.433
    1PA     C18 3376   0.410   1.281   4.569
    1PA     H8R 3377   0.381   1.183   4.608
    1PA     H8S 3378   0.515   1.262   4.548
    1PA     C17 3379   0.398   1.392   4.675
    1PA     H7R 3380   0.294   1.425   4.684
    1PA     H7S 3381   0.420   1.342   4.769
    1PA     C16 3382   0.487   1.515   4.651
    1PA     H6R 3383   0.589   1.478   4.644
    1PA     H6S 3384   0.458   1.563   4.557
    1PA     C15 3385   0.481   1.616   4.766
    1PA     H5R 3386   0.551   1.691   4.729
    1PA     H5S 3387   0.378   1.644   4.788
    1PA     C14 3388   0.543   1.565   4.897
    1PA     H4R 3389   0.497   1.472   4.930
    1PA     H4S 3390   0.651   1.550   4.885
    1PA     C13 3391   0.525   1.664   5.013
    1PA     H3R 3392   0.560   1.765   4.988
    1PA     H3S 3393   0.419   1.683   5.031
    1PA     C12 3394   0.585   1.626   5.149
    1PA     H2R 3395   0.545   1.535   5.194
    1PA     H2S 3396   0.692   1.611   5.134
    2PC     C11 3397   0.563   1.738   5.248
    2PC     O12 3398   0.453   1.783   5.273
    2PC     O11 3399   0.677   1.769   5.311
    2PC      C1 3400   0.673   1.863   5.419
    2PC      HR 3401   0.633   1.955   5.375
    2PC      HS 3402   0.617   1.823   5.503
    2PC      C2 3403   0.820   1.886   5.460
    2PC      HX 3404   0.853   1.787   5.493
    2PC      C3 3405   0.838   1.997   5.564
    2PC      HA 3406   0.818   2.094   5.518
    2PC      HB 3407   0.775   1.966   5.648
    2PC     O31 3408   0.974   1.998   5.613
    2PC     P31 3409   1.002   2.064   5.756
    2PC     O32 3410   1.070   2.196   5.695
    2PC     C31 3411   1.165   2.270   5.774
    2PC     H1A 3412   1.115   2.319   5.858
    2PC     H1B 3413   1.251   2.212   5.808
    2PC     C32 3414   1.203   2.381   5.675
    2PC     H2A 3415   1.205   2.329   5.579
    2PC     H2B 3416   1.124   2.455   5.683
    2PC     N31 3417   1.340   2.441   5.684
    2PC     C33 3418   1.349   2.545   5.576
    2PC     H3A 3419   1.286   2.628   5.610
    2PC     H3B 3420   1.453   2.579   5.572
    2PC     H3C 3421   1.306   2.499   5.487
    2PC     C34 3422   1.359   2.512   5.814
    2PC     H4A 3423   1.464   2.544   5.816
    2PC     H4B 3424   1.292   2.596   5.831
    2PC     H4C 3425   1.352   2.442   5.898
    2PC     C35 3426   1.453   2.343   5.673
    2PC     H5A 3427   1.448   2.298   5.574
    2PC     H5B 3428   1.448   2.267   5.751
    2PC     H5C 3429   1.541   2.407   5.671
    2PC     O33 3430   0.878   2.093   5.832
    2PC     O34 3431   1.093   1.969   5.824
    2PC     O21 3432   0.890   1.927   5.341
    2PC     C21 3433   0.995   1.855   5.296
    2PC     O22 3434   1.039   1.760   5.356
    3OL     C12 3435   1.030   1.888   5.153
    3OL     H2R 3436   1.123   1.838   5.123
    3OL     H2S 3437   1.054   1.994   5.144
    3OL     C13 3438   0.912   1.848   5.064
    3OL     H3R 3439   0.823   1.911   5.071
    3OL     H3S 3440   0.888   1.744   5.087
    3OL     C14 3441   0.968   1.857   4.921
    3OL     H4R 3442   1.056   1.794   4.904
    3OL     H4S 3443   0.981   1.964   4.908
    3OL     C15 3444   0.870   1.800   4.818
    3OL     H5R 3445   0.776   1.854   4.835
    3OL     H5S 3446   0.849   1.694   4.835
    3OL     C16 3447   0.918   1.809   4.672
    3OL     H6R 3448   1.006   1.745   4.662
    3OL     H6S 3449   0.951   1.907   4.640
    3OL     C17 3450   0.815   1.748   4.576
    3OL     H7R 3451   0.730   1.817   4.583
    3OL     H7S 3452   0.792   1.644   4.601
    3OL     C18 3453   0.860   1.752   4.430
    3OL     H8R 3454   0.945   1.684   4.416
    3OL     H8S 3455   0.886   1.856   4.405
    3OL     C19 3456   0.752   1.724   4.329
    3OL     H9R 3457   0.646   1.736   4.350
    3OL    C110 3458   0.788   1.692   4.206
    3OL    H10R 3459   0.701   1.677   4.141
    3OL    C111 3460   0.923   1.645   4.158
    3OL    H11R 3461   0.907   1.548   4.110
    3OL    H11S 3462   0.996   1.616   4.233
    3OL    C112 3463   0.975   1.741   4.050
    3OL    H12R 3464   0.927   1.711   3.957
    3OL    H12S 3465   1.081   1.723   4.032
    3OL    C113 3466   0.956   1.891   4.077
    3OL    H13R 3467   1.045   1.942   4.039
    3OL    H13S 3468   0.957   1.909   4.184
    3OL    C114 3469   0.824   1.950   4.024
    3OL    H14R 3470   0.811   2.041   4.083
    3OL    H14S 3471   0.734   1.899   4.059
    3OL    C115 3472   0.831   1.995   3.878
    3OL    H15R 3473   0.852   1.904   3.822
    3OL    H15S 3474   0.916   2.059   3.853
    3OL    C116 3475   0.699   2.051   3.822
    3OL    H16R 3476   0.682   2.151   3.864
    3OL    H16S 3477   0.613   1.995   3.859
    3OL    C117 3478   0.704   2.044   3.669
    3OL    H17R 3479   0.708   1.941   3.633
    3OL    H17S 3480   0.788   2.097   3.623
    3OL    C118 3481   0.573   2.104   3.616
    3OL    H18R 3482   0.585   2.110   3.508
    3OL    H18S 3483   0.567   2.205   3.658
    3OL    H18T 3484   0.489   2.046   3.654
    1PA    C116 3485   6.912   6.462   3.857
    1PA    H16R 3486   6.831   6.503   3.795
    1PA    H16S 3487   6.999   6.520   3.826
    1PA    H16T 3488   6.931   6.362   3.818
    1PA    C115 3489   6.889   6.468   4.008
    1PA    H15R 3490   6.836   6.562   4.024
    1PA    H15S 3491   6.815   6.394   4.040
    1PA    C114 3492   7.018   6.451   4.090
    1PA    H14R 3493   7.048   6.347   4.085
    1PA    H14S 3494   7.100   6.517   4.060
    1PA    C113 3495   6.994   6.479   4.239
    1PA    H13R 3496   7.078   6.438   4.296
    1PA    H13S 3497   6.981   6.583   4.271
    1PA    C112 3498   6.878   6.392   4.289
    1PA    H12R 3499   6.785   6.405   4.233
    1PA    H12S 3500   6.898   6.285   4.278
    1PA    C111 3501   6.842   6.429   4.434
    1PA    H11R 3502   6.933   6.416   4.494
    1PA    H11S 3503   6.809   6.532   4.443
    1PA    C110 3504   6.733   6.339   4.493
    1PA    H10R 3505   6.642   6.351   4.433
    1PA    H10S 3506   6.767   6.236   4.495
    1PA     C19 3507   6.694   6.389   4.633
    1PA     H9R 3508   6.693   6.498   4.640
    1PA     H9S 3509   6.598   6.354   4.671
    1PA     C18 3510   6.796   6.339   4.736
    1PA     H8R 3511   6.899   6.340   4.701
    1PA     H8S 3512   6.790   6.409   4.819
    1PA     C17 3513   6.764   6.198   4.790
    1PA     H7R 3514   6.749   6.134   4.703
    1PA     H7S 3515   6.853   6.169   4.845
    1PA     C16 3516   6.644   6.186   4.885
    1PA     H6R 3517   6.646   6.248   4.975
    1PA     H6S 3518   6.550   6.209   4.836
    1PA     C15 3519   6.634   6.039   4.928
    1PA     H5R 3520   6.611   5.973   4.844
    1PA     H5S 3521   6.732   6.010   4.964
    1PA     C14 3522   6.522   6.018   5.031
    1PA     H4R 3523   6.427   6.064   5.001
    1PA     H4S 3524   6.501   5.912   5.044
    1PA     C13 3525   6.563   6.067   5.171
    1PA     H3R 3526   6.668   6.047   5.191
    1PA     H3S 3527   6.558   6.175   5.189
    1PA     C12 3528   6.469   6.001   5.273
    1PA     H2R 3529   6.367   6.038   5.271
    1PA     H2S 3530   6.457   5.894   5.256
    2PC     C11 3531   6.514   6.032   5.413
    2PC     O12 3532   6.628   6.056   5.446
    2PC     O11 3533   6.410   6.013   5.495
    2PC      C1 3534   6.438   6.024   5.636
    2PC      HR 3535   6.518   5.959   5.672
    2PC      HS 3536   6.461   6.128   5.661
    2PC      C2 3537   6.307   5.984   5.705
    2PC      HX 3538   6.300   6.014   5.810
    2PC      C3 3539   6.289   5.832   5.694
    2PC      HA 3540   6.290   5.799   5.590
    2PC      HB 3541   6.373   5.776   5.737
    2PC     O31 3542   6.166   5.793   5.759
    2PC     P31 3543   6.121   5.641   5.779
    2PC     O32 3544   5.969   5.666   5.734
    2PC     C31 3545   5.880   5.566   5.682
    2PC     H1A 3546   5.803   5.618   5.625
    2PC     H1B 3547   5.930   5.495   5.616
    2PC     C32 3548   5.823   5.468   5.786
    2PC     H2A 3549   5.906   5.444   5.852
    2PC     H2B 3550   5.737   5.512   5.837
    2PC     N31 3551   5.782   5.330   5.743
    2PC     C33 3552   5.888   5.250   5.674
    2PC     H3A 3553   5.913   5.299   5.579
    2PC     H3B 3554   5.971   5.248   5.744
    2PC     H3C 3555   5.842   5.153   5.651
    2PC     C34 3556   5.749   5.258   5.870
    2PC     H4A 3557   5.718   5.157   5.839
    2PC     H4B 3558   5.837   5.254   5.933
    2PC     H4C 3559   5.666   5.315   5.913
    2PC     C35 3560   5.656   5.336   5.662
    2PC     H5A 3561   5.608   5.429   5.693
    2PC     H5B 3562   5.601   5.246   5.692
    2PC     H5C 3563   5.677   5.333   5.555
    2PC     O33 3564   6.192   5.533   5.707
    2PC     O34 3565   6.128   5.627   5.926
    2PC     O21 3566   6.200   6.045   5.630
    2PC     C21 3567   6.179   6.175   5.656
    2PC     O22 3568   6.225   6.235   5.751
    3OL     C12 3569   6.091   6.238   5.552
    3OL     H2R 3570   6.013   6.302   5.595
    3OL     H2S 3571   6.047   6.159   5.491
    3OL     C13 3572   6.179   6.325   5.460
    3OL     H3R 3573   6.247   6.259   5.405
    3OL     H3S 3574   6.230   6.398   5.522
    3OL     C14 3575   6.091   6.396   5.355
    3OL     H4R 3576   6.131   6.491   5.319
    3OL     H4S 3577   6.000   6.426   5.406
    3OL     C15 3578   6.040   6.316   5.235
    3OL     H5R 3579   5.957   6.374   5.194
    3OL     H5S 3580   5.994   6.222   5.265
    3OL     C16 3581   6.153   6.294   5.134
    3OL     H6R 3582   6.241   6.245   5.176
    3OL     H6S 3583   6.179   6.399   5.114
    3OL     C17 3584   6.106   6.225   5.005
    3OL     H7R 3585   6.021   6.158   5.021
    3OL     H7S 3586   6.188   6.167   4.961
    3OL     C18 3587   6.074   6.318   4.887
    3OL     H8R 3588   5.995   6.386   4.919
    3OL     H8S 3589   6.033   6.252   4.810
    3OL     C19 3590   6.189   6.404   4.843
    3OL     H9R 3591   6.251   6.439   4.925
    3OL    C110 3592   6.212   6.440   4.717
    3OL    H10R 3593   6.300   6.494   4.686
    3OL    C111 3594   6.117   6.402   4.606
    3OL    H11R 3595   6.017   6.381   4.645
    3OL    H11S 3596   6.150   6.312   4.555
    3OL    C112 3597   6.093   6.506   4.495
    3OL    H12R 3598   6.057   6.454   4.407
    3OL    H12S 3599   6.190   6.550   4.470
    3OL    C113 3600   5.994   6.617   4.535
    3OL    H13R 3601   6.028   6.652   4.632
    3OL    H13S 3602   5.902   6.558   4.541
    3OL    C114 3603   5.980   6.726   4.428
    3OL    H14R 3604   6.073   6.760   4.381
    3OL    H14S 3605   5.936   6.817   4.469
    3OL    C115 3606   5.883   6.678   4.319
    3OL    H15R 3607   5.781   6.689   4.356
    3OL    H15S 3608   5.909   6.574   4.296
    3OL    C116 3609   5.904   6.763   4.193
    3OL    H16R 3610   6.006   6.759   4.154
    3OL    H16S 3611   5.884   6.868   4.215
    3OL    C117 3612   5.814   6.715   4.077
    3OL    H17R 3613   5.802   6.607   4.078
    3OL    H17S 3614   5.858   6.746   3.982
    3OL    C118 3615   5.686   6.800   4.072
    3OL    H18R 3616   5.635   6.795   4.168
    3OL    H18S 3617   5.614   6.767   3.997
    3OL    H18T 3618   5.716   6.905   4.061
    1PA    C116 3619   0.834   2.597   4.445
    1PA    H16R 3620   0.748   2.553   4.395
    1PA    H16S 3621   0.812   2.617   4.550
    1PA    H16T 3622   0.919   2.529   4.429
    1PA    C115 3623   0.852   2.733   4.377
    1PA    H15R 3624   0.860   2.728   4.268
    1PA    H15S 3625   0.769   2.798   4.406
    1PA    C114 3626   0.979   2.801   4.429
    1PA    H14R 3627   0.961   2.841   4.529
    1PA    H14S 3628   1.069   2.739   4.435
    1PA    C113 3629   1.012   2.926   4.346
    1PA    H13R 3630   1.047   2.894   4.248
    1PA    H13S 3631   0.922   2.986   4.332
    1PA    C112 3632   1.109   3.020   4.419
    1PA    H12R 3633   1.181   2.971   4.483
    1PA    H12S 3634   1.174   3.075   4.350
    1PA    C111 3635   1.039   3.137   4.490
    1PA    H11R 3636   1.020   3.212   4.413
    1PA    H11S 3637   0.938   3.114   4.525
    1PA    C110 3638   1.130   3.201   4.595
    1PA    H10R 3639   1.226   3.231   4.553
    1PA    H10S 3640   1.083   3.298   4.616
    1PA     C19 3641   1.150   3.115   4.721
    1PA     H9R 3642   1.048   3.107   4.759
    1PA     H9S 3643   1.187   3.012   4.712
    1PA     C18 3644   1.242   3.196   4.813
    1PA     H8R 3645   1.335   3.222   4.763
    1PA     H8S 3646   1.198   3.292   4.842
    1PA     C17 3647   1.289   3.120   4.938
    1PA     H7R 3648   1.209   3.134   5.011
    1PA     H7S 3649   1.305   3.017   4.906
    1PA     C16 3650   1.418   3.172   5.002
    1PA     H6R 3651   1.504   3.154   4.937
    1PA     H6S 3652   1.410   3.281   5.005
    1PA     C15 3653   1.426   3.112   5.143
    1PA     H5R 3654   1.356   3.178   5.197
    1PA     H5S 3655   1.392   3.010   5.161
    1PA     C14 3656   1.567   3.124   5.203
    1PA     H4R 3657   1.641   3.089   5.131
    1PA     H4S 3658   1.587   3.230   5.220
    1PA     C13 3659   1.584   3.047   5.334
    1PA     H3R 3660   1.544   3.110   5.414
    1PA     H3S 3661   1.528   2.953   5.333
    1PA     C12 3662   1.732   3.032   5.373
    1PA     H2R 3663   1.784   2.995   5.285
    1PA     H2S 3664   1.775   3.132   5.389
    2PC     C11 3665   1.746   2.953   5.500
    2PC     O12 3666   1.822   2.860   5.515
    2PC     O11 3667   1.664   3.002   5.595
    2PC      C1 3668   1.667   2.959   5.732
    2PC      HR 3669   1.595   3.018   5.789
    2PC      HS 3670   1.640   2.854   5.751
    2PC      C2 3671   1.806   2.979   5.795
    2PC      HX 3672   1.878   2.907   5.757
    2PC      C3 3673   1.795   2.958   5.946
    2PC      HA 3674   1.718   3.018   5.996
    2PC      HB 3675   1.748   2.861   5.965
    2PC     O31 3676   1.924   2.963   6.009
    2PC     P31 3677   1.924   2.916   6.162
    2PC     O32 3678   1.807   3.007   6.222
    2PC     C31 3679   1.728   2.956   6.331
    2PC     H1A 3680   1.658   3.037   6.353
    2PC     H1B 3681   1.682   2.860   6.307
    2PC     C32 3682   1.810   2.931   6.459
    2PC     H2A 3683   1.875   2.845   6.440
    2PC     H2B 3684   1.879   3.015   6.458
    2PC     N31 3685   1.747   2.914   6.594
    2PC     C33 3686   1.675   2.783   6.593
    2PC     H3A 3687   1.599   2.780   6.515
    2PC     H3B 3688   1.758   2.711   6.586
    2PC     H3C 3689   1.632   2.769   6.692
    2PC     C34 3690   1.856   2.916   6.697
    2PC     H4A 3691   1.898   3.015   6.717
    2PC     H4B 3692   1.816   2.890   6.795
    2PC     H4C 3693   1.930   2.845   6.660
    2PC     C35 3694   1.649   3.019   6.637
    2PC     H5A 3695   1.578   3.045   6.558
    2PC     H5B 3696   1.699   3.115   6.646
    2PC     H5C 3697   1.606   2.991   6.734
    2PC     O33 3698   1.872   2.778   6.169
    2PC     O34 3699   2.051   2.920   6.239
    2PC     O21 3700   1.863   3.106   5.758
    2PC     C21 3701   1.805   3.225   5.778
    2PC     O22 3702   1.715   3.247   5.856
    3OL     C12 3703   1.881   3.332   5.704
    3OL     H2R 3704   1.981   3.288   5.693
    3OL     H2S 3705   1.890   3.422   5.764
    3OL     C13 3706   1.812   3.385   5.578
    3OL     H3R 3707   1.715   3.431   5.603
    3OL     H3S 3708   1.783   3.307   5.507
    3OL     C14 3709   1.895   3.499   5.517
    3OL     H4R 3710   1.987   3.452   5.483
    3OL     H4S 3711   1.909   3.583   5.585
    3OL     C15 3712   1.821   3.551   5.393
    3OL     H5R 3713   1.725   3.595   5.423
    3OL     H5S 3714   1.794   3.470   5.325
    3OL     C16 3715   1.899   3.656   5.313
    3OL     H6R 3716   1.987   3.608   5.269
    3OL     H6S 3717   1.928   3.735   5.382
    3OL     C17 3718   1.802   3.710   5.207
    3OL     H7R 3719   1.734   3.773   5.264
    3OL     H7S 3720   1.747   3.626   5.163
    3OL     C18 3721   1.875   3.801   5.108
    3OL     H8R 3722   1.924   3.743   5.030
    3OL     H8S 3723   1.954   3.856   5.159
    3OL     C19 3724   1.777   3.887   5.031
    3OL     H9R 3725   1.701   3.927   5.097
    3OL    C110 3726   1.765   3.922   4.904
    3OL    H10R 3727   1.680   3.981   4.872
    3OL    C111 3728   1.866   3.909   4.793
    3OL    H11R 3729   1.963   3.876   4.833
    3OL    H11S 3730   1.879   4.008   4.750
    3OL    C112 3731   1.830   3.821   4.672
    3OL    H12R 3732   1.908   3.839   4.597
    3OL    H12S 3733   1.734   3.852   4.630
    3OL    C113 3734   1.808   3.674   4.709
    3OL    H13R 3735   1.731   3.660   4.785
    3OL    H13S 3736   1.895   3.622   4.750
    3OL    C114 3737   1.758   3.590   4.590
    3OL    H14R 3738   1.822   3.592   4.501
    3OL    H14S 3739   1.667   3.637   4.553
    3OL    C115 3740   1.713   3.449   4.628
    3OL    H15R 3741   1.638   3.452   4.707
    3OL    H15S 3742   1.800   3.389   4.657
    3OL    C116 3743   1.648   3.386   4.504
    3OL    H16R 3744   1.723   3.381   4.424
    3OL    H16S 3745   1.566   3.452   4.476
    3OL    C117 3746   1.590   3.246   4.528
    3OL    H17R 3747   1.516   3.223   4.450
    3OL    H17S 3748   1.532   3.255   4.620
    3OL    C118 3749   1.692   3.132   4.517
    3OL    H18R 3750   1.768   3.160   4.589
    3OL    H18S 3751   1.743   3.127   4.420
    3OL    H18T 3752   1.643   3.039   4.548
    1PA    C116 3753   3.360   3.255   4.275
    1PA    H16R 3754   3.321   3.334   4.339
    1PA    H16S 3755   3.422   3.300   4.197
    1PA    H16T 3756   3.412   3.182   4.338
    1PA    C115 3757   3.244   3.180   4.209
    1PA    H15R 3758   3.207   3.246   4.130
    1PA    H15S 3759   3.275   3.092   4.153
    1PA    C114 3760   3.128   3.142   4.302
    1PA    H14R 3761   3.101   3.231   4.359
    1PA    H14S 3762   3.039   3.114   4.245
    1PA    C113 3763   3.163   3.028   4.398
    1PA    H13R 3764   3.192   2.936   4.347
    1PA    H13S 3765   3.244   3.054   4.466
    1PA    C112 3766   3.042   2.985   4.483
    1PA    H12R 3767   2.961   2.955   4.416
    1PA    H12S 3768   3.076   2.898   4.539
    1PA    C111 3769   2.996   3.093   4.582
    1PA    H11R 3770   2.981   3.196   4.548
    1PA    H11S 3771   2.897   3.060   4.613
    1PA    C110 3772   3.083   3.102   4.708
    1PA    H10R 3773   3.097   3.009   4.762
    1PA    H10S 3774   3.180   3.145   4.680
    1PA     C19 3775   3.009   3.195   4.805
    1PA     H9R 3776   2.991   3.296   4.766
    1PA     H9S 3777   2.914   3.152   4.838
    1PA     C18 3778   3.092   3.194   4.934
    1PA     H8R 3779   3.095   3.096   4.982
    1PA     H8S 3780   3.193   3.225   4.906
    1PA     C17 3781   3.048   3.302   5.033
    1PA     H7R 3782   3.037   3.393   4.973
    1PA     H7S 3783   2.949   3.284   5.077
    1PA     C16 3784   3.143   3.330   5.150
    1PA     H6R 3785   3.246   3.316   5.118
    1PA     H6S 3786   3.122   3.434   5.176
    1PA     C15 3787   3.111   3.240   5.270
    1PA     H5R 3788   3.004   3.259   5.284
    1PA     H5S 3789   3.124   3.139   5.229
    1PA     C14 3790   3.180   3.260   5.406
    1PA     H4R 3791   3.133   3.342   5.461
    1PA     H4S 3792   3.160   3.170   5.464
    1PA     C13 3793   3.329   3.297   5.412
    1PA     H3R 3794   3.382   3.211   5.370
    1PA     H3S 3795   3.345   3.378   5.341
    1PA     C12 3796   3.390   3.341   5.545
    1PA     H2R 3797   3.361   3.266   5.620
    1PA     H2S 3798   3.499   3.344   5.538
    2PC     C11 3799   3.342   3.476   5.594
    2PC     O12 3800   3.226   3.493   5.624
    2PC     O11 3801   3.443   3.565   5.600
    2PC      C1 3802   3.420   3.707   5.607
    2PC      HR 3803   3.499   3.758   5.552
    2PC      HS 3804   3.326   3.723   5.553
    2PC      C2 3805   3.415   3.759   5.751
    2PC      HX 3806   3.491   3.837   5.761
    2PC      C3 3807   3.446   3.649   5.854
    2PC      HA 3808   3.371   3.570   5.850
    2PC      HB 3809   3.547   3.617   5.829
    2PC     O31 3810   3.432   3.711   5.983
    2PC     P31 3811   3.460   3.628   6.117
    2PC     O32 3812   3.615   3.597   6.089
    2PC     C31 3813   3.723   3.656   6.163
    2PC     H1A 3814   3.704   3.667   6.270
    2PC     H1B 3815   3.814   3.602   6.138
    2PC     C32 3816   3.744   3.802   6.118
    2PC     H2A 3817   3.780   3.811   6.016
    2PC     H2B 3818   3.642   3.841   6.116
    2PC     N31 3819   3.827   3.896   6.200
    2PC     C33 3820   3.969   3.851   6.213
    2PC     H3A 3821   3.969   3.753   6.262
    2PC     H3B 3822   4.009   3.847   6.112
    2PC     H3C 3823   4.013   3.921   6.285
    2PC     C34 3824   3.822   4.029   6.131
    2PC     H4A 3825   3.842   4.107   6.205
    2PC     H4B 3826   3.890   4.037   6.047
    2PC     H4C 3827   3.723   4.035   6.085
    2PC     C35 3828   3.774   3.906   6.340
    2PC     H5A 3829   3.810   3.814   6.385
    2PC     H5B 3830   3.665   3.911   6.331
    2PC     H5C 3831   3.822   3.991   6.388
    2PC     O33 3832   3.450   3.713   6.239
    2PC     O34 3833   3.367   3.517   6.147
    2PC     O21 3834   3.282   3.804   5.782
    2PC     C21 3835   3.248   3.925   5.736
    2PC     O22 3836   3.309   3.992   5.654
    3OL     C12 3837   3.122   3.974   5.803
    3OL     H2R 3838   3.137   4.069   5.855
    3OL     H2S 3839   3.080   3.904   5.875
    3OL     C13 3840   3.009   3.996   5.702
    3OL     H3R 3841   3.033   4.083   5.641
    3OL     H3S 3842   2.917   4.017   5.758
    3OL     C14 3843   2.961   3.876   5.619
    3OL     H4R 3844   3.040   3.849   5.550
    3OL     H4S 3845   2.887   3.907   5.545
    3OL     C15 3846   2.911   3.758   5.703
    3OL     H5R 3847   2.821   3.781   5.760
    3OL     H5S 3848   2.985   3.727   5.778
    3OL     C16 3849   2.877   3.634   5.619
    3OL     H6R 3850   2.845   3.553   5.686
    3OL     H6S 3851   2.971   3.608   5.570
    3OL     C17 3852   2.770   3.656   5.512
    3OL     H7R 3853   2.824   3.696   5.426
    3OL     H7S 3854   2.685   3.722   5.532
    3OL     C18 3855   2.712   3.522   5.463
    3OL     H8R 3856   2.668   3.482   5.555
    3OL     H8S 3857   2.792   3.458   5.426
    3OL     C19 3858   2.613   3.541   5.351
    3OL     H9R 3859   2.530   3.609   5.370
    3OL    C110 3860   2.603   3.459   5.248
    3OL    H10R 3861   2.525   3.468   5.174
    3OL    C111 3862   2.705   3.354   5.211
    3OL    H11R 3863   2.721   3.276   5.285
    3OL    H11S 3864   2.794   3.415   5.195
    3OL    C112 3865   2.646   3.291   5.084
    3OL    H12R 3866   2.538   3.282   5.096
    3OL    H12S 3867   2.689   3.191   5.071
    3OL    C113 3868   2.664   3.363   4.950
    3OL    H13R 3869   2.770   3.377   4.927
    3OL    H13S 3870   2.618   3.461   4.964
    3OL    C114 3871   2.595   3.281   4.841
    3OL    H14R 3872   2.494   3.251   4.871
    3OL    H14S 3873   2.641   3.182   4.838
    3OL    C115 3874   2.580   3.354   4.707
    3OL    H15R 3875   2.543   3.455   4.726
    3OL    H15S 3876   2.515   3.293   4.643
    3OL    C116 3877   2.711   3.376   4.631
    3OL    H16R 3878   2.757   3.281   4.603
    3OL    H16S 3879   2.777   3.437   4.692
    3OL    C117 3880   2.689   3.443   4.495
    3OL    H17R 3881   2.613   3.394   4.434
    3OL    H17S 3882   2.785   3.440   4.443
    3OL    C118 3883   2.657   3.592   4.515
    3OL    H18R 3884   2.727   3.637   4.585
    3OL    H18S 3885   2.555   3.596   4.556
    3OL    H18T 3886   2.654   3.649   4.422
    1PA    C116 3887   1.321   1.244   4.310
    1PA    H16R 3888   1.229   1.269   4.363
    1PA    H16S 3889   1.304   1.293   4.214
    1PA    H16T 3890   1.413   1.288   4.348
    1PA    C115 3891   1.328   1.090   4.303
    1PA    H15R 3892   1.247   1.059   4.237
    1PA    H15S 3893   1.415   1.062   4.244
    1PA    C114 3894   1.321   1.032   4.445
    1PA    H14R 3895   1.227   1.066   4.488
    1PA    H14S 3896   1.315   0.924   4.430
    1PA    C113 3897   1.445   1.056   4.532
    1PA    H13R 3898   1.528   1.014   4.474
    1PA    H13S 3899   1.465   1.162   4.547
    1PA    C112 3900   1.443   0.978   4.664
    1PA    H12R 3901   1.422   0.873   4.642
    1PA    H12S 3902   1.540   0.988   4.714
    1PA    C111 3903   1.328   1.024   4.755
    1PA    H11R 3904   1.342   1.130   4.774
    1PA    H11S 3905   1.231   1.002   4.709
    1PA    C110 3906   1.331   0.946   4.887
    1PA    H10R 3907   1.306   0.842   4.865
    1PA    H10S 3908   1.432   0.947   4.930
    1PA     C19 3909   1.233   1.005   4.988
    1PA     H9R 3910   1.268   1.103   5.023
    1PA     H9S 3911   1.136   1.021   4.940
    1PA     C18 3912   1.220   0.913   5.110
    1PA     H8R 3913   1.182   0.820   5.069
    1PA     H8S 3914   1.316   0.897   5.160
    1PA     C17 3915   1.129   0.972   5.219
    1PA     H7R 3916   1.165   1.071   5.248
    1PA     H7S 3917   1.032   0.993   5.172
    1PA     C16 3918   1.088   0.864   5.320
    1PA     H6R 3919   1.045   0.774   5.275
    1PA     H6S 3920   1.171   0.825   5.379
    1PA     C15 3921   0.984   0.923   5.416
    1PA     H5R 3922   1.038   1.001   5.471
    1PA     H5S 3923   0.898   0.977   5.375
    1PA     C14 3924   0.940   0.826   5.527
    1PA     H4R 3925   1.028   0.782   5.575
    1PA     H4S 3926   0.885   0.873   5.608
    1PA     C13 3927   0.850   0.719   5.463
    1PA     H3R 3928   0.759   0.754   5.414
    1PA     H3S 3929   0.898   0.656   5.389
    1PA     C12 3930   0.807   0.625   5.577
    1PA     H2R 3931   0.755   0.542   5.529
    1PA     H2S 3932   0.890   0.585   5.636
    2PC     C11 3933   0.706   0.685   5.672
    2PC     O12 3934   0.737   0.739   5.775
    2PC     O11 3935   0.580   0.670   5.629
    2PC      C1 3936   0.475   0.727   5.710
    2PC      HR 3937   0.380   0.682   5.682
    2PC      HS 3938   0.503   0.691   5.809
    2PC      C2 3939   0.483   0.880   5.714
    2PC      HX 3940   0.578   0.908   5.760
    2PC      C3 3941   0.363   0.940   5.787
    2PC      HA 3942   0.273   0.966   5.731
    2PC      HB 3943   0.340   0.874   5.872
    2PC     O31 3944   0.406   1.066   5.843
    2PC     P31 3945   0.308   1.142   5.944
    2PC     O32 3946   0.279   1.268   5.850
    2PC     C31 3947   0.141   1.300   5.825
    2PC     H1A 3948   0.115   1.233   5.742
    2PC     H1B 3949   0.068   1.279   5.904
    2PC     C32 3950   0.126   1.450   5.797
    2PC     H2A 3951   0.189   1.456   5.708
    2PC     H2B 3952   0.022   1.476   5.777
    2PC     N31 3953   0.180   1.542   5.903
    2PC     C33 3954   0.109   1.670   5.872
    2PC     H3A 3955   0.124   1.672   5.764
    2PC     H3B 3956   0.004   1.656   5.897
    2PC     H3C 3957   0.147   1.760   5.921
    2PC     C34 3958   0.147   1.502   6.044
    2PC     H4A 3959   0.186   1.401   6.055
    2PC     H4B 3960   0.189   1.570   6.118
    2PC     H4C 3961   0.039   1.499   6.050
    2PC     C35 3962   0.329   1.559   5.898
    2PC     H5A 3963   0.378   1.461   5.901
    2PC     H5B 3964   0.362   1.634   5.969
    2PC     H5C 3965   0.358   1.595   5.799
    2PC     O33 3966   0.199   1.052   5.988
    2PC     O34 3967   0.374   1.192   6.067
    2PC     O21 3968   0.498   0.940   5.584
    2PC     C21 3969   0.411   0.913   5.486
    2PC     O22 3970   0.318   0.834   5.492
    3OL     C12 3971   0.423   1.004   5.366
    3OL     H2R 3972   0.437   1.105   5.405
    3OL     H2S 3973   0.332   0.994   5.306
    3OL     C13 3974   0.545   0.980   5.277
    3OL     H3R 3975   0.544   0.879   5.234
    3OL     H3S 3976   0.638   0.992   5.333
    3OL     C14 3977   0.547   1.093   5.174
    3OL     H4R 3978   0.581   1.183   5.226
    3OL     H4S 3979   0.451   1.100   5.123
    3OL     C15 3980   0.654   1.058   5.069
    3OL     H5R 3981   0.608   0.975   5.015
    3OL     H5S 3982   0.745   1.031   5.123
    3OL     C16 3983   0.682   1.175   4.974
    3OL     H6R 3984   0.706   1.262   5.034
    3OL     H6S 3985   0.595   1.199   4.912
    3OL     C17 3986   0.798   1.139   4.880
    3OL     H7R 3987   0.771   1.049   4.824
    3OL     H7S 3988   0.885   1.117   4.942
    3OL     C18 3989   0.843   1.247   4.781
    3OL     H8R 3990   0.875   1.337   4.834
    3OL     H8S 3991   0.757   1.268   4.718
    3OL     C19 3992   0.957   1.194   4.698
    3OL     H9R 3993   1.009   1.107   4.738
    3OL    C110 3994   0.977   1.225   4.571
    3OL    H10R 3995   1.055   1.169   4.520
    3OL    C111 3996   0.932   1.352   4.504
    3OL    H11R 3997   1.022   1.389   4.454
    3OL    H11S 3998   0.887   1.423   4.574
    3OL    C112 3999   0.832   1.317   4.393
    3OL    H12R 4000   0.790   1.412   4.359
    3OL    H12S 4001   0.754   1.252   4.432
    3OL    C113 4002   0.887   1.246   4.269
    3OL    H13R 4003   0.925   1.151   4.306
    3OL    H13S 4004   0.962   1.310   4.222
    3OL    C114 4005   0.786   1.210   4.159
    3OL    H14R 4006   0.840   1.145   4.089
    3OL    H14S 4007   0.751   1.297   4.103
    3OL    C115 4008   0.663   1.128   4.199
    3OL    H15R 4009   0.609   1.178   4.280
    3OL    H15S 4010   0.696   1.029   4.231
    3OL    C116 4011   0.568   1.111   4.079
    3OL    H16R 4012   0.622   1.063   3.998
    3OL    H16S 4013   0.543   1.210   4.040
    3OL    C117 4014   0.448   1.019   4.103
    3OL    H17R 4015   0.380   1.027   4.018
    3OL    H17S 4016   0.398   1.056   4.192
    3OL    C118 4017   0.474   0.870   4.133
    3OL    H18R 4018   0.383   0.821   4.167
    3OL    H18S 4019   0.543   0.862   4.217
    3OL    H18T 4020   0.511   0.816   4.045
    1PA    C116 4021   2.515   5.203   4.258
    1PA    H16R 4022   2.497   5.217   4.152
    1PA    H16S 4023   2.609   5.153   4.284
    1PA    H16T 4024   2.526   5.302   4.302
    1PA    C115 4025   2.405   5.121   4.326
    1PA    H15R 4026   2.304   5.164   4.325
    1PA    H15S 4027   2.406   5.022   4.280
    1PA    C114 4028   2.437   5.100   4.475
    1PA    H14R 4029   2.381   5.017   4.518
    1PA    H14S 4030   2.541   5.066   4.484
    1PA    C113 4031   2.428   5.226   4.562
    1PA    H13R 4032   2.518   5.285   4.546
    1PA    H13S 4033   2.340   5.287   4.540
    1PA    C112 4034   2.418   5.181   4.709
    1PA    H12R 4035   2.422   5.274   4.765
    1PA    H12S 4036   2.335   5.121   4.746
    1PA    C111 4037   2.544   5.104   4.753
    1PA    H11R 4038   2.554   5.020   4.683
    1PA    H11S 4039   2.631   5.170   4.745
    1PA    C110 4040   2.518   5.045   4.892
    1PA    H10R 4041   2.531   5.119   4.972
    1PA    H10S 4042   2.422   4.994   4.895
    1PA     C19 4043   2.632   4.954   4.940
    1PA     H9R 4044   2.650   4.873   4.869
    1PA     H9S 4045   2.726   5.010   4.938
    1PA     C18 4046   2.595   4.894   5.077
    1PA     H8R 4047   2.584   4.972   5.152
    1PA     H8S 4048   2.507   4.831   5.066
    1PA     C17 4049   2.718   4.819   5.129
    1PA     H7R 4050   2.746   4.734   5.066
    1PA     H7S 4051   2.803   4.887   5.133
    1PA     C16 4052   2.685   4.771   5.271
    1PA     H6R 4053   2.664   4.850   5.343
    1PA     H6S 4054   2.608   4.693   5.270
    1PA     C15 4055   2.807   4.690   5.316
    1PA     H5R 4056   2.830   4.612   5.243
    1PA     H5S 4057   2.899   4.749   5.320
    1PA     C14 4058   2.788   4.632   5.457
    1PA     H4R 4059   2.775   4.716   5.526
    1PA     H4S 4060   2.695   4.574   5.451
    1PA     C13 4061   2.914   4.549   5.487
    1PA     H3R 4062   2.938   4.485   5.402
    1PA     H3S 4063   2.998   4.618   5.497
    1PA     C12 4064   2.903   4.452   5.606
    1PA     H2R 4065   2.815   4.387   5.602
    1PA     H2S 4066   2.983   4.378   5.598
    2PC     C11 4067   2.911   4.503   5.747
    2PC     O12 4068   2.920   4.622   5.771
    2PC     O11 4069   2.942   4.414   5.843
    2PC      C1 4070   2.944   4.446   5.983
    2PC      HR 4071   2.964   4.552   5.997
    2PC      HS 4072   2.845   4.430   6.027
    2PC      C2 4073   3.045   4.358   6.059
    2PC      HX 4074   3.011   4.255   6.045
    2PC      C3 4075   3.033   4.388   6.209
    2PC      HA 4076   2.933   4.357   6.239
    2PC      HB 4077   3.109   4.328   6.261
    2PC     O31 4078   3.049   4.530   6.223
    2PC     P31 4079   3.057   4.588   6.372
    2PC     O32 4080   3.215   4.610   6.381
    2PC     C31 4081   3.277   4.695   6.283
    2PC     H1A 4082   3.272   4.654   6.182
    2PC     H1B 4083   3.246   4.800   6.283
    2PC     C32 4084   3.426   4.709   6.318
    2PC     H2A 4085   3.475   4.612   6.305
    2PC     H2B 4086   3.474   4.792   6.265
    2PC     N31 4087   3.468   4.732   6.460
    2PC     C33 4088   3.373   4.820   6.534
    2PC     H3A 4089   3.385   4.921   6.495
    2PC     H3B 4090   3.278   4.774   6.509
    2PC     H3C 4091   3.395   4.812   6.641
    2PC     C34 4092   3.466   4.602   6.536
    2PC     H4A 4093   3.536   4.536   6.485
    2PC     H4B 4094   3.492   4.622   6.640
    2PC     H4C 4095   3.364   4.566   6.525
    2PC     C35 4096   3.607   4.787   6.445
    2PC     H5A 4097   3.663   4.728   6.373
    2PC     H5B 4098   3.653   4.773   6.543
    2PC     H5C 4099   3.605   4.893   6.421
    2PC     O33 4100   2.979   4.709   6.407
    2PC     O34 4101   3.022   4.495   6.483
    2PC     O21 4102   3.173   4.392   6.003
    2PC     C21 4103   3.267   4.297   6.015
    2PC     O22 4104   3.254   4.184   6.058
    3OL     C12 4105   3.399   4.353   5.969
    3OL     H2R 4106   3.454   4.382   6.059
    3OL     H2S 4107   3.390   4.445   5.910
    3OL     C13 4108   3.457   4.244   5.878
    3OL     H3R 4109   3.390   4.235   5.792
    3OL     H3S 4110   3.446   4.147   5.926
    3OL     C14 4111   3.605   4.269   5.849
    3OL     H4R 4112   3.657   4.300   5.940
    3OL     H4S 4113   3.609   4.362   5.792
    3OL     C15 4114   3.674   4.147   5.785
    3OL     H5R 4115   3.631   4.060   5.837
    3OL     H5S 4116   3.780   4.139   5.807
    3OL     C16 4117   3.642   4.152   5.635
    3OL     H6R 4118   3.670   4.249   5.594
    3OL     H6S 4119   3.533   4.147   5.629
    3OL     C17 4120   3.705   4.037   5.555
    3OL     H7R 4121   3.664   4.036   5.454
    3OL     H7S 4122   3.690   3.940   5.603
    3OL     C18 4123   3.856   4.047   5.530
    3OL     H8R 4124   3.902   4.069   5.626
    3OL     H8S 4125   3.884   4.135   5.471
    3OL     C19 4126   3.910   3.918   5.473
    3OL     H9R 4127   3.927   3.837   5.544
    3OL    C110 4128   3.925   3.898   5.343
    3OL    H10R 4129   3.964   3.800   5.319
    3OL    C111 4130   3.904   3.995   5.230
    3OL    H11R 4131   4.003   4.034   5.204
    3OL    H11S 4132   3.839   4.076   5.262
    3OL    C112 4133   3.849   3.924   5.105
    3OL    H12R 4134   3.874   3.994   5.025
    3OL    H12S 4135   3.741   3.910   5.112
    3OL    C113 4136   3.925   3.795   5.073
    3OL    H13R 4137   3.902   3.719   5.148
    3OL    H13S 4138   4.034   3.798   5.071
    3OL    C114 4139   3.884   3.744   4.934
    3OL    H14R 4140   3.921   3.810   4.856
    3OL    H14S 4141   3.775   3.744   4.928
    3OL    C115 4142   3.942   3.607   4.897
    3OL    H15R 4143   3.902   3.527   4.959
    3OL    H15S 4144   4.051   3.608   4.905
    3OL    C116 4145   3.890   3.570   4.757
    3OL    H16R 4146   3.955   3.495   4.711
    3OL    H16S 4147   3.870   3.660   4.699
    3OL    C117 4148   3.751   3.505   4.757
    3OL    H17R 4149   3.680   3.574   4.803
    3OL    H17S 4150   3.749   3.413   4.817
    3OL    C118 4151   3.699   3.473   4.616
    3OL    H18R 4152   3.773   3.433   4.547
    3OL    H18S 4153   3.650   3.562   4.575
    3OL    H18T 4154   3.615   3.405   4.630
    1PA    C116 4155   5.081   2.008   3.932
    1PA    H16R 4156   5.032   2.080   3.865
    1PA    H16S 4157   5.062   1.904   3.905
    1PA    H16T 4158   5.189   2.026   3.931
    1PA    C115 4159   5.044   2.045   4.076
    1PA    H15R 4160   5.071   2.148   4.099
    1PA    H15S 4161   4.935   2.037   4.076
    1PA    C114 4162   5.103   1.951   4.182
    1PA    H14R 4163   5.071   1.853   4.145
    1PA    H14S 4164   5.211   1.958   4.174
    1PA    C113 4165   5.051   1.962   4.326
    1PA    H13R 4166   5.067   2.068   4.350
    1PA    H13S 4167   4.942   1.955   4.328
    1PA    C112 4168   5.115   1.878   4.437
    1PA    H12R 4169   5.213   1.926   4.440
    1PA    H12S 4170   5.074   1.908   4.534
    1PA    C111 4171   5.117   1.727   4.411
    1PA    H11R 4172   5.025   1.689   4.367
    1PA    H11S 4173   5.188   1.714   4.329
    1PA    C110 4174   5.167   1.658   4.538
    1PA    H10R 4175   5.255   1.714   4.571
    1PA    H10S 4176   5.090   1.658   4.616
    1PA     C19 4177   5.197   1.511   4.506
    1PA     H9R 4178   5.104   1.462   4.478
    1PA     H9S 4179   5.268   1.509   4.423
    1PA     C18 4180   5.258   1.449   4.632
    1PA     H8R 4181   5.351   1.505   4.649
    1PA     H8S 4182   5.181   1.467   4.708
    1PA     C17 4183   5.279   1.297   4.621
    1PA     H7R 4184   5.179   1.253   4.612
    1PA     H7S 4185   5.331   1.276   4.527
    1PA     C16 4186   5.350   1.228   4.738
    1PA     H6R 4187   5.342   1.122   4.715
    1PA     H6S 4188   5.456   1.252   4.734
    1PA     C15 4189   5.285   1.261   4.873
    1PA     H5R 4190   5.265   1.368   4.880
    1PA     H5S 4191   5.185   1.216   4.874
    1PA     C14 4192   5.374   1.209   4.986
    1PA     H4R 4193   5.390   1.102   4.972
    1PA     H4S 4194   5.471   1.260   4.984
    1PA     C13 4195   5.295   1.238   5.114
    1PA     H3R 4196   5.279   1.344   5.136
    1PA     H3S 4197   5.201   1.183   5.106
    1PA     C12 4198   5.382   1.178   5.225
    1PA     H2R 4199   5.382   1.069   5.223
    1PA     H2S 4200   5.485   1.216   5.218
    2PC     C11 4201   5.326   1.206   5.362
    2PC     O12 4202   5.397   1.230   5.458
    2PC     O11 4203   5.192   1.212   5.368
    2PC      C1 4204   5.126   1.201   5.495
    2PC      HR 4205   5.177   1.119   5.547
    2PC      HS 4206   5.146   1.287   5.559
    2PC      C2 4207   4.979   1.163   5.471
    2PC      HX 4208   4.937   1.215   5.385
    2PC      C3 4209   4.900   1.211   5.594
    2PC      HA 4210   4.894   1.320   5.604
    2PC      HB 4211   4.799   1.172   5.606
    2PC     O31 4212   4.964   1.164   5.714
    2PC     P31 4213   4.886   1.180   5.853
    2PC     O32 4214   4.834   1.028   5.863
    2PC     C31 4215   4.699   1.004   5.907
    2PC     H1A 4216   4.682   1.013   6.015
    2PC     H1B 4217   4.632   1.064   5.845
    2PC     C32 4218   4.668   0.861   5.863
    2PC     H2A 4219   4.564   0.856   5.830
    2PC     H2B 4220   4.730   0.847   5.775
    2PC     N31 4221   4.688   0.751   5.963
    2PC     C33 4222   4.657   0.624   5.890
    2PC     H3A 4223   4.652   0.533   5.949
    2PC     H3B 4224   4.561   0.641   5.842
    2PC     H3C 4225   4.730   0.598   5.813
    2PC     C34 4226   4.834   0.748   5.996
    2PC     H4A 4227   4.853   0.663   6.062
    2PC     H4B 4228   4.886   0.746   5.900
    2PC     H4C 4229   4.863   0.838   6.050
    2PC     C35 4230   4.590   0.777   6.074
    2PC     H5A 4231   4.597   0.699   6.150
    2PC     H5B 4232   4.487   0.773   6.039
    2PC     H5C 4233   4.614   0.871   6.124
    2PC     O33 4234   4.980   1.224   5.958
    2PC     O34 4235   4.777   1.279   5.848
    2PC     O21 4236   4.974   1.020   5.457
    2PC     C21 4237   4.854   0.960   5.449
    2PC     O22 4238   4.743   1.011   5.444
    3OL     C12 4239   4.872   0.813   5.423
    3OL     H2R 4240   4.913   0.768   5.514
    3OL     H2S 4241   4.961   0.795   5.363
    3OL     C13 4242   4.758   0.731   5.362
    3OL     H3R 4243   4.704   0.779   5.280
    3OL     H3S 4244   4.685   0.719   5.442
    3OL     C14 4245   4.797   0.589   5.317
    3OL     H4R 4246   4.718   0.514   5.306
    3OL     H4S 4247   4.862   0.553   5.397
    3OL     C15 4248   4.873   0.601   5.184
    3OL     H5R 4249   4.960   0.665   5.198
    3OL     H5S 4250   4.802   0.640   5.111
    3OL     C16 4251   4.913   0.461   5.138
    3OL     H6R 4252   4.825   0.402   5.112
    3OL     H6S 4253   4.961   0.416   5.226
    3OL     C17 4254   5.015   0.466   5.023
    3OL     H7R 4255   5.097   0.528   5.060
    3OL     H7S 4256   4.970   0.517   4.938
    3OL     C18 4257   5.066   0.331   4.971
    3OL     H8R 4258   4.974   0.285   4.934
    3OL     H8S 4259   5.102   0.268   5.052
    3OL     C19 4260   5.156   0.340   4.850
    3OL     H9R 4261   5.154   0.434   4.796
    3OL    C110 4262   5.239   0.241   4.822
    3OL    H10R 4263   5.295   0.247   4.730
    3OL    C111 4264   5.272   0.123   4.910
    3OL    H11R 4265   5.217   0.100   5.002
    3OL    H11S 4266   5.373   0.135   4.948
    3OL    C112 4267   5.270  -0.008   4.830
    3OL    H12R 4268   5.322  -0.091   4.878
    3OL    H12S 4269   5.324   0.028   4.742
    3OL    C113 4270   5.127  -0.056   4.801
    3OL    H13R 4271   5.056   0.014   4.757
    3OL    H13S 4272   5.080  -0.096   4.891
    3OL    C114 4273   5.133  -0.169   4.697
    3OL    H14R 4274   5.208  -0.247   4.710
    3OL    H14S 4275   5.156  -0.123   4.601
    3OL    C115 4276   4.995  -0.235   4.678
    3OL    H15R 4277   4.997  -0.296   4.587
    3OL    H15S 4278   4.915  -0.161   4.674
    3OL    C116 4279   4.972  -0.328   4.798
    3OL    H16R 4280   4.973  -0.278   4.895
    3OL    H16S 4281   5.052  -0.403   4.793
    3OL    C117 4282   4.835  -0.394   4.776
    3OL    H17R 4283   4.760  -0.318   4.755
    3OL    H17S 4284   4.810  -0.449   4.866
    3OL    C118 4285   4.839  -0.495   4.660
    3OL    H18R 4286   4.901  -0.581   4.687
    3OL    H18S 4287   4.869  -0.454   4.563
    3OL    H18T 4288   4.736  -0.532   4.657
    1PA    C116 4289   2.572   0.744   4.259
    1PA    H16R 4290   2.594   0.731   4.365
    1PA    H16S 4291   2.650   0.806   4.213
    1PA    H16T 4292   2.586   0.647   4.211
    1PA    C115 4293   2.428   0.795   4.249
    1PA    H15R 4294   2.398   0.878   4.313
    1PA    H15S 4295   2.418   0.825   4.144
    1PA    C114 4296   2.334   0.675   4.271
    1PA    H14R 4297   2.251   0.700   4.206
    1PA    H14S 4298   2.378   0.582   4.236
    1PA    C113 4299   2.290   0.664   4.418
    1PA    H13R 4300   2.375   0.679   4.485
    1PA    H13S 4301   2.235   0.751   4.454
    1PA    C112 4302   2.198   0.545   4.449
    1PA    H12R 4303   2.125   0.547   4.368
    1PA    H12S 4304   2.263   0.457   4.448
    1PA    C111 4305   2.118   0.561   4.579
    1PA    H11R 4306   2.192   0.563   4.659
    1PA    H11S 4307   2.057   0.652   4.586
    1PA    C110 4308   2.024   0.445   4.610
    1PA    H10R 4309   1.950   0.457   4.531
    1PA    H10S 4310   2.072   0.347   4.599
    1PA     C19 4311   1.971   0.454   4.754
    1PA     H9R 4312   2.054   0.421   4.818
    1PA     H9S 4313   1.940   0.553   4.786
    1PA     C18 4314   1.850   0.361   4.769
    1PA     H8R 4315   1.773   0.399   4.702
    1PA     H8S 4316   1.882   0.262   4.735
    1PA     C17 4317   1.792   0.355   4.911
    1PA     H7R 4318   1.781   0.459   4.941
    1PA     H7S 4319   1.690   0.317   4.914
    1PA     C16 4320   1.885   0.288   5.013
    1PA     H6R 4321   1.888   0.183   4.982
    1PA     H6S 4322   1.989   0.316   4.996
    1PA     C15 4323   1.821   0.313   5.151
    1PA     H5R 4324   1.905   0.293   5.218
    1PA     H5S 4325   1.795   0.419   5.156
    1PA     C14 4326   1.693   0.230   5.166
    1PA     H4R 4327   1.604   0.273   5.118
    1PA     H4S 4328   1.712   0.132   5.123
    1PA     C13 4329   1.664   0.214   5.316
    1PA     H3R 4330   1.744   0.155   5.359
    1PA     H3S 4331   1.667   0.304   5.378
    1PA     C12 4332   1.528   0.149   5.349
    1PA     H2R 4333   1.460   0.228   5.318
    1PA     H2S 4334   1.505   0.066   5.282
    2PC     C11 4335   1.515   0.116   5.496
    2PC     O12 4336   1.562   0.017   5.547
    2PC     O11 4337   1.436   0.204   5.560
    2PC      C1 4338   1.447   0.210   5.703
    2PC      HR 4339   1.376   0.290   5.727
    2PC      HS 4340   1.417   0.114   5.746
    2PC      C2 4341   1.589   0.245   5.749
    2PC      HX 4342   1.650   0.157   5.727
    2PC      C3 4343   1.589   0.271   5.900
    2PC      HA 4344   1.693   0.261   5.933
    2PC      HB 4345   1.554   0.374   5.914
    2PC     O31 4346   1.510   0.177   5.974
    2PC     P31 4347   1.492   0.214   6.129
    2PC     O32 4348   1.339   0.176   6.155
    2PC     C31 4349   1.244   0.284   6.156
    2PC     H1A 4350   1.271   0.370   6.218
    2PC     H1B 4351   1.237   0.315   6.051
    2PC     C32 4352   1.102   0.242   6.198
    2PC     H2A 4353   1.052   0.338   6.209
    2PC     H2B 4354   1.051   0.194   6.114
    2PC     N31 4355   1.079   0.161   6.322
    2PC     C33 4356   1.136   0.023   6.308
    2PC     H3A 4357   1.104  -0.016   6.211
    2PC     H3B 4358   1.244   0.027   6.324
    2PC     H3C 4359   1.093  -0.035   6.391
    2PC     C34 4360   1.144   0.228   6.439
    2PC     H4A 4361   1.251   0.234   6.421
    2PC     H4B 4362   1.098   0.327   6.447
    2PC     H4C 4363   1.114   0.176   6.530
    2PC     C35 4364   0.930   0.165   6.338
    2PC     H5A 4365   0.901   0.108   6.427
    2PC     H5B 4366   0.882   0.119   6.252
    2PC     H5C 4367   0.902   0.269   6.352
    2PC     O33 4368   1.566   0.125   6.222
    2PC     O34 4369   1.524   0.354   6.163
    2PC     O21 4370   1.635   0.351   5.663
    2PC     C21 4371   1.761   0.394   5.670
    2PC     O22 4372   1.849   0.331   5.726
    3OL     C12 4373   1.795   0.514   5.585
    3OL     H2R 4374   1.795   0.601   5.651
    3OL     H2S 4375   1.725   0.521   5.501
    3OL     C13 4376   1.936   0.504   5.525
    3OL     H3R 4377   1.947   0.416   5.461
    3OL     H3S 4378   2.009   0.481   5.603
    3OL     C14 4379   1.990   0.626   5.449
    3OL     H4R 4380   2.091   0.642   5.487
    3OL     H4S 4381   1.930   0.710   5.484
    3OL     C15 4382   1.984   0.622   5.295
    3OL     H5R 4383   1.879   0.629   5.268
    3OL     H5S 4384   2.010   0.519   5.266
    3OL     C16 4385   2.074   0.716   5.214
    3OL     H6R 4386   2.167   0.745   5.262
    3OL     H6S 4387   2.024   0.813   5.212
    3OL     C17 4388   2.092   0.667   5.069
    3OL     H7R 4389   1.991   0.639   5.036
    3OL     H7S 4390   2.153   0.577   5.075
    3OL     C18 4391   2.167   0.761   4.975
    3OL     H8R 4392   2.129   0.862   4.993
    3OL     H8S 4393   2.156   0.725   4.872
    3OL     C19 4394   2.310   0.767   5.020
    3OL     H9R 4395   2.326   0.755   5.127
    3OL    C110 4396   2.408   0.781   4.932
    3OL    H10R 4397   2.507   0.779   4.979
    3OL    C111 4398   2.397   0.800   4.783
    3OL    H11R 4399   2.294   0.815   4.747
    3OL    H11S 4400   2.439   0.715   4.729
    3OL    C112 4401   2.497   0.910   4.746
    3OL    H12R 4402   2.596   0.865   4.752
    3OL    H12S 4403   2.495   0.996   4.813
    3OL    C113 4404   2.464   0.965   4.606
    3OL    H13R 4405   2.361   0.999   4.602
    3OL    H13S 4406   2.469   0.881   4.537
    3OL    C114 4407   2.562   1.081   4.580
    3OL    H14R 4408   2.662   1.043   4.563
    3OL    H14S 4409   2.569   1.150   4.664
    3OL    C115 4410   2.509   1.167   4.464
    3OL    H15R 4411   2.410   1.206   4.490
    3OL    H15S 4412   2.496   1.102   4.378
    3OL    C116 4413   2.609   1.279   4.432
    3OL    H16R 4414   2.706   1.237   4.405
    3OL    H16S 4415   2.624   1.331   4.527
    3OL    C117 4416   2.564   1.361   4.310
    3OL    H17R 4417   2.543   1.289   4.231
    3OL    H17S 4418   2.645   1.430   4.282
    3OL    C118 4419   2.446   1.454   4.342
    3OL    H18R 4420   2.357   1.408   4.383
    3OL    H18S 4421   2.420   1.516   4.256
    3OL    H18T 4422   2.474   1.523   4.422
    1PA    C116 4423   3.937   5.402   4.476
    1PA    H16R 4424   3.933   5.307   4.421
    1PA    H16S 4425   3.959   5.383   4.581
    1PA    H16T 4426   4.018   5.461   4.432
    1PA    C115 4427   3.806   5.475   4.443
    1PA    H15R 4428   3.804   5.513   4.341
    1PA    H15S 4429   3.723   5.404   4.447
    1PA    C114 4430   3.770   5.590   4.538
    1PA    H14R 4431   3.780   5.562   4.644
    1PA    H14S 4432   3.837   5.675   4.526
    1PA    C113 4433   3.625   5.633   4.513
    1PA    H13R 4434   3.632   5.668   4.410
    1PA    H13S 4435   3.563   5.543   4.510
    1PA    C112 4436   3.573   5.730   4.620
    1PA    H12R 4437   3.653   5.802   4.639
    1PA    H12S 4438   3.489   5.781   4.573
    1PA    C111 4439   3.525   5.662   4.748
    1PA    H11R 4440   3.452   5.583   4.731
    1PA    H11S 4441   3.608   5.602   4.786
    1PA    C110 4442   3.479   5.748   4.867
    1PA    H10R 4443   3.560   5.818   4.885
    1PA    H10S 4444   3.394   5.809   4.838
    1PA     C19 4445   3.456   5.664   4.994
    1PA     H9R 4446   3.390   5.582   4.965
    1PA     H9S 4447   3.544   5.607   5.025
    1PA     C18 4448   3.397   5.741   5.113
    1PA     H8R 4449   3.297   5.783   5.097
    1PA     H8S 4450   3.376   5.665   5.188
    1PA     C17 4451   3.495   5.850   5.158
    1PA     H7R 4452   3.590   5.796   5.161
    1PA     H7S 4453   3.512   5.925   5.080
    1PA     C16 4454   3.457   5.916   5.291
    1PA     H6R 4455   3.358   5.962   5.287
    1PA     H6S 4456   3.444   5.829   5.356
    1PA     C15 4457   3.558   6.018   5.345
    1PA     H5R 4458   3.650   5.971   5.380
    1PA     H5S 4459   3.576   6.097   5.271
    1PA     C14 4460   3.480   6.090   5.456
    1PA     H4R 4461   3.396   6.145   5.414
    1PA     H4S 4462   3.439   6.009   5.516
    1PA     C13 4463   3.579   6.165   5.547
    1PA     H3R 4464   3.639   6.093   5.603
    1PA     H3S 4465   3.657   6.223   5.497
    1PA     C12 4466   3.482   6.246   5.634
    1PA     H2R 4467   3.409   6.301   5.574
    1PA     H2S 4468   3.422   6.181   5.696
    2PC     C11 4469   3.556   6.342   5.725
    2PC     O12 4470   3.608   6.300   5.826
    2PC     O11 4471   3.559   6.468   5.678
    2PC      C1 4472   3.647   6.559   5.747
    2PC      HR 4473   3.630   6.665   5.726
    2PC      HS 4474   3.637   6.536   5.853
    2PC      C2 4475   3.789   6.525   5.699
    2PC      HX 4476   3.803   6.416   5.700
    2PC      C3 4477   3.890   6.587   5.796
    2PC      HA 4478   3.877   6.696   5.801
    2PC      HB 4479   3.870   6.540   5.893
    2PC     O31 4480   4.028   6.558   5.770
    2PC     P31 4481   4.139   6.630   5.861
    2PC     O32 4482   4.172   6.519   5.971
    2PC     C31 4483   4.122   6.527   6.106
    2PC     H1A 4484   4.185   6.598   6.159
    2PC     H1B 4485   4.017   6.556   6.115
    2PC     C32 4486   4.124   6.382   6.158
    2PC     H2A 4487   4.036   6.337   6.113
    2PC     H2B 4488   4.217   6.329   6.135
    2PC     N31 4489   4.090   6.360   6.302
    2PC     C33 4490   3.946   6.393   6.328
    2PC     H3A 4491   3.943   6.498   6.301
    2PC     H3B 4492   3.878   6.323   6.278
    2PC     H3C 4493   3.927   6.380   6.435
    2PC     C34 4494   4.124   6.217   6.334
    2PC     H4A 4495   4.099   6.213   6.440
    2PC     H4B 4496   4.063   6.146   6.277
    2PC     H4C 4497   4.228   6.198   6.309
    2PC     C35 4498   4.175   6.438   6.396
    2PC     H5A 4499   4.280   6.417   6.373
    2PC     H5B 4500   4.153   6.411   6.500
    2PC     H5C 4501   4.156   6.544   6.378
    2PC     O33 4502   4.266   6.667   5.794
    2PC     O34 4503   4.104   6.754   5.935
    2PC     O21 4504   3.803   6.579   5.567
    2PC     C21 4505   3.887   6.511   5.486
    2PC     O22 4506   3.912   6.393   5.496
    3OL     C12 4507   3.918   6.598   5.367
    3OL     H2R 4508   3.864   6.567   5.277
    3OL     H2S 4509   4.025   6.585   5.352
    3OL     C13 4510   3.876   6.745   5.387
    3OL     H3R 4511   3.909   6.780   5.485
    3OL     H3S 4512   3.769   6.757   5.372
    3OL     C14 4513   3.948   6.829   5.280
    3OL     H4R 4514   4.051   6.795   5.267
    3OL     H4S 4515   3.959   6.929   5.321
    3OL     C15 4516   3.868   6.827   5.149
    3OL     H5R 4517   3.836   6.726   5.121
    3OL     H5S 4518   3.943   6.850   5.073
    3OL     C16 4519   3.767   6.939   5.124
    3OL     H6R 4520   3.808   7.040   5.125
    3OL     H6S 4521   3.691   6.927   5.202
    3OL     C17 4522   3.707   6.917   4.984
    3OL     H7R 4523   3.629   6.992   4.968
    3OL     H7S 4524   3.653   6.822   4.986
    3OL     C18 4525   3.806   6.928   4.868
    3OL     H8R 4526   3.891   6.860   4.883
    3OL     H8S 4527   3.857   7.024   4.878
    3OL     C19 4528   3.739   6.901   4.736
    3OL     H9R 4529   3.634   6.874   4.731
    3OL    C110 4530   3.812   6.903   4.625
    3OL    H10R 4531   3.761   6.864   4.537
    3OL    C111 4532   3.950   6.961   4.611
    3OL    H11R 4533   3.969   7.019   4.702
    3OL    H11S 4534   3.932   7.036   4.534
    3OL    C112 4535   4.060   6.861   4.574
    3OL    H12R 4536   4.157   6.905   4.554
    3OL    H12S 4537   4.033   6.807   4.483
    3OL    C113 4538   4.088   6.763   4.689
    3OL    H13R 4539   4.010   6.687   4.702
    3OL    H13S 4540   4.099   6.818   4.783
    3OL    C114 4541   4.215   6.681   4.663
    3OL    H14R 4542   4.306   6.741   4.652
    3OL    H14S 4543   4.209   6.638   4.563
    3OL    C115 4544   4.235   6.566   4.762
    3OL    H15R 4545   4.330   6.515   4.742
    3OL    H15S 4546   4.160   6.490   4.736
    3OL    C116 4547   4.218   6.601   4.910
    3OL    H16R 4548   4.111   6.608   4.933
    3OL    H16S 4549   4.274   6.690   4.939
    3OL    C117 4550   4.249   6.483   5.003
    3OL    H17R 4551   4.351   6.444   4.999
    3OL    H17S 4552   4.179   6.401   4.984
    3OL    C118 4553   4.224   6.520   5.149
    3OL    H18R 4554   4.136   6.585   5.155
    3OL    H18S 4555   4.313   6.570   5.188
    3OL    H18T 4556   4.208   6.431   5.210
    1PA    C116 4557   4.837   6.143   4.167
    1PA    H16R 4558   4.794   6.134   4.268
    1PA    H16S 4559   4.778   6.082   4.099
    1PA    H16T 4560   4.830   6.248   4.138
    1PA    C115 4561   4.982   6.095   4.177
    1PA    H15R 4562   4.996   5.998   4.224
    1PA    H15S 4563   5.024   6.087   4.076
    1PA    C114 4564   5.067   6.200   4.251
    1PA    H14R 4565   5.063   6.287   4.184
    1PA    H14S 4566   5.014   6.239   4.337
    1PA    C113 4567   5.215   6.163   4.273
    1PA    H13R 4568   5.269   6.148   4.180
    1PA    H13S 4569   5.257   6.254   4.316
    1PA    C112 4570   5.223   6.040   4.364
    1PA    H12R 4571   5.161   6.067   4.449
    1PA    H12S 4572   5.189   5.947   4.317
    1PA    C111 4573   5.363   6.024   4.424
    1PA    H11R 4574   5.437   6.013   4.344
    1PA    H11S 4575   5.392   6.113   4.482
    1PA    C110 4576   5.378   5.901   4.514
    1PA    H10R 4577   5.353   5.811   4.458
    1PA    H10S 4578   5.480   5.893   4.551
    1PA     C19 4579   5.286   5.916   4.637
    1PA     H9R 4580   5.335   5.990   4.700
    1PA     H9S 4581   5.183   5.944   4.613
    1PA     C18 4582   5.282   5.784   4.715
    1PA     H8R 4583   5.262   5.690   4.663
    1PA     H8S 4584   5.378   5.767   4.765
    1PA     C17 4585   5.186   5.780   4.836
    1PA     H7R 4586   5.206   5.872   4.892
    1PA     H7S 4587   5.083   5.793   4.802
    1PA     C16 4588   5.220   5.666   4.932
    1PA     H6R 4589   5.192   5.572   4.883
    1PA     H6S 4590   5.327   5.666   4.956
    1PA     C15 4591   5.127   5.671   5.053
    1PA     H5R 4592   5.024   5.698   5.027
    1PA     H5S 4593   5.127   5.569   5.092
    1PA     C14 4594   5.168   5.771   5.161
    1PA     H4R 4595   5.274   5.775   5.188
    1PA     H4S 4596   5.135   5.872   5.135
    1PA     C13 4597   5.092   5.752   5.293
    1PA     H3R 4598   5.120   5.654   5.333
    1PA     H3S 4599   5.130   5.819   5.371
    1PA     C12 4600   4.939   5.761   5.288
    1PA     H2R 4601   4.906   5.834   5.213
    1PA     H2S 4602   4.910   5.659   5.263
    2PC     C11 4603   4.883   5.810   5.419
    2PC     O12 4604   4.895   5.920   5.469
    2PC     O11 4605   4.824   5.708   5.483
    2PC      C1 4606   4.768   5.726   5.615
    2PC      HR 4607   4.771   5.628   5.662
    2PC      HS 4608   4.828   5.791   5.678
    2PC      C2 4609   4.623   5.776   5.606
    2PC      HX 4610   4.633   5.873   5.555
    2PC      C3 4611   4.555   5.788   5.743
    2PC      HA 4612   4.594   5.881   5.786
    2PC      HB 4613   4.447   5.794   5.730
    2PC     O31 4614   4.584   5.671   5.822
    2PC     P31 4615   4.629   5.688   5.975
    2PC     O32 4616   4.542   5.564   6.028
    2PC     C31 4617   4.438   5.600   6.121
    2PC     H1A 4618   4.385   5.689   6.088
    2PC     H1B 4619   4.364   5.520   6.125
    2PC     C32 4620   4.491   5.633   6.262
    2PC     H2A 4621   4.541   5.729   6.273
    2PC     H2B 4622   4.407   5.643   6.331
    2PC     N31 4623   4.567   5.527   6.336
    2PC     C33 4624   4.590   5.555   6.481
    2PC     H3A 4625   4.629   5.657   6.491
    2PC     H3B 4626   4.494   5.535   6.528
    2PC     H3C 4627   4.672   5.488   6.507
    2PC     C34 4628   4.477   5.407   6.337
    2PC     H4A 4629   4.392   5.432   6.401
    2PC     H4B 4630   4.455   5.374   6.236
    2PC     H4C 4631   4.545   5.333   6.380
    2PC     C35 4632   4.698   5.491   6.271
    2PC     H5A 4633   4.763   5.577   6.287
    2PC     H5B 4634   4.694   5.474   6.164
    2PC     H5C 4635   4.741   5.401   6.315
    2PC     O33 4636   4.775   5.682   5.998
    2PC     O34 4637   4.595   5.820   6.032
    2PC     O21 4638   4.547   5.685   5.525
    2PC     C21 4639   4.444   5.743   5.460
    2PC     O22 4640   4.419   5.861   5.449
    3OL     C12 4641   4.366   5.638   5.385
    3OL     H2R 4642   4.268   5.627   5.432
    3OL     H2S 4643   4.414   5.541   5.401
    3OL     C13 4644   4.348   5.683   5.240
    3OL     H3R 4645   4.448   5.706   5.202
    3OL     H3S 4646   4.287   5.773   5.234
    3OL     C14 4647   4.297   5.562   5.160
    3OL     H4R 4648   4.203   5.538   5.210
    3OL     H4S 4649   4.353   5.468   5.164
    3OL     C15 4650   4.272   5.603   5.014
    3OL     H5R 4651   4.365   5.625   4.962
    3OL     H5S 4652   4.205   5.688   4.999
    3OL     C16 4653   4.203   5.499   4.926
    3OL     H6R 4654   4.269   5.416   4.898
    3OL     H6S 4655   4.176   5.534   4.826
    3OL     C17 4656   4.079   5.438   4.992
    3OL     H7R 4657   4.008   5.513   5.029
    3OL     H7S 4658   4.108   5.357   5.060
    3OL     C18 4659   3.987   5.369   4.891
    3OL     H8R 4660   3.999   5.261   4.905
    3OL     H8S 4661   4.025   5.400   4.793
    3OL     C19 4662   3.840   5.405   4.898
    3OL     H9R 4663   3.821   5.510   4.881
    3OL    C110 4664   3.740   5.320   4.918
    3OL    H10R 4665   3.640   5.363   4.922
    3OL    C111 4666   3.749   5.173   4.947
    3OL    H11R 4667   3.664   5.137   5.006
    3OL    H11S 4668   3.834   5.152   5.013
    3OL    C112 4669   3.761   5.094   4.816
    3OL    H12R 4670   3.790   4.993   4.843
    3OL    H12S 4671   3.845   5.126   4.754
    3OL    C113 4672   3.636   5.101   4.727
    3OL    H13R 4673   3.631   5.203   4.688
    3OL    H13S 4674   3.541   5.093   4.779
    3OL    C114 4675   3.641   4.997   4.614
    3OL    H14R 4676   3.546   5.012   4.562
    3OL    H14S 4677   3.661   4.893   4.642
    3OL    C115 4678   3.748   5.025   4.508
    3OL    H15R 4679   3.846   4.998   4.546
    3OL    H15S 4680   3.764   5.131   4.485
    3OL    C116 4681   3.716   4.953   4.376
    3OL    H16R 4682   3.658   4.866   4.405
    3OL    H16S 4683   3.805   4.906   4.333
    3OL    C117 4684   3.643   5.043   4.275
    3OL    H17R 4685   3.567   5.105   4.322
    3OL    H17S 4686   3.588   4.985   4.201
    3OL    C118 4687   3.729   5.131   4.183
    3OL    H18R 4688   3.818   5.079   4.148
    3OL    H18S 4689   3.770   5.215   4.240
    3OL    H18T 4690   3.674   5.181   4.103
    1PA    C116 4691   7.191   2.304   4.203
    1PA    H16R 4692   7.258   2.220   4.180
    1PA    H16S 4693   7.193   2.330   4.309
    1PA    H16T 4694   7.226   2.393   4.151
    1PA    C115 4695   7.047   2.280   4.156
    1PA    H15R 4696   6.975   2.342   4.210
    1PA    H15S 4697   7.029   2.302   4.051
    1PA    C114 4698   6.988   2.144   4.195
    1PA    H14R 4699   6.928   2.116   4.108
    1PA    H14S 4700   7.074   2.077   4.197
    1PA    C113 4701   6.906   2.127   4.323
    1PA    H13R 4702   6.828   2.203   4.334
    1PA    H13S 4703   6.857   2.030   4.311
    1PA    C112 4704   6.983   2.130   4.456
    1PA    H12R 4705   7.066   2.059   4.448
    1PA    H12S 4706   7.026   2.230   4.464
    1PA    C111 4707   6.899   2.092   4.579
    1PA    H11R 4708   6.810   2.153   4.594
    1PA    H11S 4709   6.868   1.989   4.558
    1PA    C110 4710   6.977   2.106   4.710
    1PA    H10R 4711   7.069   2.048   4.699
    1PA    H10S 4712   7.013   2.208   4.729
    1PA     C19 4713   6.895   2.054   4.829
    1PA     H9R 4714   6.807   2.116   4.849
    1PA     H9S 4715   6.874   1.948   4.814
    1PA     C18 4716   6.982   2.063   4.955
    1PA     H8R 4717   7.063   1.989   4.949
    1PA     H8S 4718   7.026   2.163   4.960
    1PA     C17 4719   6.894   2.048   5.079
    1PA     H7R 4720   6.827   1.964   5.065
    1PA     H7S 4721   6.958   2.035   5.167
    1PA     C16 4722   6.823   2.180   5.111
    1PA     H6R 4723   6.898   2.258   5.126
    1PA     H6S 4724   6.753   2.226   5.040
    1PA     C15 4725   6.734   2.158   5.234
    1PA     H5R 4726   6.654   2.086   5.218
    1PA     H5S 4727   6.798   2.105   5.305
    1PA     C14 4728   6.679   2.289   5.293
    1PA     H4R 4729   6.772   2.345   5.306
    1PA     H4S 4730   6.614   2.335   5.218
    1PA     C13 4731   6.615   2.257   5.428
    1PA     H3R 4732   6.545   2.173   5.421
    1PA     H3S 4733   6.691   2.227   5.501
    1PA     C12 4734   6.532   2.375   5.480
    1PA     H2R 4735   6.600   2.460   5.488
    1PA     H2S 4736   6.450   2.397   5.412
    2PC     C11 4737   6.481   2.341   5.618
    2PC     O12 4738   6.529   2.393   5.716
    2PC     O11 4739   6.374   2.259   5.615
    2PC      C1 4740   6.292   2.244   5.733
    2PC      HR 4741   6.221   2.165   5.708
    2PC      HS 4742   6.349   2.216   5.821
    2PC      C2 4743   6.220   2.374   5.772
    2PC      HX 4744   6.282   2.463   5.777
    2PC      C3 4745   6.146   2.361   5.907
    2PC      HA 4746   6.085   2.448   5.932
    2PC      HB 4747   6.079   2.277   5.891
    2PC     O31 4748   6.243   2.352   6.013
    2PC     P31 4749   6.195   2.394   6.160
    2PC     O32 4750   6.055   2.316   6.157
    2PC     C31 4751   5.944   2.377   6.225
    2PC     H1A 4752   5.969   2.412   6.326
    2PC     H1B 4753   5.918   2.462   6.162
    2PC     C32 4754   5.818   2.290   6.216
    2PC     H2A 4755   5.764   2.336   6.134
    2PC     H2B 4756   5.840   2.188   6.184
    2PC     N31 4757   5.720   2.280   6.330
    2PC     C33 4758   5.602   2.196   6.291
    2PC     H3A 4759   5.640   2.097   6.267
    2PC     H3B 4760   5.528   2.196   6.371
    2PC     H3C 4761   5.558   2.248   6.205
    2PC     C34 4762   5.788   2.210   6.444
    2PC     H4A 4763   5.720   2.208   6.530
    2PC     H4B 4764   5.808   2.110   6.406
    2PC     H4C 4765   5.873   2.273   6.468
    2PC     C35 4766   5.667   2.410   6.381
    2PC     H5A 4767   5.677   2.481   6.298
    2PC     H5B 4768   5.734   2.448   6.458
    2PC     H5C 4769   5.571   2.388   6.427
    2PC     O33 4770   6.281   2.337   6.265
    2PC     O34 4771   6.180   2.540   6.184
    2PC     O21 4772   6.113   2.392   5.678
    2PC     C21 4773   6.130   2.475   5.574
    2PC     O22 4774   6.227   2.543   5.549
    3OL     C12 4775   6.015   2.452   5.478
    3OL     H2R 4776   6.007   2.541   5.414
    3OL     H2S 4777   5.926   2.447   5.540
    3OL     C13 4778   6.046   2.327   5.395
    3OL     H3R 4779   5.957   2.294   5.340
    3OL     H3S 4780   6.075   2.245   5.461
    3OL     C14 4781   6.164   2.351   5.300
    3OL     H4R 4782   6.252   2.376   5.361
    3OL     H4S 4783   6.136   2.431   5.233
    3OL     C15 4784   6.213   2.220   5.235
    3OL     H5R 4785   6.141   2.146   5.199
    3OL     H5S 4786   6.272   2.168   5.311
    3OL     C16 4787   6.315   2.232   5.122
    3OL     H6R 4788   6.370   2.137   5.115
    3OL     H6S 4789   6.393   2.306   5.145
    3OL     C17 4790   6.244   2.253   4.987
    3OL     H7R 4791   6.144   2.296   4.992
    3OL     H7S 4792   6.233   2.157   4.936
    3OL     C18 4793   6.329   2.339   4.894
    3OL     H8R 4794   6.360   2.425   4.954
    3OL     H8S 4795   6.265   2.378   4.814
    3OL     C19 4796   6.451   2.270   4.836
    3OL     H9R 4797   6.536   2.284   4.903
    3OL    C110 4798   6.463   2.227   4.712
    3OL    H10R 4799   6.563   2.205   4.675
    3OL    C111 4800   6.350   2.216   4.614
    3OL    H11R 4801   6.256   2.223   4.669
    3OL    H11S 4802   6.349   2.116   4.568
    3OL    C112 4803   6.363   2.325   4.507
    3OL    H12R 4804   6.378   2.421   4.558
    3OL    H12S 4805   6.272   2.324   4.446
    3OL    C113 4806   6.479   2.290   4.412
    3OL    H13R 4807   6.477   2.181   4.405
    3OL    H13S 4808   6.574   2.304   4.463
    3OL    C114 4809   6.471   2.370   4.282
    3OL    H14R 4810   6.439   2.472   4.303
    3OL    H14S 4811   6.393   2.342   4.211
    3OL    C115 4812   6.597   2.351   4.196
    3OL    H15R 4813   6.594   2.244   4.175
    3OL    H15S 4814   6.690   2.367   4.249
    3OL    C116 4815   6.598   2.420   4.058
    3OL    H16R 4816   6.591   2.528   4.074
    3OL    H16S 4817   6.523   2.383   3.988
    3OL    C117 4818   6.736   2.389   3.998
    3OL    H17R 4819   6.811   2.392   4.078
    3OL    H17S 4820   6.766   2.462   3.922
    3OL    C118 4821   6.741   2.248   3.939
    3OL    H18R 4822   6.718   2.165   4.007
    3OL    H18S 4823   6.837   2.231   3.889
    3OL    H18T 4824   6.664   2.249   3.862
    1PA    C116 4825   3.026   4.390   4.113
    1PA    H16R 4826   3.041   4.282   4.113
    1PA    H16S 4827   2.959   4.415   4.031
    1PA    H16T 4828   2.972   4.403   4.207
    1PA    C115 4829   3.155   4.475   4.109
    1PA    H15R 4830   3.229   4.436   4.179
    1PA    H15S 4831   3.203   4.481   4.011
    1PA    C114 4832   3.128   4.619   4.155
    1PA    H14R 4833   3.164   4.682   4.074
    1PA    H14S 4834   3.019   4.627   4.153
    1PA    C113 4835   3.189   4.663   4.289
    1PA    H13R 4836   3.277   4.601   4.309
    1PA    H13S 4837   3.227   4.765   4.286
    1PA    C112 4838   3.086   4.661   4.402
    1PA    H12R 4839   3.020   4.747   4.387
    1PA    H12S 4840   3.015   4.578   4.404
    1PA    C111 4841   3.145   4.663   4.544
    1PA    H11R 4842   3.181   4.564   4.575
    1PA    H11S 4843   3.237   4.721   4.556
    1PA    C110 4844   3.050   4.708   4.655
    1PA    H10R 4845   2.993   4.797   4.628
    1PA    H10S 4846   2.983   4.625   4.679
    1PA     C19 4847   3.129   4.738   4.783
    1PA     H9R 4848   3.189   4.650   4.806
    1PA     H9S 4849   3.200   4.818   4.762
    1PA     C18 4850   3.032   4.761   4.900
    1PA     H8R 4851   2.960   4.836   4.868
    1PA     H8S 4852   2.979   4.669   4.926
    1PA     C17 4853   3.109   4.810   5.023
    1PA     H7R 4854   3.049   4.787   5.111
    1PA     H7S 4855   3.197   4.747   5.039
    1PA     C16 4856   3.148   4.959   5.025
    1PA     H6R 4857   3.197   4.980   4.930
    1PA     H6S 4858   3.060   5.022   5.030
    1PA     C15 4859   3.236   4.999   5.145
    1PA     H5R 4860   3.197   4.990   5.246
    1PA     H5S 4861   3.328   4.940   5.152
    1PA     C14 4862   3.289   5.143   5.137
    1PA     H4R 4863   3.342   5.162   5.044
    1PA     H4S 4864   3.213   5.219   5.156
    1PA     C13 4865   3.394   5.162   5.247
    1PA     H3R 4866   3.354   5.154   5.348
    1PA     H3S 4867   3.469   5.083   5.236
    1PA     C12 4868   3.456   5.302   5.233
    1PA     H2R 4869   3.463   5.322   5.126
    1PA     H2S 4870   3.398   5.379   5.285
    2PC     C11 4871   3.600   5.305   5.277
    2PC     O12 4872   3.657   5.210   5.327
    2PC     O11 4873   3.667   5.418   5.247
    2PC      C1 4874   3.806   5.429   5.285
    2PC      HR 4875   3.824   5.361   5.369
    2PC      HS 4876   3.862   5.393   5.199
    2PC      C2 4877   3.848   5.571   5.325
    2PC      HX 4878   3.939   5.548   5.382
    2PC      C3 4879   3.751   5.627   5.431
    2PC      HA 4880   3.739   5.735   5.434
    2PC      HB 4881   3.653   5.579   5.423
    2PC     O31 4882   3.791   5.579   5.561
    2PC     P31 4883   3.679   5.566   5.674
    2PC     O32 4884   3.742   5.662   5.786
    2PC     C31 4885   3.873   5.632   5.837
    2PC     H1A 4886   3.934   5.601   5.751
    2PC     H1B 4887   3.924   5.721   5.873
    2PC     C32 4888   3.863   5.524   5.945
    2PC     H2A 4889   3.836   5.429   5.897
    2PC     H2B 4890   3.964   5.508   5.984
    2PC     N31 4891   3.785   5.536   6.072
    2PC     C33 4892   3.637   5.543   6.046
    2PC     H3A 4893   3.609   5.457   5.986
    2PC     H3B 4894   3.585   5.527   6.141
    2PC     H3C 4895   3.619   5.639   5.997
    2PC     C34 4896   3.816   5.415   6.155
    2PC     H4A 4897   3.792   5.325   6.097
    2PC     H4B 4898   3.920   5.414   6.187
    2PC     H4C 4899   3.744   5.412   6.236
    2PC     C35 4900   3.828   5.660   6.144
    2PC     H5A 4901   3.772   5.662   6.238
    2PC     H5B 4902   3.796   5.735   6.072
    2PC     H5C 4903   3.935   5.655   6.163
    2PC     O33 4904   3.545   5.617   5.638
    2PC     O34 4905   3.656   5.428   5.723
    2PC     O21 4906   3.845   5.656   5.209
    2PC     C21 4907   3.880   5.785   5.220
    2PC     O22 4908   3.939   5.832   5.315
    3OL     C12 4909   3.865   5.871   5.097
    3OL     H2R 4910   3.916   5.965   5.116
    3OL     H2S 4911   3.757   5.888   5.087
    3OL     C13 4912   3.921   5.812   4.967
    3OL     H3R 4913   3.880   5.712   4.956
    3OL     H3S 4914   4.027   5.789   4.977
    3OL     C14 4915   3.893   5.884   4.834
    3OL     H4R 4916   3.784   5.883   4.824
    3OL     H4S 4917   3.928   5.826   4.748
    3OL     C15 4918   3.943   6.028   4.845
    3OL     H5R 4919   4.043   6.025   4.887
    3OL     H5S 4920   3.879   6.083   4.914
    3OL     C16 4921   3.954   6.098   4.709
    3OL     H6R 4922   4.023   6.036   4.650
    3OL     H6S 4923   4.011   6.190   4.726
    3OL     C17 4924   3.818   6.126   4.643
    3OL     H7R 4925   3.757   6.181   4.715
    3OL     H7S 4926   3.760   6.037   4.618
    3OL     C18 4927   3.832   6.209   4.515
    3OL     H8R 4928   3.890   6.146   4.446
    3OL     H8S 4929   3.899   6.293   4.533
    3OL     C19 4930   3.698   6.247   4.457
    3OL     H9R 4931   3.636   6.163   4.428
    3OL    C110 4932   3.656   6.371   4.435
    3OL    H10R 4933   3.557   6.378   4.389
    3OL    C111 4934   3.736   6.496   4.457
    3OL    H11R 4935   3.743   6.563   4.371
    3OL    H11S 4936   3.840   6.476   4.483
    3OL    C112 4937   3.679   6.584   4.570
    3OL    H12R 4938   3.584   6.621   4.529
    3OL    H12S 4939   3.745   6.668   4.595
    3OL    C113 4940   3.653   6.521   4.707
    3OL    H13R 4941   3.599   6.426   4.698
    3OL    H13S 4942   3.585   6.585   4.764
    3OL    C114 4943   3.776   6.509   4.797
    3OL    H14R 4944   3.821   6.607   4.820
    3OL    H14S 4945   3.852   6.447   4.750
    3OL    C115 4946   3.725   6.440   4.924
    3OL    H15R 4947   3.675   6.349   4.890
    3OL    H15S 4948   3.654   6.501   4.980
    3OL    C116 4949   3.842   6.403   5.016
    3OL    H16R 4950   3.897   6.488   5.057
    3OL    H16S 4951   3.908   6.352   4.946
    3OL    C117 4952   3.800   6.302   5.124
    3OL    H17R 4953   3.728   6.228   5.087
    3OL    H17S 4954   3.739   6.352   5.199
    3OL    C118 4955   3.921   6.244   5.199
    3OL    H18R 4956   3.890   6.182   5.284
    3OL    H18S 4957   3.989   6.318   5.241
    3OL    H18T 4958   3.986   6.185   5.133
    1PA    C116 4959   0.341   0.373   3.971
    1PA    H16R 4960   0.336   0.458   3.904
    1PA    H16S 4961   0.254   0.307   3.956
    1PA    H16T 4962   0.430   0.314   3.947
    1PA    C115 4963   0.354   0.410   4.120
    1PA    H15R 4964   0.345   0.323   4.185
    1PA    H15S 4965   0.453   0.452   4.139
    1PA    C114 4966   0.247   0.516   4.153
    1PA    H14R 4967   0.251   0.594   4.077
    1PA    H14S 4968   0.150   0.466   4.144
    1PA    C113 4969   0.261   0.567   4.297
    1PA    H13R 4970   0.226   0.489   4.366
    1PA    H13S 4971   0.365   0.598   4.312
    1PA    C112 4972   0.166   0.687   4.308
    1PA    H12R 4973   0.198   0.758   4.231
    1PA    H12S 4974   0.068   0.648   4.283
    1PA    C111 4975   0.185   0.761   4.441
    1PA    H11R 4976   0.191   0.684   4.518
    1PA    H11S 4977   0.273   0.826   4.444
    1PA    C110 4978   0.060   0.842   4.477
    1PA    H10R 4979   0.051   0.916   4.398
    1PA    H10S 4980  -0.031   0.781   4.482
    1PA     C19 4981   0.067   0.912   4.613
    1PA     H9R 4982   0.064   0.825   4.679
    1PA     H9S 4983   0.163   0.964   4.612
    1PA     C18 4984  -0.048   1.011   4.639
    1PA     H8R 4985  -0.034   1.080   4.555
    1PA     H8S 4986  -0.146   0.969   4.615
    1PA     C17 4987  -0.031   1.074   4.777
    1PA     H7R 4988  -0.132   1.101   4.811
    1PA     H7S 4989   0.004   1.006   4.855
    1PA     C16 4990   0.056   1.200   4.773
    1PA     H6R 4991   0.155   1.167   4.741
    1PA     H6S 4992   0.018   1.271   4.699
    1PA     C15 4993   0.062   1.279   4.904
    1PA     H5R 4994   0.128   1.364   4.884
    1PA     H5S 4995  -0.031   1.329   4.933
    1PA     C14 4996   0.121   1.196   5.019
    1PA     H4R 4997   0.051   1.119   5.053
    1PA     H4S 4998   0.215   1.153   4.985
    1PA     C13 4999   0.144   1.284   5.143
    1PA     H3R 5000   0.056   1.337   5.179
    1PA     H3S 5001   0.160   1.223   5.231
    1PA     C12 5002   0.270   1.372   5.140
    1PA     H2R 5003   0.357   1.316   5.107
    1PA     H2S 5004   0.261   1.453   5.066
    2PC     C11 5005   0.291   1.447   5.269
    2PC     O12 5006   0.216   1.533   5.310
    2PC     O11 5007   0.408   1.415   5.327
    2PC      C1 5008   0.441   1.467   5.457
    2PC      HR 5009   0.474   1.571   5.457
    2PC      HS 5010   0.351   1.461   5.519
    2PC      C2 5011   0.543   1.373   5.523
    2PC      HX 5012   0.500   1.272   5.523
    2PC      C3 5013   0.567   1.410   5.670
    2PC      HA 5014   0.481   1.368   5.722
    2PC      HB 5015   0.653   1.351   5.704
    2PC     O31 5016   0.575   1.552   5.691
    2PC     P31 5017   0.678   1.613   5.797
    2PC     O32 5018   0.817   1.588   5.720
    2PC     C31 5019   0.936   1.642   5.780
    2PC     H1A 5020   1.018   1.634   5.708
    2PC     H1B 5021   0.928   1.746   5.810
    2PC     C32 5022   0.982   1.546   5.891
    2PC     H2A 5023   0.900   1.515   5.955
    2PC     H2B 5024   1.034   1.459   5.851
    2PC     N31 5025   1.073   1.611   5.991
    2PC     C33 5026   1.215   1.608   5.944
    2PC     H3A 5027   1.276   1.579   6.031
    2PC     H3B 5028   1.231   1.537   5.863
    2PC     H3C 5029   1.244   1.707   5.910
    2PC     C34 5030   1.035   1.749   6.035
    2PC     H4A 5031   0.927   1.739   6.049
    2PC     H4B 5032   1.081   1.773   6.131
    2PC     H4C 5033   1.055   1.821   5.956
    2PC     C35 5034   1.078   1.526   6.114
    2PC     H5A 5035   1.120   1.433   6.076
    2PC     H5B 5036   0.977   1.517   6.153
    2PC     H5C 5037   1.147   1.566   6.189
    2PC     O33 5038   0.653   1.759   5.807
    2PC     O34 5039   0.647   1.557   5.930
    2PC     O21 5040   0.670   1.374   5.456
    2PC     C21 5041   0.764   1.280   5.480
    2PC     O22 5042   0.746   1.191   5.561
    3OL     C12 5043   0.892   1.313   5.408
    3OL     H2R 5044   0.973   1.257   5.456
    3OL     H2S 5045   0.927   1.416   5.423
    3OL     C13 5046   0.881   1.283   5.258
    3OL     H3R 5047   0.785   1.331   5.237
    3OL     H3S 5048   0.873   1.174   5.251
    3OL     C14 5049   0.998   1.337   5.176
    3OL     H4R 5050   1.011   1.274   5.088
    3OL     H4S 5051   1.087   1.321   5.237
    3OL     C15 5052   1.001   1.481   5.122
    3OL     H5R 5053   1.003   1.546   5.210
    3OL     H5S 5054   0.913   1.504   5.061
    3OL     C16 5055   1.133   1.511   5.050
    3OL     H6R 5056   1.222   1.470   5.098
    3OL     H6S 5057   1.145   1.619   5.048
    3OL     C17 5058   1.141   1.465   4.904
    3OL     H7R 5059   1.051   1.492   4.849
    3OL     H7S 5060   1.149   1.356   4.898
    3OL     C18 5061   1.264   1.517   4.828
    3OL     H8R 5062   1.352   1.495   4.888
    3OL     H8S 5063   1.250   1.625   4.817
    3OL     C19 5064   1.284   1.449   4.695
    3OL     H9R 5065   1.296   1.342   4.707
    3OL    C110 5066   1.280   1.505   4.575
    3OL    H10R 5067   1.297   1.447   4.485
    3OL    C111 5068   1.278   1.652   4.544
    3OL    H11R 5069   1.360   1.687   4.607
    3OL    H11S 5070   1.182   1.700   4.565
    3OL    C112 5071   1.308   1.669   4.395
    3OL    H12R 5072   1.224   1.632   4.336
    3OL    H12S 5073   1.403   1.617   4.380
    3OL    C113 5074   1.316   1.815   4.346
    3OL    H13R 5075   1.405   1.862   4.389
    3OL    H13S 5076   1.224   1.870   4.368
    3OL    C114 5077   1.336   1.816   4.194
    3OL    H14R 5078   1.240   1.783   4.154
    3OL    H14S 5079   1.404   1.734   4.167
    3OL    C115 5080   1.360   1.959   4.145
    3OL    H15R 5081   1.450   1.996   4.196
    3OL    H15S 5082   1.271   2.015   4.175
    3OL    C116 5083   1.368   1.959   3.992
    3OL    H16R 5084   1.269   1.940   3.950
    3OL    H16S 5085   1.421   1.877   3.942
    3OL    C117 5086   1.408   2.098   3.939
    3OL    H17R 5087   1.504   2.122   3.985
    3OL    H17S 5088   1.332   2.170   3.970
    3OL    C118 5089   1.422   2.097   3.787
    3OL    H18R 5090   1.503   2.033   3.752
    3OL    H18S 5091   1.460   2.190   3.744
    3OL    H18T 5092   1.330   2.066   3.737
    1PA    C116 5093   4.921   3.858   4.057
    1PA    H16R 5094   4.940   3.758   4.019
    1PA    H16S 5095   4.865   3.930   3.996
    1PA    H16T 5096   4.874   3.847   4.155
    1PA    C115 5097   5.050   3.939   4.076
    1PA    H15R 5098   5.101   3.963   3.983
    1PA    H15S 5099   5.020   4.035   4.118
    1PA    C114 5100   5.145   3.878   4.181
    1PA    H14R 5101   5.178   3.779   4.150
    1PA    H14S 5102   5.227   3.950   4.191
    1PA    C113 5103   5.082   3.862   4.320
    1PA    H13R 5104   5.041   3.956   4.355
    1PA    H13S 5105   5.011   3.778   4.321
    1PA    C112 5106   5.198   3.830   4.416
    1PA    H12R 5107   5.251   3.742   4.379
    1PA    H12S 5108   5.260   3.920   4.415
    1PA    C111 5109   5.144   3.807   4.558
    1PA    H11R 5110   5.088   3.893   4.595
    1PA    H11S 5111   5.076   3.723   4.543
    1PA    C110 5112   5.256   3.789   4.661
    1PA    H10R 5113   5.330   3.720   4.620
    1PA    H10S 5114   5.298   3.889   4.673
    1PA     C19 5115   5.199   3.738   4.794
    1PA     H9R 5116   5.136   3.817   4.837
    1PA     H9S 5117   5.134   3.653   4.773
    1PA     C18 5118   5.318   3.694   4.881
    1PA     H8R 5119   5.274   3.670   4.978
    1PA     H8S 5120   5.368   3.605   4.842
    1PA     C17 5121   5.429   3.798   4.896
    1PA     H7R 5122   5.464   3.827   4.796
    1PA     H7S 5123   5.398   3.891   4.944
    1PA     C16 5124   5.540   3.747   4.989
    1PA     H6R 5125   5.595   3.836   5.019
    1PA     H6S 5126   5.488   3.701   5.073
    1PA     C15 5127   5.636   3.653   4.915
    1PA     H5R 5128   5.580   3.565   4.883
    1PA     H5S 5129   5.676   3.688   4.819
    1PA     C14 5130   5.749   3.599   5.004
    1PA     H4R 5131   5.704   3.571   5.100
    1PA     H4S 5132   5.788   3.515   4.948
    1PA     C13 5133   5.864   3.698   5.027
    1PA     H3R 5134   5.913   3.741   4.940
    1PA     H3S 5135   5.831   3.776   5.097
    1PA     C12 5136   5.965   3.620   5.113
    1PA     H2R 5137   5.900   3.585   5.193
    1PA     H2S 5138   6.006   3.535   5.059
    2PC     C11 5139   6.071   3.710   5.171
    2PC     O12 5140   6.075   3.832   5.176
    2PC     O11 5141   6.178   3.641   5.214
    2PC      C1 5142   6.284   3.712   5.282
    2PC      HR 5143   6.380   3.690   5.235
    2PC      HS 5144   6.263   3.819   5.283
    2PC      C2 5145   6.279   3.663   5.428
    2PC      HX 5146   6.189   3.699   5.477
    2PC      C3 5147   6.381   3.737   5.516
    2PC      HA 5148   6.481   3.694   5.503
    2PC      HB 5149   6.395   3.844   5.499
    2PC     O31 5150   6.335   3.719   5.651
    2PC     P31 5151   6.416   3.785   5.772
    2PC     O32 5152   6.568   3.796   5.723
    2PC     C31 5153   6.646   3.908   5.770
    2PC     H1A 5154   6.602   4.007   5.751
    2PC     H1B 5155   6.643   3.914   5.879
    2PC     C32 5156   6.788   3.904   5.712
    2PC     H2A 5157   6.781   3.920   5.604
    2PC     H2B 5158   6.851   3.989   5.739
    2PC     N31 5159   6.877   3.786   5.735
    2PC     C33 5160   6.922   3.782   5.877
    2PC     H3A 5161   6.986   3.869   5.897
    2PC     H3B 5162   6.840   3.782   5.949
    2PC     H3C 5163   6.979   3.690   5.890
    2PC     C34 5164   6.824   3.654   5.686
    2PC     H4A 5165   6.791   3.665   5.582
    2PC     H4B 5166   6.899   3.577   5.701
    2PC     H4C 5167   6.732   3.635   5.741
    2PC     C35 5168   6.997   3.815   5.651
    2PC     H5A 5169   7.061   3.889   5.700
    2PC     H5B 5170   6.970   3.843   5.549
    2PC     H5C 5171   7.060   3.726   5.653
    2PC     O33 5172   6.356   3.908   5.830
    2PC     O34 5173   6.427   3.703   5.895
    2PC     O21 5174   6.286   3.522   5.454
    2PC     C21 5175   6.394   3.446   5.434
    2PC     O22 5176   6.501   3.490   5.397
    3OL     C12 5177   6.366   3.299   5.455
    3OL     H2R 5178   6.257   3.299   5.458
    3OL     H2S 5179   6.395   3.263   5.554
    3OL     C13 5180   6.421   3.206   5.346
    3OL     H3R 5181   6.393   3.102   5.361
    3OL     H3S 5182   6.530   3.210   5.359
    3OL     C14 5183   6.381   3.239   5.201
    3OL     H4R 5184   6.425   3.335   5.174
    3OL     H4S 5185   6.272   3.246   5.194
    3OL     C15 5186   6.428   3.134   5.100
    3OL     H5R 5187   6.387   3.037   5.129
    3OL     H5S 5188   6.537   3.123   5.098
    3OL     C16 5189   6.399   3.169   4.953
    3OL     H6R 5190   6.436   3.089   4.889
    3OL     H6S 5191   6.460   3.258   4.936
    3OL     C17 5192   6.250   3.196   4.925
    3OL     H7R 5193   6.211   3.290   4.965
    3OL     H7S 5194   6.191   3.119   4.974
    3OL     C18 5195   6.215   3.201   4.776
    3OL     H8R 5196   6.111   3.234   4.765
    3OL     H8S 5197   6.223   3.102   4.731
    3OL     C19 5198   6.307   3.293   4.699
    3OL     H9R 5199   6.412   3.272   4.719
    3OL    C110 5200   6.270   3.392   4.620
    3OL    H10R 5201   6.354   3.442   4.572
    3OL    C111 5202   6.130   3.431   4.579
    3OL    H11R 5203   6.054   3.352   4.576
    3OL    H11S 5204   6.131   3.454   4.472
    3OL    C112 5205   6.074   3.541   4.669
    3OL    H12R 5206   6.131   3.630   4.641
    3OL    H12S 5207   6.106   3.512   4.770
    3OL    C113 5208   5.926   3.580   4.656
    3OL    H13R 5209   5.897   3.638   4.744
    3OL    H13S 5210   5.864   3.491   4.671
    3OL    C114 5211   5.887   3.660   4.531
    3OL    H14R 5212   5.924   3.605   4.444
    3OL    H14S 5213   5.936   3.758   4.530
    3OL    C115 5214   5.736   3.680   4.513
    3OL    H15R 5215   5.684   3.732   4.593
    3OL    H15S 5216   5.699   3.577   4.524
    3OL    C116 5217   5.685   3.730   4.377
    3OL    H16R 5218   5.746   3.677   4.304
    3OL    H16S 5219   5.708   3.836   4.365
    3OL    C117 5220   5.533   3.713   4.359
    3OL    H17R 5221   5.480   3.802   4.393
    3OL    H17S 5222   5.485   3.635   4.419
    3OL    C118 5223   5.501   3.696   4.210
    3OL    H18R 5224   5.562   3.615   4.168
    3OL    H18S 5225   5.535   3.785   4.157
    3OL    H18T 5226   5.395   3.680   4.190
    1PA    C116 5227   3.551  -0.616   4.214
    1PA    H16R 5228   3.468  -0.679   4.246
    1PA    H16S 5229   3.601  -0.587   4.306
    1PA    H16T 5230   3.616  -0.677   4.150
    1PA    C115 5231   3.489  -0.501   4.134
    1PA    H15R 5232   3.570  -0.428   4.127
    1PA    H15S 5233   3.467  -0.534   4.032
    1PA    C114 5234   3.358  -0.453   4.200
    1PA    H14R 5235   3.299  -0.392   4.131
    1PA    H14S 5236   3.288  -0.534   4.220
    1PA    C113 5237   3.389  -0.371   4.325
    1PA    H13R 5238   3.483  -0.315   4.317
    1PA    H13S 5239   3.307  -0.299   4.332
    1PA    C112 5240   3.398  -0.452   4.455
    1PA    H12R 5241   3.334  -0.540   4.460
    1PA    H12S 5242   3.498  -0.496   4.459
    1PA    C111 5243   3.368  -0.362   4.575
    1PA    H11R 5244   3.445  -0.284   4.574
    1PA    H11S 5245   3.275  -0.304   4.570
    1PA    C110 5246   3.367  -0.429   4.714
    1PA    H10R 5247   3.298  -0.513   4.711
    1PA    H10S 5248   3.468  -0.464   4.736
    1PA     C19 5249   3.316  -0.334   4.823
    1PA     H9R 5250   3.211  -0.319   4.799
    1PA     H9S 5251   3.323  -0.381   4.921
    1PA     C18 5252   3.396  -0.203   4.833
    1PA     H8R 5253   3.503  -0.224   4.831
    1PA     H8S 5254   3.367  -0.135   4.752
    1PA     C17 5255   3.352  -0.116   4.951
    1PA     H7R 5256   3.390  -0.014   4.940
    1PA     H7S 5257   3.244  -0.106   4.953
    1PA     C16 5258   3.400  -0.187   5.079
    1PA     H6R 5259   3.353  -0.285   5.093
    1PA     H6S 5260   3.507  -0.206   5.068
    1PA     C15 5261   3.383  -0.106   5.208
    1PA     H5R 5262   3.279  -0.103   5.242
    1PA     H5S 5263   3.446  -0.156   5.282
    1PA     C14 5264   3.447   0.034   5.213
    1PA     H4R 5265   3.543   0.015   5.164
    1PA     H4S 5266   3.381   0.094   5.149
    1PA     C13 5267   3.445   0.097   5.353
    1PA     H3R 5268   3.344   0.086   5.393
    1PA     H3S 5269   3.517   0.053   5.422
    1PA     C12 5270   3.466   0.247   5.331
    1PA     H2R 5271   3.563   0.270   5.286
    1PA     H2S 5272   3.394   0.280   5.256
    2PC     C11 5273   3.440   0.320   5.460
    2PC     O12 5274   3.337   0.309   5.523
    2PC     O11 5275   3.537   0.410   5.484
    2PC      C1 5276   3.526   0.489   5.604
    2PC      HR 5277   3.432   0.544   5.615
    2PC      HS 5278   3.536   0.423   5.690
    2PC      C2 5279   3.646   0.584   5.596
    2PC      HX 5280   3.736   0.532   5.564
    2PC      C3 5281   3.673   0.647   5.733
    2PC      HA 5282   3.732   0.581   5.797
    2PC      HB 5283   3.730   0.739   5.718
    2PC     O31 5284   3.544   0.667   5.792
    2PC     P31 5285   3.532   0.712   5.946
    2PC     O32 5286   3.565   0.869   5.943
    2PC     C31 5287   3.525   0.947   6.057
    2PC     H1A 5288   3.421   0.919   6.072
    2PC     H1B 5289   3.575   0.920   6.151
    2PC     C32 5290   3.542   1.096   6.026
    2PC     H2A 5291   3.465   1.118   5.951
    2PC     H2B 5292   3.511   1.153   6.114
    2PC     N31 5293   3.670   1.162   5.986
    2PC     C33 5294   3.656   1.310   6.001
    2PC     H3A 5295   3.594   1.352   5.921
    2PC     H3B 5296   3.613   1.341   6.097
    2PC     H3C 5297   3.757   1.350   5.994
    2PC     C34 5298   3.778   1.115   6.078
    2PC     H4A 5299   3.866   1.168   6.040
    2PC     H4B 5300   3.761   1.140   6.183
    2PC     H4C 5301   3.801   1.009   6.064
    2PC     C35 5302   3.698   1.127   5.843
    2PC     H5A 5303   3.608   1.160   5.791
    2PC     H5B 5304   3.725   1.021   5.837
    2PC     H5C 5305   3.777   1.183   5.794
    2PC     O33 5306   3.407   0.685   6.019
    2PC     O34 5307   3.634   0.638   6.023
    2PC     O21 5308   3.601   0.687   5.505
    2PC     C21 5309   3.697   0.747   5.434
    2PC     O22 5310   3.816   0.727   5.451
    3OL     C12 5311   3.648   0.852   5.337
    3OL     H2R 5312   3.655   0.948   5.390
    3OL     H2S 5313   3.540   0.846   5.330
    3OL     C13 5314   3.733   0.859   5.209
    3OL     H3R 5315   3.715   0.766   5.154
    3OL     H3S 5316   3.836   0.854   5.242
    3OL     C14 5317   3.706   0.973   5.110
    3OL     H4R 5318   3.729   1.063   5.167
    3OL     H4S 5319   3.599   0.967   5.088
    3OL     C15 5320   3.793   0.975   4.983
    3OL     H5R 5321   3.897   0.958   5.011
    3OL     H5S 5322   3.783   1.073   4.936
    3OL     C16 5323   3.761   0.861   4.885
    3OL     H6R 5324   3.674   0.883   4.824
    3OL     H6S 5325   3.742   0.768   4.939
    3OL     C17 5326   3.880   0.828   4.793
    3OL     H7R 5327   3.849   0.739   4.737
    3OL     H7S 5328   3.970   0.804   4.850
    3OL     C18 5329   3.913   0.944   4.698
    3OL     H8R 5330   3.930   1.036   4.754
    3OL     H8S 5331   3.821   0.966   4.643
    3OL     C19 5332   4.027   0.889   4.616
    3OL     H9R 5333   4.002   0.811   4.545
    3OL    C110 5334   4.152   0.932   4.619
    3OL    H10R 5335   4.227   0.871   4.569
    3OL    C111 5336   4.196   1.044   4.710
    3OL    H11R 5337   4.137   1.067   4.798
    3OL    H11S 5338   4.207   1.133   4.647
    3OL    C112 5339   4.342   1.029   4.757
    3OL    H12R 5340   4.385   0.962   4.682
    3OL    H12S 5341   4.348   0.985   4.856
    3OL    C113 5342   4.429   1.155   4.743
    3OL    H13R 5343   4.376   1.235   4.795
    3OL    H13S 5344   4.430   1.179   4.637
    3OL    C114 5345   4.568   1.133   4.804
    3OL    H14R 5346   4.554   1.078   4.898
    3OL    H14S 5347   4.612   1.226   4.838
    3OL    C115 5348   4.674   1.073   4.710
    3OL    H15R 5349   4.675   1.135   4.620
    3OL    H15S 5350   4.630   0.975   4.689
    3OL    C116 5351   4.816   1.058   4.768
    3OL    H16R 5352   4.853   1.160   4.780
    3OL    H16S 5353   4.877   1.016   4.688
    3OL    C117 5354   4.814   0.984   4.903
    3OL    H17R 5355   4.794   0.877   4.896
    3OL    H17S 5356   4.746   1.042   4.966
    3OL    C118 5357   4.957   0.994   4.959
    3OL    H18R 5358   4.984   1.089   5.006
    3OL    H18S 5359   5.022   0.965   4.876
    3OL    H18T 5360   4.956   0.910   5.029
    1PA    C116 5361   4.258   3.736   4.376
    1PA    H16R 5362   4.270   3.649   4.439
    1PA    H16S 5363   4.322   3.818   4.410
    1PA    H16T 5364   4.286   3.715   4.273
    1PA    C115 5365   4.113   3.784   4.389
    1PA    H15R 5366   4.099   3.875   4.329
    1PA    H15S 5367   4.059   3.709   4.331
    1PA    C114 5368   4.061   3.782   4.533
    1PA    H14R 5369   3.953   3.770   4.524
    1PA    H14S 5370   4.095   3.702   4.599
    1PA    C113 5371   4.090   3.919   4.597
    1PA    H13R 5372   4.083   3.907   4.706
    1PA    H13S 5373   4.190   3.946   4.564
    1PA    C112 5374   3.986   4.025   4.560
    1PA    H12R 5375   3.970   4.030   4.452
    1PA    H12S 5376   3.888   3.993   4.595
    1PA    C111 5377   4.035   4.161   4.612
    1PA    H11R 5378   4.143   4.177   4.602
    1PA    H11S 5379   3.989   4.234   4.546
    1PA    C110 5380   3.982   4.185   4.754
    1PA    H10R 5381   3.873   4.175   4.748
    1PA    H10S 5382   4.017   4.105   4.819
    1PA     C19 5383   4.019   4.327   4.802
    1PA     H9R 5384   4.126   4.341   4.789
    1PA     H9S 5385   3.965   4.403   4.745
    1PA     C18 5386   3.973   4.341   4.948
    1PA     H8R 5387   3.993   4.446   4.969
    1PA     H8S 5388   3.872   4.311   4.977
    1PA     C17 5389   4.070   4.278   5.049
    1PA     H7R 5390   4.063   4.169   5.050
    1PA     H7S 5391   4.174   4.304   5.026
    1PA     C16 5392   4.038   4.317   5.193
    1PA     H6R 5393   4.026   4.425   5.197
    1PA     H6S 5394   3.934   4.286   5.204
    1PA     C15 5395   4.137   4.251   5.290
    1PA     H5R 5396   4.071   4.214   5.368
    1PA     H5S 5397   4.191   4.167   5.247
    1PA     C14 5398   4.248   4.343   5.344
    1PA     H4R 5399   4.316   4.368   5.263
    1PA     H4S 5400   4.200   4.431   5.388
    1PA     C13 5401   4.333   4.284   5.457
    1PA     H3R 5402   4.281   4.292   5.553
    1PA     H3S 5403   4.354   4.178   5.443
    1PA     C12 5404   4.464   4.364   5.469
    1PA     H2R 5405   4.524   4.337   5.382
    1PA     H2S 5406   4.436   4.469   5.456
    2PC     C11 5407   4.563   4.328   5.576
    2PC     O12 5408   4.585   4.408   5.665
    2PC     O11 5409   4.615   4.204   5.572
    2PC      C1 5410   4.698   4.160   5.681
    2PC      HR 5411   4.778   4.091   5.652
    2PC      HS 5412   4.761   4.241   5.719
    2PC      C2 5413   4.621   4.098   5.799
    2PC      HX 5414   4.558   4.164   5.859
    2PC      C3 5415   4.718   4.056   5.910
    2PC      HA 5416   4.777   3.972   5.873
    2PC      HB 5417   4.794   4.133   5.928
    2PC     O31 5418   4.658   4.007   6.031
    2PC     P31 5419   4.752   3.973   6.156
    2PC     O32 5420   4.783   4.123   6.205
    2PC     C31 5421   4.675   4.184   6.278
    2PC     H1A 5422   4.576   4.184   6.232
    2PC     H1B 5423   4.665   4.133   6.374
    2PC     C32 5424   4.718   4.326   6.316
    2PC     H2A 5425   4.732   4.387   6.226
    2PC     H2B 5426   4.627   4.366   6.362
    2PC     N31 5427   4.835   4.349   6.407
    2PC     C33 5428   4.826   4.276   6.538
    2PC     H3A 5429   4.752   4.335   6.593
    2PC     H3B 5430   4.783   4.176   6.528
    2PC     H3C 5431   4.920   4.283   6.592
    2PC     C34 5432   4.961   4.296   6.346
    2PC     H4A 5433   5.044   4.310   6.416
    2PC     H4B 5434   4.945   4.189   6.330
    2PC     H4C 5435   4.974   4.344   6.249
    2PC     C35 5436   4.845   4.495   6.439
    2PC     H5A 5437   4.752   4.534   6.482
    2PC     H5B 5438   4.873   4.549   6.349
    2PC     H5C 5439   4.918   4.512   6.518
    2PC     O33 5440   4.703   3.888   6.266
    2PC     O34 5441   4.881   3.915   6.111
    2PC     O21 5442   4.555   3.979   5.754
    2PC     C21 5443   4.449   3.979   5.671
    2PC     O22 5444   4.372   4.072   5.657
    3OL     C12 5445   4.453   3.853   5.589
    3OL     H2R 5446   4.523   3.784   5.636
    3OL     H2S 5447   4.492   3.885   5.492
    3OL     C13 5448   4.307   3.811   5.564
    3OL     H3R 5449   4.259   3.871   5.487
    3OL     H3S 5450   4.263   3.813   5.663
    3OL     C14 5451   4.312   3.666   5.513
    3OL     H4R 5452   4.369   3.600   5.578
    3OL     H4S 5453   4.376   3.666   5.424
    3OL     C15 5454   4.170   3.609   5.505
    3OL     H5R 5455   4.105   3.679   5.452
    3OL     H5S 5456   4.144   3.594   5.610
    3OL     C16 5457   4.171   3.477   5.427
    3OL     H6R 5458   4.076   3.430   5.453
    3OL     H6S 5459   4.256   3.410   5.441
    3OL     C17 5460   4.153   3.518   5.280
    3OL     H7R 5461   4.238   3.585   5.262
    3OL     H7S 5462   4.058   3.570   5.267
    3OL     C18 5463   4.158   3.402   5.179
    3OL     H8R 5464   4.246   3.339   5.198
    3OL     H8S 5465   4.180   3.452   5.085
    3OL     C19 5466   4.027   3.328   5.174
    3OL     H9R 5467   3.972   3.339   5.267
    3OL    C110 5468   3.967   3.262   5.076
    3OL    H10R 5469   3.864   3.228   5.086
    3OL    C111 5470   4.024   3.243   4.938
    3OL    H11R 5471   4.129   3.273   4.933
    3OL    H11S 5472   3.972   3.309   4.868
    3OL    C112 5473   4.003   3.099   4.891
    3OL    H12R 5474   3.898   3.074   4.908
    3OL    H12S 5475   4.062   3.029   4.951
    3OL    C113 5476   4.025   3.072   4.741
    3OL    H13R 5477   4.128   3.098   4.716
    3OL    H13S 5478   3.955   3.127   4.678
    3OL    C114 5479   4.004   2.925   4.703
    3OL    H14R 5480   3.923   2.881   4.762
    3OL    H14S 5481   4.086   2.859   4.731
    3OL    C115 5482   3.962   2.911   4.555
    3OL    H15R 5483   3.899   2.992   4.520
    3OL    H15S 5484   3.911   2.815   4.550
    3OL    C116 5485   4.076   2.925   4.453
    3OL    H16R 5486   4.165   2.871   4.487
    3OL    H16S 5487   4.109   3.027   4.432
    3OL    C117 5488   4.036   2.883   4.311
    3OL    H17R 5489   4.115   2.910   4.241
    3OL    H17S 5490   3.941   2.930   4.285
    3OL    C118 5491   4.011   2.733   4.291
    3OL    H18R 5492   3.935   2.697   4.361
    3OL    H18S 5493   4.100   2.674   4.314
    3OL    H18T 5494   3.971   2.721   4.190
    1PA    C116 5495   1.051   3.140   3.768
    1PA    H16R 5496   0.965   3.153   3.702
    1PA    H16S 5497   1.124   3.077   3.718
    1PA    H16T 5498   1.103   3.231   3.797
    1PA    C115 5499   0.991   3.060   3.885
    1PA    H15R 5500   0.911   2.988   3.864
    1PA    H15S 5501   1.071   2.999   3.928
    1PA    C114 5502   0.941   3.150   3.998
    1PA    H14R 5503   0.933   3.088   4.088
    1PA    H14S 5504   1.011   3.229   4.028
    1PA    C113 5505   0.803   3.211   3.970
    1PA    H13R 5506   0.803   3.273   3.880
    1PA    H13S 5507   0.724   3.136   3.963
    1PA    C112 5508   0.756   3.294   4.090
    1PA    H12R 5509   0.652   3.324   4.079
    1PA    H12S 5510   0.745   3.229   4.177
    1PA    C111 5511   0.835   3.423   4.114
    1PA    H11R 5512   0.942   3.406   4.129
    1PA    H11S 5513   0.814   3.481   4.023
    1PA    C110 5514   0.779   3.498   4.235
    1PA    H10R 5515   0.820   3.599   4.241
    1PA    H10S 5516   0.670   3.490   4.227
    1PA     C19 5517   0.804   3.435   4.373
    1PA     H9R 5518   0.767   3.333   4.389
    1PA     H9S 5519   0.913   3.433   4.382
    1PA     C18 5520   0.748   3.520   4.488
    1PA     H8R 5521   0.793   3.619   4.485
    1PA     H8S 5522   0.641   3.535   4.476
    1PA     C17 5523   0.778   3.461   4.627
    1PA     H7R 5524   0.722   3.367   4.619
    1PA     H7S 5525   0.886   3.450   4.622
    1PA     C16 5526   0.755   3.559   4.743
    1PA     H6R 5527   0.821   3.646   4.744
    1PA     H6S 5528   0.655   3.602   4.730
    1PA     C15 5529   0.767   3.497   4.883
    1PA     H5R 5530   0.773   3.578   4.956
    1PA     H5S 5531   0.671   3.450   4.906
    1PA     C14 5532   0.881   3.398   4.909
    1PA     H4R 5533   0.860   3.306   4.855
    1PA     H4S 5534   0.978   3.433   4.873
    1PA     C13 5535   0.887   3.370   5.060
    1PA     H3R 5536   0.899   3.461   5.119
    1PA     H3S 5537   0.792   3.331   5.095
    1PA     C12 5538   1.008   3.278   5.085
    1PA     H2R 5539   0.994   3.188   5.024
    1PA     H2S 5540   1.100   3.331   5.061
    2PC     C11 5541   1.027   3.246   5.231
    2PC     O12 5542   1.082   3.317   5.313
    2PC     O11 5543   0.995   3.118   5.255
    2PC      C1 5544   1.023   3.076   5.390
    2PC      HR 5545   1.124   3.112   5.411
    2PC      HS 5546   0.962   3.136   5.457
    2PC      C2 5547   1.008   2.923   5.393
    2PC      HX 5548   0.912   2.905   5.344
    2PC      C3 5549   1.010   2.868   5.536
    2PC      HA 5550   0.939   2.920   5.601
    2PC      HB 5551   0.970   2.766   5.529
    2PC     O31 5552   1.136   2.877   5.605
    2PC     P31 5553   1.144   2.824   5.755
    2PC     O32 5554   1.063   2.940   5.830
    2PC     C31 5555   1.107   2.987   5.958
    2PC     H1A 5556   1.215   3.002   5.954
    2PC     H1B 5557   1.058   3.084   5.974
    2PC     C32 5558   1.072   2.879   6.061
    2PC     H2A 5559   1.096   2.781   6.019
    2PC     H2B 5560   1.140   2.885   6.146
    2PC     N31 5561   0.929   2.876   6.106
    2PC     C33 5562   0.881   3.008   6.156
    2PC     H3A 5563   0.798   2.988   6.224
    2PC     H3B 5564   0.959   3.057   6.214
    2PC     H3C 5565   0.864   3.068   6.066
    2PC     C34 5566   0.832   2.846   5.996
    2PC     H4A 5567   0.849   2.747   5.952
    2PC     H4B 5568   0.733   2.885   6.018
    2PC     H4C 5569   0.863   2.907   5.911
    2PC     C35 5570   0.908   2.774   6.214
    2PC     H5A 5571   0.814   2.801   6.262
    2PC     H5B 5572   0.990   2.783   6.285
    2PC     H5C 5573   0.910   2.673   6.172
    2PC     O33 5574   1.081   2.696   5.795
    2PC     O34 5575   1.284   2.818   5.805
    2PC     O21 5576   1.112   2.868   5.311
    2PC     C21 5577   1.128   2.736   5.296
    2PC     O22 5578   1.058   2.655   5.353
    3OL     C12 5579   1.229   2.700   5.189
    3OL     H2R 5580   1.277   2.788   5.146
    3OL     H2S 5581   1.166   2.667   5.106
    3OL     C13 5582   1.334   2.599   5.236
    3OL     H3R 5583   1.298   2.496   5.231
    3OL     H3S 5584   1.363   2.630   5.336
    3OL     C14 5585   1.462   2.623   5.155
    3OL     H4R 5586   1.514   2.716   5.181
    3OL     H4S 5587   1.449   2.619   5.047
    3OL     C15 5588   1.564   2.517   5.199
    3OL     H5R 5589   1.530   2.416   5.175
    3OL     H5S 5590   1.591   2.520   5.305
    3OL     C16 5591   1.698   2.541   5.128
    3OL     H6R 5592   1.673   2.563   5.023
    3OL     H6S 5593   1.762   2.452   5.130
    3OL     C17 5594   1.784   2.655   5.184
    3OL     H7R 5595   1.891   2.637   5.197
    3OL     H7S 5596   1.737   2.686   5.278
    3OL     C18 5597   1.775   2.771   5.084
    3OL     H8R 5598   1.806   2.868   5.126
    3OL     H8S 5599   1.674   2.785   5.047
    3OL     C19 5600   1.855   2.742   4.960
    3OL     H9R 5601   1.892   2.640   4.950
    3OL    C110 5602   1.880   2.834   4.868
    3OL    H10R 5603   1.950   2.798   4.794
    3OL    C111 5604   1.835   2.977   4.849
    3OL    H11R 5605   1.726   2.975   4.857
    3OL    H11S 5606   1.849   3.007   4.745
    3OL    C112 5607   1.913   3.078   4.935
    3OL    H12R 5608   2.013   3.087   4.893
    3OL    H12S 5609   1.902   3.049   5.040
    3OL    C113 5610   1.845   3.215   4.942
    3OL    H13R 5611   1.744   3.198   4.979
    3OL    H13S 5612   1.826   3.248   4.839
    3OL    C114 5613   1.920   3.314   5.033
    3OL    H14R 5614   1.961   3.271   5.124
    3OL    H14S 5615   1.859   3.397   5.067
    3OL    C115 5616   2.038   3.370   4.952
    3OL    H15R 5617   1.998   3.423   4.865
    3OL    H15S 5618   2.107   3.289   4.927
    3OL    C116 5619   2.109   3.476   5.038
    3OL    H16R 5620   2.140   3.428   5.131
    3OL    H16S 5621   2.039   3.547   5.081
    3OL    C117 5622   2.200   3.564   4.951
    3OL    H17R 5623   2.203   3.662   5.000
    3OL    H17S 5624   2.175   3.573   4.845
    3OL    C118 5625   2.347   3.528   4.978
    3OL    H18R 5626   2.361   3.426   4.940
    3OL    H18S 5627   2.361   3.528   5.087
    3OL    H18T 5628   2.416   3.598   4.931
    1PA    C116 5629   1.756   2.031   4.188
    1PA    H16R 5630   1.840   2.057   4.123
    1PA    H16S 5631   1.694   2.121   4.188
    1PA    H16T 5632   1.705   1.947   4.141
    1PA    C115 5633   1.814   2.006   4.327
    1PA    H15R 5634   1.764   1.920   4.372
    1PA    H15S 5635   1.916   1.968   4.312
    1PA    C114 5636   1.807   2.128   4.420
    1PA    H14R 5637   1.882   2.110   4.498
    1PA    H14S 5638   1.839   2.212   4.359
    1PA    C113 5639   1.674   2.143   4.495
    1PA    H13R 5640   1.659   2.250   4.509
    1PA    H13S 5641   1.599   2.095   4.431
    1PA    C112 5642   1.665   2.079   4.634
    1PA    H12R 5643   1.692   1.973   4.623
    1PA    H12S 5644   1.735   2.131   4.700
    1PA    C111 5645   1.524   2.089   4.695
    1PA    H11R 5646   1.491   2.192   4.710
    1PA    H11S 5647   1.460   2.046   4.617
    1PA    C110 5648   1.511   2.024   4.833
    1PA    H10R 5649   1.591   2.064   4.896
    1PA    H10S 5650   1.420   2.054   4.886
    1PA     C19 5651   1.533   1.872   4.833
    1PA     H9R 5652   1.449   1.836   4.772
    1PA     H9S 5653   1.621   1.843   4.776
    1PA     C18 5654   1.533   1.799   4.968
    1PA     H8R 5655   1.544   1.692   4.950
    1PA     H8S 5656   1.620   1.830   5.026
    1PA     C17 5657   1.409   1.830   5.053
    1PA     H7R 5658   1.409   1.937   5.076
    1PA     H7S 5659   1.324   1.789   4.998
    1PA     C16 5660   1.409   1.747   5.182
    1PA     H6R 5661   1.307   1.768   5.218
    1PA     H6S 5662   1.404   1.640   5.159
    1PA     C15 5663   1.521   1.776   5.283
    1PA     H5R 5664   1.528   1.692   5.352
    1PA     H5S 5665   1.616   1.761   5.232
    1PA     C14 5666   1.499   1.911   5.353
    1PA     H4R 5667   1.502   1.993   5.282
    1PA     H4S 5668   1.400   1.912   5.400
    1PA     C13 5669   1.600   1.923   5.469
    1PA     H3R 5670   1.559   1.983   5.550
    1PA     H3S 5671   1.629   1.829   5.516
    1PA     C12 5672   1.724   1.994   5.412
    1PA     H2R 5673   1.785   1.921   5.360
    1PA     H2S 5674   1.689   2.071   5.344
    2PC     C11 5675   1.812   2.064   5.512
    2PC     O12 5676   1.768   2.125   5.608
    2PC     O11 5677   1.941   2.051   5.477
    2PC      C1 5678   2.044   2.085   5.571
    2PC      HR 5679   2.137   2.107   5.517
    2PC      HS 5680   2.016   2.175   5.626
    2PC      C2 5681   2.055   1.971   5.674
    2PC      HX 5682   1.966   1.953   5.735
    2PC      C3 5683   2.177   2.003   5.761
    2PC      HA 5684   2.259   2.034   5.695
    2PC      HB 5685   2.158   2.086   5.830
    2PC     O31 5686   2.214   1.883   5.831
    2PC     P31 5687   2.128   1.832   5.956
    2PC     O32 5688   2.218   1.877   6.080
    2PC     C31 5689   2.263   2.014   6.079
    2PC     H1A 5690   2.307   2.046   5.983
    2PC     H1B 5691   2.172   2.072   6.091
    2PC     C32 5692   2.360   2.033   6.196
    2PC     H2A 5693   2.456   1.982   6.183
    2PC     H2B 5694   2.382   2.140   6.204
    2PC     N31 5695   2.322   2.004   6.338
    2PC     C33 5696   2.195   2.067   6.389
    2PC     H3A 5697   2.112   2.043   6.322
    2PC     H3B 5698   2.171   2.039   6.492
    2PC     H3C 5699   2.219   2.174   6.391
    2PC     C34 5700   2.318   1.857   6.363
    2PC     H4A 5701   2.422   1.825   6.370
    2PC     H4B 5702   2.262   1.848   6.457
    2PC     H4C 5703   2.267   1.809   6.279
    2PC     C35 5704   2.440   2.062   6.409
    2PC     H5A 5705   2.533   2.033   6.359
    2PC     H5B 5706   2.447   2.014   6.507
    2PC     H5C 5707   2.421   2.169   6.415
    2PC     O33 5708   1.990   1.878   5.984
    2PC     O34 5709   2.134   1.684   5.953
    2PC     O21 5710   2.077   1.848   5.603
    2PC     C21 5711   1.974   1.769   5.570
    2PC     O22 5712   1.869   1.774   5.631
    3OL     C12 5713   2.017   1.678   5.458
    3OL     H2R 5714   2.096   1.607   5.484
    3OL     H2S 5715   2.063   1.736   5.379
    3OL     C13 5716   1.896   1.605   5.398
    3OL     H3R 5717   1.817   1.679   5.386
    3OL     H3S 5718   1.852   1.540   5.474
    3OL     C14 5719   1.928   1.530   5.268
    3OL     H4R 5720   1.840   1.483   5.225
    3OL     H4S 5721   1.987   1.442   5.295
    3OL     C15 5722   1.995   1.612   5.157
    3OL     H5R 5723   2.022   1.535   5.083
    3OL     H5S 5724   2.090   1.653   5.192
    3OL     C16 5725   1.912   1.728   5.099
    3OL     H6R 5726   1.902   1.807   5.174
    3OL     H6S 5727   1.812   1.690   5.076
    3OL     C17 5728   1.969   1.773   4.964
    3OL     H7R 5729   1.938   1.705   4.884
    3OL     H7S 5730   2.078   1.778   4.963
    3OL     C18 5731   1.913   1.910   4.923
    3OL     H8R 5732   1.809   1.896   4.893
    3OL     H8S 5733   1.973   1.935   4.836
    3OL     C19 5734   1.919   2.012   5.034
    3OL     H9R 5735   1.838   1.989   5.102
    3OL    C110 5736   1.995   2.119   5.050
    3OL    H10R 5737   1.988   2.185   5.136
    3OL    C111 5738   2.099   2.168   4.952
    3OL    H11R 5739   2.075   2.120   4.857
    3OL    H11S 5740   2.196   2.134   4.988
    3OL    C112 5741   2.097   2.319   4.925
    3OL    H12R 5742   2.115   2.371   5.020
    3OL    H12S 5743   1.995   2.343   4.895
    3OL    C113 5744   2.200   2.366   4.822
    3OL    H13R 5745   2.272   2.288   4.798
    3OL    H13S 5746   2.245   2.456   4.864
    3OL    C114 5747   2.128   2.386   4.688
    3OL    H14R 5748   2.048   2.459   4.701
    3OL    H14S 5749   2.092   2.285   4.666
    3OL    C115 5750   2.220   2.434   4.575
    3OL    H15R 5751   2.302   2.362   4.569
    3OL    H15S 5752   2.269   2.528   4.603
    3OL    C116 5753   2.150   2.441   4.439
    3OL    H16R 5754   2.071   2.515   4.454
    3OL    H16S 5755   2.105   2.342   4.423
    3OL    C117 5756   2.249   2.481   4.329
    3OL    H17R 5757   2.338   2.419   4.335
    3OL    H17S 5758   2.294   2.580   4.333
    3OL    C118 5759   2.188   2.460   4.190
    3OL    H18R 5760   2.154   2.359   4.165
    3OL    H18S 5761   2.258   2.495   4.114
    3OL    H18T 5762   2.104   2.528   4.178
    1PA    C116 5763   5.261   0.700   3.874
    1PA    H16R 5764   5.195   0.676   3.790
    1PA    H16S 5765   5.286   0.805   3.860
    1PA    H16T 5766   5.206   0.698   3.968
    1PA    C115 5767   5.386   0.610   3.877
    1PA    H15R 5768   5.362   0.505   3.892
    1PA    H15S 5769   5.433   0.621   3.779
    1PA    C114 5770   5.483   0.654   3.987
    1PA    H14R 5771   5.571   0.590   3.980
    1PA    H14S 5772   5.499   0.762   3.992
    1PA    C113 5773   5.417   0.608   4.117
    1PA    H13R 5774   5.319   0.654   4.134
    1PA    H13S 5775   5.384   0.506   4.094
    1PA    C112 5776   5.510   0.613   4.239
    1PA    H12R 5777   5.603   0.564   4.211
    1PA    H12S 5778   5.537   0.714   4.271
    1PA    C111 5779   5.453   0.546   4.365
    1PA    H11R 5780   5.360   0.597   4.389
    1PA    H11S 5781   5.427   0.440   4.354
    1PA    C110 5782   5.550   0.568   4.482
    1PA    H10R 5783   5.643   0.514   4.468
    1PA    H10S 5784   5.567   0.675   4.492
    1PA     C19 5785   5.492   0.514   4.614
    1PA     H9R 5786   5.393   0.559   4.622
    1PA     H9S 5787   5.488   0.406   4.624
    1PA     C18 5788   5.566   0.558   4.741
    1PA     H8R 5789   5.592   0.662   4.721
    1PA     H8S 5790   5.498   0.547   4.826
    1PA     C17 5791   5.686   0.466   4.770
    1PA     H7R 5792   5.728   0.443   4.672
    1PA     H7S 5793   5.760   0.519   4.830
    1PA     C16 5794   5.642   0.341   4.847
    1PA     H6R 5795   5.591   0.364   4.941
    1PA     H6S 5796   5.568   0.285   4.789
    1PA     C15 5797   5.758   0.242   4.863
    1PA     H5R 5798   5.806   0.216   4.769
    1PA     H5S 5799   5.844   0.280   4.918
    1PA     C14 5800   5.717   0.105   4.919
    1PA     H4R 5801   5.612   0.092   4.892
    1PA     H4S 5802   5.770   0.024   4.868
    1PA     C13 5803   5.742   0.101   5.071
    1PA     H3R 5804   5.848   0.118   5.093
    1PA     H3S 5805   5.689   0.184   5.117
    1PA     C12 5806   5.688  -0.029   5.132
    1PA     H2R 5807   5.596  -0.048   5.078
    1PA     H2S 5808   5.760  -0.110   5.116
    2PC     C11 5809   5.666  -0.024   5.281
    2PC     O12 5810   5.627  -0.123   5.340
    2PC     O11 5811   5.696   0.093   5.341
    2PC      C1 5812   5.658   0.106   5.479
    2PC      HR 5813   5.670   0.011   5.533
    2PC      HS 5814   5.714   0.191   5.520
    2PC      C2 5815   5.509   0.139   5.482
    2PC      HX 5816   5.500   0.230   5.422
    2PC      C3 5817   5.458   0.175   5.622
    2PC      HA 5818   5.521   0.254   5.664
    2PC      HB 5819   5.353   0.203   5.608
    2PC     O31 5820   5.465   0.057   5.704
    2PC     P31 5821   5.437   0.071   5.862
    2PC     O32 5822   5.290   0.010   5.879
    2PC     C31 5823   5.279  -0.116   5.948
    2PC     H1A 5824   5.314  -0.196   5.882
    2PC     H1B 5825   5.344  -0.115   6.036
    2PC     C32 5826   5.133  -0.135   5.991
    2PC     H2A 5827   5.070  -0.093   5.912
    2PC     H2B 5828   5.119  -0.242   6.005
    2PC     N31 5829   5.089  -0.066   6.116
    2PC     C33 5830   5.154  -0.139   6.230
    2PC     H3A 5831   5.260  -0.113   6.233
    2PC     H3B 5832   5.099  -0.111   6.320
    2PC     H3C 5833   5.138  -0.246   6.215
    2PC     C34 5834   5.118   0.081   6.112
    2PC     H4A 5835   5.081   0.122   6.018
    2PC     H4B 5836   5.082   0.136   6.199
    2PC     H4C 5837   5.227   0.093   6.112
    2PC     C35 5838   4.941  -0.072   6.139
    2PC     H5A 5839   4.909  -0.013   6.225
    2PC     H5B 5840   4.913  -0.175   6.163
    2PC     H5C 5841   4.893  -0.039   6.047
    2PC     O33 5842   5.546   0.009   5.941
    2PC     O34 5843   5.435   0.211   5.911
    2PC     O21 5844   5.433   0.031   5.424
    2PC     C21 5845   5.301   0.046   5.402
    2PC     O22 5846   5.249   0.156   5.401
    3OL     C12 5847   5.235  -0.085   5.367
    3OL     H2R 5848   5.128  -0.078   5.384
    3OL     H2S 5849   5.271  -0.158   5.440
    3OL     C13 5850   5.274  -0.129   5.225
    3OL     H3R 5851   5.383  -0.126   5.228
    3OL     H3S 5852   5.254  -0.043   5.161
    3OL     C14 5853   5.214  -0.267   5.196
    3OL     H4R 5854   5.105  -0.272   5.193
    3OL     H4S 5855   5.243  -0.338   5.274
    3OL     C15 5856   5.278  -0.315   5.065
    3OL     H5R 5857   5.249  -0.258   4.977
    3OL     H5S 5858   5.237  -0.415   5.053
    3OL     C16 5859   5.431  -0.325   5.062
    3OL     H6R 5860   5.473  -0.380   5.147
    3OL     H6S 5861   5.475  -0.225   5.070
    3OL     C17 5862   5.478  -0.406   4.940
    3OL     H7R 5863   5.433  -0.364   4.850
    3OL     H7S 5864   5.442  -0.509   4.947
    3OL     C18 5865   5.630  -0.413   4.923
    3OL     H8R 5866   5.649  -0.489   4.846
    3OL     H8S 5867   5.698  -0.439   5.004
    3OL     C19 5868   5.678  -0.284   4.861
    3OL     H9R 5869   5.632  -0.194   4.901
    3OL    C110 5870   5.776  -0.271   4.772
    3OL    H10R 5871   5.800  -0.169   4.743
    3OL    C111 5872   5.839  -0.387   4.699
    3OL    H11R 5873   5.825  -0.486   4.743
    3OL    H11S 5874   5.947  -0.371   4.697
    3OL    C112 5875   5.800  -0.382   4.551
    3OL    H12R 5876   5.813  -0.280   4.516
    3OL    H12S 5877   5.692  -0.399   4.546
    3OL    C113 5878   5.873  -0.478   4.457
    3OL    H13R 5879   5.849  -0.583   4.475
    3OL    H13S 5880   5.981  -0.470   4.470
    3OL    C114 5881   5.838  -0.451   4.310
    3OL    H14R 5882   5.887  -0.358   4.279
    3OL    H14S 5883   5.735  -0.424   4.286
    3OL    C115 5884   5.887  -0.569   4.225
    3OL    H15R 5885   5.862  -0.555   4.120
    3OL    H15S 5886   5.833  -0.658   4.259
    3OL    C116 5887   6.038  -0.595   4.238
    3OL    H16R 5888   6.054  -0.629   4.341
    3OL    H16S 5889   6.105  -0.511   4.219
    3OL    C117 5890   6.067  -0.714   4.145
    3OL    H17R 5891   6.027  -0.703   4.044
    3OL    H17S 5892   6.026  -0.799   4.200
    3OL    C118 5893   6.213  -0.754   4.122
    3OL    H18R 5894   6.260  -0.706   4.036
    3OL    H18S 5895   6.215  -0.862   4.104
    3OL    H18T 5896   6.281  -0.737   4.207
    1PA    C116 5897   2.867   2.208   4.503
    1PA    H16R 5898   2.961   2.155   4.484
    1PA    H16S 5899   2.879   2.266   4.595
    1PA    H16T 5900   2.850   2.279   4.423
    1PA    C115 5901   2.745   2.115   4.506
    1PA    H15R 5902   2.655   2.176   4.498
    1PA    H15S 5903   2.747   2.044   4.423
    1PA    C114 5904   2.732   2.036   4.637
    1PA    H14R 5905   2.669   1.947   4.629
    1PA    H14S 5906   2.834   2.004   4.661
    1PA    C113 5907   2.670   2.124   4.746
    1PA    H13R 5908   2.732   2.192   4.804
    1PA    H13S 5909   2.584   2.176   4.702
    1PA    C112 5910   2.620   2.028   4.854
    1PA    H12R 5911   2.525   1.988   4.819
    1PA    H12S 5912   2.688   1.944   4.868
    1PA    C111 5913   2.590   2.093   4.990
    1PA    H11R 5914   2.683   2.117   5.043
    1PA    H11S 5915   2.532   2.183   4.972
    1PA    C110 5916   2.500   2.010   5.082
    1PA    H10R 5917   2.400   1.999   5.039
    1PA    H10S 5918   2.542   1.909   5.089
    1PA     C19 5919   2.495   2.070   5.223
    1PA     H9R 5920   2.443   2.001   5.291
    1PA     H9S 5921   2.591   2.070   5.276
    1PA     C18 5922   2.434   2.210   5.238
    1PA     H8R 5923   2.503   2.286   5.202
    1PA     H8S 5924   2.345   2.222   5.176
    1PA     C17 5925   2.407   2.234   5.387
    1PA     H7R 5926   2.335   2.161   5.425
    1PA     H7S 5927   2.499   2.216   5.443
    1PA     C16 5928   2.362   2.380   5.401
    1PA     H6R 5929   2.367   2.381   5.510
    1PA     H6S 5930   2.429   2.458   5.366
    1PA     C15 5931   2.224   2.394   5.334
    1PA     H5R 5932   2.244   2.420   5.230
    1PA     H5S 5933   2.171   2.299   5.338
    1PA     C14 5934   2.140   2.508   5.393
    1PA     H4R 5935   2.049   2.526   5.336
    1PA     H4S 5936   2.119   2.476   5.496
    1PA     C13 5937   2.206   2.647   5.380
    1PA     H3R 5938   2.308   2.641   5.420
    1PA     H3S 5939   2.213   2.669   5.273
    1PA     C12 5940   2.123   2.761   5.440
    1PA     H2R 5941   2.173   2.853   5.412
    1PA     H2S 5942   2.018   2.758   5.411
    2PC     C11 5943   2.127   2.760   5.591
    2PC     O12 5944   2.107   2.662   5.660
    2PC     O11 5945   2.156   2.880   5.644
    2PC      C1 5946   2.173   2.897   5.786
    2PC      HR 5947   2.181   3.001   5.818
    2PC      HS 5948   2.088   2.846   5.833
    2PC      C2 5949   2.295   2.820   5.837
    2PC      HX 5950   2.283   2.713   5.819
    2PC      C3 5951   2.308   2.821   5.990
    2PC      HA 5952   2.291   2.919   6.034
    2PC      HB 5953   2.220   2.763   6.022
    2PC     O31 5954   2.426   2.754   6.037
    2PC     P31 5955   2.459   2.762   6.193
    2PC     O32 5956   2.604   2.695   6.196
    2PC     C31 5957   2.732   2.760   6.189
    2PC     H1A 5958   2.803   2.683   6.158
    2PC     H1B 5959   2.741   2.841   6.115
    2PC     C32 5960   2.767   2.822   6.325
    2PC     H2A 5961   2.701   2.907   6.341
    2PC     H2B 5962   2.741   2.760   6.411
    2PC     N31 5963   2.908   2.863   6.352
    2PC     C33 5964   2.966   2.929   6.230
    2PC     H3A 5965   3.031   3.012   6.256
    2PC     H3B 5966   3.012   2.861   6.158
    2PC     H3C 5967   2.885   2.982   6.179
    2PC     C34 5968   2.916   2.967   6.460
    2PC     H4A 5969   3.022   2.991   6.471
    2PC     H4B 5970   2.867   3.059   6.430
    2PC     H4C 5971   2.872   2.926   6.551
    2PC     C35 5972   2.986   2.744   6.400
    2PC     H5A 5973   2.989   2.672   6.318
    2PC     H5B 5974   2.935   2.694   6.482
    2PC     H5C 5975   3.091   2.770   6.414
    2PC     O33 5976   2.465   2.899   6.251
    2PC     O34 5977   2.373   2.689   6.289
    2PC     O21 5978   2.409   2.883   5.775
    2PC     C21 5979   2.518   2.810   5.747
    2PC     O22 5980   2.548   2.697   5.780
    3OL     C12 5981   2.613   2.887   5.659
    3OL     H2R 5982   2.713   2.859   5.694
    3OL     H2S 5983   2.597   2.992   5.683
    3OL     C13 5984   2.597   2.857   5.510
    3OL     H3R 5985   2.500   2.900   5.482
    3OL     H3S 5986   2.608   2.751   5.486
    3OL     C14 5987   2.707   2.929   5.432
    3OL     H4R 5988   2.796   2.921   5.496
    3OL     H4S 5989   2.683   3.035   5.420
    3OL     C15 5990   2.721   2.869   5.291
    3OL     H5R 5991   2.632   2.888   5.230
    3OL     H5S 5992   2.760   2.767   5.298
    3OL     C16 5993   2.834   2.948   5.222
    3OL     H6R 5994   2.911   2.931   5.297
    3OL     H6S 5995   2.803   3.052   5.209
    3OL     C17 5996   2.878   2.880   5.092
    3OL     H7R 5997   2.904   2.778   5.121
    3OL     H7S 5998   2.971   2.923   5.054
    3OL     C18 5999   2.775   2.872   4.978
    3OL     H8R 6000   2.734   2.970   4.951
    3OL     H8S 6001   2.685   2.815   5.000
    3OL     C19 6002   2.843   2.815   4.856
    3OL     H9R 6003   2.938   2.768   4.882
    3OL    C110 6004   2.801   2.816   4.731
    3OL    H10R 6005   2.864   2.793   4.645
    3OL    C111 6006   2.661   2.864   4.703
    3OL    H11R 6007   2.627   2.936   4.777
    3OL    H11S 6008   2.597   2.775   4.703
    3OL    C112 6009   2.653   2.930   4.565
    3OL    H12R 6010   2.738   2.896   4.506
    3OL    H12S 6011   2.653   3.037   4.583
    3OL    C113 6012   2.533   2.884   4.480
    3OL    H13R 6013   2.443   2.913   4.533
    3OL    H13S 6014   2.540   2.775   4.477
    3OL    C114 6015   2.530   2.929   4.333
    3OL    H14R 6016   2.628   2.927   4.286
    3OL    H14S 6017   2.502   3.034   4.336
    3OL    C115 6018   2.426   2.844   4.258
    3OL    H15R 6019   2.324   2.870   4.286
    3OL    H15S 6020   2.453   2.738   4.268
    3OL    C116 6021   2.440   2.876   4.109
    3OL    H16R 6022   2.436   2.983   4.091
    3OL    H16S 6023   2.356   2.828   4.057
    3OL    C117 6024   2.573   2.825   4.051
    3OL    H17R 6025   2.575   2.716   4.054
    3OL    H17S 6026   2.664   2.850   4.107
    3OL    C118 6027   2.600   2.863   3.905
    3OL    H18R 6028   2.694   2.829   3.862
    3OL    H18S 6029   2.607   2.971   3.891
    3OL    H18T 6030   2.515   2.822   3.848
    1PA    C116 6031   2.715   4.083   4.403
    1PA    H16R 6032   2.734   3.979   4.432
    1PA    H16S 6033   2.657   4.086   4.311
    1PA    H16T 6034   2.651   4.120   4.484
    1PA    C115 6035   2.845   4.161   4.381
    1PA    H15R 6036   2.906   4.110   4.306
    1PA    H15S 6037   2.826   4.252   4.325
    1PA    C114 6038   2.929   4.181   4.509
    1PA    H14R 6039   2.863   4.230   4.581
    1PA    H14S 6040   2.945   4.080   4.545
    1PA    C113 6041   3.054   4.267   4.488
    1PA    H13R 6042   3.104   4.237   4.395
    1PA    H13S 6043   3.023   4.371   4.479
    1PA    C112 6044   3.148   4.277   4.609
    1PA    H12R 6045   3.212   4.188   4.607
    1PA    H12S 6046   3.216   4.361   4.597
    1PA    C111 6047   3.081   4.300   4.745
    1PA    H11R 6048   3.015   4.388   4.744
    1PA    H11S 6049   3.024   4.209   4.762
    1PA    C110 6050   3.173   4.315   4.867
    1PA    H10R 6051   3.228   4.224   4.889
    1PA    H10S 6052   3.261   4.372   4.837
    1PA     C19 6053   3.098   4.356   4.994
    1PA     H9R 6054   3.162   4.338   5.081
    1PA     H9S 6055   3.084   4.464   4.988
    1PA     C18 6056   2.972   4.273   5.024
    1PA     H8R 6057   2.901   4.288   4.942
    1PA     H8S 6058   3.010   4.171   5.023
    1PA     C17 6059   2.910   4.305   5.161
    1PA     H7R 6060   2.986   4.318   5.238
    1PA     H7S 6061   2.874   4.408   5.164
    1PA     C16 6062   2.809   4.196   5.200
    1PA     H6R 6063   2.730   4.210   5.126
    1PA     H6S 6064   2.839   4.093   5.183
    1PA     C15 6065   2.751   4.222   5.340
    1PA     H5R 6066   2.832   4.219   5.413
    1PA     H5S 6067   2.707   4.322   5.351
    1PA     C14 6068   2.637   4.123   5.368
    1PA     H4R 6069   2.557   4.135   5.295
    1PA     H4S 6070   2.674   4.021   5.360
    1PA     C13 6071   2.580   4.150   5.508
    1PA     H3R 6072   2.567   4.258   5.519
    1PA     H3S 6073   2.482   4.102   5.516
    1PA     C12 6074   2.657   4.093   5.628
    1PA     H2R 6075   2.659   3.984   5.629
    1PA     H2S 6076   2.759   4.133   5.632
    2PC     C11 6077   2.595   4.126   5.761
    2PC     O12 6078   2.656   4.102   5.863
    2PC     O11 6079   2.467   4.165   5.763
    2PC      C1 6080   2.394   4.188   5.885
    2PC      HR 6081   2.289   4.200   5.859
    2PC      HS 6082   2.402   4.103   5.953
    2PC      C2 6083   2.440   4.317   5.956
    2PC      HX 6084   2.548   4.316   5.974
    2PC      C3 6085   2.366   4.314   6.090
    2PC      HA 6086   2.259   4.314   6.072
    2PC      HB 6087   2.389   4.226   6.151
    2PC     O31 6088   2.401   4.431   6.167
    2PC     P31 6089   2.552   4.459   6.214
    2PC     O32 6090   2.600   4.551   6.092
    2PC     C31 6091   2.659   4.679   6.123
    2PC     H1A 6092   2.585   4.724   6.189
    2PC     H1B 6093   2.754   4.657   6.174
    2PC     C32 6094   2.689   4.751   5.990
    2PC     H2A 6095   2.723   4.682   5.912
    2PC     H2B 6096   2.604   4.800   5.943
    2PC     N31 6097   2.785   4.865   5.997
    2PC     C33 6098   2.797   4.931   5.863
    2PC     H3A 6099   2.847   4.865   5.791
    2PC     H3B 6100   2.696   4.953   5.829
    2PC     H3C 6101   2.845   5.029   5.871
    2PC     C34 6102   2.737   4.972   6.091
    2PC     H4A 6103   2.812   5.052   6.093
    2PC     H4B 6104   2.641   5.007   6.052
    2PC     H4C 6105   2.728   4.926   6.189
    2PC     C35 6106   2.921   4.812   6.031
    2PC     H5A 6107   2.989   4.897   6.038
    2PC     H5B 6108   2.966   4.754   5.950
    2PC     H5C 6109   2.908   4.748   6.118
    2PC     O33 6110   2.549   4.520   6.348
    2PC     O34 6111   2.628   4.332   6.220
    2PC     O21 6112   2.393   4.434   5.886
    2PC     C21 6113   2.483   4.503   5.814
    2PC     O22 6114   2.593   4.462   5.786
    3OL     C12 6115   2.428   4.639   5.779
    3OL     H2R 6116   2.461   4.720   5.845
    3OL     H2S 6117   2.319   4.645   5.787
    3OL     C13 6118   2.468   4.673   5.635
    3OL     H3R 6119   2.427   4.598   5.567
    3OL     H3S 6120   2.574   4.659   5.615
    3OL     C14 6121   2.420   4.816   5.604
    3OL     H4R 6122   2.491   4.864   5.536
    3OL     H4S 6123   2.417   4.876   5.696
    3OL     C15 6124   2.288   4.813   5.527
    3OL     H5R 6125   2.219   4.746   5.580
    3OL     H5S 6126   2.302   4.779   5.425
    3OL     C16 6127   2.219   4.950   5.515
    3OL     H6R 6128   2.215   4.990   5.617
    3OL     H6S 6129   2.114   4.938   5.488
    3OL     C17 6130   2.294   5.045   5.422
    3OL     H7R 6131   2.321   4.999   5.327
    3OL     H7S 6132   2.395   5.064   5.461
    3OL     C18 6133   2.220   5.178   5.403
    3OL     H8R 6134   2.179   5.206   5.500
    3OL     H8S 6135   2.136   5.158   5.336
    3OL     C19 6136   2.317   5.289   5.371
    3OL     H9R 6137   2.389   5.302   5.451
    3OL    C110 6138   2.330   5.356   5.258
    3OL    H10R 6139   2.412   5.427   5.249
    3OL    C111 6140   2.235   5.345   5.142
    3OL    H11R 6141   2.167   5.260   5.155
    3OL    H11S 6142   2.288   5.312   5.052
    3OL    C112 6143   2.156   5.470   5.101
    3OL    H12R 6144   2.143   5.531   5.191
    3OL    H12S 6145   2.061   5.429   5.068
    3OL    C113 6146   2.214   5.549   4.983
    3OL    H13R 6147   2.137   5.617   4.945
    3OL    H13S 6148   2.227   5.472   4.908
    3OL    C114 6149   2.343   5.627   5.017
    3OL    H14R 6150   2.424   5.554   5.022
    3OL    H14S 6151   2.332   5.674   5.115
    3OL    C115 6152   2.373   5.734   4.912
    3OL    H15R 6153   2.377   5.684   4.814
    3OL    H15S 6154   2.474   5.768   4.933
    3OL    C116 6155   2.276   5.853   4.912
    3OL    H16R 6156   2.266   5.890   5.014
    3OL    H16S 6157   2.175   5.823   4.880
    3OL    C117 6158   2.327   5.958   4.813
    3OL    H17R 6159   2.436   5.956   4.816
    3OL    H17S 6160   2.294   6.060   4.836
    3OL    C118 6161   2.273   5.928   4.672
    3OL    H18R 6162   2.167   5.957   4.672
    3OL    H18S 6163   2.291   5.825   4.641
    3OL    H18T 6164   2.324   6.004   4.613
    1PA    C116 6165   4.649   1.920   3.964
    1PA    H16R 6166   4.580   2.003   3.957
    1PA    H16S 6167   4.592   1.833   3.930
    1PA    H16T 6168   4.735   1.938   3.899
    1PA    C115 6169   4.704   1.904   4.106
    1PA    H15R 6170   4.798   1.849   4.099
    1PA    H15S 6171   4.721   2.004   4.144
    1PA    C114 6172   4.614   1.836   4.211
    1PA    H14R 6173   4.517   1.885   4.220
    1PA    H14S 6174   4.595   1.734   4.177
    1PA    C113 6175   4.684   1.836   4.348
    1PA    H13R 6176   4.789   1.807   4.341
    1PA    H13S 6177   4.684   1.940   4.382
    1PA    C112 6178   4.603   1.743   4.440
    1PA    H12R 6179   4.513   1.797   4.470
    1PA    H12S 6180   4.584   1.649   4.388
    1PA    C111 6181   4.676   1.712   4.571
    1PA    H11R 6182   4.758   1.784   4.586
    1PA    H11S 6183   4.596   1.735   4.642
    1PA    C110 6184   4.727   1.568   4.575
    1PA    H10R 6185   4.646   1.496   4.566
    1PA    H10S 6186   4.811   1.544   4.509
    1PA     C19 6187   4.774   1.557   4.721
    1PA     H9R 6188   4.830   1.646   4.750
    1PA     H9S 6189   4.684   1.551   4.781
    1PA     C18 6190   4.862   1.432   4.736
    1PA     H8R 6191   4.808   1.339   4.718
    1PA     H8S 6192   4.951   1.437   4.673
    1PA     C17 6193   4.921   1.428   4.878
    1PA     H7R 6194   5.011   1.367   4.887
    1PA     H7S 6195   4.947   1.534   4.888
    1PA     C16 6196   4.826   1.394   4.993
    1PA     H6R 6197   4.746   1.468   5.002
    1PA     H6S 6198   4.783   1.296   4.971
    1PA     C15 6199   4.901   1.374   5.125
    1PA     H5R 6200   4.830   1.329   5.194
    1PA     H5S 6201   4.989   1.311   5.113
    1PA     C14 6202   4.947   1.509   5.184
    1PA     H4R 6203   5.037   1.535   5.129
    1PA     H4S 6204   4.869   1.582   5.162
    1PA     C13 6205   4.972   1.487   5.334
    1PA     H3R 6206   4.881   1.456   5.385
    1PA     H3S 6207   5.045   1.409   5.356
    1PA     C12 6208   5.041   1.611   5.394
    1PA     H2R 6209   5.133   1.647   5.348
    1PA     H2S 6210   4.979   1.698   5.370
    2PC     C11 6211   5.061   1.607   5.543
    2PC     O12 6212   4.994   1.535   5.615
    2PC     O11 6213   5.151   1.695   5.589
    2PC      C1 6214   5.171   1.726   5.728
    2PC      HR 6215   5.229   1.818   5.738
    2PC      HS 6216   5.075   1.735   5.781
    2PC      C2 6217   5.263   1.626   5.798
    2PC      HX 6218   5.210   1.531   5.812
    2PC      C3 6219   5.308   1.670   5.938
    2PC      HA 6220   5.365   1.763   5.943
    2PC      HB 6221   5.228   1.697   6.008
    2PC     O31 6222   5.381   1.559   5.993
    2PC     P31 6223   5.445   1.585   6.137
    2PC     O32 6224   5.377   1.465   6.218
    2PC     C31 6225   5.243   1.482   6.268
    2PC     H1A 6226   5.250   1.535   6.364
    2PC     H1B 6227   5.185   1.550   6.205
    2PC     C32 6228   5.177   1.345   6.288
    2PC     H2A 6229   5.075   1.355   6.325
    2PC     H2B 6230   5.185   1.287   6.196
    2PC     N31 6231   5.250   1.260   6.388
    2PC     C33 6232   5.292   1.324   6.516
    2PC     H3A 6233   5.336   1.249   6.582
    2PC     H3B 6234   5.366   1.401   6.494
    2PC     H3C 6235   5.205   1.372   6.562
    2PC     C34 6236   5.149   1.156   6.428
    2PC     H4A 6237   5.067   1.212   6.473
    2PC     H4B 6238   5.115   1.101   6.340
    2PC     H4C 6239   5.188   1.092   6.506
    2PC     C35 6240   5.373   1.195   6.332
    2PC     H5A 6241   5.440   1.275   6.300
    2PC     H5B 6242   5.348   1.131   6.248
    2PC     H5C 6243   5.406   1.133   6.416
    2PC     O33 6244   5.591   1.558   6.142
    2PC     O34 6245   5.437   1.713   6.211
    2PC     O21 6246   5.384   1.611   5.721
    2PC     C21 6247   5.466   1.716   5.703
    2PC     O22 6248   5.444   1.831   5.738
    3OL     C12 6249   5.602   1.681   5.650
    3OL     H2R 6250   5.640   1.585   5.684
    3OL     H2S 6251   5.673   1.761   5.676
    3OL     C13 6252   5.596   1.676   5.497
    3OL     H3R 6253   5.552   1.770   5.463
    3OL     H3S 6254   5.534   1.590   5.470
    3OL     C14 6255   5.735   1.634   5.447
    3OL     H4R 6256   5.759   1.543   5.502
    3OL     H4S 6257   5.808   1.706   5.485
    3OL     C15 6258   5.746   1.616   5.295
    3OL     H5R 6259   5.853   1.604   5.280
    3OL     H5S 6260   5.718   1.713   5.253
    3OL     C16 6261   5.679   1.487   5.244
    3OL     H6R 6262   5.570   1.490   5.254
    3OL     H6S 6263   5.711   1.404   5.307
    3OL     C17 6264   5.726   1.453   5.102
    3OL     H7R 6265   5.721   1.344   5.096
    3OL     H7S 6266   5.832   1.479   5.094
    3OL     C18 6267   5.633   1.511   4.995
    3OL     H8R 6268   5.646   1.618   4.980
    3OL     H8S 6269   5.535   1.487   5.037
    3OL     C19 6270   5.656   1.436   4.866
    3OL     H9R 6271   5.648   1.329   4.880
    3OL    C110 6272   5.674   1.489   4.746
    3OL    H10R 6273   5.685   1.423   4.661
    3OL    C111 6274   5.677   1.636   4.711
    3OL    H11R 6275   5.779   1.674   4.719
    3OL    H11S 6276   5.623   1.703   4.778
    3OL    C112 6277   5.619   1.643   4.569
    3OL    H12R 6278   5.523   1.590   4.561
    3OL    H12S 6279   5.693   1.591   4.509
    3OL    C113 6280   5.599   1.789   4.526
    3OL    H13R 6281   5.682   1.852   4.558
    3OL    H13S 6282   5.507   1.816   4.578
    3OL    C114 6283   5.567   1.816   4.378
    3OL    H14R 6284   5.491   1.743   4.349
    3OL    H14S 6285   5.657   1.795   4.321
    3OL    C115 6286   5.516   1.960   4.366
    3OL    H15R 6287   5.461   2.005   4.448
    3OL    H15S 6288   5.455   1.959   4.275
    3OL    C116 6289   5.638   2.052   4.347
    3OL    H16R 6290   5.717   2.011   4.410
    3OL    H16S 6291   5.612   2.147   4.395
    3OL    C117 6292   5.679   2.072   4.200
    3OL    H17R 6293   5.596   2.063   4.130
    3OL    H17S 6294   5.759   2.001   4.175
    3OL    C118 6295   5.736   2.213   4.181
    3OL    H18R 6296   5.745   2.238   4.075
    3OL    H18S 6297   5.830   2.217   4.236
    3OL    H18T 6298   5.678   2.298   4.218
    1PA    C116 6299   7.119   0.956   4.518
    1PA    H16R 6300   7.184   0.895   4.455
    1PA    H16S 6301   7.183   1.043   4.532
    1PA    H16T 6302   7.034   0.997   4.462
    1PA    C115 6303   7.081   0.901   4.656
    1PA    H15R 6304   7.166   0.844   4.693
    1PA    H15S 6305   7.053   0.982   4.724
    1PA    C114 6306   6.956   0.811   4.648
    1PA    H14R 6307   6.880   0.863   4.590
    1PA    H14S 6308   6.990   0.725   4.591
    1PA    C113 6309   6.913   0.770   4.790
    1PA    H13R 6310   6.856   0.677   4.782
    1PA    H13S 6311   6.999   0.747   4.852
    1PA    C112 6312   6.827   0.878   4.857
    1PA    H12R 6313   6.879   0.973   4.868
    1PA    H12S 6314   6.740   0.889   4.792
    1PA    C111 6315   6.782   0.836   4.998
    1PA    H11R 6316   6.858   0.810   5.073
    1PA    H11S 6317   6.721   0.917   5.037
    1PA    C110 6318   6.698   0.708   4.996
    1PA    H10R 6319   6.618   0.711   4.921
    1PA    H10S 6320   6.760   0.623   4.967
    1PA     C19 6321   6.637   0.672   5.133
    1PA     H9R 6322   6.708   0.659   5.215
    1PA     H9S 6323   6.566   0.752   5.153
    1PA     C18 6324   6.566   0.537   5.115
    1PA     H8R 6325   6.507   0.529   5.024
    1PA     H8S 6326   6.640   0.456   5.113
    1PA     C17 6327   6.470   0.501   5.229
    1PA     H7R 6328   6.414   0.591   5.253
    1PA     H7S 6329   6.403   0.420   5.198
    1PA     C16 6330   6.544   0.465   5.359
    1PA     H6R 6331   6.617   0.387   5.340
    1PA     H6S 6332   6.610   0.549   5.383
    1PA     C15 6333   6.446   0.443   5.475
    1PA     H5R 6334   6.366   0.513   5.498
    1PA     H5S 6335   6.392   0.354   5.442
    1PA     C14 6336   6.519   0.416   5.608
    1PA     H4R 6337   6.452   0.366   5.679
    1PA     H4S 6338   6.602   0.347   5.593
    1PA     C13 6339   6.589   0.536   5.674
    1PA     H3R 6340   6.650   0.493   5.753
    1PA     H3S 6341   6.657   0.584   5.603
    1PA     C12 6342   6.495   0.643   5.730
    1PA     H2R 6343   6.554   0.712   5.791
    1PA     H2S 6344   6.433   0.693   5.654
    2PC     C11 6345   6.400   0.584   5.831
    2PC     O12 6346   6.428   0.590   5.948
    2PC     O11 6347   6.286   0.533   5.780
    2PC      C1 6348   6.183   0.479   5.864
    2PC      HR 6349   6.116   0.410   5.811
    2PC      HS 6350   6.228   0.422   5.946
    2PC      C2 6351   6.106   0.595   5.930
    2PC      HX 6352   6.169   0.635   6.010
    2PC      C3 6353   5.977   0.542   5.993
    2PC      HA 6354   5.901   0.499   5.925
    2PC      HB 6355   6.008   0.467   6.066
    2PC     O31 6356   5.906   0.644   6.066
    2PC     P31 6357   5.777   0.617   6.156
    2PC     O32 6358   5.836   0.500   6.248
    2PC     C31 6359   5.809   0.361   6.219
    2PC     H1A 6360   5.701   0.350   6.233
    2PC     H1B 6361   5.821   0.353   6.110
    2PC     C32 6362   5.895   0.254   6.287
    2PC     H2A 6363   5.869   0.161   6.236
    2PC     H2B 6364   6.002   0.277   6.288
    2PC     N31 6365   5.872   0.240   6.434
    2PC     C33 6366   5.943   0.120   6.489
    2PC     H3A 6367   5.921   0.028   6.434
    2PC     H3B 6368   6.047   0.142   6.465
    2PC     H3C 6369   5.937   0.112   6.598
    2PC     C34 6370   5.920   0.359   6.511
    2PC     H4A 6371   5.895   0.443   6.445
    2PC     H4B 6372   5.868   0.356   6.607
    2PC     H4C 6373   6.027   0.344   6.502
    2PC     C35 6374   5.726   0.223   6.467
    2PC     H5A 6375   5.708   0.222   6.574
    2PC     H5B 6376   5.700   0.123   6.433
    2PC     H5C 6377   5.661   0.293   6.414
    2PC     O33 6378   5.732   0.737   6.231
    2PC     O34 6379   5.665   0.569   6.071
    2PC     O21 6380   6.084   0.695   5.829
    2PC     C21 6381   6.011   0.662   5.721
    2PC     O22 6382   5.946   0.560   5.715
    3OL     C12 6383   6.007   0.771   5.617
    3OL     H2R 6384   6.026   0.864   5.671
    3OL     H2S 6385   5.904   0.785   5.584
    3OL     C13 6386   6.100   0.748   5.496
    3OL     H3R 6387   6.065   0.659   5.444
    3OL     H3S 6388   6.198   0.728   5.540
    3OL     C14 6389   6.094   0.870   5.403
    3OL     H4R 6390   6.132   0.954   5.460
    3OL     H4S 6391   5.997   0.894   5.358
    3OL     C15 6392   6.195   0.839   5.291
    3OL     H5R 6393   6.157   0.754   5.234
    3OL     H5S 6394   6.295   0.812   5.325
    3OL     C16 6395   6.215   0.957   5.196
    3OL     H6R 6396   6.278   1.031   5.247
    3OL     H6S 6397   6.121   0.997   5.157
    3OL     C17 6398   6.299   0.907   5.078
    3OL     H7R 6399   6.365   0.826   5.112
    3OL     H7S 6400   6.360   0.983   5.029
    3OL     C18 6401   6.218   0.849   4.960
    3OL     H8R 6402   6.153   0.773   5.004
    3OL     H8S 6403   6.273   0.794   4.884
    3OL     C19 6404   6.127   0.945   4.888
    3OL     H9R 6405   6.114   1.036   4.946
    3OL    C110 6406   6.082   0.934   4.764
    3OL    H10R 6407   6.019   1.012   4.724
    3OL    C111 6408   6.098   0.811   4.677
    3OL    H11R 6409   6.187   0.755   4.704
    3OL    H11S 6410   6.115   0.839   4.573
    3OL    C112 6411   5.974   0.721   4.666
    3OL    H12R 6412   5.884   0.780   4.647
    3OL    H12S 6413   5.969   0.677   4.765
    3OL    C113 6414   5.981   0.606   4.564
    3OL    H13R 6415   5.891   0.545   4.572
    3OL    H13S 6416   6.061   0.540   4.598
    3OL    C114 6417   5.996   0.650   4.417
    3OL    H14R 6418   6.000   0.557   4.360
    3OL    H14S 6419   6.088   0.710   4.418
    3OL    C115 6420   5.885   0.746   4.373
    3OL    H15R 6421   5.894   0.835   4.436
    3OL    H15S 6422   5.787   0.699   4.385
    3OL    C116 6423   5.920   0.783   4.228
    3OL    H16R 6424   5.901   0.687   4.178
    3OL    H16S 6425   6.025   0.810   4.215
    3OL    C117 6426   5.819   0.886   4.177
    3OL    H17R 6427   5.825   0.976   4.239
    3OL    H17S 6428   5.717   0.847   4.181
    3OL    C118 6429   5.855   0.932   4.035
    3OL    H18R 6430   5.842   0.836   3.984
    3OL    H18S 6431   5.958   0.967   4.046
    3OL    H18T 6432   5.786   1.005   3.993
    1PA    C116 6433   2.762  -0.135   4.038
    1PA    H16R 6434   2.694  -0.145   4.122
    1PA    H16S 6435   2.738  -0.209   3.962
    1PA    H16T 6436   2.744  -0.035   3.996
    1PA    C115 6437   2.907  -0.160   4.081
    1PA    H15R 6438   2.912  -0.236   4.159
    1PA    H15S 6439   2.960  -0.191   3.990
    1PA    C114 6440   2.963  -0.031   4.143
    1PA    H14R 6441   2.949   0.057   4.079
    1PA    H14S 6442   2.926  -0.011   4.244
    1PA    C113 6443   3.111  -0.064   4.168
    1PA    H13R 6444   3.121  -0.146   4.240
    1PA    H13S 6445   3.156  -0.094   4.073
    1PA    C112 6446   3.178   0.059   4.230
    1PA    H12R 6447   3.279   0.063   4.188
    1PA    H12S 6448   3.131   0.152   4.195
    1PA    C111 6449   3.194   0.049   4.382
    1PA    H11R 6450   3.097   0.035   4.430
    1PA    H11S 6451   3.256  -0.039   4.396
    1PA    C110 6452   3.271   0.172   4.433
    1PA    H10R 6453   3.377   0.163   4.409
    1PA    H10S 6454   3.233   0.263   4.386
    1PA     C19 6455   3.284   0.190   4.585
    1PA     H9R 6456   3.309   0.089   4.616
    1PA     H9S 6457   3.361   0.259   4.620
    1PA     C18 6458   3.163   0.237   4.667
    1PA     H8R 6459   3.138   0.341   4.644
    1PA     H8S 6460   3.074   0.178   4.644
    1PA     C17 6461   3.182   0.242   4.819
    1PA     H7R 6462   3.195   0.138   4.852
    1PA     H7S 6463   3.278   0.288   4.842
    1PA     C16 6464   3.062   0.308   4.889
    1PA     H6R 6465   3.033   0.410   4.861
    1PA     H6S 6466   2.978   0.248   4.853
    1PA     C15 6467   3.073   0.302   5.041
    1PA     H5R 6468   2.974   0.304   5.087
    1PA     H5S 6469   3.128   0.212   5.069
    1PA     C14 6470   3.153   0.415   5.109
    1PA     H4R 6471   3.256   0.385   5.089
    1PA     H4S 6472   3.136   0.510   5.058
    1PA     C13 6473   3.109   0.424   5.256
    1PA     H3R 6474   3.002   0.439   5.248
    1PA     H3S 6475   3.120   0.326   5.304
    1PA     C12 6476   3.192   0.540   5.312
    1PA     H2R 6477   3.298   0.511   5.318
    1PA     H2S 6478   3.197   0.613   5.232
    2PC     C11 6479   3.135   0.599   5.438
    2PC     O12 6480   3.021   0.582   5.479
    2PC     O11 6481   3.231   0.662   5.507
    2PC      C1 6482   3.199   0.748   5.618
    2PC      HR 6483   3.114   0.807   5.582
    2PC      HS 6484   3.167   0.684   5.701
    2PC      C2 6485   3.309   0.850   5.652
    2PC      HX 6486   3.411   0.811   5.647
    2PC      C3 6487   3.286   0.933   5.779
    2PC      HA 6488   3.288   0.861   5.861
    2PC      HB 6489   3.376   0.994   5.795
    2PC     O31 6490   3.168   1.015   5.783
    2PC     P31 6491   3.164   1.144   5.877
    2PC     O32 6492   3.007   1.171   5.895
    2PC     C31 6493   2.940   1.143   6.019
    2PC     H1A 6494   2.964   1.043   6.054
    2PC     H1B 6495   2.970   1.223   6.087
    2PC     C32 6496   2.790   1.158   5.992
    2PC     H2A 6497   2.727   1.171   6.081
    2PC     H2B 6498   2.780   1.245   5.928
    2PC     N31 6499   2.723   1.052   5.910
    2PC     C33 6500   2.580   1.094   5.891
    2PC     H3A 6501   2.531   1.011   5.840
    2PC     H3B 6502   2.549   1.113   5.994
    2PC     H3C 6503   2.572   1.191   5.843
    2PC     C34 6504   2.780   1.047   5.772
    2PC     H4A 6505   2.780   1.150   5.734
    2PC     H4B 6506   2.877   0.998   5.783
    2PC     H4C 6507   2.724   0.984   5.703
    2PC     C35 6508   2.720   0.922   5.985
    2PC     H5A 6509   2.691   0.943   6.088
    2PC     H5B 6510   2.824   0.888   5.977
    2PC     H5C 6511   2.654   0.846   5.943
    2PC     O33 6512   3.223   1.092   6.002
    2PC     O34 6513   3.236   1.267   5.834
    2PC     O21 6514   3.297   0.944   5.544
    2PC     C21 6515   3.391   1.040   5.532
    2PC     O22 6516   3.503   1.042   5.578
    3OL     C12 6517   3.340   1.139   5.431
    3OL     H2R 6518   3.326   1.227   5.494
    3OL     H2S 6519   3.246   1.121   5.378
    3OL     C13 6520   3.449   1.168   5.326
    3OL     H3R 6521   3.461   1.087   5.254
    3OL     H3S 6522   3.543   1.177   5.381
    3OL     C14 6523   3.416   1.293   5.243
    3OL     H4R 6524   3.401   1.371   5.318
    3OL     H4S 6525   3.319   1.274   5.196
    3OL     C15 6526   3.525   1.340   5.146
    3OL     H5R 6527   3.619   1.373   5.192
    3OL     H5S 6528   3.493   1.432   5.097
    3OL     C16 6529   3.542   1.243   5.027
    3OL     H6R 6530   3.501   1.144   5.048
    3OL     H6S 6531   3.645   1.216   5.002
    3OL     C17 6532   3.476   1.299   4.901
    3OL     H7R 6533   3.525   1.392   4.874
    3OL     H7S 6534   3.372   1.321   4.923
    3OL     C18 6535   3.493   1.195   4.788
    3OL     H8R 6536   3.415   1.123   4.810
    3OL     H8S 6537   3.590   1.145   4.788
    3OL     C19 6538   3.458   1.248   4.651
    3OL     H9R 6539   3.412   1.346   4.660
    3OL    C110 6540   3.496   1.196   4.536
    3OL    H10R 6541   3.489   1.259   4.447
    3OL    C111 6542   3.579   1.072   4.512
    3OL    H11R 6543   3.610   1.037   4.610
    3OL    H11S 6544   3.675   1.098   4.465
    3OL    C112 6545   3.497   0.962   4.443
    3OL    H12R 6546   3.410   0.945   4.506
    3OL    H12S 6547   3.561   0.874   4.437
    3OL    C113 6548   3.448   0.999   4.302
    3OL    H13R 6549   3.531   0.973   4.235
    3OL    H13S 6550   3.433   1.107   4.297
    3OL    C114 6551   3.326   0.924   4.247
    3OL    H14R 6552   3.251   0.922   4.326
    3OL    H14S 6553   3.340   0.817   4.230
    3OL    C115 6554   3.263   0.992   4.126
    3OL    H15R 6555   3.264   1.100   4.144
    3OL    H15S 6556   3.162   0.954   4.109
    3OL    C116 6557   3.344   0.966   3.998
    3OL    H16R 6558   3.450   0.987   4.013
    3OL    H16S 6559   3.316   1.037   3.920
    3OL    C117 6560   3.348   0.819   3.955
    3OL    H17R 6561   3.242   0.809   3.934
    3OL    H17S 6562   3.376   0.746   4.032
    3OL    C118 6563   3.444   0.794   3.838
    3OL    H18R 6564   3.546   0.824   3.863
    3OL    H18S 6565   3.414   0.859   3.755
    3OL    H18T 6566   3.440   0.692   3.799
    1PA    C116 6567   4.404   4.157   4.806
    1PA    H16R 6568   4.410   4.166   4.914
    1PA    H16S 6569   4.463   4.069   4.777
    1PA    H16T 6570   4.296   4.143   4.798
    1PA    C115 6571   4.447   4.283   4.729
    1PA    H15R 6572   4.445   4.263   4.622
    1PA    H15S 6573   4.369   4.359   4.736
    1PA    C114 6574   4.582   4.342   4.773
    1PA    H14R 6575   4.658   4.268   4.749
    1PA    H14S 6576   4.609   4.426   4.709
    1PA    C113 6577   4.582   4.374   4.923
    1PA    H13R 6578   4.492   4.431   4.949
    1PA    H13S 6579   4.571   4.283   4.982
    1PA    C112 6580   4.710   4.442   4.973
    1PA    H12R 6581   4.736   4.395   5.069
    1PA    H12S 6582   4.796   4.428   4.907
    1PA    C111 6583   4.691   4.591   5.004
    1PA    H11R 6584   4.596   4.592   5.058
    1PA    H11S 6585   4.781   4.619   5.060
    1PA    C110 6586   4.684   4.684   4.882
    1PA    H10R 6587   4.778   4.698   4.828
    1PA    H10S 6588   4.609   4.649   4.811
    1PA     C19 6589   4.651   4.825   4.936
    1PA     H9R 6590   4.551   4.819   4.980
    1PA     H9S 6591   4.717   4.849   5.019
    1PA     C18 6592   4.645   4.929   4.824
    1PA     H8R 6593   4.735   4.966   4.775
    1PA     H8S 6594   4.592   4.885   4.739
    1PA     C17 6595   4.567   5.053   4.871
    1PA     H7R 6596   4.538   5.111   4.783
    1PA     H7S 6597   4.475   5.020   4.919
    1PA     C16 6598   4.646   5.146   4.965
    1PA     H6R 6599   4.668   5.096   5.059
    1PA     H6S 6600   4.738   5.172   4.913
    1PA     C15 6601   4.564   5.269   5.006
    1PA     H5R 6602   4.534   5.327   4.919
    1PA     H5S 6603   4.477   5.225   5.056
    1PA     C14 6604   4.643   5.354   5.106
    1PA     H4R 6605   4.744   5.369   5.068
    1PA     H4S 6606   4.602   5.455   5.104
    1PA     C13 6607   4.629   5.316   5.254
    1PA     H3R 6608   4.522   5.326   5.273
    1PA     H3S 6609   4.662   5.212   5.253
    1PA     C12 6610   4.718   5.399   5.348
    1PA     H2R 6611   4.819   5.395   5.307
    1PA     H2S 6612   4.699   5.506   5.340
    2PC     C11 6613   4.703   5.355   5.491
    2PC     O12 6614   4.780   5.282   5.549
    2PC     O11 6615   4.596   5.412   5.550
    2PC      C1 6616   4.541   5.342   5.663
    2PC      HR 6617   4.527   5.236   5.640
    2PC      HS 6618   4.611   5.361   5.744
    2PC      C2 6619   4.407   5.402   5.710
    2PC      HX 6620   4.404   5.511   5.707
    2PC      C3 6621   4.370   5.342   5.846
    2PC      HA 6622   4.346   5.236   5.838
    2PC      HB 6623   4.449   5.349   5.921
    2PC     O31 6624   4.255   5.414   5.896
    2PC     P31 6625   4.187   5.354   6.028
    2PC     O32 6626   4.068   5.269   5.961
    2PC     C31 6627   4.084   5.126   5.952
    2PC     H1A 6628   4.176   5.110   5.895
    2PC     H1B 6629   4.087   5.071   6.046
    2PC     C32 6630   3.966   5.073   5.868
    2PC     H2A 6631   3.876   5.071   5.929
    2PC     H2B 6632   3.967   5.141   5.783
    2PC     N31 6633   3.982   4.939   5.804
    2PC     C33 6634   4.038   4.832   5.892
    2PC     H3A 6635   4.133   4.850   5.942
    2PC     H3B 6636   3.958   4.822   5.966
    2PC     H3C 6637   4.041   4.742   5.830
    2PC     C34 6638   3.851   4.898   5.744
    2PC     H4A 6639   3.854   4.795   5.705
    2PC     H4B 6640   3.777   4.913   5.823
    2PC     H4C 6641   3.832   4.963   5.659
    2PC     C35 6642   4.075   4.955   5.688
    2PC     H5A 6643   4.167   5.004   5.721
    2PC     H5B 6644   4.026   5.011   5.607
    2PC     H5C 6645   4.114   4.860   5.650
    2PC     O33 6646   4.272   5.273   6.117
    2PC     O34 6647   4.139   5.453   6.128
    2PC     O21 6648   4.316   5.346   5.614
    2PC     C21 6649   4.196   5.396   5.580
    2PC     O22 6650   4.155   5.502   5.623
    3OL     C12 6651   4.108   5.306   5.497
    3OL     H2R 6652   4.052   5.352   5.415
    3OL     H2S 6653   4.028   5.277   5.566
    3OL     C13 6654   4.186   5.186   5.444
    3OL     H3R 6655   4.228   5.123   5.522
    3OL     H3S 6656   4.269   5.207   5.375
    3OL     C14 6657   4.090   5.103   5.357
    3OL     H4R 6658   4.045   5.166   5.281
    3OL     H4S 6659   4.015   5.050   5.416
    3OL     C15 6660   4.174   5.000   5.281
    3OL     H5R 6661   4.263   5.042   5.234
    3OL     H5S 6662   4.107   4.954   5.209
    3OL     C16 6663   4.214   4.885   5.375
    3OL     H6R 6664   4.127   4.846   5.428
    3OL     H6S 6665   4.283   4.925   5.450
    3OL     C17 6666   4.292   4.780   5.294
    3OL     H7R 6667   4.326   4.706   5.366
    3OL     H7S 6668   4.378   4.826   5.245
    3OL     C18 6669   4.198   4.710   5.194
    3OL     H8R 6670   4.126   4.779   5.149
    3OL     H8S 6671   4.143   4.638   5.255
    3OL     C19 6672   4.282   4.632   5.095
    3OL     H9R 6673   4.340   4.553   5.142
    3OL    C110 6674   4.295   4.651   4.965
    3OL    H10R 6675   4.363   4.585   4.911
    3OL    C111 6676   4.224   4.756   4.883
    3OL    H11R 6677   4.278   4.781   4.792
    3OL    H11S 6678   4.199   4.852   4.929
    3OL    C112 6679   4.090   4.705   4.828
    3OL    H12R 6680   4.027   4.687   4.915
    3OL    H12S 6681   4.105   4.610   4.777
    3OL    C113 6682   4.028   4.806   4.731
    3OL    H13R 6683   4.061   4.903   4.768
    3OL    H13S 6684   3.919   4.798   4.734
    3OL    C114 6685   4.062   4.776   4.584
    3OL    H14R 6686   4.166   4.745   4.571
    3OL    H14S 6687   4.030   4.860   4.522
    3OL    C115 6688   3.983   4.662   4.518
    3OL    H15R 6689   3.875   4.674   4.526
    3OL    H15S 6690   4.006   4.570   4.573
    3OL    C116 6691   4.014   4.648   4.369
    3OL    H16R 6692   4.030   4.746   4.323
    3OL    H16S 6693   3.932   4.600   4.315
    3OL    C117 6694   4.153   4.585   4.352
    3OL    H17R 6695   4.153   4.479   4.380
    3OL    H17S 6696   4.232   4.631   4.411
    3OL    C118 6697   4.192   4.595   4.203
    3OL    H18R 6698   4.282   4.534   4.194
    3OL    H18S 6699   4.214   4.699   4.181
    3OL    H18T 6700   4.123   4.550   4.131
    1PA    C116 6701   2.480   6.819   4.031
    1PA    H16R 6702   2.545   6.822   4.118
    1PA    H16S 6703   2.493   6.906   3.967
    1PA    H16T 6704   2.509   6.739   3.963
    1PA    C115 6705   2.334   6.807   4.078
    1PA    H15R 6706   2.296   6.899   4.122
    1PA    H15S 6707   2.277   6.790   3.986
    1PA    C114 6708   2.320   6.692   4.179
    1PA    H14R 6709   2.374   6.605   4.140
    1PA    H14S 6710   2.356   6.731   4.274
    1PA    C113 6711   2.174   6.653   4.206
    1PA    H13R 6712   2.120   6.743   4.238
    1PA    H13S 6713   2.139   6.633   4.105
    1PA    C112 6714   2.168   6.538   4.307
    1PA    H12R 6715   2.084   6.469   4.299
    1PA    H12S 6716   2.253   6.475   4.281
    1PA    C111 6717   2.170   6.583   4.454
    1PA    H11R 6718   2.251   6.656   4.464
    1PA    H11S 6719   2.086   6.646   4.486
    1PA    C110 6720   2.192   6.473   4.559
    1PA    H10R 6721   2.107   6.405   4.568
    1PA    H10S 6722   2.273   6.406   4.532
    1PA     C19 6723   2.201   6.526   4.703
    1PA     H9R 6724   2.271   6.609   4.708
    1PA     H9S 6725   2.104   6.567   4.733
    1PA     C18 6726   2.261   6.411   4.785
    1PA     H8R 6727   2.211   6.316   4.766
    1PA     H8S 6728   2.365   6.394   4.756
    1PA     C17 6729   2.253   6.443   4.935
    1PA     H7R 6730   2.308   6.535   4.953
    1PA     H7S 6731   2.155   6.474   4.970
    1PA     C16 6732   2.300   6.327   5.024
    1PA     H6R 6733   2.220   6.253   5.026
    1PA     H6S 6734   2.385   6.277   4.975
    1PA     C15 6735   2.316   6.382   5.166
    1PA     H5R 6736   2.384   6.467   5.162
    1PA     H5S 6737   2.220   6.420   5.202
    1PA     C14 6738   2.377   6.275   5.257
    1PA     H4R 6739   2.311   6.191   5.280
    1PA     H4S 6740   2.466   6.230   5.213
    1PA     C13 6741   2.410   6.341   5.392
    1PA     H3R 6742   2.471   6.430   5.381
    1PA     H3S 6743   2.318   6.367   5.445
    1PA     C12 6744   2.497   6.251   5.481
    1PA     H2R 6745   2.453   6.151   5.481
    1PA     H2S 6746   2.599   6.254   5.443
    2PC     C11 6747   2.507   6.295   5.625
    2PC     O12 6748   2.492   6.411   5.658
    2PC     O11 6749   2.516   6.189   5.707
    2PC      C1 6750   2.521   6.196   5.850
    2PC      HR 6751   2.446   6.268   5.884
    2PC      HS 6752   2.484   6.096   5.876
    2PC      C2 6753   2.666   6.205   5.901
    2PC      HX 6754   2.723   6.124   5.856
    2PC      C3 6755   2.672   6.185   6.053
    2PC      HA 6756   2.649   6.081   6.077
    2PC      HB 6757   2.774   6.191   6.093
    2PC     O31 6758   2.588   6.286   6.111
    2PC     P31 6759   2.582   6.294   6.271
    2PC     O32 6760   2.487   6.168   6.302
    2PC     C31 6761   2.365   6.153   6.228
    2PC     H1A 6762   2.296   6.232   6.259
    2PC     H1B 6763   2.388   6.152   6.121
    2PC     C32 6764   2.303   6.020   6.272
    2PC     H2A 6765   2.253   5.966   6.192
    2PC     H2B 6766   2.386   5.956   6.302
    2PC     N31 6767   2.218   6.010   6.395
    2PC     C33 6768   2.207   5.864   6.428
    2PC     H3A 6769   2.135   5.851   6.508
    2PC     H3B 6770   2.171   5.814   6.338
    2PC     H3C 6771   2.306   5.829   6.459
    2PC     C34 6772   2.269   6.093   6.509
    2PC     H4A 6773   2.197   6.080   6.590
    2PC     H4B 6774   2.367   6.047   6.525
    2PC     H4C 6775   2.276   6.198   6.481
    2PC     C35 6776   2.078   6.053   6.363
    2PC     H5A 6777   2.043   5.980   6.290
    2PC     H5B 6778   2.077   6.153   6.319
    2PC     H5C 6779   2.008   6.056   6.447
    2PC     O33 6780   2.709   6.271   6.344
    2PC     O34 6781   2.513   6.412   6.327
    2PC     O21 6782   2.712   6.338   5.872
    2PC     C21 6783   2.819   6.355   5.793
    2PC     O22 6784   2.886   6.267   5.742
    3OL     C12 6785   2.863   6.497   5.765
    3OL     H2R 6786   2.941   6.520   5.837
    3OL     H2S 6787   2.773   6.554   5.791
    3OL     C13 6788   2.907   6.521   5.620
    3OL     H3R 6789   2.987   6.450   5.599
    3OL     H3S 6790   2.947   6.622   5.611
    3OL     C14 6791   2.799   6.490   5.515
    3OL     H4R 6792   2.705   6.545   5.530
    3OL     H4S 6793   2.783   6.382   5.513
    3OL     C15 6794   2.855   6.530   5.378
    3OL     H5R 6795   2.954   6.488   5.362
    3OL     H5S 6796   2.860   6.639   5.382
    3OL     C16 6797   2.763   6.481   5.265
    3OL     H6R 6798   2.657   6.500   5.278
    3OL     H6S 6799   2.773   6.372   5.270
    3OL     C17 6800   2.804   6.528   5.125
    3OL     H7R 6801   2.907   6.504   5.100
    3OL     H7S 6802   2.783   6.635   5.122
    3OL     C18 6803   2.733   6.453   5.011
    3OL     H8R 6804   2.631   6.436   5.045
    3OL     H8S 6805   2.787   6.359   4.998
    3OL     C19 6806   2.730   6.523   4.877
    3OL     H9R 6807   2.657   6.604   4.872
    3OL    C110 6808   2.790   6.485   4.765
    3OL    H10R 6809   2.761   6.539   4.675
    3OL    C111 6810   2.879   6.364   4.754
    3OL    H11R 6811   2.908   6.312   4.846
    3OL    H11S 6812   2.968   6.384   4.694
    3OL    C112 6813   2.801   6.255   4.680
    3OL    H12R 6814   2.766   6.300   4.586
    3OL    H12S 6815   2.715   6.239   4.745
    3OL    C113 6816   2.890   6.134   4.650
    3OL    H13R 6817   2.909   6.079   4.743
    3OL    H13S 6818   2.985   6.172   4.614
    3OL    C114 6819   2.815   6.032   4.563
    3OL    H14R 6820   2.895   5.962   4.536
    3OL    H14S 6821   2.789   6.068   4.463
    3OL    C115 6822   2.702   5.955   4.632
    3OL    H15R 6823   2.611   6.016   4.636
    3OL    H15S 6824   2.732   5.940   4.736
    3OL    C116 6825   2.691   5.819   4.562
    3OL    H16R 6826   2.791   5.791   4.531
    3OL    H16S 6827   2.623   5.822   4.476
    3OL    C117 6828   2.649   5.709   4.661
    3OL    H17R 6829   2.561   5.738   4.718
    3OL    H17S 6830   2.737   5.697   4.724
    3OL    C118 6831   2.625   5.567   4.605
    3OL    H18R 6832   2.713   5.531   4.551
    3OL    H18S 6833   2.536   5.567   4.543
    3OL    H18T 6834   2.608   5.499   4.689
    1PA    C116 6835   2.172   1.970   4.648
    1PA    H16R 6836   2.186   2.078   4.642
    1PA    H16S 6837   2.193   1.929   4.747
    1PA    H16T 6838   2.066   1.946   4.641
    1PA    C115 6839   2.263   1.906   4.542
    1PA    H15R 6840   2.242   1.948   4.443
    1PA    H15S 6841   2.365   1.939   4.559
    1PA    C114 6842   2.267   1.752   4.533
    1PA    H14R 6843   2.178   1.724   4.477
    1PA    H14S 6844   2.359   1.732   4.478
    1PA    C113 6845   2.280   1.677   4.666
    1PA    H13R 6846   2.354   1.732   4.725
    1PA    H13S 6847   2.182   1.685   4.713
    1PA    C112 6848   2.313   1.527   4.655
    1PA    H12R 6849   2.246   1.486   4.580
    1PA    H12S 6850   2.414   1.505   4.621
    1PA    C111 6851   2.285   1.443   4.781
    1PA    H11R 6852   2.359   1.460   4.859
    1PA    H11S 6853   2.191   1.470   4.830
    1PA    C110 6854   2.282   1.294   4.746
    1PA    H10R 6855   2.364   1.281   4.675
    1PA    H10S 6856   2.301   1.238   4.838
    1PA     C19 6857   2.148   1.235   4.701
    1PA     H9R 6858   2.125   1.286   4.608
    1PA     H9S 6859   2.157   1.128   4.679
    1PA     C18 6860   2.036   1.248   4.805
    1PA     H8R 6861   2.005   1.352   4.816
    1PA     H8S 6862   1.947   1.200   4.764
    1PA     C17 6863   2.060   1.172   4.936
    1PA     H7R 6864   2.077   1.066   4.917
    1PA     H7S 6865   2.142   1.219   4.991
    1PA     C16 6866   1.938   1.192   5.027
    1PA     H6R 6867   1.932   1.300   5.045
    1PA     H6S 6868   1.850   1.151   4.976
    1PA     C15 6869   1.954   1.121   5.163
    1PA     H5R 6870   1.991   1.019   5.149
    1PA     H5S 6871   2.022   1.187   5.217
    1PA     C14 6872   1.823   1.135   5.241
    1PA     H4R 6873   1.788   1.238   5.252
    1PA     H4S 6874   1.739   1.086   5.193
    1PA     C13 6875   1.845   1.082   5.384
    1PA     H3R 6876   1.881   0.979   5.379
    1PA     H3S 6877   1.919   1.147   5.432
    1PA     C12 6878   1.714   1.090   5.464
    1PA     H2R 6879   1.688   1.194   5.485
    1PA     H2S 6880   1.627   1.046   5.416
    2PC     C11 6881   1.725   1.022   5.598
    2PC     O12 6882   1.823   1.015   5.669
    2PC     O11 6883   1.603   0.983   5.640
    2PC      C1 6884   1.588   0.951   5.779
    2PC      HR 6885   1.490   0.904   5.785
    2PC      HS 6886   1.658   0.868   5.797
    2PC      C2 6887   1.609   1.071   5.872
    2PC      HX 6888   1.712   1.101   5.851
    2PC      C3 6889   1.605   1.036   6.022
    2PC      HA 6890   1.510   0.991   6.052
    2PC      HB 6891   1.678   0.958   6.045
    2PC     O31 6892   1.619   1.154   6.104
    2PC     P31 6893   1.568   1.147   6.256
    2PC     O32 6894   1.653   1.039   6.339
    2PC     C31 6895   1.600   0.908   6.367
    2PC     H1A 6896   1.496   0.899   6.398
    2PC     H1B 6897   1.605   0.853   6.273
    2PC     C32 6898   1.688   0.857   6.482
    2PC     H2A 6899   1.785   0.858   6.432
    2PC     H2B 6900   1.695   0.939   6.553
    2PC     N31 6901   1.663   0.724   6.546
    2PC     C33 6902   1.734   0.709   6.677
    2PC     H3A 6903   1.838   0.735   6.661
    2PC     H3B 6904   1.697   0.767   6.762
    2PC     H3C 6905   1.735   0.601   6.696
    2PC     C34 6906   1.517   0.692   6.565
    2PC     H4A 6907   1.458   0.730   6.482
    2PC     H4B 6908   1.517   0.583   6.571
    2PC     H4C 6909   1.482   0.741   6.655
    2PC     C35 6910   1.709   0.615   6.454
    2PC     H5A 6911   1.704   0.522   6.512
    2PC     H5B 6912   1.811   0.627   6.415
    2PC     H5C 6913   1.637   0.620   6.372
    2PC     O33 6914   1.586   1.272   6.333
    2PC     O34 6915   1.429   1.097   6.265
    2PC     O21 6916   1.521   1.180   5.841
    2PC     C21 6917   1.389   1.154   5.838
    2PC     O22 6918   1.335   1.053   5.878
    3OL     C12 6919   1.320   1.276   5.782
    3OL     H2R 6920   1.390   1.360   5.786
    3OL     H2S 6921   1.236   1.302   5.847
    3OL     C13 6922   1.276   1.260   5.636
    3OL     H3R 6923   1.189   1.323   5.616
    3OL     H3S 6924   1.258   1.154   5.620
    3OL     C14 6925   1.390   1.308   5.544
    3OL     H4R 6926   1.491   1.277   5.574
    3OL     H4S 6927   1.382   1.416   5.541
    3OL     C15 6928   1.379   1.255   5.401
    3OL     H5R 6929   1.271   1.245   5.388
    3OL     H5S 6930   1.416   1.153   5.392
    3OL     C16 6931   1.451   1.342   5.298
    3OL     H6R 6932   1.556   1.353   5.328
    3OL     H6S 6933   1.405   1.441   5.291
    3OL     C17 6934   1.446   1.268   5.164
    3OL     H7R 6935   1.341   1.267   5.133
    3OL     H7S 6936   1.482   1.165   5.178
    3OL     C18 6937   1.528   1.342   5.057
    3OL     H8R 6938   1.632   1.355   5.088
    3OL     H8S 6939   1.493   1.443   5.038
    3OL     C19 6940   1.530   1.265   4.928
    3OL     H9R 6941   1.481   1.168   4.935
    3OL    C110 6942   1.546   1.315   4.806
    3OL    H10R 6943   1.528   1.248   4.723
    3OL    C111 6944   1.604   1.452   4.778
    3OL    H11R 6945   1.638   1.499   4.871
    3OL    H11S 6946   1.524   1.516   4.742
    3OL    C112 6947   1.716   1.459   4.673
    3OL    H12R 6948   1.682   1.421   4.576
    3OL    H12S 6949   1.800   1.407   4.719
    3OL    C113 6950   1.761   1.603   4.645
    3OL    H13R 6951   1.804   1.648   4.735
    3OL    H13S 6952   1.678   1.661   4.603
    3OL    C114 6953   1.871   1.595   4.539
    3OL    H14R 6954   1.959   1.532   4.556
    3OL    H14S 6955   1.910   1.697   4.530
    3OL    C115 6956   1.820   1.581   4.395
    3OL    H15R 6957   1.875   1.654   4.334
    3OL    H15S 6958   1.712   1.596   4.391
    3OL    C116 6959   1.850   1.442   4.338
    3OL    H16R 6960   1.830   1.353   4.398
    3OL    H16S 6961   1.958   1.435   4.330
    3OL    C117 6962   1.801   1.429   4.193
    3OL    H17R 6963   1.879   1.365   4.150
    3OL    H17S 6964   1.815   1.526   4.144
    3OL    C118 6965   1.663   1.364   4.173
    3OL    H18R 6966   1.654   1.273   4.234
    3OL    H18S 6967   1.649   1.339   4.068
    3OL    H18T 6968   1.583   1.422   4.217
    1PA    C116 6969   4.239   1.939   3.927
    1PA    H16R 6970   4.315   2.012   3.900
    1PA    H16S 6971   4.148   1.948   3.868
    1PA    H16T 6972   4.268   1.838   3.900
    1PA    C115 6973   4.203   1.933   4.076
    1PA    H15R 6974   4.297   1.900   4.122
    1PA    H15S 6975   4.161   2.028   4.107
    1PA    C114 6976   4.102   1.820   4.097
    1PA    H14R 6977   4.009   1.829   4.041
    1PA    H14S 6978   4.148   1.727   4.062
    1PA    C113 6979   4.061   1.814   4.245
    1PA    H13R 6980   4.135   1.772   4.313
    1PA    H13S 6981   4.032   1.917   4.268
    1PA    C112 6982   3.932   1.735   4.270
    1PA    H12R 6983   3.840   1.779   4.230
    1PA    H12S 6984   3.937   1.642   4.213
    1PA    C111 6985   3.914   1.699   4.418
    1PA    H11R 6986   3.829   1.632   4.430
    1PA    H11S 6987   4.003   1.648   4.454
    1PA    C110 6988   3.902   1.824   4.508
    1PA    H10R 6989   3.902   1.796   4.613
    1PA    H10S 6990   3.986   1.892   4.493
    1PA     C19 6991   3.774   1.905   4.488
    1PA     H9R 6992   3.773   1.962   4.395
    1PA     H9S 6993   3.700   1.825   4.475
    1PA     C18 6994   3.747   2.007   4.599
    1PA     H8R 6995   3.841   2.052   4.632
    1PA     H8S 6996   3.684   2.076   4.542
    1PA     C17 6997   3.667   1.949   4.716
    1PA     H7R 6998   3.576   1.911   4.669
    1PA     H7S 6999   3.716   1.864   4.763
    1PA     C16 7000   3.639   2.057   4.822
    1PA     H6R 7001   3.729   2.096   4.870
    1PA     H6S 7002   3.602   2.142   4.765
    1PA     C15 7003   3.538   2.024   4.932
    1PA     H5R 7004   3.522   2.107   5.000
    1PA     H5S 7005   3.437   2.017   4.890
    1PA     C14 7006   3.571   1.897   5.012
    1PA     H4R 7007   3.541   1.812   4.949
    1PA     H4S 7008   3.678   1.889   5.032
    1PA     C13 7009   3.491   1.898   5.143
    1PA     H3R 7010   3.509   1.987   5.203
    1PA     H3S 7011   3.387   1.911   5.111
    1PA     C12 7012   3.514   1.769   5.223
    1PA     H2R 7013   3.496   1.683   5.159
    1PA     H2S 7014   3.618   1.777   5.255
    2PC     C11 7015   3.424   1.765   5.343
    2PC     O12 7016   3.332   1.687   5.359
    2PC     O11 7017   3.452   1.856   5.439
    2PC      C1 7018   3.374   1.859   5.560
    2PC      HR 7019   3.268   1.867   5.535
    2PC      HS 7020   3.402   1.784   5.634
    2PC      C2 7021   3.425   1.991   5.621
    2PC      HX 7022   3.527   1.983   5.658
    2PC      C3 7023   3.333   2.015   5.742
    2PC      HA 7024   3.241   2.060   5.703
    2PC      HB 7025   3.310   1.928   5.803
    2PC     O31 7026   3.399   2.111   5.826
    2PC     P31 7027   3.508   2.070   5.936
    2PC     O32 7028   3.502   2.192   6.040
    2PC     C31 7029   3.616   2.206   6.127
    2PC     H1A 7030   3.635   2.106   6.165
    2PC     H1B 7031   3.705   2.237   6.073
    2PC     C32 7032   3.566   2.304   6.235
    2PC     H2A 7033   3.537   2.398   6.188
    2PC     H2B 7034   3.467   2.272   6.268
    2PC     N31 7035   3.660   2.327   6.349
    2PC     C33 7036   3.592   2.412   6.453
    2PC     H3A 7037   3.500   2.368   6.491
    2PC     H3B 7038   3.662   2.428   6.534
    2PC     H3C 7039   3.567   2.506   6.402
    2PC     C34 7040   3.701   2.194   6.405
    2PC     H4A 7041   3.771   2.145   6.337
    2PC     H4B 7042   3.754   2.205   6.500
    2PC     H4C 7043   3.602   2.152   6.425
    2PC     C35 7044   3.788   2.393   6.308
    2PC     H5A 7045   3.774   2.490   6.259
    2PC     H5B 7046   3.838   2.325   6.239
    2PC     H5C 7047   3.843   2.404   6.401
    2PC     O33 7048   3.492   1.939   6.003
    2PC     O34 7049   3.641   2.060   5.874
    2PC     O21 7050   3.393   2.093   5.525
    2PC     C21 7051   3.493   2.144   5.451
    2PC     O22 7052   3.612   2.127   5.468
    3OL     C12 7053   3.443   2.233   5.340
    3OL     H2R 7054   3.370   2.179   5.280
    3OL     H2S 7055   3.524   2.261   5.274
    3OL     C13 7056   3.363   2.349   5.400
    3OL     H3R 7057   3.413   2.396   5.485
    3OL     H3S 7058   3.268   2.310   5.436
    3OL     C14 7059   3.335   2.466   5.305
    3OL     H4R 7060   3.282   2.425   5.219
    3OL     H4S 7061   3.427   2.517   5.276
    3OL     C15 7062   3.239   2.566   5.372
    3OL     H5R 7063   3.287   2.602   5.463
    3OL     H5S 7064   3.148   2.516   5.405
    3OL     C16 7065   3.188   2.680   5.283
    3OL     H6R 7066   3.116   2.730   5.347
    3OL     H6S 7067   3.133   2.640   5.197
    3OL     C17 7068   3.298   2.778   5.239
    3OL     H7R 7069   3.370   2.717   5.183
    3OL     H7S 7070   3.355   2.824   5.320
    3OL     C18 7071   3.248   2.891   5.147
    3OL     H8R 7072   3.162   2.932   5.199
    3OL     H8S 7073   3.219   2.847   5.052
    3OL     C19 7074   3.357   2.995   5.142
    3OL     H9R 7075   3.385   3.031   5.241
    3OL    C110 7076   3.417   3.041   5.034
    3OL    H10R 7077   3.491   3.119   5.052
    3OL    C111 7078   3.387   2.982   4.898
    3OL    H11R 7079   3.287   3.006   4.860
    3OL    H11S 7080   3.397   2.874   4.899
    3OL    C112 7081   3.495   3.025   4.798
    3OL    H12R 7082   3.593   2.991   4.833
    3OL    H12S 7083   3.484   3.133   4.781
    3OL    C113 7084   3.470   2.970   4.657
    3OL    H13R 7085   3.373   2.997   4.617
    3OL    H13S 7086   3.468   2.861   4.665
    3OL    C114 7087   3.580   3.017   4.561
    3OL    H14R 7088   3.668   2.978   4.612
    3OL    H14S 7089   3.589   3.126   4.556
    3OL    C115 7090   3.573   2.953   4.422
    3OL    H15R 7091   3.475   2.951   4.372
    3OL    H15S 7092   3.609   2.850   4.425
    3OL    C116 7093   3.670   3.032   4.332
    3OL    H16R 7094   3.773   3.033   4.366
    3OL    H16S 7095   3.634   3.135   4.338
    3OL    C117 7096   3.675   2.993   4.183
    3OL    H17R 7097   3.577   2.986   4.136
    3OL    H17S 7098   3.717   2.892   4.177
    3OL    C118 7099   3.760   3.085   4.095
    3OL    H18R 7100   3.711   3.183   4.095
    3OL    H18S 7101   3.759   3.041   3.995
    3OL    H18T 7102   3.857   3.106   4.140
    1PA    C116 7103   3.023   1.307   4.526
    1PA    H16R 7104   3.055   1.365   4.613
    1PA    H16S 7105   2.932   1.250   4.544
    1PA    H16T 7106   2.998   1.382   4.451
    1PA    C115 7107   3.126   1.211   4.465
    1PA    H15R 7108   3.086   1.160   4.377
    1PA    H15S 7109   3.215   1.259   4.426
    1PA    C114 7110   3.159   1.101   4.567
    1PA    H14R 7111   3.249   1.046   4.538
    1PA    H14S 7112   3.180   1.140   4.667
    1PA    C113 7113   3.046   1.000   4.588
    1PA    H13R 7114   3.079   0.950   4.679
    1PA    H13S 7115   2.951   1.051   4.606
    1PA    C112 7116   3.020   0.899   4.476
    1PA    H12R 7117   2.999   0.951   4.382
    1PA    H12S 7118   3.114   0.846   4.461
    1PA    C111 7119   2.905   0.801   4.500
    1PA    H11R 7120   2.807   0.847   4.520
    1PA    H11S 7121   2.877   0.735   4.417
    1PA    C110 7122   2.929   0.712   4.622
    1PA    H10R 7123   2.902   0.608   4.602
    1PA    H10S 7124   3.035   0.716   4.645
    1PA     C19 7125   2.834   0.747   4.738
    1PA     H9R 7126   2.843   0.849   4.775
    1PA     H9S 7127   2.732   0.730   4.702
    1PA     C18 7128   2.858   0.656   4.859
    1PA     H8R 7129   2.826   0.555   4.831
    1PA     H8S 7130   2.965   0.647   4.877
    1PA     C17 7131   2.772   0.693   4.980
    1PA     H7R 7132   2.797   0.796   5.008
    1PA     H7S 7133   2.665   0.685   4.962
    1PA     C16 7134   2.798   0.601   5.100
    1PA     H6R 7135   2.798   0.501   5.056
    1PA     H6S 7136   2.900   0.610   5.138
    1PA     C15 7137   2.689   0.615   5.207
    1PA     H5R 7138   2.689   0.714   5.253
    1PA     H5S 7139   2.587   0.599   5.172
    1PA     C14 7140   2.702   0.521   5.327
    1PA     H4R 7141   2.679   0.417   5.300
    1PA     H4S 7142   2.806   0.527   5.361
    1PA     C13 7143   2.601   0.549   5.439
    1PA     H3R 7144   2.624   0.646   5.482
    1PA     H3S 7145   2.500   0.563   5.400
    1PA     C12 7146   2.601   0.444   5.551
    1PA     H2R 7147   2.573   0.347   5.508
    1PA     H2S 7148   2.697   0.434   5.601
    2PC     C11 7149   2.497   0.467   5.658
    2PC     O12 7150   2.480   0.397   5.755
    2PC     O11 7151   2.413   0.567   5.629
    2PC      C1 7152   2.319   0.621   5.724
    2PC      HR 7153   2.227   0.650   5.674
    2PC      HS 7154   2.303   0.539   5.795
    2PC      C2 7155   2.388   0.737   5.797
    2PC      HX 7156   2.492   0.716   5.823
    2PC      C3 7157   2.329   0.783   5.932
    2PC      HA 7158   2.242   0.847   5.914
    2PC      HB 7159   2.292   0.697   5.988
    2PC     O31 7160   2.417   0.860   6.016
    2PC     P31 7161   2.373   0.914   6.160
    2PC     O32 7162   2.284   1.038   6.112
    2PC     C31 7163   2.254   1.134   6.215
    2PC     H1A 7164   2.222   1.086   6.308
    2PC     H1B 7165   2.346   1.191   6.230
    2PC     C32 7166   2.144   1.231   6.169
    2PC     H2A 7167   2.123   1.310   6.241
    2PC     H2B 7168   2.167   1.280   6.075
    2PC     N31 7169   2.010   1.169   6.142
    2PC     C33 7170   2.011   1.095   6.011
    2PC     H3A 7171   1.910   1.066   5.982
    2PC     H3B 7172   2.054   1.158   5.934
    2PC     H3C 7173   2.072   1.009   6.039
    2PC     C34 7174   1.957   1.091   6.258
    2PC     H4A 7175   1.866   1.035   6.232
    2PC     H4B 7176   2.027   1.008   6.275
    2PC     H4C 7177   1.943   1.155   6.345
    2PC     C35 7178   1.920   1.287   6.120
    2PC     H5A 7179   1.905   1.335   6.217
    2PC     H5B 7180   1.828   1.260   6.068
    2PC     H5C 7181   1.969   1.360   6.055
    2PC     O33 7182   2.298   0.808   6.231
    2PC     O34 7183   2.494   0.945   6.240
    2PC     O21 7184   2.399   0.851   5.710
    2PC     C21 7185   2.507   0.866   5.632
    2PC     O22 7186   2.611   0.806   5.649
    3OL     C12 7187   2.501   0.979   5.533
    3OL     H2R 7188   2.598   0.987   5.483
    3OL     H2S 7189   2.489   1.074   5.585
    3OL     C13 7190   2.390   0.950   5.431
    3OL     H3R 7191   2.300   0.972   5.490
    3OL     H3S 7192   2.388   0.845   5.401
    3OL     C14 7193   2.394   1.052   5.317
    3OL     H4R 7194   2.400   1.157   5.343
    3OL     H4S 7195   2.297   1.037   5.270
    3OL     C15 7196   2.513   1.008   5.229
    3OL     H5R 7197   2.493   0.915   5.176
    3OL     H5S 7198   2.605   0.997   5.286
    3OL     C16 7199   2.542   1.099   5.109
    3OL     H6R 7200   2.543   1.206   5.130
    3OL     H6S 7201   2.460   1.091   5.037
    3OL     C17 7202   2.675   1.066   5.041
    3OL     H7R 7203   2.669   0.966   4.998
    3OL     H7S 7204   2.745   1.069   5.125
    3OL     C18 7205   2.713   1.166   4.930
    3OL     H8R 7206   2.728   1.263   4.977
    3OL     H8S 7207   2.629   1.165   4.861
    3OL     C19 7208   2.841   1.130   4.859
    3OL     H9R 7209   2.836   1.038   4.800
    3OL    C110 7210   2.955   1.197   4.864
    3OL    H10R 7211   3.035   1.162   4.799
    3OL    C111 7212   2.977   1.321   4.947
    3OL    H11R 7213   2.939   1.307   5.048
    3OL    H11S 7214   2.921   1.398   4.893
    3OL    C112 7215   3.127   1.347   4.968
    3OL    H12R 7216   3.167   1.365   4.868
    3OL    H12S 7217   3.175   1.261   5.013
    3OL    C113 7218   3.142   1.474   5.053
    3OL    H13R 7219   3.239   1.473   5.104
    3OL    H13S 7220   3.057   1.473   5.121
    3OL    C114 7221   3.146   1.602   4.969
    3OL    H14R 7222   3.142   1.684   5.042
    3OL    H14S 7223   3.051   1.604   4.914
    3OL    C115 7224   3.260   1.624   4.869
    3OL    H15R 7225   3.257   1.550   4.788
    3OL    H15S 7226   3.354   1.611   4.924
    3OL    C116 7227   3.268   1.761   4.802
    3OL    H16R 7228   3.369   1.773   4.762
    3OL    H16S 7229   3.265   1.839   4.879
    3OL    C117 7230   3.162   1.782   4.693
    3OL    H17R 7231   3.065   1.801   4.739
    3OL    H17S 7232   3.157   1.695   4.627
    3OL    C118 7233   3.196   1.907   4.611
    3OL    H18R 7234   3.186   1.993   4.678
    3OL    H18S 7235   3.128   1.915   4.526
    3OL    H18T 7236   3.303   1.906   4.587
    1PA    C116 7237   3.195   2.598   3.988
    1PA    H16R 7238   3.234   2.639   3.895
    1PA    H16S 7239   3.184   2.490   3.972
    1PA    H16T 7240   3.272   2.618   4.063
    1PA    C115 7241   3.064   2.670   4.022
    1PA    H15R 7242   3.077   2.778   4.015
    1PA    H15S 7243   2.979   2.645   3.957
    1PA    C114 7244   3.019   2.630   4.163
    1PA    H14R 7245   3.021   2.521   4.173
    1PA    H14S 7246   3.094   2.677   4.228
    1PA    C113 7247   2.886   2.701   4.191
    1PA    H13R 7248   2.898   2.809   4.201
    1PA    H13S 7249   2.818   2.682   4.107
    1PA    C112 7250   2.805   2.660   4.315
    1PA    H12R 7251   2.874   2.673   4.399
    1PA    H12S 7252   2.715   2.719   4.335
    1PA    C111 7253   2.761   2.514   4.314
    1PA    H11R 7254   2.710   2.481   4.223
    1PA    H11S 7255   2.852   2.456   4.330
    1PA    C110 7256   2.664   2.487   4.430
    1PA    H10R 7257   2.566   2.530   4.412
    1PA    H10S 7258   2.647   2.379   4.424
    1PA     C19 7259   2.708   2.535   4.569
    1PA     H9R 7260   2.803   2.484   4.585
    1PA     H9S 7261   2.728   2.642   4.568
    1PA     C18 7262   2.614   2.493   4.683
    1PA     H8R 7263   2.534   2.568   4.684
    1PA     H8S 7264   2.573   2.395   4.660
    1PA     C17 7265   2.695   2.479   4.813
    1PA     H7R 7266   2.773   2.403   4.818
    1PA     H7S 7267   2.761   2.567   4.812
    1PA     C16 7268   2.608   2.493   4.938
    1PA     H6R 7269   2.537   2.577   4.934
    1PA     H6S 7270   2.549   2.401   4.945
    1PA     C15 7271   2.681   2.521   5.070
    1PA     H5R 7272   2.731   2.616   5.046
    1PA     H5S 7273   2.605   2.527   5.147
    1PA     C14 7274   2.789   2.417   5.101
    1PA     H4R 7275   2.751   2.315   5.097
    1PA     H4S 7276   2.874   2.422   5.032
    1PA     C13 7277   2.855   2.443   5.238
    1PA     H3R 7278   2.946   2.382   5.240
    1PA     H3S 7279   2.884   2.547   5.250
    1PA     C12 7280   2.760   2.402   5.351
    1PA     H2R 7281   2.669   2.461   5.340
    1PA     H2S 7282   2.725   2.298   5.347
    2PC     C11 7283   2.821   2.428   5.487
    2PC     O12 7284   2.760   2.471   5.582
    2PC     O11 7285   2.954   2.411   5.492
    2PC      C1 7286   3.028   2.405   5.616
    2PC      HR 7287   3.133   2.433   5.606
    2PC      HS 7288   2.986   2.480   5.684
    2PC      C2 7289   3.003   2.270   5.684
    2PC      HX 7290   2.896   2.252   5.700
    2PC      C3 7291   3.073   2.252   5.819
    2PC      HA 7292   3.178   2.224   5.832
    2PC      HB 7293   3.045   2.344   5.871
    2PC     O31 7294   2.992   2.147   5.875
    2PC     P31 7295   2.979   2.136   6.035
    2PC     O32 7296   3.086   2.026   6.079
    2PC     C31 7297   3.052   1.886   6.065
    2PC     H1A 7298   2.973   1.875   6.139
    2PC     H1B 7299   3.019   1.860   5.964
    2PC     C32 7300   3.180   1.808   6.096
    2PC     H2A 7301   3.158   1.704   6.074
    2PC     H2B 7302   3.270   1.838   6.042
    2PC     N31 7303   3.226   1.804   6.239
    2PC     C33 7304   3.341   1.708   6.248
    2PC     H3A 7305   3.310   1.604   6.235
    2PC     H3B 7306   3.410   1.731   6.167
    2PC     H3C 7307   3.387   1.709   6.347
    2PC     C34 7308   3.269   1.944   6.269
    2PC     H4A 7309   3.312   1.931   6.368
    2PC     H4B 7310   3.345   1.968   6.195
    2PC     H4C 7311   3.182   2.010   6.277
    2PC     C35 7312   3.117   1.760   6.332
    2PC     H5A 7313   3.142   1.810   6.426
    2PC     H5B 7314   3.115   1.651   6.344
    2PC     H5C 7315   3.019   1.797   6.302
    2PC     O33 7316   3.003   2.263   6.107
    2PC     O34 7317   2.846   2.091   6.079
    2PC     O21 7318   3.053   2.169   5.595
    2PC     C21 7319   2.980   2.131   5.489
    2PC     O22 7320   2.859   2.134   5.483
    3OL     C12 7321   3.061   2.049   5.392
    3OL     H2R 7322   3.069   1.945   5.424
    3OL     H2S 7323   3.161   2.089   5.377
    3OL     C13 7324   2.991   2.039   5.256
    3OL     H3R 7325   2.989   2.140   5.213
    3OL     H3S 7326   2.887   2.006   5.261
    3OL     C14 7327   3.057   1.929   5.172
    3OL     H4R 7328   3.043   1.830   5.217
    3OL     H4S 7329   3.163   1.952   5.163
    3OL     C15 7330   3.015   1.925   5.024
    3OL     H5R 7331   2.911   1.890   5.030
    3OL     H5S 7332   3.070   1.852   4.964
    3OL     C16 7333   3.009   2.060   4.953
    3OL     H6R 7334   2.929   2.112   5.006
    3OL     H6S 7335   2.966   2.050   4.853
    3OL     C17 7336   3.139   2.142   4.953
    3OL     H7R 7337   3.210   2.086   4.893
    3OL     H7S 7338   3.173   2.157   5.056
    3OL     C18 7339   3.106   2.276   4.885
    3OL     H8R 7340   3.021   2.309   4.945
    3OL     H8S 7341   3.078   2.261   4.781
    3OL     C19 7342   3.221   2.372   4.895
    3OL     H9R 7343   3.302   2.343   4.961
    3OL    C110 7344   3.231   2.488   4.832
    3OL    H10R 7345   3.313   2.552   4.864
    3OL    C111 7346   3.127   2.552   4.745
    3OL    H11R 7347   3.106   2.647   4.795
    3OL    H11S 7348   3.029   2.505   4.755
    3OL    C112 7349   3.163   2.574   4.597
    3OL    H12R 7350   3.098   2.638   4.537
    3OL    H12S 7351   3.163   2.477   4.548
    3OL    C113 7352   3.304   2.636   4.589
    3OL    H13R 7353   3.370   2.581   4.656
    3OL    H13S 7354   3.290   2.741   4.617
    3OL    C114 7355   3.351   2.634   4.443
    3OL    H14R 7356   3.403   2.727   4.420
    3OL    H14S 7357   3.261   2.629   4.382
    3OL    C115 7358   3.440   2.510   4.426
    3OL    H15R 7359   3.370   2.429   4.450
    3OL    H15S 7360   3.526   2.514   4.492
    3OL    C116 7361   3.489   2.499   4.281
    3OL    H16R 7362   3.402   2.473   4.220
    3OL    H16S 7363   3.556   2.413   4.274
    3OL    C117 7364   3.558   2.626   4.230
    3OL    H17R 7365   3.636   2.668   4.294
    3OL    H17S 7366   3.489   2.708   4.209
    3OL    C118 7367   3.634   2.606   4.098
    3OL    H18R 7368   3.688   2.511   4.093
    3OL    H18S 7369   3.706   2.687   4.085
    3OL    H18T 7370   3.560   2.610   4.018
    1PA    C116 7371   5.605   6.428   4.535
    1PA    H16R 7372   5.682   6.407   4.460
    1PA    H16S 7373   5.590   6.334   4.588
    1PA    H16T 7374   5.639   6.511   4.597
    1PA    C115 7375   5.471   6.471   4.474
    1PA    H15R 7376   5.420   6.387   4.427
    1PA    H15S 7377   5.395   6.493   4.549
    1PA    C114 7378   5.482   6.597   4.387
    1PA    H14R 7379   5.527   6.681   4.440
    1PA    H14S 7380   5.556   6.586   4.307
    1PA    C113 7381   5.348   6.626   4.318
    1PA    H13R 7382   5.384   6.700   4.246
    1PA    H13S 7383   5.299   6.543   4.268
    1PA    C112 7384   5.236   6.680   4.408
    1PA    H12R 7385   5.223   6.615   4.495
    1PA    H12S 7386   5.264   6.781   4.438
    1PA    C111 7387   5.103   6.679   4.331
    1PA    H11R 7388   5.100   6.762   4.261
    1PA    H11S 7389   5.093   6.584   4.277
    1PA    C110 7390   4.986   6.681   4.430
    1PA    H10R 7391   5.006   6.611   4.512
    1PA    H10S 7392   4.980   6.783   4.468
    1PA     C19 7393   4.856   6.645   4.358
    1PA     H9R 7394   4.838   6.717   4.277
    1PA     H9S 7395   4.864   6.544   4.318
    1PA     C18 7396   4.734   6.648   4.451
    1PA     H8R 7397   4.726   6.753   4.476
    1PA     H8S 7398   4.643   6.614   4.399
    1PA     C17 7399   4.758   6.573   4.583
    1PA     H7R 7400   4.802   6.480   4.548
    1PA     H7S 7401   4.839   6.621   4.637
    1PA     C16 7402   4.629   6.555   4.664
    1PA     H6R 7403   4.587   6.655   4.679
    1PA     H6S 7404   4.545   6.502   4.618
    1PA     C15 7405   4.655   6.475   4.792
    1PA     H5R 7406   4.559   6.441   4.833
    1PA     H5S 7407   4.714   6.385   4.775
    1PA     C14 7408   4.722   6.563   4.898
    1PA     H4R 7409   4.810   6.612   4.856
    1PA     H4S 7410   4.646   6.640   4.913
    1PA     C13 7411   4.750   6.487   5.029
    1PA     H3R 7412   4.656   6.466   5.081
    1PA     H3S 7413   4.790   6.388   5.006
    1PA     C12 7414   4.850   6.559   5.121
    1PA     H2R 7415   4.949   6.558   5.076
    1PA     H2S 7416   4.808   6.658   5.140
    2PC     C11 7417   4.853   6.487   5.254
    2PC     O12 7418   4.874   6.546   5.358
    2PC     O11 7419   4.862   6.353   5.242
    2PC      C1 7420   4.862   6.268   5.358
    2PC      HR 7421   4.906   6.172   5.330
    2PC      HS 7422   4.920   6.313   5.439
    2PC      C2 7423   4.717   6.254   5.406
    2PC      HX 7424   4.665   6.349   5.422
    2PC      C3 7425   4.705   6.182   5.541
    2PC      HA 7426   4.710   6.072   5.540
    2PC      HB 7427   4.775   6.220   5.616
    2PC     O31 7428   4.580   6.216   5.605
    2PC     P31 7429   4.538   6.346   5.687
    2PC     O32 7430   4.379   6.327   5.685
    2PC     C31 7431   4.312   6.291   5.807
    2PC     H1A 7432   4.364   6.207   5.855
    2PC     H1B 7433   4.329   6.378   5.870
    2PC     C32 7434   4.165   6.271   5.769
    2PC     H2A 7435   4.107   6.257   5.860
    2PC     H2B 7436   4.126   6.361   5.721
    2PC     N31 7437   4.127   6.163   5.671
    2PC     C33 7438   4.155   6.200   5.529
    2PC     H3A 7439   4.134   6.117   5.460
    2PC     H3B 7440   4.098   6.292   5.516
    2PC     H3C 7441   4.262   6.220   5.523
    2PC     C34 7442   4.212   6.044   5.701
    2PC     H4A 7443   4.317   6.071   5.710
    2PC     H4B 7444   4.177   5.995   5.793
    2PC     H4C 7445   4.202   5.980   5.613
    2PC     C35 7446   3.985   6.118   5.685
    2PC     H5A 7447   3.970   6.032   5.620
    2PC     H5B 7448   3.918   6.200   5.656
    2PC     H5C 7449   3.969   6.096   5.790
    2PC     O33 7450   4.603   6.347   5.820
    2PC     O34 7451   4.594   6.463   5.615
    2PC     O21 7452   4.651   6.157   5.322
    2PC     C21 7453   4.544   6.191   5.248
    2PC     O22 7454   4.508   6.305   5.226
    3OL     C12 7455   4.475   6.068   5.194
    3OL     H2R 7456   4.426   6.020   5.279
    3OL     H2S 7457   4.545   5.995   5.154
    3OL     C13 7458   4.380   6.090   5.075
    3OL     H3R 7459   4.304   6.162   5.106
    3OL     H3S 7460   4.338   5.992   5.050
    3OL     C14 7461   4.464   6.123   4.951
    3OL     H4R 7462   4.542   6.048   4.937
    3OL     H4S 7463   4.507   6.221   4.971
    3OL     C15 7464   4.370   6.124   4.829
    3OL     H5R 7465   4.295   6.198   4.856
    3OL     H5S 7466   4.334   6.021   4.834
    3OL     C16 7467   4.447   6.158   4.700
    3OL     H6R 7468   4.537   6.097   4.694
    3OL     H6S 7469   4.480   6.262   4.709
    3OL     C17 7470   4.366   6.134   4.572
    3OL     H7R 7471   4.269   6.184   4.565
    3OL     H7S 7472   4.341   6.029   4.584
    3OL     C18 7473   4.443   6.159   4.441
    3OL     H8R 7474   4.474   6.262   4.425
    3OL     H8S 7475   4.371   6.136   4.362
    3OL     C19 7476   4.573   6.085   4.424
    3OL     H9R 7477   4.661   6.114   4.480
    3OL    C110 7478   4.590   5.978   4.348
    3OL    H10R 7479   4.679   5.917   4.357
    3OL    C111 7480   4.485   5.921   4.255
    3OL    H11R 7481   4.397   5.985   4.251
    3OL    H11S 7482   4.452   5.819   4.278
    3OL    C112 7483   4.541   5.909   4.112
    3OL    H12R 7484   4.624   5.838   4.122
    3OL    H12S 7485   4.576   6.007   4.080
    3OL    C113 7486   4.431   5.873   4.012
    3OL    H13R 7487   4.385   5.781   4.047
    3OL    H13S 7488   4.489   5.843   3.924
    3OL    C114 7489   4.315   5.971   3.988
    3OL    H14R 7490   4.252   5.979   4.077
    3OL    H14S 7491   4.252   5.932   3.908
    3OL    C115 7492   4.353   6.115   3.951
    3OL    H15R 7493   4.408   6.162   4.033
    3OL    H15S 7494   4.263   6.173   3.930
    3OL    C116 7495   4.439   6.129   3.825
    3OL    H16R 7496   4.383   6.090   3.740
    3OL    H16S 7497   4.528   6.066   3.827
    3OL    C117 7498   4.472   6.272   3.779
    3OL    H17R 7499   4.389   6.342   3.794
    3OL    H17S 7500   4.497   6.271   3.673
    3OL    C118 7501   4.602   6.311   3.850
    3OL    H18R 7502   4.588   6.322   3.958
    3OL    H18S 7503   4.627   6.410   3.812
    3OL    H18T 7504   4.686   6.244   3.829
    1PA    C116 7505   5.720   2.533   5.314
    1PA    H16R 7506   5.741   2.438   5.364
    1PA    H16S 7507   5.618   2.529   5.275
    1PA    H16T 7508   5.741   2.614   5.384
    1PA    C115 7509   5.812   2.540   5.192
    1PA    H15R 7510   5.828   2.643   5.162
    1PA    H15S 7511   5.911   2.511   5.229
    1PA    C114 7512   5.761   2.450   5.079
    1PA    H14R 7513   5.774   2.353   5.128
    1PA    H14S 7514   5.656   2.469   5.056
    1PA    C113 7515   5.841   2.465   4.948
    1PA    H13R 7516   5.946   2.473   4.975
    1PA    H13S 7517   5.830   2.380   4.881
    1PA    C112 7518   5.805   2.594   4.874
    1PA    H12R 7519   5.784   2.674   4.945
    1PA    H12S 7520   5.898   2.614   4.820
    1PA    C111 7521   5.684   2.585   4.781
    1PA    H11R 7522   5.707   2.518   4.698
    1PA    H11S 7523   5.600   2.547   4.840
    1PA    C110 7524   5.664   2.728   4.728
    1PA    H10R 7525   5.658   2.786   4.821
    1PA    H10S 7526   5.758   2.754   4.679
    1PA     C19 7527   5.538   2.747   4.643
    1PA     H9R 7528   5.530   2.855   4.633
    1PA     H9S 7529   5.552   2.712   4.540
    1PA     C18 7530   5.411   2.692   4.709
    1PA     H8R 7531   5.324   2.719   4.650
    1PA     H8S 7532   5.417   2.584   4.693
    1PA     C17 7533   5.391   2.728   4.857
    1PA     H7R 7534   5.299   2.676   4.887
    1PA     H7S 7535   5.476   2.690   4.914
    1PA     C16 7536   5.375   2.880   4.873
    1PA     H6R 7537   5.465   2.932   4.840
    1PA     H6S 7538   5.290   2.918   4.815
    1PA     C15 7539   5.349   2.917   5.019
    1PA     H5R 7540   5.314   3.021   5.026
    1PA     H5S 7541   5.263   2.871   5.069
    1PA     C14 7542   5.476   2.905   5.104
    1PA     H4R 7543   5.530   2.815   5.076
    1PA     H4S 7544   5.533   2.994   5.079
    1PA     C13 7545   5.458   2.893   5.257
    1PA     H3R 7546   5.418   2.797   5.288
    1PA     H3S 7547   5.556   2.900   5.304
    1PA     C12 7548   5.355   2.996   5.305
    1PA     H2R 7549   5.389   3.094   5.269
    1PA     H2S 7550   5.258   2.962   5.269
    2PC     C11 7551   5.336   2.996   5.455
    2PC     O12 7552   5.393   3.065   5.537
    2PC     O11 7553   5.239   2.910   5.490
    2PC      C1 7554   5.212   2.885   5.629
    2PC      HR 7555   5.147   2.799   5.647
    2PC      HS 7556   5.303   2.875   5.689
    2PC      C2 7557   5.137   3.006   5.687
    2PC      HX 7558   5.189   3.100   5.666
    2PC      C3 7559   5.117   2.981   5.837
    2PC      HA 7560   5.047   2.900   5.856
    2PC      HB 7561   5.208   2.949   5.889
    2PC     O31 7562   5.077   3.100   5.907
    2PC     P31 7563   5.185   3.211   5.949
    2PC     O32 7564   5.194   3.301   5.818
    2PC     C31 7565   5.087   3.396   5.796
    2PC     H1A 7566   5.064   3.423   5.693
    2PC     H1B 7567   4.994   3.349   5.830
    2PC     C32 7568   5.125   3.526   5.868
    2PC     H2A 7569   5.042   3.595   5.858
    2PC     H2B 7570   5.150   3.514   5.974
    2PC     N31 7571   5.244   3.599   5.814
    2PC     C33 7572   5.208   3.653   5.679
    2PC     H3A 7573   5.185   3.564   5.619
    2PC     H3B 7574   5.110   3.698   5.694
    2PC     H3C 7575   5.277   3.721   5.630
    2PC     C34 7576   5.272   3.720   5.898
    2PC     H4A 7577   5.357   3.781   5.869
    2PC     H4B 7578   5.187   3.789   5.900
    2PC     H4C 7579   5.295   3.681   5.997
    2PC     C35 7580   5.364   3.512   5.792
    2PC     H5A 7581   5.381   3.445   5.877
    2PC     H5B 7582   5.446   3.584   5.782
    2PC     H5C 7583   5.346   3.451   5.704
    2PC     O33 7584   5.136   3.282   6.070
    2PC     O34 7585   5.317   3.156   5.989
    2PC     O21 7586   5.002   3.014   5.638
    2PC     C21 7587   4.960   3.105   5.549
    2PC     O22 7588   5.030   3.190   5.498
    3OL     C12 7589   4.815   3.083   5.515
    3OL     H2R 7590   4.771   3.180   5.492
    3OL     H2S 7591   4.750   3.059   5.599
    3OL     C13 7592   4.813   2.976   5.404
    3OL     H3R 7593   4.713   2.966   5.362
    3OL     H3S 7594   4.829   2.882   5.457
    3OL     C14 7595   4.906   3.001   5.285
    3OL     H4R 7596   5.001   3.007   5.339
    3OL     H4S 7597   4.887   3.098   5.240
    3OL     C15 7598   4.906   2.903   5.167
    3OL     H5R 7599   4.947   2.808   5.203
    3OL     H5S 7600   4.968   2.938   5.085
    3OL     C16 7601   4.764   2.877   5.115
    3OL     H6R 7602   4.734   2.977   5.082
    3OL     H6S 7603   4.698   2.830   5.189
    3OL     C17 7604   4.758   2.781   4.996
    3OL     H7R 7605   4.654   2.750   4.983
    3OL     H7S 7606   4.816   2.696   5.035
    3OL     C18 7607   4.804   2.845   4.864
    3OL     H8R 7608   4.908   2.875   4.875
    3OL     H8S 7609   4.736   2.929   4.849
    3OL     C19 7610   4.803   2.754   4.743
    3OL     H9R 7611   4.767   2.653   4.765
    3OL    C110 7612   4.885   2.764   4.640
    3OL    H10R 7613   4.891   2.682   4.569
    3OL    C111 7614   4.946   2.895   4.596
    3OL    H11R 7615   4.981   2.950   4.684
    3OL    H11S 7616   4.867   2.952   4.546
    3OL    C112 7617   5.064   2.861   4.505
    3OL    H12R 7618   5.016   2.807   4.423
    3OL    H12S 7619   5.131   2.795   4.561
    3OL    C113 7620   5.140   2.986   4.458
    3OL    H13R 7621   5.144   3.054   4.544
    3OL    H13S 7622   5.071   3.031   4.386
    3OL    C114 7623   5.281   2.985   4.396
    3OL    H14R 7624   5.342   2.911   4.448
    3OL    H14S 7625   5.318   3.084   4.421
    3OL    C115 7626   5.273   2.972   4.244
    3OL    H15R 7627   5.213   3.055   4.204
    3OL    H15S 7628   5.221   2.877   4.228
    3OL    C116 7629   5.415   2.970   4.186
    3OL    H16R 7630   5.477   2.891   4.228
    3OL    H16S 7631   5.470   3.061   4.209
    3OL    C117 7632   5.410   2.962   4.033
    3OL    H17R 7633   5.376   3.053   3.984
    3OL    H17S 7634   5.340   2.883   4.003
    3OL    C118 7635   5.550   2.940   3.975
    3OL    H18R 7636   5.544   2.944   3.866
    3OL    H18S 7637   5.586   2.839   3.995
    3OL    H18T 7638   5.619   3.020   4.004
    1PA    C116 7639   5.906   2.451   4.390
    1PA    H16R 7640   5.922   2.549   4.345
    1PA    H16S 7641   5.800   2.425   4.385
    1PA    H16T 7642   5.952   2.382   4.318
    1PA    C115 7643   5.967   2.448   4.531
    1PA    H15R 7644   6.076   2.447   4.534
    1PA    H15S 7645   5.924   2.533   4.586
    1PA    C114 7646   5.920   2.314   4.589
    1PA    H14R 7647   5.967   2.315   4.687
    1PA    H14S 7648   5.813   2.301   4.604
    1PA    C113 7649   5.988   2.191   4.526
    1PA    H13R 7650   5.954   2.190   4.422
    1PA    H13S 7651   6.094   2.209   4.509
    1PA    C112 7652   5.963   2.056   4.594
    1PA    H12R 7653   6.007   2.056   4.694
    1PA    H12S 7654   5.856   2.038   4.603
    1PA    C111 7655   6.030   1.944   4.512
    1PA    H11R 7656   5.978   1.940   4.416
    1PA    H11S 7657   6.138   1.963   4.514
    1PA    C110 7658   6.001   1.807   4.575
    1PA    H10R 7659   6.035   1.802   4.679
    1PA    H10S 7660   5.892   1.807   4.578
    1PA     C19 7661   6.041   1.692   4.481
    1PA     H9R 7662   5.966   1.685   4.402
    1PA     H9S 7663   6.144   1.711   4.452
    1PA     C18 7664   6.042   1.557   4.553
    1PA     H8R 7665   5.951   1.570   4.613
    1PA     H8S 7666   6.029   1.477   4.480
    1PA     C17 7667   6.170   1.547   4.638
    1PA     H7R 7668   6.254   1.538   4.569
    1PA     H7S 7669   6.200   1.632   4.699
    1PA     C16 7670   6.175   1.424   4.730
    1PA     H6R 7671   6.185   1.330   4.675
    1PA     H6S 7672   6.263   1.448   4.789
    1PA     C15 7673   6.052   1.424   4.821
    1PA     H5R 7674   6.039   1.521   4.869
    1PA     H5S 7675   5.958   1.407   4.767
    1PA     C14 7676   6.073   1.323   4.934
    1PA     H4R 7677   5.973   1.283   4.953
    1PA     H4S 7678   6.138   1.239   4.909
    1PA     C13 7679   6.130   1.395   5.057
    1PA     H3R 7680   6.217   1.455   5.029
    1PA     H3S 7681   6.056   1.467   5.090
    1PA     C12 7682   6.166   1.300   5.172
    1PA     H2R 7683   6.092   1.224   5.197
    1PA     H2S 7684   6.255   1.249   5.135
    2PC     C11 7685   6.195   1.370   5.303
    2PC     O12 7686   6.304   1.386   5.353
    2PC     O11 7687   6.076   1.405   5.354
    2PC      C1 7688   6.084   1.450   5.491
    2PC      HR 7689   6.170   1.514   5.513
    2PC      HS 7690   5.992   1.507   5.506
    2PC      C2 7691   6.086   1.333   5.591
    2PC      HX 7692   6.042   1.369   5.684
    2PC      C3 7693   6.228   1.277   5.606
    2PC      HA 7694   6.254   1.220   5.517
    2PC      HB 7695   6.302   1.356   5.623
    2PC     O31 7696   6.232   1.181   5.712
    2PC     P31 7697   6.233   1.235   5.863
    2PC     O32 7698   6.074   1.227   5.882
    2PC     C31 7699   6.005   1.100   5.877
    2PC     H1A 7700   5.900   1.119   5.900
    2PC     H1B 7701   6.004   1.070   5.772
    2PC     C32 7702   6.065   0.993   5.969
    2PC     H2A 7703   6.025   0.897   5.935
    2PC     H2B 7704   6.172   0.978   5.953
    2PC     N31 7705   6.037   1.000   6.116
    2PC     C33 7706   5.894   0.970   6.147
    2PC     H3A 7707   5.882   0.936   6.250
    2PC     H3B 7708   5.835   1.061   6.128
    2PC     H3C 7709   5.861   0.888   6.083
    2PC     C34 7710   6.111   0.890   6.187
    2PC     H4A 7711   6.209   0.889   6.139
    2PC     H4B 7712   6.131   0.900   6.294
    2PC     H4C 7713   6.063   0.795   6.163
    2PC     C35 7714   6.072   1.131   6.181
    2PC     H5A 7715   6.180   1.133   6.175
    2PC     H5B 7716   6.037   1.139   6.284
    2PC     H5C 7717   6.028   1.200   6.109
    2PC     O33 7718   6.317   1.155   5.954
    2PC     O34 7719   6.288   1.373   5.870
    2PC     O21 7720   6.003   1.236   5.525
    2PC     C21 7721   5.869   1.234   5.533
    2PC     O22 7722   5.811   1.314   5.604
    3OL     C12 7723   5.798   1.123   5.459
    3OL     H2R 7724   5.690   1.135   5.475
    3OL     H2S 7725   5.832   1.024   5.491
    3OL     C13 7726   5.835   1.139   5.311
    3OL     H3R 7727   5.943   1.124   5.302
    3OL     H3S 7728   5.822   1.237   5.263
    3OL     C14 7729   5.755   1.028   5.242
    3OL     H4R 7730   5.650   1.055   5.250
    3OL     H4S 7731   5.775   0.935   5.297
    3OL     C15 7732   5.798   1.027   5.095
    3OL     H5R 7733   5.906   1.009   5.086
    3OL     H5S 7734   5.782   1.128   5.058
    3OL     C16 7735   5.712   0.920   5.026
    3OL     H6R 7736   5.608   0.921   5.057
    3OL     H6S 7737   5.756   0.824   5.055
    3OL     C17 7738   5.722   0.907   4.873
    3OL     H7R 7739   5.679   0.815   4.832
    3OL     H7S 7740   5.827   0.912   4.846
    3OL     C18 7741   5.668   1.027   4.795
    3OL     H8R 7742   5.727   1.117   4.810
    3OL     H8S 7743   5.566   1.050   4.829
    3OL     C19 7744   5.668   0.987   4.650
    3OL     H9R 7745   5.614   0.897   4.624
    3OL    C110 7746   5.734   1.056   4.558
    3OL    H10R 7747   5.721   1.025   4.455
    3OL    C111 7748   5.813   1.184   4.572
    3OL    H11R 7749   5.918   1.157   4.584
    3OL    H11S 7750   5.786   1.260   4.646
    3OL    C112 7751   5.809   1.254   4.435
    3OL    H12R 7752   5.836   1.189   4.351
    3OL    H12S 7753   5.885   1.332   4.440
    3OL    C113 7754   5.679   1.323   4.391
    3OL    H13R 7755   5.635   1.381   4.473
    3OL    H13S 7756   5.609   1.241   4.377
    3OL    C114 7757   5.687   1.407   4.263
    3OL    H14R 7758   5.738   1.495   4.303
    3OL    H14S 7759   5.584   1.436   4.239
    3OL    C115 7760   5.766   1.335   4.153
    3OL    H15R 7761   5.731   1.232   4.148
    3OL    H15S 7762   5.873   1.330   4.173
    3OL    C116 7763   5.758   1.400   4.014
    3OL    H16R 7764   5.788   1.505   4.014
    3OL    H16S 7765   5.652   1.390   3.990
    3OL    C117 7766   5.844   1.319   3.917
    3OL    H17R 7767   5.812   1.214   3.912
    3OL    H17S 7768   5.948   1.318   3.950
    3OL    C118 7769   5.841   1.369   3.772
    3OL    H18R 7770   5.910   1.453   3.765
    3OL    H18S 7771   5.741   1.403   3.744
    3OL    H18T 7772   5.883   1.289   3.710
    1PA    C116 7773   4.347   4.280   4.294
    1PA    H16R 7774   4.245   4.279   4.333
    1PA    H16S 7775   4.334   4.334   4.200
    1PA    H16T 7776   4.399   4.349   4.360
    1PA    C115 7777   4.420   4.145   4.296
    1PA    H15R 7778   4.407   4.092   4.391
    1PA    H15S 7779   4.380   4.081   4.218
    1PA    C114 7780   4.568   4.159   4.257
    1PA    H14R 7781   4.577   4.210   4.161
    1PA    H14S 7782   4.619   4.220   4.332
    1PA    C113 7783   4.633   4.020   4.248
    1PA    H13R 7784   4.556   3.942   4.240
    1PA    H13S 7785   4.689   4.008   4.155
    1PA    C112 7786   4.718   3.985   4.372
    1PA    H12R 7787   4.783   3.902   4.343
    1PA    H12S 7788   4.788   4.068   4.381
    1PA    C111 7789   4.641   3.965   4.504
    1PA    H11R 7790   4.592   4.059   4.527
    1PA    H11S 7791   4.569   3.883   4.494
    1PA    C110 7792   4.734   3.940   4.623
    1PA    H10R 7793   4.826   3.999   4.612
    1PA    H10S 7794   4.692   3.969   4.719
    1PA     C19 7795   4.764   3.790   4.631
    1PA     H9R 7796   4.666   3.741   4.626
    1PA     H9S 7797   4.841   3.764   4.558
    1PA     C18 7798   4.827   3.755   4.767
    1PA     H8R 7799   4.920   3.809   4.781
    1PA     H8S 7800   4.773   3.803   4.849
    1PA     C17 7801   4.848   3.604   4.789
    1PA     H7R 7802   4.754   3.552   4.771
    1PA     H7S 7803   4.919   3.573   4.712
    1PA     C16 7804   4.899   3.559   4.927
    1PA     H6R 7805   4.987   3.619   4.952
    1PA     H6S 7806   4.822   3.576   5.002
    1PA     C15 7807   4.932   3.409   4.929
    1PA     H5R 7808   4.849   3.345   4.900
    1PA     H5S 7809   5.018   3.394   4.865
    1PA     C14 7810   4.985   3.362   5.066
    1PA     H4R 7811   4.910   3.378   5.144
    1PA     H4S 7812   5.011   3.256   5.062
    1PA     C13 7813   5.119   3.429   5.100
    1PA     H3R 7814   5.187   3.425   5.014
    1PA     H3S 7815   5.111   3.531   5.137
    1PA     C12 7816   5.190   3.362   5.218
    1PA     H2R 7817   5.125   3.372   5.305
    1PA     H2S 7818   5.207   3.257   5.193
    2PC     C11 7819   5.326   3.421   5.244
    2PC     O12 7820   5.416   3.455   5.169
    2PC     O11 7821   5.341   3.436   5.376
    2PC      C1 7822   5.454   3.500   5.440
    2PC      HR 7823   5.439   3.498   5.548
    2PC      HS 7824   5.546   3.450   5.410
    2PC      C2 7825   5.445   3.644   5.387
    2PC      HX 7826   5.487   3.649   5.286
    2PC      C3 7827   5.538   3.739   5.464
    2PC      HA 7828   5.640   3.700   5.458
    2PC      HB 7829   5.539   3.838   5.419
    2PC     O31 7830   5.506   3.747   5.604
    2PC     P31 7831   5.578   3.850   5.704
    2PC     O32 7832   5.504   3.988   5.672
    2PC     C31 7833   5.372   4.011   5.726
    2PC     H1A 7834   5.291   3.952   5.683
    2PC     H1B 7835   5.374   3.979   5.830
    2PC     C32 7836   5.326   4.158   5.722
    2PC     H2A 7837   5.297   4.188   5.621
    2PC     H2B 7838   5.246   4.152   5.795
    2PC     N31 7839   5.421   4.258   5.781
    2PC     C33 7840   5.540   4.285   5.693
    2PC     H3A 7841   5.497   4.314   5.597
    2PC     H3B 7842   5.607   4.364   5.727
    2PC     H3C 7843   5.588   4.189   5.673
    2PC     C34 7844   5.354   4.391   5.798
    2PC     H4A 7845   5.428   4.460   5.838
    2PC     H4B 7846   5.318   4.418   5.698
    2PC     H4C 7847   5.271   4.385   5.868
    2PC     C35 7848   5.476   4.218   5.915
    2PC     H5A 7849   5.541   4.300   5.946
    2PC     H5B 7850   5.529   4.125   5.894
    2PC     H5C 7851   5.398   4.201   5.989
    2PC     O33 7852   5.572   3.814   5.848
    2PC     O34 7853   5.722   3.856   5.669
    2PC     O21 7854   5.310   3.692   5.392
    2PC     C21 7855   5.277   3.784   5.300
    2PC     O22 7856   5.357   3.830   5.222
    3OL     C12 7857   5.128   3.806   5.304
    3OL     H2R 7858   5.111   3.861   5.397
    3OL     H2S 7859   5.082   3.707   5.312
    3OL     C13 7860   5.077   3.892   5.188
    3OL     H3R 7861   5.076   3.841   5.092
    3OL     H3S 7862   5.129   3.988   5.177
    3OL     C14 7863   4.930   3.924   5.216
    3OL     H4R 7864   4.922   3.983   5.308
    3OL     H4S 7865   4.867   3.837   5.236
    3OL     C15 7866   4.862   3.993   5.097
    3OL     H5R 7867   4.844   3.916   5.022
    3OL     H5S 7868   4.934   4.057   5.045
    3OL     C16 7869   4.733   4.067   5.137
    3OL     H6R 7870   4.693   4.119   5.051
    3OL     H6S 7871   4.765   4.141   5.211
    3OL     C17 7872   4.619   3.977   5.185
    3OL     H7R 7873   4.553   4.039   5.246
    3OL     H7S 7874   4.668   3.897   5.241
    3OL     C18 7875   4.531   3.930   5.068
    3OL     H8R 7876   4.583   3.858   5.005
    3OL     H8S 7877   4.503   4.020   5.013
    3OL     C19 7878   4.410   3.853   5.113
    3OL     H9R 7879   4.397   3.836   5.220
    3OL    C110 7880   4.323   3.788   5.037
    3OL    H10R 7881   4.234   3.744   5.081
    3OL    C111 7882   4.343   3.768   4.889
    3OL    H11R 7883   4.432   3.822   4.858
    3OL    H11S 7884   4.258   3.817   4.841
    3OL    C112 7885   4.360   3.623   4.842
    3OL    H12R 7886   4.365   3.630   4.733
    3OL    H12S 7887   4.267   3.571   4.867
    3OL    C113 7888   4.485   3.546   4.886
    3OL    H13R 7889   4.576   3.607   4.886
    3OL    H13S 7890   4.521   3.472   4.814
    3OL    C114 7891   4.463   3.478   5.021
    3OL    H14R 7892   4.388   3.399   5.012
    3OL    H14S 7893   4.421   3.554   5.087
    3OL    C115 7894   4.596   3.425   5.076
    3OL    H15R 7895   4.668   3.505   5.098
    3OL    H15S 7896   4.646   3.356   5.007
    3OL    C116 7897   4.579   3.345   5.205
    3OL    H16R 7898   4.682   3.309   5.211
    3OL    H16S 7899   4.509   3.261   5.198
    3OL    C117 7900   4.560   3.414   5.341
    3OL    H17R 7901   4.537   3.336   5.414
    3OL    H17S 7902   4.468   3.473   5.338
    3OL    C118 7903   4.673   3.507   5.388
    3OL    H18R 7904   4.688   3.597   5.329
    3OL    H18S 7905   4.767   3.451   5.392
    3OL    H18T 7906   4.648   3.535   5.491
    1PA    C116 7907   4.061   1.481   3.866
    1PA    H16R 7908   4.071   1.586   3.836
    1PA    H16S 7909   4.001   1.426   3.794
    1PA    H16T 7910   4.161   1.437   3.874
    1PA    C115 7911   3.993   1.473   4.003
    1PA    H15R 7912   4.063   1.503   4.080
    1PA    H15S 7913   3.912   1.543   4.023
    1PA    C114 7914   3.953   1.327   4.027
    1PA    H14R 7915   3.902   1.289   3.937
    1PA    H14S 7916   4.044   1.267   4.025
    1PA    C113 7917   3.878   1.288   4.155
    1PA    H13R 7918   3.780   1.335   4.159
    1PA    H13S 7919   3.866   1.179   4.148
    1PA    C112 7920   3.954   1.323   4.284
    1PA    H12R 7921   4.058   1.289   4.284
    1PA    H12S 7922   3.943   1.431   4.292
    1PA    C111 7923   3.889   1.257   4.407
    1PA    H11R 7924   3.781   1.265   4.395
    1PA    H11S 7925   3.915   1.152   4.420
    1PA    C110 7926   3.928   1.324   4.540
    1PA    H10R 7927   4.018   1.277   4.580
    1PA    H10S 7928   3.964   1.425   4.521
    1PA     C19 7929   3.823   1.326   4.652
    1PA     H9R 7930   3.734   1.382   4.624
    1PA     H9S 7931   3.793   1.221   4.659
    1PA     C18 7932   3.871   1.381   4.786
    1PA     H8R 7933   3.814   1.341   4.871
    1PA     H8S 7934   3.974   1.354   4.809
    1PA     C17 7935   3.865   1.534   4.785
    1PA     H7R 7936   3.936   1.572   4.711
    1PA     H7S 7937   3.767   1.571   4.755
    1PA     C16 7938   3.906   1.592   4.921
    1PA     H6R 7939   3.998   1.538   4.944
    1PA     H6S 7940   3.930   1.697   4.906
    1PA     C15 7941   3.803   1.571   5.033
    1PA     H5R 7942   3.711   1.628   5.022
    1PA     H5S 7943   3.769   1.467   5.036
    1PA     C14 7944   3.858   1.589   5.175
    1PA     H4R 7945   3.879   1.694   5.195
    1PA     H4S 7946   3.780   1.560   5.246
    1PA     C13 7947   3.973   1.493   5.208
    1PA     H3R 7948   3.931   1.440   5.293
    1PA     H3S 7949   3.995   1.423   5.127
    1PA     C12 7950   4.100   1.573   5.242
    1PA     H2R 7951   4.192   1.515   5.250
    1PA     H2S 7952   4.108   1.649   5.164
    2PC     C11 7953   4.090   1.641   5.376
    2PC     O12 7954   4.067   1.760   5.386
    2PC     O11 7955   4.114   1.557   5.478
    2PC      C1 7956   4.161   1.610   5.603
    2PC      HR 7957   4.212   1.707   5.598
    2PC      HS 7958   4.079   1.623   5.673
    2PC      C2 7959   4.271   1.514   5.650
    2PC      HX 7960   4.232   1.414   5.627
    2PC      C3 7961   4.282   1.526   5.803
    2PC      HA 7962   4.206   1.459   5.846
    2PC      HB 7963   4.380   1.495   5.838
    2PC     O31 7964   4.249   1.662   5.836
    2PC     P31 7965   4.236   1.708   5.989
    2PC     O32 7966   4.386   1.708   6.045
    2PC     C31 7967   4.441   1.841   6.046
    2PC     H1A 7968   4.442   1.874   5.942
    2PC     H1B 7969   4.379   1.909   6.104
    2PC     C32 7970   4.580   1.836   6.111
    2PC     H2A 7971   4.640   1.791   6.032
    2PC     H2B 7972   4.603   1.937   6.144
    2PC     N31 7973   4.600   1.740   6.225
    2PC     C33 7974   4.735   1.767   6.285
    2PC     H3A 7975   4.795   1.837   6.228
    2PC     H3B 7976   4.719   1.824   6.376
    2PC     H3C 7977   4.792   1.675   6.300
    2PC     C34 7978   4.491   1.753   6.327
    2PC     H4A 7979   4.411   1.687   6.295
    2PC     H4B 7980   4.524   1.711   6.423
    2PC     H4C 7981   4.469   1.860   6.330
    2PC     C35 7982   4.604   1.595   6.188
    2PC     H5A 7983   4.664   1.598   6.097
    2PC     H5B 7984   4.507   1.545   6.183
    2PC     H5C 7985   4.649   1.555   6.279
    2PC     O33 7986   4.171   1.839   6.017
    2PC     O34 7987   4.151   1.611   6.062
    2PC     O21 7988   4.395   1.543   5.583
    2PC     C21 7989   4.479   1.438   5.588
    2PC     O22 7990   4.478   1.340   5.660
    3OL     C12 7991   4.580   1.450   5.477
    3OL     H2R 7992   4.660   1.376   5.490
    3OL     H2S 7993   4.631   1.547   5.483
    3OL     C13 7994   4.514   1.418   5.342
    3OL     H3R 7995   4.582   1.405   5.257
    3OL     H3S 7996   4.443   1.492   5.306
    3OL     C14 7997   4.446   1.280   5.350
    3OL     H4R 7998   4.361   1.286   5.418
    3OL     H4S 7999   4.523   1.212   5.387
    3OL     C15 8000   4.398   1.251   5.207
    3OL     H5R 8001   4.483   1.273   5.143
    3OL     H5S 8002   4.328   1.328   5.172
    3OL     C16 8003   4.352   1.107   5.182
    3OL     H6R 8004   4.434   1.043   5.216
    3OL     H6S 8005   4.342   1.096   5.074
    3OL     C17 8006   4.216   1.073   5.245
    3OL     H7R 8007   4.139   1.142   5.211
    3OL     H7S 8008   4.212   1.080   5.354
    3OL     C18 8009   4.176   0.928   5.214
    3OL     H8R 8010   4.076   0.915   5.256
    3OL     H8S 8011   4.239   0.859   5.271
    3OL     C19 8012   4.164   0.895   5.068
    3OL     H9R 8013   4.095   0.964   5.019
    3OL    C110 8014   4.217   0.797   4.996
    3OL    H10R 8015   4.188   0.785   4.892
    3OL    C111 8016   4.329   0.713   5.053
    3OL    H11R 8017   4.301   0.611   5.082
    3OL    H11S 8018   4.380   0.764   5.134
    3OL    C112 8019   4.436   0.686   4.947
    3OL    H12R 8020   4.517   0.655   5.013
    3OL    H12S 8021   4.469   0.778   4.899
    3OL    C113 8022   4.394   0.571   4.853
    3OL    H13R 8023   4.286   0.563   4.843
    3OL    H13S 8024   4.429   0.475   4.894
    3OL    C114 8025   4.448   0.595   4.712
    3OL    H14R 8026   4.392   0.681   4.676
    3OL    H14S 8027   4.426   0.514   4.642
    3OL    C115 8028   4.597   0.631   4.707
    3OL    H15R 8029   4.652   0.552   4.759
    3OL    H15S 8030   4.605   0.725   4.762
    3OL    C116 8031   4.645   0.646   4.562
    3OL    H16R 8032   4.608   0.740   4.521
    3OL    H16S 8033   4.616   0.562   4.498
    3OL    C117 8034   4.798   0.648   4.559
    3OL    H17R 8035   4.830   0.552   4.598
    3OL    H17S 8036   4.832   0.726   4.627
    3OL    C118 8037   4.843   0.672   4.414
    3OL    H18R 8038   4.821   0.773   4.377
    3OL    H18S 8039   4.794   0.606   4.342
    3OL    H18T 8040   4.951   0.659   4.415
    1PA    C116 8041   3.829   0.341   4.039
    1PA    H16R 8042   3.894   0.425   4.016
    1PA    H16S 8043   3.790   0.300   3.946
    1PA    H16T 8044   3.898   0.268   4.080
    1PA    C115 8045   3.722   0.373   4.145
    1PA    H15R 8046   3.715   0.285   4.209
    1PA    H15S 8047   3.765   0.444   4.216
    1PA    C114 8048   3.592   0.431   4.089
    1PA    H14R 8049   3.602   0.528   4.039
    1PA    H14S 8050   3.551   0.360   4.016
    1PA    C113 8051   3.491   0.441   4.204
    1PA    H13R 8052   3.411   0.507   4.169
    1PA    H13S 8053   3.438   0.347   4.221
    1PA    C112 8054   3.528   0.506   4.338
    1PA    H12R 8055   3.591   0.428   4.381
    1PA    H12S 8056   3.594   0.592   4.323
    1PA    C111 8057   3.408   0.534   4.428
    1PA    H11R 8058   3.371   0.629   4.388
    1PA    H11S 8059   3.329   0.461   4.409
    1PA    C110 8060   3.450   0.547   4.575
    1PA    H10R 8061   3.484   0.450   4.611
    1PA    H10S 8062   3.537   0.613   4.566
    1PA     C19 8063   3.334   0.596   4.662
    1PA     H9R 8064   3.287   0.685   4.620
    1PA     H9S 8065   3.263   0.515   4.682
    1PA     C18 8066   3.400   0.627   4.797
    1PA     H8R 8067   3.442   0.537   4.842
    1PA     H8S 8068   3.490   0.686   4.779
    1PA     C17 8069   3.297   0.702   4.883
    1PA     H7R 8070   3.197   0.675   4.847
    1PA     H7S 8071   3.314   0.674   4.988
    1PA     C16 8072   3.314   0.854   4.879
    1PA     H6R 8073   3.412   0.883   4.917
    1PA     H6S 8074   3.305   0.890   4.776
    1PA     C15 8075   3.205   0.936   4.948
    1PA     H5R 8076   3.228   1.043   4.953
    1PA     H5S 8077   3.116   0.923   4.885
    1PA     C14 8078   3.161   0.873   5.081
    1PA     H4R 8079   3.122   0.772   5.066
    1PA     H4S 8080   3.254   0.875   5.138
    1PA     C13 8081   3.053   0.960   5.147
    1PA     H3R 8082   3.076   1.064   5.173
    1PA     H3S 8083   2.963   0.965   5.086
    1PA     C12 8084   3.040   0.909   5.291
    1PA     H2R 8085   3.011   0.804   5.285
    1PA     H2S 8086   3.137   0.914   5.341
    2PC     C11 8087   2.937   0.980   5.375
    2PC     O12 8088   2.854   0.924   5.444
    2PC     O11 8089   2.954   1.113   5.380
    2PC      C1 8090   2.869   1.178   5.476
    2PC      HR 8091   2.770   1.134   5.462
    2PC      HS 8092   2.906   1.150   5.575
    2PC      C2 8093   2.862   1.331   5.463
    2PC      HX 8094   2.964   1.370   5.454
    2PC      C3 8095   2.812   1.402   5.589
    2PC      HA 8096   2.885   1.367   5.663
    2PC      HB 8097   2.828   1.509   5.577
    2PC     O31 8098   2.678   1.367   5.628
    2PC     P31 8099   2.617   1.455   5.747
    2PC     O32 8100   2.598   1.594   5.669
    2PC     C31 8101   2.514   1.686   5.740
    2PC     H1A 8102   2.408   1.660   5.735
    2PC     H1B 8103   2.553   1.697   5.841
    2PC     C32 8104   2.517   1.828   5.681
    2PC     H2A 8105   2.487   1.834   5.577
    2PC     H2B 8106   2.446   1.889   5.738
    2PC     N31 8107   2.647   1.902   5.683
    2PC     C33 8108   2.626   2.051   5.683
    2PC     H3A 8109   2.725   2.097   5.689
    2PC     H3B 8110   2.587   2.069   5.583
    2PC     H3C 8111   2.561   2.095   5.758
    2PC     C34 8112   2.736   1.872   5.800
    2PC     H4A 8113   2.837   1.912   5.791
    2PC     H4B 8114   2.693   1.919   5.889
    2PC     H4C 8115   2.742   1.763   5.809
    2PC     C35 8116   2.726   1.865   5.562
    2PC     H5A 8117   2.738   1.762   5.527
    2PC     H5B 8118   2.823   1.911   5.578
    2PC     H5C 8119   2.675   1.916   5.480
    2PC     O33 8120   2.497   1.377   5.785
    2PC     O34 8121   2.680   1.473   5.880
    2PC     O21 8122   2.777   1.361   5.351
    2PC     C21 8123   2.739   1.485   5.317
    2PC     O22 8124   2.818   1.576   5.334
    3OL     C12 8125   2.611   1.501   5.240
    3OL     H2R 8126   2.522   1.476   5.298
    3OL     H2S 8127   2.606   1.418   5.168
    3OL     C13 8128   2.591   1.641   5.181
    3OL     H3R 8129   2.609   1.726   5.247
    3OL     H3S 8130   2.489   1.671   5.157
    3OL     C14 8131   2.677   1.663   5.055
    3OL     H4R 8132   2.781   1.643   5.080
    3OL     H4S 8133   2.679   1.767   5.021
    3OL     C15 8134   2.636   1.564   4.945
    3OL     H5R 8135   2.527   1.560   4.937
    3OL     H5S 8136   2.674   1.462   4.960
    3OL     C16 8137   2.706   1.617   4.820
    3OL     H6R 8138   2.808   1.645   4.846
    3OL     H6S 8139   2.657   1.709   4.787
    3OL     C17 8140   2.700   1.517   4.704
    3OL     H7R 8141   2.599   1.486   4.676
    3OL     H7S 8142   2.736   1.424   4.748
    3OL     C18 8143   2.778   1.559   4.579
    3OL     H8R 8144   2.781   1.475   4.509
    3OL     H8S 8145   2.879   1.583   4.613
    3OL     C19 8146   2.717   1.679   4.513
    3OL     H9R 8147   2.651   1.725   4.586
    3OL    C110 8148   2.725   1.728   4.390
    3OL    H10R 8149   2.676   1.818   4.355
    3OL    C111 8150   2.823   1.670   4.292
    3OL    H11R 8151   2.781   1.643   4.195
    3OL    H11S 8152   2.867   1.579   4.332
    3OL    C112 8153   2.943   1.760   4.259
    3OL    H12R 8154   3.016   1.700   4.204
    3OL    H12S 8155   3.002   1.782   4.348
    3OL    C113 8156   2.907   1.895   4.194
    3OL    H13R 8157   2.835   1.950   4.255
    3OL    H13S 8158   2.858   1.867   4.101
    3OL    C114 8159   3.033   1.983   4.185
    3OL    H14R 8160   3.090   1.943   4.100
    3OL    H14S 8161   3.100   1.976   4.270
    3OL    C115 8162   3.002   2.130   4.152
    3OL    H15R 8163   2.932   2.165   4.227
    3OL    H15S 8164   2.967   2.141   4.049
    3OL    C116 8165   3.132   2.212   4.145
    3OL    H16R 8166   3.202   2.193   4.226
    3OL    H16S 8167   3.105   2.317   4.160
    3OL    C117 8168   3.209   2.225   4.013
    3OL    H17R 8169   3.308   2.263   4.039
    3OL    H17S 8170   3.159   2.304   3.957
    3OL    C118 8171   3.218   2.103   3.922
    3OL    H18R 8172   3.117   2.072   3.893
    3OL    H18S 8173   3.262   2.022   3.981
    3OL    H18T 8174   3.278   2.122   3.832
    1PA    C116 8175   5.475   2.507   4.351
    1PA    H16R 8176   5.523   2.548   4.262
    1PA    H16S 8177   5.454   2.403   4.328
    1PA    H16T 8178   5.545   2.497   4.434
    1PA    C115 8179   5.344   2.578   4.389
    1PA    H15R 8180   5.304   2.533   4.480
    1PA    H15S 8181   5.375   2.680   4.413
    1PA    C114 8182   5.249   2.573   4.269
    1PA    H14R 8183   5.202   2.671   4.269
    1PA    H14S 8184   5.312   2.561   4.180
    1PA    C113 8185   5.153   2.453   4.275
    1PA    H13R 8186   5.111   2.437   4.176
    1PA    H13S 8187   5.201   2.361   4.308
    1PA    C112 8188   5.028   2.486   4.358
    1PA    H12R 8189   5.067   2.527   4.452
    1PA    H12S 8190   4.964   2.563   4.314
    1PA    C111 8191   4.941   2.362   4.382
    1PA    H11R 8192   4.904   2.322   4.287
    1PA    H11S 8193   5.007   2.290   4.430
    1PA    C110 8194   4.824   2.377   4.480
    1PA    H10R 8195   4.868   2.413   4.573
    1PA    H10S 8196   4.766   2.453   4.427
    1PA     C19 8197   4.752   2.245   4.508
    1PA     H9R 8198   4.713   2.207   4.413
    1PA     H9S 8199   4.828   2.176   4.544
    1PA     C18 8200   4.636   2.257   4.608
    1PA     H8R 8201   4.564   2.324   4.561
    1PA     H8S 8202   4.588   2.159   4.613
    1PA     C17 8203   4.674   2.313   4.746
    1PA     H7R 8204   4.747   2.243   4.789
    1PA     H7S 8205   4.728   2.407   4.737
    1PA     C16 8206   4.554   2.329   4.840
    1PA     H6R 8207   4.510   2.425   4.811
    1PA     H6S 8208   4.475   2.257   4.821
    1PA     C15 8209   4.583   2.319   4.991
    1PA     H5R 8210   4.495   2.358   5.043
    1PA     H5S 8211   4.575   2.212   5.009
    1PA     C14 8212   4.704   2.394   5.049
    1PA     H4R 8213   4.786   2.333   5.010
    1PA     H4S 8214   4.718   2.494   5.009
    1PA     C13 8215   4.706   2.385   5.203
    1PA     H3R 8216   4.674   2.287   5.236
    1PA     H3S 8217   4.804   2.394   5.249
    1PA     C12 8218   4.641   2.508   5.269
    1PA     H2R 8219   4.690   2.597   5.230
    1PA     H2S 8220   4.540   2.507   5.229
    2PC     C11 8221   4.649   2.510   5.420
    2PC     O12 8222   4.566   2.459   5.492
    2PC     O11 8223   4.753   2.588   5.453
    2PC      C1 8224   4.783   2.603   5.593
    2PC      HR 8225   4.818   2.704   5.613
    2PC      HS 8226   4.694   2.600   5.656
    2PC      C2 8227   4.885   2.496   5.633
    2PC      HX 8228   4.850   2.400   5.594
    2PC      C3 8229   4.913   2.492   5.784
    2PC      HA 8230   4.834   2.432   5.829
    2PC      HB 8231   5.012   2.446   5.794
    2PC     O31 8232   4.928   2.624   5.840
    2PC     P31 8233   4.911   2.657   5.995
    2PC     O32 8234   4.816   2.786   6.000
    2PC     C31 8235   4.802   2.861   6.122
    2PC     H1A 8236   4.778   2.784   6.195
    2PC     H1B 8237   4.897   2.906   6.153
    2PC     C32 8238   4.685   2.960   6.117
    2PC     H2A 8239   4.587   2.913   6.113
    2PC     H2B 8240   4.693   3.019   6.208
    2PC     N31 8241   4.679   3.062   6.008
    2PC     C33 8242   4.806   3.140   6.021
    2PC     H3A 8243   4.814   3.209   5.937
    2PC     H3B 8244   4.819   3.198   6.113
    2PC     H3C 8245   4.891   3.073   6.003
    2PC     C34 8246   4.670   2.994   5.875
    2PC     H4A 8247   4.761   2.941   5.848
    2PC     H4B 8248   4.585   2.925   5.872
    2PC     H4C 8249   4.642   3.069   5.802
    2PC     C35 8250   4.560   3.146   6.045
    2PC     H5A 8251   4.473   3.081   6.056
    2PC     H5B 8252   4.546   3.223   5.969
    2PC     H5C 8253   4.584   3.201   6.137
    2PC     O33 8254   4.854   2.547   6.078
    2PC     O34 8255   5.038   2.690   6.064
    2PC     O21 8256   5.006   2.544   5.572
    2PC     C21 8257   5.092   2.453   5.523
    2PC     O22 8258   5.092   2.334   5.543
    3OL     C12 8259   5.204   2.529   5.456
    3OL     H2R 8260   5.295   2.511   5.512
    3OL     H2S 8261   5.178   2.636   5.455
    3OL     C13 8262   5.219   2.485   5.310
    3OL     H3R 8263   5.227   2.376   5.302
    3OL     H3S 8264   5.312   2.528   5.271
    3OL     C14 8265   5.102   2.550   5.236
    3OL     H4R 8266   5.113   2.657   5.252
    3OL     H4S 8267   5.015   2.512   5.292
    3OL     C15 8268   5.092   2.524   5.085
    3OL     H5R 8269   5.183   2.567   5.043
    3OL     H5S 8270   5.007   2.570   5.035
    3OL     C16 8271   5.096   2.371   5.074
    3OL     H6R 8272   5.022   2.332   5.145
    3OL     H6S 8273   5.201   2.348   5.095
    3OL     C17 8274   5.078   2.327   4.929
    3OL     H7R 8275   4.975   2.345   4.896
    3OL     H7S 8276   5.090   2.218   4.926
    3OL     C18 8277   5.178   2.392   4.832
    3OL     H8R 8278   5.280   2.379   4.868
    3OL     H8S 8279   5.160   2.499   4.819
    3OL     C19 8280   5.166   2.320   4.701
    3OL     H9R 8281   5.077   2.345   4.643
    3OL    C110 8282   5.248   2.234   4.643
    3OL    H10R 8283   5.215   2.194   4.547
    3OL    C111 8284   5.361   2.155   4.704
    3OL    H11R 8285   5.376   2.060   4.653
    3OL    H11S 8286   5.323   2.134   4.804
    3OL    C112 8287   5.498   2.225   4.704
    3OL    H12R 8288   5.474   2.317   4.759
    3OL    H12S 8289   5.517   2.258   4.602
    3OL    C113 8290   5.615   2.147   4.765
    3OL    H13R 8291   5.709   2.201   4.754
    3OL    H13S 8292   5.617   2.052   4.712
    3OL    C114 8293   5.601   2.123   4.916
    3OL    H14R 8294   5.526   2.045   4.934
    3OL    H14S 8295   5.573   2.220   4.957
    3OL    C115 8296   5.731   2.081   4.986
    3OL    H15R 8297   5.715   2.107   5.090
    3OL    H15S 8298   5.802   2.157   4.954
    3OL    C116 8299   5.782   1.939   4.956
    3OL    H16R 8300   5.797   1.917   4.850
    3OL    H16S 8301   5.711   1.868   4.999
    3OL    C117 8302   5.915   1.910   5.027
    3OL    H17R 8303   5.889   1.920   5.132
    3OL    H17S 8304   5.992   1.983   5.003
    3OL    C118 8305   5.968   1.772   4.985
    3OL    H18R 8306   6.008   1.770   4.883
    3OL    H18S 8307   5.902   1.685   4.986
    3OL    H18T 8308   6.054   1.753   5.049
    1PA    C116 8309   3.923   2.178   4.268
    1PA    H16R 8310   3.955   2.123   4.357
    1PA    H16S 8311   4.012   2.190   4.205
    1PA    H16T 8312   3.854   2.119   4.207
    1PA    C115 8313   3.842   2.301   4.308
    1PA    H15R 8314   3.780   2.325   4.221
    1PA    H15S 8315   3.775   2.274   4.389
    1PA    C114 8316   3.925   2.423   4.351
    1PA    H14R 8317   3.991   2.457   4.271
    1PA    H14S 8318   3.857   2.505   4.374
    1PA    C113 8319   4.004   2.394   4.480
    1PA    H13R 8320   4.071   2.309   4.474
    1PA    H13S 8321   4.071   2.477   4.502
    1PA    C112 8322   3.915   2.380   4.604
    1PA    H12R 8323   3.846   2.295   4.592
    1PA    H12S 8324   3.987   2.350   4.680
    1PA    C111 8325   3.839   2.504   4.654
    1PA    H11R 8326   3.915   2.577   4.682
    1PA    H11S 8327   3.775   2.534   4.572
    1PA    C110 8328   3.747   2.473   4.773
    1PA    H10R 8329   3.680   2.389   4.754
    1PA    H10S 8330   3.810   2.443   4.857
    1PA     C19 8331   3.659   2.592   4.811
    1PA     H9R 8332   3.710   2.685   4.786
    1PA     H9S 8333   3.570   2.597   4.748
    1PA     C18 8334   3.624   2.582   4.960
    1PA     H8R 8335   3.532   2.635   4.987
    1PA     H8S 8336   3.601   2.477   4.979
    1PA     C17 8337   3.737   2.635   5.050
    1PA     H7R 8338   3.740   2.595   5.151
    1PA     H7S 8339   3.837   2.603   5.019
    1PA     C16 8340   3.725   2.786   5.072
    1PA     H6R 8341   3.823   2.830   5.051
    1PA     H6S 8342   3.664   2.835   4.996
    1PA     C15 8343   3.680   2.819   5.216
    1PA     H5R 8344   3.572   2.814   5.223
    1PA     H5S 8345   3.728   2.755   5.290
    1PA     C14 8346   3.704   2.965   5.256
    1PA     H4R 8347   3.652   3.027   5.182
    1PA     H4S 8348   3.656   2.978   5.353
    1PA     C13 8349   3.850   3.012   5.246
    1PA     H3R 8350   3.879   3.020   5.141
    1PA     H3S 8351   3.848   3.114   5.285
    1PA     C12 8352   3.941   2.927   5.336
    1PA     H2R 8353   3.933   2.819   5.320
    1PA     H2S 8354   4.048   2.949   5.330
    2PC     C11 8355   3.902   2.930   5.481
    2PC     O12 8356   3.815   3.004   5.523
    2PC     O11 8357   3.978   2.853   5.560
    2PC      C1 8358   3.940   2.825   5.696
    2PC      HR 8359   4.017   2.771   5.751
    2PC      HS 8360   3.925   2.920   5.748
    2PC      C2 8361   3.807   2.748   5.694
    2PC      HX 8362   3.726   2.807   5.651
    2PC      C3 8363   3.765   2.706   5.836
    2PC      HA 8364   3.767   2.799   5.895
    2PC      HB 8365   3.665   2.663   5.825
    2PC     O31 8366   3.862   2.614   5.889
    2PC     P31 8367   3.836   2.555   6.035
    2PC     O32 8368   3.929   2.426   6.021
    2PC     C31 8369   4.072   2.437   6.035
    2PC     H1A 8370   4.106   2.502   5.955
    2PC     H1B 8371   4.099   2.481   6.131
    2PC     C32 8372   4.145   2.302   6.022
    2PC     H2A 8373   4.251   2.322   6.012
    2PC     H2B 8374   4.132   2.236   6.107
    2PC     N31 8375   4.109   2.222   5.900
    2PC     C33 8376   3.986   2.142   5.929
    2PC     H3A 8377   3.944   2.092   5.842
    2PC     H3B 8378   4.022   2.063   5.995
    2PC     H3C 8379   3.915   2.213   5.972
    2PC     C34 8380   4.079   2.303   5.778
    2PC     H4A 8381   4.026   2.395   5.806
    2PC     H4B 8382   4.171   2.338   5.732
    2PC     H4C 8383   4.030   2.240   5.704
    2PC     C35 8384   4.226   2.131   5.879
    2PC     H5A 8385   4.316   2.192   5.865
    2PC     H5B 8386   4.209   2.069   5.791
    2PC     H5C 8387   4.239   2.067   5.966
    2PC     O33 8388   3.874   2.645   6.147
    2PC     O34 8389   3.692   2.518   6.043
    2PC     O21 8390   3.828   2.630   5.615
    2PC     C21 8391   3.726   2.585   5.540
    2PC     O22 8392   3.617   2.636   5.525
    3OL     C12 8393   3.758   2.462   5.460
    3OL     H2R 8394   3.708   2.467   5.363
    3OL     H2S 8395   3.707   2.380   5.511
    3OL     C13 8396   3.908   2.434   5.441
    3OL     H3R 8397   3.963   2.408   5.532
    3OL     H3S 8398   3.958   2.518   5.393
    3OL     C14 8399   3.927   2.310   5.354
    3OL     H4R 8400   3.894   2.224   5.413
    3OL     H4S 8401   4.034   2.296   5.334
    3OL     C15 8402   3.848   2.306   5.222
    3OL     H5R 8403   3.885   2.388   5.160
    3OL     H5S 8404   3.741   2.327   5.233
    3OL     C16 8405   3.870   2.169   5.157
    3OL     H6R 8406   3.808   2.167   5.067
    3OL     H6S 8407   3.828   2.092   5.222
    3OL     C17 8408   4.012   2.139   5.107
    3OL     H7R 8409   4.079   2.143   5.193
    3OL     H7S 8410   4.043   2.213   5.034
    3OL     C18 8411   4.027   2.000   5.044
    3OL     H8R 8412   3.957   1.995   4.960
    3OL     H8S 8413   3.985   1.926   5.112
    3OL     C19 8414   4.171   1.962   5.016
    3OL     H9R 8415   4.234   1.919   5.094
    3OL    C110 8416   4.220   1.953   4.893
    3OL    H10R 8417   4.314   1.899   4.882
    3OL    C111 8418   4.150   1.998   4.768
    3OL    H11R 8419   4.079   2.079   4.786
    3OL    H11S 8420   4.097   1.911   4.729
    3OL    C112 8421   4.261   2.046   4.672
    3OL    H12R 8422   4.356   2.005   4.705
    3OL    H12S 8423   4.263   2.155   4.677
    3OL    C113 8424   4.230   1.993   4.532
    3OL    H13R 8425   4.131   2.026   4.499
    3OL    H13S 8426   4.222   1.884   4.523
    3OL    C114 8427   4.340   2.026   4.431
    3OL    H14R 8428   4.323   1.956   4.349
    3OL    H14S 8429   4.439   2.005   4.473
    3OL    C115 8430   4.324   2.164   4.365
    3OL    H15R 8431   4.307   2.234   4.446
    3OL    H15S 8432   4.225   2.170   4.320
    3OL    C116 8433   4.425   2.195   4.253
    3OL    H16R 8434   4.446   2.121   4.176
    3OL    H16S 8435   4.518   2.205   4.310
    3OL    C117 8436   4.392   2.327   4.182
    3OL    H17R 8437   4.483   2.371   4.139
    3OL    H17S 8438   4.351   2.405   4.248
    3OL    C118 8439   4.284   2.312   4.075
    3OL    H18R 8440   4.202   2.244   4.099
    3OL    H18S 8441   4.336   2.274   3.986
    3OL    H18T 8442   4.241   2.411   4.057
    1PA    C116 8443   4.361   1.406   4.298
    1PA    H16R 8444   4.314   1.396   4.200
    1PA    H16S 8445   4.417   1.318   4.328
    1PA    H16T 8446   4.428   1.492   4.287
    1PA    C115 8447   4.258   1.435   4.408
    1PA    H15R 8448   4.178   1.498   4.368
    1PA    H15S 8449   4.217   1.338   4.441
    1PA    C114 8450   4.320   1.493   4.536
    1PA    H14R 8451   4.406   1.430   4.559
    1PA    H14S 8452   4.381   1.583   4.522
    1PA    C113 8453   4.224   1.521   4.652
    1PA    H13R 8454   4.142   1.582   4.615
    1PA    H13S 8455   4.189   1.427   4.694
    1PA    C112 8456   4.298   1.596   4.764
    1PA    H12R 8457   4.352   1.687   4.736
    1PA    H12S 8458   4.217   1.631   4.829
    1PA    C111 8459   4.387   1.498   4.840
    1PA    H11R 8460   4.316   1.436   4.896
    1PA    H11S 8461   4.443   1.432   4.773
    1PA    C110 8462   4.479   1.576   4.936
    1PA    H10R 8463   4.550   1.510   4.985
    1PA    H10S 8464   4.523   1.654   4.874
    1PA     C19 8465   4.403   1.645   5.050
    1PA     H9R 8466   4.316   1.706   5.025
    1PA     H9S 8467   4.368   1.577   5.129
    1PA     C18 8468   4.494   1.751   5.112
    1PA     H8R 8469   4.598   1.719   5.118
    1PA     H8S 8470   4.478   1.838   5.049
    1PA     C17 8471   4.452   1.789   5.255
    1PA     H7R 8472   4.353   1.835   5.264
    1PA     H7S 8473   4.439   1.701   5.317
    1PA     C16 8474   4.555   1.881   5.322
    1PA     H6R 8475   4.646   1.821   5.320
    1PA     H6S 8476   4.575   1.964   5.253
    1PA     C15 8477   4.512   1.932   5.461
    1PA     H5R 8478   4.417   1.985   5.456
    1PA     H5S 8479   4.484   1.843   5.517
    1PA     C14 8480   4.608   2.038   5.518
    1PA     H4R 8481   4.711   2.006   5.505
    1PA     H4S 8482   4.611   2.130   5.460
    1PA     C13 8483   4.588   2.059   5.668
    1PA     H3R 8484   4.499   2.119   5.689
    1PA     H3S 8485   4.580   1.961   5.715
    1PA     C12 8486   4.702   2.138   5.735
    1PA     H2R 8487   4.791   2.075   5.732
    1PA     H2S 8488   4.720   2.225   5.671
    2PC     C11 8489   4.667   2.189   5.872
    2PC     O12 8490   4.704   2.128   5.970
    2PC     O11 8491   4.587   2.298   5.873
    2PC      C1 8492   4.537   2.337   6.002
    2PC      HR 8493   4.447   2.279   6.027
    2PC      HS 8494   4.610   2.314   6.080
    2PC      C2 8495   4.494   2.485   6.000
    2PC      HX 8496   4.589   2.528   5.969
    2PC      C3 8497   4.445   2.543   6.133
    2PC      HA 8498   4.521   2.575   6.205
    2PC      HB 8499   4.402   2.639   6.106
    2PC     O31 8500   4.351   2.447   6.185
    2PC     P31 8501   4.306   2.450   6.339
    2PC     O32 8502   4.210   2.578   6.345
    2PC     C31 8503   4.143   2.589   6.472
    2PC     H1A 8504   4.082   2.500   6.489
    2PC     H1B 8505   4.227   2.600   6.540
    2PC     C32 8506   4.055   2.715   6.465
    2PC     H2A 8507   4.121   2.800   6.446
    2PC     H2B 8508   3.991   2.717   6.377
    2PC     N31 8509   3.961   2.740   6.579
    2PC     C33 8510   3.923   2.885   6.580
    2PC     H3A 8511   3.883   2.912   6.678
    2PC     H3B 8512   4.007   2.955   6.576
    2PC     H3C 8513   3.854   2.897   6.497
    2PC     C34 8514   3.841   2.650   6.562
    2PC     H4A 8515   3.753   2.712   6.582
    2PC     H4B 8516   3.838   2.611   6.460
    2PC     H4C 8517   3.841   2.561   6.625
    2PC     C35 8518   4.020   2.719   6.715
    2PC     H5A 8519   3.971   2.792   6.779
    2PC     H5B 8520   4.126   2.736   6.697
    2PC     H5C 8521   4.001   2.615   6.741
    2PC     O33 8522   4.244   2.323   6.384
    2PC     O34 8523   4.433   2.465   6.413
    2PC     O21 8524   4.398   2.498   5.894
    2PC     C21 8525   4.401   2.606   5.814
    2PC     O22 8526   4.473   2.702   5.833
    3OL     C12 8527   4.320   2.589   5.688
    3OL     H2R 8528   4.213   2.590   5.710
    3OL     H2S 8529   4.346   2.491   5.647
    3OL     C13 8530   4.334   2.705   5.589
    3OL     H3R 8531   4.438   2.709   5.554
    3OL     H3S 8532   4.322   2.800   5.641
    3OL     C14 8533   4.234   2.705   5.473
    3OL     H4R 8534   4.223   2.802   5.424
    3OL     H4S 8535   4.136   2.691   5.520
    3OL     C15 8536   4.271   2.600   5.368
    3OL     H5R 8537   4.252   2.498   5.401
    3OL     H5S 8538   4.377   2.603   5.342
    3OL     C16 8539   4.195   2.632   5.238
    3OL     H6R 8540   4.224   2.732   5.205
    3OL     H6S 8541   4.086   2.637   5.245
    3OL     C17 8542   4.238   2.539   5.124
    3OL     H7R 8543   4.217   2.435   5.148
    3OL     H7S 8544   4.347   2.544   5.117
    3OL     C18 8545   4.161   2.565   4.993
    3OL     H8R 8546   4.184   2.666   4.961
    3OL     H8S 8547   4.054   2.564   5.014
    3OL     C19 8548   4.184   2.470   4.878
    3OL     H9R 8549   4.130   2.375   4.876
    3OL    C110 8550   4.249   2.504   4.768
    3OL    H10R 8551   4.256   2.433   4.687
    3OL    C111 8552   4.329   2.630   4.747
    3OL    H11R 8553   4.404   2.627   4.827
    3OL    H11S 8554   4.277   2.725   4.759
    3OL    C112 8555   4.395   2.633   4.608
    3OL    H12R 8556   4.313   2.619   4.537
    3OL    H12S 8557   4.465   2.550   4.601
    3OL    C113 8558   4.478   2.757   4.572
    3OL    H13R 8559   4.549   2.785   4.650
    3OL    H13S 8560   4.410   2.841   4.552
    3OL    C114 8561   4.557   2.733   4.443
    3OL    H14R 8562   4.476   2.709   4.374
    3OL    H14S 8563   4.625   2.648   4.434
    3OL    C115 8564   4.615   2.864   4.388
    3OL    H15R 8565   4.685   2.908   4.460
    3OL    H15S 8566   4.536   2.938   4.376
    3OL    C116 8567   4.682   2.835   4.252
    3OL    H16R 8568   4.600   2.780   4.205
    3OL    H16S 8569   4.767   2.769   4.272
    3OL    C117 8570   4.725   2.953   4.165
    3OL    H17R 8571   4.649   3.032   4.164
    3OL    H17S 8572   4.735   2.936   4.058
    3OL    C118 8573   4.859   3.003   4.220
    3OL    H18R 8574   4.936   2.972   4.149
    3OL    H18S 8575   4.876   2.957   4.318
    3OL    H18T 8576   4.866   3.112   4.227
    1PA    C116 8577   6.681   4.453   4.319
    1PA    H16R 8578   6.575   4.456   4.346
    1PA    H16S 8579   6.684   4.465   4.211
    1PA    H16T 8580   6.719   4.547   4.358
    1PA    C115 8581   6.768   4.338   4.372
    1PA    H15R 8582   6.792   4.350   4.478
    1PA    H15S 8583   6.713   4.245   4.356
    1PA    C114 8584   6.906   4.332   4.305
    1PA    H14R 8585   6.945   4.432   4.324
    1PA    H14S 8586   6.969   4.259   4.355
    1PA    C113 8587   6.899   4.313   4.153
    1PA    H13R 8588   6.858   4.404   4.109
    1PA    H13S 8589   7.000   4.303   4.114
    1PA    C112 8590   6.825   4.182   4.120
    1PA    H12R 8591   6.874   4.088   4.146
    1PA    H12S 8592   6.732   4.177   4.176
    1PA    C111 8593   6.765   4.176   3.978
    1PA    H11R 8594   6.851   4.187   3.912
    1PA    H11S 8595   6.716   4.080   3.964
    1PA    C110 8596   6.666   4.289   3.949
    1PA    H10R 8597   6.582   4.280   4.018
    1PA    H10S 8598   6.717   4.384   3.964
    1PA     C19 8599   6.627   4.294   3.800
    1PA     H9R 8600   6.579   4.203   3.764
    1PA     H9S 8601   6.548   4.369   3.788
    1PA     C18 8602   6.750   4.325   3.714
    1PA     H8R 8603   6.802   4.415   3.747
    1PA     H8S 8604   6.826   4.246   3.715
    1PA     C17 8605   6.706   4.353   3.570
    1PA     H7R 8606   6.638   4.274   3.540
    1PA     H7S 8607   6.651   4.447   3.575
    1PA     C16 8608   6.813   4.372   3.461
    1PA     H6R 8609   6.878   4.451   3.500
    1PA     H6S 8610   6.878   4.286   3.442
    1PA     C15 8611   6.755   4.417   3.326
    1PA     H5R 8612   6.685   4.353   3.272
    1PA     H5S 8613   6.698   4.508   3.345
    1PA     C14 8614   6.867   4.457   3.229
    1PA     H4R 8615   6.929   4.535   3.273
    1PA     H4S 8616   6.931   4.375   3.197
    1PA     C13 8617   6.813   4.525   3.102
    1PA     H3R 8618   6.901   4.528   3.037
    1PA     H3S 8619   6.742   4.452   3.064
    1PA     C12 8620   6.755   4.666   3.116
    1PA     H2R 8621   6.663   4.664   3.175
    1PA     H2S 8622   6.823   4.733   3.171
    2PC     C11 8623   6.721   4.730   2.984
    2PC     O12 8624   6.803   4.790   2.917
    2PC     O11 8625   6.596   4.701   2.944
    2PC      C1 8626   6.561   4.729   2.807
    2PC      HR 8627   6.564   4.836   2.784
    2PC      HS 8628   6.632   4.680   2.740
    2PC      C2 8629   6.416   4.681   2.787
    2PC      HX 8630   6.426   4.575   2.811
    2PC      C3 8631   6.373   4.688   2.640
    2PC      HA 8632   6.268   4.661   2.627
    2PC      HB 8633   6.435   4.615   2.586
    2PC     O31 8634   6.408   4.816   2.585
    2PC     P31 8635   6.417   4.836   2.426
    2PC     O32 8636   6.287   4.930   2.418
    2PC     C31 8637   6.296   5.065   2.368
    2PC     H1A 8638   6.372   5.120   2.423
    2PC     H1B 8639   6.339   5.059   2.268
    2PC     C32 8640   6.162   5.140   2.375
    2PC     H2A 8641   6.082   5.086   2.324
    2PC     H2B 8642   6.132   5.145   2.480
    2PC     N31 8643   6.142   5.276   2.316
    2PC     C33 8644   6.245   5.367   2.375
    2PC     H3A 8645   6.227   5.472   2.353
    2PC     H3B 8646   6.246   5.353   2.484
    2PC     H3C 8647   6.336   5.338   2.324
    2PC     C34 8648   6.156   5.273   2.167
    2PC     H4A 8649   6.067   5.227   2.123
    2PC     H4B 8650   6.193   5.364   2.120
    2PC     H4C 8651   6.231   5.196   2.149
    2PC     C35 8652   5.998   5.307   2.348
    2PC     H5A 8653   5.970   5.395   2.289
    2PC     H5B 8654   5.981   5.310   2.455
    2PC     H5C 8655   5.925   5.234   2.314
    2PC     O33 8656   6.544   4.900   2.387
    2PC     O34 8657   6.398   4.713   2.346
    2PC     O21 8658   6.327   4.746   2.879
    2PC     C21 8659   6.208   4.685   2.896
    2PC     O22 8660   6.184   4.578   2.844
    3OL     C12 8661   6.115   4.756   2.991
    3OL     H2R 8662   6.091   4.855   2.951
    3OL     H2S 8663   6.177   4.779   3.078
    3OL     C13 8664   5.996   4.662   3.011
    3OL     H3R 8665   6.027   4.563   3.044
    3OL     H3S 8666   5.950   4.637   2.915
    3OL     C14 8667   5.891   4.732   3.098
    3OL     H4R 8668   5.789   4.695   3.084
    3OL     H4S 8669   5.897   4.837   3.071
    3OL     C15 8670   5.938   4.715   3.243
    3OL     H5R 8671   6.027   4.778   3.257
    3OL     H5S 8672   5.960   4.609   3.260
    3OL     C16 8673   5.825   4.758   3.338
    3OL     H6R 8674   5.745   4.684   3.340
    3OL     H6S 8675   5.778   4.849   3.299
    3OL     C17 8676   5.871   4.779   3.483
    3OL     H7R 8677   5.936   4.867   3.489
    3OL     H7S 8678   5.929   4.690   3.509
    3OL     C18 8679   5.749   4.799   3.573
    3OL     H8R 8680   5.666   4.728   3.557
    3OL     H8S 8681   5.724   4.905   3.569
    3OL     C19 8682   5.792   4.771   3.714
    3OL     H9R 8683   5.790   4.665   3.738
    3OL    C110 8684   5.827   4.857   3.808
    3OL    H10R 8685   5.851   4.811   3.904
    3OL    C111 8686   5.824   5.008   3.803
    3OL    H11R 8687   5.766   5.048   3.720
    3OL    H11S 8688   5.927   5.041   3.794
    3OL    C112 8689   5.774   5.074   3.933
    3OL    H12R 8690   5.858   5.059   4.000
    3OL    H12S 8691   5.695   5.015   3.979
    3OL    C113 8692   5.741   5.223   3.916
    3OL    H13R 8693   5.657   5.228   3.847
    3OL    H13S 8694   5.832   5.275   3.886
    3OL    C114 8695   5.698   5.284   4.050
    3OL    H14R 8696   5.766   5.249   4.128
    3OL    H14S 8697   5.601   5.239   4.071
    3OL    C115 8698   5.708   5.437   4.046
    3OL    H15R 8699   5.649   5.475   3.963
    3OL    H15S 8700   5.811   5.471   4.036
    3OL    C116 8701   5.648   5.491   4.177
    3OL    H16R 8702   5.679   5.595   4.191
    3OL    H16S 8703   5.693   5.425   4.251
    3OL    C117 8704   5.496   5.477   4.191
    3OL    H17R 8705   5.467   5.372   4.202
    3OL    H17S 8706   5.450   5.519   4.101
    3OL    C118 8707   5.438   5.552   4.312
    3OL    H18R 8708   5.333   5.521   4.314
    3OL    H18S 8709   5.453   5.660   4.307
    3OL    H18T 8710   5.487   5.516   4.402
    1PA    C116 8711   0.849   4.665   4.477
    1PA    H16R 8712   0.821   4.729   4.561
    1PA    H16S 8713   0.923   4.692   4.402
    1PA    H16T 8714   0.874   4.567   4.516
    1PA    C115 8715   0.715   4.618   4.417
    1PA    H15R 8716   0.714   4.509   4.418
    1PA    H15S 8717   0.642   4.646   4.492
    1PA    C114 8718   0.678   4.674   4.279
    1PA    H14R 8719   0.569   4.666   4.269
    1PA    H14S 8720   0.696   4.782   4.276
    1PA    C113 8721   0.756   4.594   4.174
    1PA    H13R 8722   0.860   4.630   4.173
    1PA    H13S 8723   0.744   4.487   4.187
    1PA    C112 8724   0.701   4.632   4.036
    1PA    H12R 8725   0.595   4.606   4.041
    1PA    H12S 8726   0.722   4.738   4.025
    1PA    C111 8727   0.761   4.544   3.926
    1PA    H11R 8728   0.870   4.549   3.928
    1PA    H11S 8729   0.730   4.441   3.946
    1PA    C110 8730   0.710   4.584   3.787
    1PA    H10R 8731   0.604   4.559   3.780
    1PA    H10S 8732   0.710   4.690   3.759
    1PA     C19 8733   0.788   4.516   3.674
    1PA     H9R 8734   0.892   4.547   3.685
    1PA     H9S 8735   0.774   4.408   3.670
    1PA     C18 8736   0.757   4.557   3.530
    1PA     H8R 8737   0.648   4.568   3.527
    1PA     H8S 8738   0.804   4.652   3.502
    1PA     C17 8739   0.811   4.451   3.432
    1PA     H7R 8740   0.796   4.351   3.473
    1PA     H7S 8741   0.757   4.459   3.337
    1PA     C16 8742   0.958   4.465   3.391
    1PA     H6R 8743   0.974   4.570   3.365
    1PA     H6S 8744   1.019   4.441   3.477
    1PA     C15 8745   0.990   4.374   3.272
    1PA     H5R 8746   1.020   4.276   3.312
    1PA     H5S 8747   0.914   4.365   3.194
    1PA     C14 8748   1.117   4.425   3.202
    1PA     H4R 8749   1.118   4.533   3.189
    1PA     H4S 8750   1.197   4.407   3.273
    1PA     C13 8751   1.139   4.351   3.069
    1PA     H3R 8752   1.148   4.244   3.090
    1PA     H3S 8753   1.050   4.374   3.011
    1PA     C12 8754   1.274   4.395   3.010
    1PA     H2R 8755   1.261   4.500   2.983
    1PA     H2S 8756   1.358   4.382   3.078
    2PC     C11 8757   1.304   4.325   2.880
    2PC     O12 8758   1.363   4.219   2.876
    2PC     O11 8759   1.263   4.395   2.774
    2PC      C1 8760   1.333   4.370   2.651
    2PC      HR 8761   1.440   4.396   2.657
    2PC      HS 8762   1.313   4.267   2.623
    2PC      C2 8763   1.267   4.469   2.554
    2PC      HX 8764   1.163   4.444   2.531
    2PC      C3 8765   1.348   4.487   2.424
    2PC      HA 8766   1.445   4.529   2.452
    2PC      HB 8767   1.374   4.389   2.385
    2PC     O31 8768   1.288   4.562   2.317
    2PC     P31 8769   1.376   4.596   2.187
    2PC     O32 8770   1.292   4.704   2.104
    2PC     C31 8771   1.308   4.845   2.125
    2PC     H1A 8772   1.246   4.877   2.210
    2PC     H1B 8773   1.413   4.864   2.149
    2PC     C32 8774   1.264   4.921   1.999
    2PC     H2A 8775   1.173   4.872   1.964
    2PC     H2B 8776   1.238   5.022   2.034
    2PC     N31 8777   1.363   4.931   1.887
    2PC     C33 8778   1.494   4.993   1.924
    2PC     H3A 8779   1.570   4.977   1.848
    2PC     H3B 8780   1.477   5.098   1.948
    2PC     H3C 8781   1.533   4.940   2.011
    2PC     C34 8782   1.390   4.795   1.831
    2PC     H4A 8783   1.465   4.797   1.752
    2PC     H4B 8784   1.422   4.745   1.923
    2PC     H4C 8785   1.296   4.752   1.794
    2PC     C35 8786   1.293   5.021   1.790
    2PC     H5A 8787   1.353   5.019   1.698
    2PC     H5B 8788   1.269   5.118   1.834
    2PC     H5C 8789   1.192   4.984   1.775
    2PC     O33 8790   1.511   4.648   2.223
    2PC     O34 8791   1.387   4.485   2.090
    2PC     O21 8792   1.277   4.594   2.624
    2PC     C21 8793   1.186   4.687   2.590
    2PC     O22 8794   1.094   4.672   2.512
    3OL     C12 8795   1.197   4.818   2.664
    3OL     H2R 8796   1.121   4.888   2.628
    3OL     H2S 8797   1.302   4.847   2.654
    3OL     C13 8798   1.180   4.809   2.816
    3OL     H3R 8799   1.237   4.721   2.845
    3OL     H3S 8800   1.075   4.796   2.844
    3OL     C14 8801   1.227   4.939   2.884
    3OL     H4R 8802   1.188   5.028   2.834
    3OL     H4S 8803   1.336   4.942   2.885
    3OL     C15 8804   1.158   4.954   3.020
    3OL     H5R 8805   1.051   4.945   3.005
    3OL     H5S 8806   1.180   5.055   3.055
    3OL     C16 8807   1.210   4.872   3.139
    3OL     H6R 8808   1.317   4.880   3.159
    3OL     H6S 8809   1.191   4.768   3.110
    3OL     C17 8810   1.137   4.922   3.265
    3OL     H7R 8811   1.035   4.886   3.269
    3OL     H7S 8812   1.127   5.031   3.264
    3OL     C18 8813   1.224   4.870   3.380
    3OL     H8R 8814   1.290   4.954   3.401
    3OL     H8S 8815   1.293   4.794   3.346
    3OL     C19 8816   1.133   4.821   3.490
    3OL     H9R 8817   1.029   4.795   3.475
    3OL    C110 8818   1.155   4.843   3.619
    3OL    H10R 8819   1.077   4.828   3.694
    3OL    C111 8820   1.286   4.871   3.688
    3OL    H11R 8821   1.266   4.878   3.795
    3OL    H11S 8822   1.324   4.965   3.649
    3OL    C112 8823   1.380   4.755   3.652
    3OL    H12R 8824   1.480   4.789   3.682
    3OL    H12S 8825   1.375   4.744   3.543
    3OL    C113 8826   1.328   4.624   3.713
    3OL    H13R 8827   1.372   4.544   3.654
    3OL    H13S 8828   1.221   4.607   3.696
    3OL    C114 8829   1.364   4.605   3.861
    3OL    H14R 8830   1.336   4.503   3.889
    3OL    H14S 8831   1.304   4.668   3.927
    3OL    C115 8832   1.514   4.616   3.889
    3OL    H15R 8833   1.555   4.710   3.851
    3OL    H15S 8834   1.562   4.538   3.829
    3OL    C116 8835   1.553   4.586   4.034
    3OL    H16R 8836   1.483   4.511   4.073
    3OL    H16S 8837   1.536   4.668   4.104
    3OL    C117 8838   1.703   4.553   4.043
    3OL    H17R 8839   1.739   4.555   4.146
    3OL    H17S 8840   1.753   4.628   3.982
    3OL    C118 8841   1.729   4.410   3.992
    3OL    H18R 8842   1.822   4.372   4.034
    3OL    H18S 8843   1.738   4.410   3.883
    3OL    H18T 8844   1.656   4.334   4.022
    1PA    C116 8845   0.806   7.091   3.929
    1PA    H16R 8846   0.795   7.053   4.030
    1PA    H16S 8847   0.756   7.025   3.857
    1PA    H16T 8848   0.777   7.196   3.927
    1PA    C115 8849   0.947   7.058   3.877
    1PA    H15R 8850   0.958   7.093   3.775
    1PA    H15S 8851   1.011   7.132   3.924
    1PA    C114 8852   0.983   6.912   3.909
    1PA    H14R 8853   0.954   6.883   4.011
    1PA    H14S 8854   0.927   6.850   3.839
    1PA    C113 8855   1.133   6.886   3.889
    1PA    H13R 8856   1.175   6.978   3.929
    1PA    H13S 8857   1.170   6.800   3.946
    1PA    C112 8858   1.169   6.883   3.740
    1PA    H12R 8859   1.152   6.783   3.702
    1PA    H12S 8860   1.111   6.952   3.678
    1PA    C111 8861   1.316   6.916   3.712
    1PA    H11R 8862   1.334   7.023   3.729
    1PA    H11S 8863   1.381   6.859   3.779
    1PA    C110 8864   1.357   6.889   3.566
    1PA    H10R 8865   1.356   6.781   3.546
    1PA    H10S 8866   1.285   6.941   3.503
    1PA     C19 8867   1.495   6.938   3.521
    1PA     H9R 8868   1.492   6.957   3.413
    1PA     H9S 8869   1.520   7.033   3.569
    1PA     C18 8870   1.607   6.837   3.551
    1PA     H8R 8871   1.703   6.887   3.563
    1PA     H8S 8872   1.580   6.783   3.642
    1PA     C17 8873   1.629   6.736   3.437
    1PA     H7R 8874   1.536   6.683   3.416
    1PA     H7S 8875   1.660   6.787   3.345
    1PA     C16 8876   1.741   6.637   3.474
    1PA     H6R 8877   1.839   6.684   3.474
    1PA     H6S 8878   1.714   6.605   3.574
    1PA     C15 8879   1.748   6.520   3.375
    1PA     H5R 8880   1.823   6.455   3.421
    1PA     H5S 8881   1.650   6.472   3.365
    1PA     C14 8882   1.809   6.567   3.243
    1PA     H4R 8883   1.752   6.647   3.194
    1PA     H4S 8884   1.915   6.591   3.251
    1PA     C13 8885   1.815   6.454   3.139
    1PA     H3R 8886   1.886   6.377   3.171
    1PA     H3S 8887   1.722   6.412   3.101
    1PA     C12 8888   1.880   6.517   3.014
    1PA     H2R 8889   1.825   6.601   2.970
    1PA     H2S 8890   1.976   6.555   3.049
    2PC     C11 8891   1.902   6.413   2.907
    2PC     O12 8892   1.812   6.338   2.876
    2PC     O11 8893   2.023   6.416   2.849
    2PC      C1 8894   2.024   6.338   2.728
    2PC      HR 8895   1.978   6.239   2.728
    2PC      HS 8896   1.968   6.395   2.653
    2PC      C2 8897   2.168   6.324   2.676
    2PC      HX 8898   2.209   6.424   2.667
    2PC      C3 8899   2.174   6.254   2.539
    2PC      HA 8900   2.117   6.310   2.464
    2PC      HB 8901   2.278   6.261   2.508
    2PC     O31 8902   2.141   6.114   2.543
    2PC     P31 8903   2.199   6.015   2.431
    2PC     O32 8904   2.177   6.100   2.297
    2PC     C31 8905   2.180   6.026   2.173
    2PC     H1A 8906   2.284   6.007   2.146
    2PC     H1B 8907   2.142   5.925   2.186
    2PC     C32 8908   2.110   6.117   2.071
    2PC     H2A 8909   2.023   6.155   2.125
    2PC     H2B 8910   2.181   6.197   2.049
    2PC     N31 8911   2.069   6.066   1.937
    2PC     C33 8912   2.193   6.000   1.886
    2PC     H3A 8913   2.188   5.978   1.780
    2PC     H3B 8914   2.272   6.076   1.894
    2PC     H3C 8915   2.211   5.902   1.931
    2PC     C34 8916   1.954   5.970   1.949
    2PC     H4A 8917   1.878   6.039   1.986
    2PC     H4B 8918   1.939   5.924   1.851
    2PC     H4C 8919   1.985   5.891   2.017
    2PC     C35 8920   2.033   6.186   1.853
    2PC     H5A 8921   1.952   6.233   1.909
    2PC     H5B 8922   2.009   6.149   1.753
    2PC     H5C 8923   2.114   6.259   1.848
    2PC     O33 8924   2.342   5.981   2.443
    2PC     O34 8925   2.125   5.887   2.417
    2PC     O21 8926   2.242   6.249   2.774
    2PC     C21 8927   2.374   6.239   2.752
    2PC     O22 8928   2.440   6.291   2.665
    3OL     C12 8929   2.436   6.149   2.856
    3OL     H2R 8930   2.504   6.208   2.918
    3OL     H2S 8931   2.494   6.082   2.793
    3OL     C13 8932   2.344   6.065   2.947
    3OL     H3R 8933   2.258   6.124   2.979
    3OL     H3S 8934   2.403   6.042   3.036
    3OL     C14 8935   2.301   5.933   2.881
    3OL     H4R 8936   2.395   5.878   2.871
    3OL     H4S 8937   2.244   5.953   2.791
    3OL     C15 8938   2.214   5.855   2.980
    3OL     H5R 8939   2.266   5.834   3.074
    3OL     H5S 8940   2.192   5.754   2.945
    3OL     C16 8941   2.083   5.915   3.033
    3OL     H6R 8942   2.104   6.000   3.099
    3OL     H6S 8943   2.026   5.839   3.086
    3OL     C17 8944   1.984   5.958   2.924
    3OL     H7R 8945   1.953   5.876   2.858
    3OL     H7S 8946   2.035   6.034   2.865
    3OL     C18 8947   1.863   6.015   2.999
    3OL     H8R 8948   1.790   6.049   2.925
    3OL     H8S 8949   1.902   6.105   3.047
    3OL     C19 8950   1.807   5.902   3.082
    3OL     H9R 8951   1.802   5.806   3.031
    3OL    C110 8952   1.773   5.909   3.209
    3OL    H10R 8953   1.713   5.830   3.255
    3OL    C111 8954   1.771   6.036   3.289
    3OL    H11R 8955   1.696   6.107   3.252
    3OL    H11S 8956   1.874   6.073   3.279
    3OL    C112 8957   1.752   6.018   3.440
    3OL    H12R 8958   1.826   5.945   3.474
    3OL    H12S 8959   1.661   5.962   3.463
    3OL    C113 8960   1.762   6.148   3.520
    3OL    H13R 8961   1.828   6.216   3.465
    3OL    H13S 8962   1.800   6.126   3.620
    3OL    C114 8963   1.620   6.206   3.519
    3OL    H14R 8964   1.552   6.125   3.548
    3OL    H14S 8965   1.592   6.244   3.421
    3OL    C115 8966   1.606   6.314   3.627
    3OL    H15R 8967   1.675   6.396   3.609
    3OL    H15S 8968   1.628   6.279   3.728
    3OL    C116 8969   1.461   6.366   3.621
    3OL    H16R 8970   1.389   6.285   3.632
    3OL    H16S 8971   1.449   6.400   3.519
    3OL    C117 8972   1.428   6.479   3.720
    3OL    H17R 8973   1.493   6.558   3.684
    3OL    H17S 8974   1.460   6.455   3.822
    3OL    C118 8975   1.279   6.515   3.717
    3OL    H18R 8976   1.264   6.606   3.659
    3OL    H18S 8977   1.240   6.531   3.818
    3OL    H18T 8978   1.233   6.432   3.662
    1PA    C116 8979   1.174   5.362   4.439
    1PA    H16R 8980   1.113   5.438   4.488
    1PA    H16S 8981   1.255   5.332   4.505
    1PA    H16T 8982   1.114   5.271   4.428
    1PA    C115 8983   1.230   5.411   4.305
    1PA    H15R 8984   1.157   5.478   4.260
    1PA    H15S 8985   1.321   5.470   4.321
    1PA    C114 8986   1.257   5.286   4.221
    1PA    H14R 8987   1.315   5.209   4.272
    1PA    H14S 8988   1.161   5.236   4.210
    1PA    C113 8989   1.331   5.330   4.094
    1PA    H13R 8990   1.283   5.421   4.056
    1PA    H13S 8991   1.437   5.350   4.114
    1PA    C112 8992   1.324   5.221   3.986
    1PA    H12R 8993   1.396   5.235   3.905
    1PA    H12S 8994   1.358   5.134   4.043
    1PA    C111 8995   1.183   5.198   3.930
    1PA    H11R 8996   1.163   5.095   3.899
    1PA    H11S 8997   1.110   5.223   4.007
    1PA    C110 8998   1.157   5.298   3.817
    1PA    H10R 8999   1.051   5.325   3.817
    1PA    H10S 9000   1.210   5.391   3.835
    1PA     C19 9001   1.198   5.244   3.679
    1PA     H9R 9002   1.307   5.248   3.670
    1PA     H9S 9003   1.155   5.148   3.652
    1PA     C18 9004   1.138   5.345   3.580
    1PA     H8R 9005   1.032   5.366   3.597
    1PA     H8S 9006   1.190   5.441   3.592
    1PA     C17 9007   1.138   5.292   3.436
    1PA     H7R 9008   1.240   5.267   3.406
    1PA     H7S 9009   1.082   5.198   3.446
    1PA     C16 9010   1.079   5.394   3.338
    1PA     H6R 9011   0.980   5.419   3.378
    1PA     H6S 9012   1.152   5.475   3.345
    1PA     C15 9013   1.079   5.347   3.193
    1PA     H5R 9014   1.177   5.320   3.152
    1PA     H5S 9015   1.017   5.257   3.185
    1PA     C14 9016   1.013   5.455   3.107
    1PA     H4R 9017   0.907   5.455   3.134
    1PA     H4S 9018   1.062   5.551   3.125
    1PA     C13 9019   1.020   5.441   2.954
    1PA     H3R 9020   1.126   5.441   2.927
    1PA     H3S 9021   0.972   5.348   2.924
    1PA     C12 9022   0.946   5.549   2.874
    1PA     H2R 9023   0.842   5.547   2.906
    1PA     H2S 9024   0.982   5.650   2.892
    2PC     C11 9025   0.941   5.522   2.726
    2PC     O12 9026   1.024   5.450   2.674
    2PC     O11 9027   0.828   5.572   2.674
    2PC      C1 9028   0.790   5.525   2.543
    2PC      HR 9029   0.705   5.585   2.509
    2PC      HS 9030   0.867   5.544   2.468
    2PC      C2 9031   0.741   5.380   2.536
    2PC      HX 9032   0.822   5.320   2.578
    2PC      C3 9033   0.702   5.336   2.395
    2PC      HA 9034   0.596   5.347   2.369
    2PC      HB 9035   0.757   5.396   2.323
    2PC     O31 9036   0.737   5.196   2.389
    2PC     P31 9037   0.728   5.107   2.256
    2PC     O32 9038   0.628   4.987   2.294
    2PC     C31 9039   0.492   5.022   2.326
    2PC     H1A 9040   0.509   5.093   2.407
    2PC     H1B 9041   0.439   5.061   2.239
    2PC     C32 9042   0.416   4.898   2.375
    2PC     H2A 9043   0.447   4.869   2.475
    2PC     H2B 9044   0.315   4.934   2.390
    2PC     N31 9045   0.424   4.775   2.289
    2PC     C33 9046   0.565   4.732   2.263
    2PC     H3A 9047   0.601   4.816   2.202
    2PC     H3B 9048   0.619   4.716   2.356
    2PC     H3C 9049   0.566   4.639   2.206
    2PC     C34 9050   0.352   4.663   2.359
    2PC     H4A 9051   0.384   4.645   2.461
    2PC     H4B 9052   0.245   4.687   2.358
    2PC     H4C 9053   0.382   4.571   2.309
    2PC     C35 9054   0.358   4.813   2.160
    2PC     H5A 9055   0.382   4.745   2.078
    2PC     H5B 9056   0.403   4.908   2.130
    2PC     H5C 9057   0.252   4.814   2.187
    2PC     O33 9058   0.681   5.202   2.153
    2PC     O34 9059   0.853   5.038   2.217
    2PC     O21 9060   0.618   5.358   2.608
    2PC     C21 9061   0.615   5.308   2.732
    2PC     O22 9062   0.711   5.311   2.807
    3OL     C12 9063   0.479   5.264   2.778
    3OL     H2R 9064   0.454   5.165   2.740
    3OL     H2S 9065   0.405   5.331   2.733
    3OL     C13 9066   0.461   5.285   2.929
    3OL     H3R 9067   0.444   5.392   2.947
    3OL     H3S 9068   0.550   5.250   2.981
    3OL     C14 9069   0.344   5.208   2.992
    3OL     H4R 9070   0.330   5.240   3.096
    3OL     H4S 9071   0.365   5.101   2.991
    3OL     C15 9072   0.213   5.228   2.913
    3OL     H5R 9073   0.217   5.166   2.824
    3OL     H5S 9074   0.207   5.330   2.875
    3OL     C16 9075   0.087   5.189   2.991
    3OL     H6R 9076   0.006   5.226   2.929
    3OL     H6S 9077   0.096   5.239   3.088
    3OL     C17 9078   0.069   5.041   3.029
    3OL     H7R 9079   0.162   5.002   3.069
    3OL     H7S 9080   0.058   4.974   2.944
    3OL     C18 9081  -0.053   5.020   3.119
    3OL     H8R 9082  -0.029   5.068   3.214
    3OL     H8S 9083  -0.063   4.915   3.146
    3OL     C19 9084  -0.183   5.064   3.056
    3OL     H9R 9085  -0.214   5.022   2.961
    3OL    C110 9086  -0.265   5.149   3.116
    3OL    H10R 9087  -0.356   5.155   3.057
    3OL    C111 9088  -0.247   5.216   3.250
    3OL    H11R 9089  -0.214   5.152   3.332
    3OL    H11S 9090  -0.348   5.249   3.275
    3OL    C112 9091  -0.169   5.348   3.251
    3OL    H12R 9092  -0.171   5.382   3.147
    3OL    H12S 9093  -0.065   5.333   3.282
    3OL    C113 9094  -0.233   5.462   3.332
    3OL    H13R 9095  -0.341   5.456   3.320
    3OL    H13S 9096  -0.190   5.560   3.312
    3OL    C114 9097  -0.227   5.442   3.484
    3OL    H14R 9098  -0.128   5.428   3.528
    3OL    H14S 9099  -0.280   5.350   3.507
    3OL    C115 9100  -0.278   5.567   3.558
    3OL    H15R 9101  -0.368   5.608   3.512
    3OL    H15S 9102  -0.195   5.637   3.547
    3OL    C116 9103  -0.301   5.540   3.707
    3OL    H16R 9104  -0.216   5.500   3.764
    3OL    H16S 9105  -0.375   5.461   3.715
    3OL    C117 9106  -0.364   5.657   3.784
    3OL    H17R 9107  -0.301   5.746   3.796
    3OL    H17S 9108  -0.390   5.620   3.883
    3OL    C118 9109  -0.485   5.713   3.708
    3OL    H18R 9110  -0.552   5.754   3.784
    3OL    H18S 9111  -0.541   5.636   3.655
    3OL    H18T 9112  -0.461   5.795   3.640
    1PA    C116 9113   1.603   4.216   3.630
    1PA    H16R 9114   1.660   4.207   3.537
    1PA    H16S 9115   1.640   4.146   3.706
    1PA    H16T 9116   1.615   4.316   3.672
    1PA    C115 9117   1.453   4.195   3.607
    1PA    H15R 9118   1.416   4.249   3.519
    1PA    H15S 9119   1.438   4.088   3.589
    1PA    C114 9120   1.378   4.228   3.736
    1PA    H14R 9121   1.448   4.205   3.816
    1PA    H14S 9122   1.356   4.335   3.723
    1PA    C113 9123   1.245   4.152   3.753
    1PA    H13R 9124   1.268   4.047   3.735
    1PA    H13S 9125   1.209   4.146   3.856
    1PA    C112 9126   1.135   4.202   3.659
    1PA    H12R 9127   1.105   4.306   3.678
    1PA    H12S 9128   1.163   4.215   3.554
    1PA    C111 9129   1.016   4.107   3.675
    1PA    H11R 9130   0.964   4.096   3.580
    1PA    H11S 9131   1.050   4.005   3.695
    1PA    C110 9132   0.918   4.165   3.777
    1PA    H10R 9133   0.952   4.153   3.880
    1PA    H10S 9134   0.906   4.270   3.749
    1PA     C19 9135   0.780   4.096   3.777
    1PA     H9R 9136   0.784   3.988   3.790
    1PA     H9S 9137   0.725   4.134   3.863
    1PA     C18 9138   0.705   4.126   3.647
    1PA     H8R 9139   0.612   4.178   3.671
    1PA     H8S 9140   0.766   4.198   3.591
    1PA     C17 9141   0.657   3.997   3.578
    1PA     H7R 9142   0.736   3.922   3.578
    1PA     H7S 9143   0.574   3.953   3.635
    1PA     C16 9144   0.615   4.027   3.434
    1PA     H6R 9145   0.531   3.967   3.400
    1PA     H6S 9146   0.588   4.133   3.439
    1PA     C15 9147   0.733   3.995   3.341
    1PA     H5R 9148   0.818   4.057   3.369
    1PA     H5S 9149   0.753   3.888   3.335
    1PA     C14 9150   0.698   4.027   3.194
    1PA     H4R 9151   0.757   3.976   3.117
    1PA     H4S 9152   0.594   4.002   3.172
    1PA     C13 9153   0.711   4.178   3.170
    1PA     H3R 9154   0.659   4.226   3.253
    1PA     H3S 9155   0.817   4.201   3.177
    1PA     C12 9156   0.658   4.209   3.029
    1PA     H2R 9157   0.555   4.178   3.014
    1PA     H2S 9158   0.659   4.316   3.003
    2PC     C11 9159   0.737   4.136   2.923
    2PC     O12 9160   0.685   4.050   2.856
    2PC     O11 9161   0.863   4.179   2.903
    2PC      C1 9162   0.931   4.154   2.779
    2PC      HR 9163   1.035   4.187   2.782
    2PC      HS 9164   0.926   4.047   2.757
    2PC      C2 9165   0.868   4.221   2.656
    2PC      HX 9166   0.761   4.200   2.649
    2PC      C3 9167   0.932   4.182   2.522
    2PC      HA 9168   0.909   4.082   2.483
    2PC      HB 9169   0.896   4.255   2.449
    2PC     O31 9170   1.075   4.183   2.537
    2PC     P31 9171   1.159   4.114   2.419
    2PC     O32 9172   1.160   4.246   2.327
    2PC     C31 9173   1.088   4.240   2.202
    2PC     H1A 9174   1.144   4.181   2.129
    2PC     H1B 9175   0.986   4.208   2.225
    2PC     C32 9176   1.088   4.384   2.147
    2PC     H2A 9177   1.032   4.447   2.217
    2PC     H2B 9178   1.189   4.424   2.145
    2PC     N31 9179   1.027   4.406   2.012
    2PC     C33 9180   1.081   4.537   1.963
    2PC     H3A 9181   1.189   4.526   1.959
    2PC     H3B 9182   1.035   4.555   1.866
    2PC     H3C 9183   1.051   4.609   2.040
    2PC     C34 9184   1.084   4.301   1.922
    2PC     H4A 9185   1.192   4.306   1.940
    2PC     H4B 9186   1.048   4.201   1.947
    2PC     H4C 9187   1.067   4.317   1.816
    2PC     C35 9188   0.878   4.391   2.028
    2PC     H5A 9189   0.843   4.428   1.932
    2PC     H5B 9190   0.845   4.462   2.105
    2PC     H5C 9191   0.843   4.289   2.038
    2PC     O33 9192   1.293   4.077   2.469
    2PC     O34 9193   1.090   3.996   2.364
    2PC     O21 9194   0.891   4.362   2.676
    2PC     C21 9195   0.805   4.432   2.751
    2PC     O22 9196   0.695   4.396   2.790
    3OL     C12 9197   0.865   4.565   2.790
    3OL     H2R 9198   0.894   4.616   2.698
    3OL     H2S 9199   0.952   4.546   2.852
    3OL     C13 9200   0.780   4.659   2.878
    3OL     H3R 9201   0.829   4.756   2.872
    3OL     H3S 9202   0.677   4.663   2.843
    3OL     C14 9203   0.779   4.625   3.027
    3OL     H4R 9204   0.875   4.637   3.077
    3OL     H4S 9205   0.738   4.526   3.049
    3OL     C15 9206   0.679   4.722   3.093
    3OL     H5R 9207   0.622   4.664   3.166
    3OL     H5S 9208   0.608   4.754   3.017
    3OL     C16 9209   0.743   4.848   3.152
    3OL     H6R 9210   0.811   4.890   3.078
    3OL     H6S 9211   0.795   4.826   3.246
    3OL     C17 9212   0.632   4.947   3.192
    3OL     H7R 9213   0.559   4.902   3.260
    3OL     H7S 9214   0.580   4.979   3.102
    3OL     C18 9215   0.685   5.081   3.246
    3OL     H8R 9216   0.604   5.141   3.289
    3OL     H8S 9217   0.721   5.141   3.162
    3OL     C19 9218   0.793   5.061   3.349
    3OL     H9R 9219   0.884   5.019   3.306
    3OL    C110 9220   0.785   5.065   3.481
    3OL    H10R 9221   0.873   5.050   3.543
    3OL    C111 9222   0.654   5.092   3.552
    3OL    H11R 9223   0.566   5.105   3.490
    3OL    H11S 9224   0.671   5.189   3.599
    3OL    C112 9225   0.617   4.996   3.666
    3OL    H12R 9226   0.592   4.899   3.622
    3OL    H12S 9227   0.532   5.030   3.724
    3OL    C113 9228   0.739   4.981   3.758
    3OL    H13R 9229   0.818   4.924   3.707
    3OL    H13S 9230   0.708   4.920   3.843
    3OL    C114 9231   0.799   5.109   3.817
    3OL    H14R 9232   0.851   5.162   3.736
    3OL    H14S 9233   0.869   5.075   3.893
    3OL    C115 9234   0.690   5.198   3.877
    3OL    H15R 9235   0.620   5.133   3.932
    3OL    H15S 9236   0.631   5.256   3.806
    3OL    C116 9237   0.742   5.320   3.955
    3OL    H16R 9238   0.660   5.392   3.954
    3OL    H16S 9239   0.823   5.356   3.892
    3OL    C117 9240   0.786   5.277   4.096
    3OL    H17R 9241   0.876   5.216   4.088
    3OL    H17S 9242   0.712   5.217   4.149
    3OL    C118 9243   0.816   5.407   4.172
    3OL    H18R 9244   0.727   5.471   4.181
    3OL    H18S 9245   0.890   5.475   4.129
    3OL    H18T 9246   0.844   5.382   4.274
    1PA    C116 9247   0.570   3.786   4.016
    1PA    H16R 9248   0.563   3.739   3.918
    1PA    H16S 9249   0.663   3.757   4.066
    1PA    H16T 9250   0.581   3.894   4.002
    1PA    C115 9251   0.445   3.745   4.096
    1PA    H15R 9252   0.445   3.638   4.113
    1PA    H15S 9253   0.453   3.799   4.191
    1PA    C114 9254   0.319   3.794   4.024
    1PA    H14R 9255   0.245   3.813   4.102
    1PA    H14S 9256   0.339   3.888   3.972
    1PA    C113 9257   0.266   3.688   3.926
    1PA    H13R 9258   0.309   3.590   3.947
    1PA    H13S 9259   0.159   3.681   3.946
    1PA    C112 9260   0.295   3.722   3.779
    1PA    H12R 9261   0.395   3.767   3.782
    1PA    H12S 9262   0.303   3.641   3.707
    1PA    C111 9263   0.205   3.826   3.711
    1PA    H11R 9264   0.102   3.797   3.690
    1PA    H11S 9265   0.186   3.908   3.781
    1PA    C110 9266   0.265   3.878   3.580
    1PA    H10R 9267   0.363   3.923   3.599
    1PA    H10S 9268   0.259   3.796   3.509
    1PA     C19 9269   0.177   3.988   3.518
    1PA     H9R 9270   0.074   3.951   3.516
    1PA     H9S 9271   0.166   4.070   3.590
    1PA     C18 9272   0.208   4.029   3.374
    1PA     H8R 9273   0.166   4.126   3.347
    1PA     H8S 9274   0.312   4.052   3.353
    1PA     C17 9275   0.166   3.920   3.274
    1PA     H7R 9276   0.213   3.949   3.180
    1PA     H7S 9277   0.194   3.821   3.310
    1PA     C16 9278   0.016   3.918   3.241
    1PA     H6R 9279  -0.032   3.876   3.329
    1PA     H6S 9280  -0.020   4.020   3.229
    1PA     C15 9281  -0.014   3.828   3.119
    1PA     H5R 9282  -0.122   3.818   3.119
    1PA     H5S 9283   0.018   3.886   3.032
    1PA     C14 9284   0.048   3.688   3.128
    1PA     H4R 9285   0.155   3.694   3.148
    1PA     H4S 9286   0.009   3.626   3.209
    1PA     C13 9287   0.018   3.608   3.000
    1PA     H3R 9288   0.013   3.501   3.021
    1PA     H3S 9289  -0.080   3.629   2.957
    1PA     C12 9290   0.122   3.642   2.892
    1PA     H2R 9291   0.097   3.744   2.866
    1PA     H2S 9292   0.224   3.635   2.930
    2PC     C11 9293   0.124   3.557   2.767
    2PC     O12 9294   0.057   3.457   2.754
    2PC     O11 9295   0.220   3.589   2.679
    2PC      C1 9296   0.249   3.500   2.569
    2PC      HR 9297   0.267   3.398   2.604
    2PC      HS 9298   0.165   3.511   2.501
    2PC      C2 9299   0.366   3.565   2.493
    2PC      HX 9300   0.337   3.670   2.486
    2PC      C3 9301   0.371   3.505   2.352
    2PC      HA 9302   0.279   3.530   2.298
    2PC      HB 9303   0.453   3.539   2.287
    2PC     O31 9304   0.378   3.363   2.373
    2PC     P31 9305   0.405   3.277   2.240
    2PC     O32 9306   0.370   3.134   2.304
    2PC     C31 9307   0.250   3.121   2.383
    2PC     H1A 9308   0.280   3.125   2.488
    2PC     H1B 9309   0.185   3.206   2.364
    2PC     C32 9310   0.185   2.983   2.367
    2PC     H2A 9311   0.256   2.906   2.401
    2PC     H2B 9312   0.102   2.968   2.436
    2PC     N31 9313   0.158   2.946   2.224
    2PC     C33 9314   0.104   3.053   2.135
    2PC     H3A 9315   0.032   3.115   2.189
    2PC     H3B 9316   0.179   3.119   2.093
    2PC     H3C 9317   0.055   2.999   2.054
    2PC     C34 9318   0.284   2.893   2.162
    2PC     H4A 9319   0.306   2.789   2.187
    2PC     H4B 9320   0.265   2.894   2.055
    2PC     H4C 9321   0.365   2.956   2.200
    2PC     C35 9322   0.052   2.840   2.216
    2PC     H5A 9323   0.072   2.772   2.299
    2PC     H5B 9324   0.068   2.775   2.131
    2PC     H5C 9325  -0.047   2.887   2.218
    2PC     O33 9326   0.322   3.329   2.130
    2PC     O34 9327   0.542   3.286   2.186
    2PC     O21 9328   0.490   3.547   2.563
    2PC     C21 9329   0.580   3.647   2.555
    2PC     O22 9330   0.558   3.746   2.489
    3OL     C12 9331   0.701   3.630   2.643
    3OL     H2R 9332   0.789   3.659   2.586
    3OL     H2S 9333   0.711   3.522   2.659
    3OL     C13 9334   0.694   3.716   2.770
    3OL     H3R 9335   0.655   3.812   2.733
    3OL     H3S 9336   0.796   3.735   2.803
    3OL     C14 9337   0.600   3.656   2.876
    3OL     H4R 9338   0.642   3.560   2.909
    3OL     H4S 9339   0.503   3.636   2.831
    3OL     C15 9340   0.579   3.749   2.996
    3OL     H5R 9341   0.526   3.839   2.964
    3OL     H5S 9342   0.678   3.778   3.030
    3OL     C16 9343   0.505   3.676   3.109
    3OL     H6R 9344   0.526   3.569   3.118
    3OL     H6S 9345   0.399   3.683   3.085
    3OL     C17 9346   0.525   3.729   3.252
    3OL     H7R 9347   0.468   3.822   3.263
    3OL     H7S 9348   0.629   3.747   3.281
    3OL     C18 9349   0.468   3.629   3.353
    3OL     H8R 9350   0.367   3.607   3.318
    3OL     H8S 9351   0.456   3.680   3.449
    3OL     C19 9352   0.541   3.498   3.365
    3OL     H9R 9353   0.556   3.453   3.267
    3OL    C110 9354   0.606   3.455   3.472
    3OL    H10R 9355   0.672   3.370   3.461
    3OL    C111 9356   0.624   3.515   3.610
    3OL    H11R 9357   0.590   3.443   3.684
    3OL    H11S 9358   0.571   3.609   3.627
    3OL    C112 9359   0.776   3.526   3.628
    3OL    H12R 9360   0.808   3.422   3.617
    3OL    H12S 9361   0.807   3.554   3.728
    3OL    C113 9362   0.842   3.615   3.522
    3OL    H13R 9363   0.800   3.711   3.551
    3OL    H13S 9364   0.809   3.584   3.422
    3OL    C114 9365   0.994   3.625   3.540
    3OL    H14R 9366   1.046   3.661   3.451
    3OL    H14S 9367   1.030   3.526   3.568
    3OL    C115 9368   1.042   3.728   3.643
    3OL    H15R 9369   0.987   3.720   3.737
    3OL    H15S 9370   1.023   3.822   3.591
    3OL    C116 9371   1.193   3.735   3.666
    3OL    H16R 9372   1.218   3.814   3.737
    3OL    H16S 9373   1.243   3.767   3.574
    3OL    C117 9374   1.253   3.607   3.725
    3OL    H17R 9375   1.247   3.518   3.662
    3OL    H17S 9376   1.198   3.581   3.816
    3OL    C118 9377   1.402   3.633   3.748
    3OL    H18R 9378   1.434   3.540   3.796
    3OL    H18S 9379   1.423   3.722   3.807
    3OL    H18T 9380   1.459   3.638   3.655
    1PA    C116 9381   1.906   5.033   4.717
    1PA    H16R 9382   1.936   5.022   4.822
    1PA    H16S 9383   1.979   4.982   4.653
    1PA    H16T 9384   1.813   4.977   4.707
    1PA    C115 9385   1.890   5.183   4.692
    1PA    H15R 9386   1.833   5.184   4.599
    1PA    H15S 9387   1.819   5.219   4.767
    1PA    C114 9388   2.017   5.267   4.671
    1PA    H14R 9389   1.992   5.372   4.692
    1PA    H14S 9390   2.107   5.237   4.726
    1PA    C113 9391   2.067   5.258   4.526
    1PA    H13R 9392   2.147   5.331   4.517
    1PA    H13S 9393   2.119   5.164   4.510
    1PA    C112 9394   1.981   5.303   4.407
    1PA    H12R 9395   1.886   5.250   4.407
    1PA    H12S 9396   1.966   5.410   4.415
    1PA    C111 9397   2.033   5.281   4.264
    1PA    H11R 9398   2.126   5.339   4.260
    1PA    H11S 9399   2.044   5.175   4.240
    1PA    C110 9400   1.942   5.351   4.162
    1PA    H10R 9401   1.840   5.344   4.200
    1PA    H10S 9402   1.966   5.458   4.165
    1PA     C19 9403   1.977   5.308   4.019
    1PA     H9R 9404   2.083   5.323   3.997
    1PA     H9S 9405   1.965   5.199   4.021
    1PA     C18 9406   1.890   5.383   3.918
    1PA     H8R 9407   1.785   5.376   3.947
    1PA     H8S 9408   1.907   5.491   3.917
    1PA     C17 9409   1.915   5.330   3.776
    1PA     H7R 9410   2.024   5.330   3.769
    1PA     H7S 9411   1.883   5.226   3.768
    1PA     C16 9412   1.846   5.418   3.671
    1PA     H6R 9413   1.741   5.387   3.677
    1PA     H6S 9414   1.853   5.523   3.697
    1PA     C15 9415   1.894   5.385   3.529
    1PA     H5R 9416   1.995   5.418   3.504
    1PA     H5S 9417   1.898   5.276   3.519
    1PA     C14 9418   1.797   5.450   3.430
    1PA     H4R 9419   1.699   5.406   3.448
    1PA     H4S 9420   1.782   5.557   3.446
    1PA     C13 9421   1.854   5.430   3.289
    1PA     H3R 9422   1.913   5.338   3.282
    1PA     H3S 9423   1.775   5.424   3.214
    1PA     C12 9424   1.949   5.542   3.243
    1PA     H2R 9425   1.891   5.632   3.266
    1PA     H2S 9426   2.036   5.540   3.310
    2PC     C11 9427   1.993   5.537   3.099
    2PC     O12 9428   2.111   5.534   3.070
    2PC     O11 9429   1.893   5.549   3.011
    2PC      C1 9430   1.915   5.568   2.870
    2PC      HR 9431   1.907   5.675   2.852
    2PC      HS 9432   2.017   5.540   2.843
    2PC      C2 9433   1.825   5.481   2.781
    2PC      HX 9434   1.847   5.374   2.784
    2PC      C3 9435   1.842   5.527   2.635
    2PC      HA 9436   1.813   5.632   2.624
    2PC      HB 9437   1.944   5.523   2.596
    2PC     O31 9438   1.758   5.452   2.546
    2PC     P31 9439   1.765   5.478   2.388
    2PC     O32 9440   1.617   5.537   2.371
    2PC     C31 9441   1.508   5.447   2.397
    2PC     H1A 9442   1.496   5.382   2.310
    2PC     H1B 9443   1.522   5.392   2.490
    2PC     C32 9444   1.378   5.528   2.401
    2PC     H2A 9445   1.293   5.465   2.428
    2PC     H2B 9446   1.382   5.608   2.476
    2PC     N31 9447   1.321   5.610   2.289
    2PC     C33 9448   1.390   5.741   2.265
    2PC     H3A 9449   1.361   5.779   2.167
    2PC     H3B 9450   1.363   5.801   2.351
    2PC     H3C 9451   1.496   5.716   2.255
    2PC     C34 9452   1.334   5.548   2.153
    2PC     H4A 9453   1.308   5.621   2.077
    2PC     H4B 9454   1.442   5.532   2.152
    2PC     H4C 9455   1.285   5.451   2.145
    2PC     C35 9456   1.178   5.640   2.323
    2PC     H5A 9457   1.116   5.554   2.296
    2PC     H5B 9458   1.151   5.731   2.269
    2PC     H5C 9459   1.172   5.658   2.430
    2PC     O33 9460   1.868   5.574   2.344
    2PC     O34 9461   1.795   5.355   2.311
    2PC     O21 9462   1.687   5.501   2.818
    2PC     C21 9463   1.634   5.624   2.827
    2PC     O22 9464   1.678   5.733   2.796
    3OL     C12 9465   1.498   5.628   2.891
    3OL     H2R 9466   1.452   5.529   2.880
    3OL     H2S 9467   1.438   5.699   2.833
    3OL     C13 9468   1.498   5.664   3.040
    3OL     H3R 9469   1.524   5.769   3.054
    3OL     H3S 9470   1.577   5.609   3.091
    3OL     C14 9471   1.361   5.637   3.103
    3OL     H4R 9472   1.332   5.532   3.107
    3OL     H4S 9473   1.288   5.694   3.045
    3OL     C15 9474   1.354   5.692   3.246
    3OL     H5R 9475   1.249   5.682   3.274
    3OL     H5S 9476   1.386   5.797   3.249
    3OL     C16 9477   1.434   5.613   3.351
    3OL     H6R 9478   1.541   5.604   3.333
    3OL     H6S 9479   1.398   5.511   3.338
    3OL     C17 9480   1.417   5.661   3.496
    3OL     H7R 9481   1.313   5.651   3.528
    3OL     H7S 9482   1.426   5.770   3.499
    3OL     C18 9483   1.508   5.615   3.610
    3OL     H8R 9484   1.602   5.670   3.609
    3OL     H8S 9485   1.525   5.507   3.610
    3OL     C19 9486   1.443   5.652   3.741
    3OL     H9R 9487   1.385   5.574   3.791
    3OL    C110 9488   1.449   5.771   3.799
    3OL    H10R 9489   1.400   5.784   3.895
    3OL    C111 9490   1.517   5.892   3.741
    3OL    H11R 9491   1.447   5.975   3.726
    3OL    H11S 9492   1.545   5.875   3.636
    3OL    C112 9493   1.648   5.937   3.806
    3OL    H12R 9494   1.636   5.934   3.914
    3OL    H12S 9495   1.669   6.039   3.772
    3OL    C113 9496   1.769   5.847   3.775
    3OL    H13R 9497   1.784   5.832   3.668
    3OL    H13S 9498   1.751   5.747   3.815
    3OL    C114 9499   1.904   5.902   3.822
    3OL    H14R 9500   1.901   5.936   3.926
    3OL    H14S 9501   1.920   6.000   3.776
    3OL    C115 9502   2.021   5.802   3.822
    3OL    H15R 9503   2.003   5.718   3.889
    3OL    H15S 9504   2.114   5.841   3.863
    3OL    C116 9505   2.055   5.758   3.679
    3OL    H16R 9506   1.963   5.721   3.633
    3OL    H16S 9507   2.126   5.675   3.672
    3OL    C117 9508   2.111   5.877   3.599
    3OL    H17R 9509   2.197   5.915   3.655
    3OL    H17S 9510   2.031   5.952   3.599
    3OL    C118 9511   2.157   5.850   3.456
    3OL    H18R 9512   2.076   5.799   3.403
    3OL    H18S 9513   2.242   5.781   3.459
    3OL    H18T 9514   2.185   5.944   3.409
    1PA    C116 9515   2.728   3.213   4.156
    1PA    H16R 9516   2.791   3.133   4.195
    1PA    H16S 9517   2.673   3.161   4.077
    1PA    H16T 9518   2.656   3.228   4.236
    1PA    C115 9519   2.805   3.339   4.114
    1PA    H15R 9520   2.855   3.371   4.205
    1PA    H15S 9521   2.876   3.317   4.033
    1PA    C114 9522   2.710   3.445   4.058
    1PA    H14R 9523   2.647   3.395   3.984
    1PA    H14S 9524   2.637   3.481   4.132
    1PA    C113 9525   2.781   3.562   3.989
    1PA    H13R 9526   2.854   3.598   4.063
    1PA    H13S 9527   2.834   3.510   3.909
    1PA    C112 9528   2.689   3.677   3.944
    1PA    H12R 9529   2.600   3.644   3.890
    1PA    H12S 9530   2.661   3.746   4.023
    1PA    C111 9531   2.763   3.756   3.836
    1PA    H11R 9532   2.855   3.796   3.880
    1PA    H11S 9533   2.794   3.690   3.755
    1PA    C110 9534   2.677   3.866   3.770
    1PA    H10R 9535   2.572   3.836   3.762
    1PA    H10S 9536   2.670   3.950   3.839
    1PA     C19 9537   2.732   3.912   3.634
    1PA     H9R 9538   2.839   3.936   3.640
    1PA     H9S 9539   2.729   3.841   3.551
    1PA     C18 9540   2.647   4.030   3.587
    1PA     H8R 9541   2.543   3.999   3.579
    1PA     H8S 9542   2.659   4.111   3.660
    1PA     C17 9543   2.692   4.077   3.448
    1PA     H7R 9544   2.801   4.080   3.441
    1PA     H7S 9545   2.665   3.996   3.380
    1PA     C16 9546   2.625   4.203   3.391
    1PA     H6R 9547   2.518   4.187   3.382
    1PA     H6S 9548   2.642   4.291   3.452
    1PA     C15 9549   2.667   4.239   3.248
    1PA     H5R 9550   2.775   4.253   3.254
    1PA     H5S 9551   2.647   4.162   3.173
    1PA     C14 9552   2.602   4.374   3.213
    1PA     H4R 9553   2.497   4.387   3.240
    1PA     H4S 9554   2.654   4.456   3.264
    1PA     C13 9555   2.624   4.399   3.063
    1PA     H3R 9556   2.728   4.395   3.029
    1PA     H3S 9557   2.572   4.321   3.007
    1PA     C12 9558   2.562   4.532   3.016
    1PA     H2R 9559   2.454   4.522   3.014
    1PA     H2S 9560   2.580   4.604   3.096
    2PC     C11 9561   2.609   4.568   2.878
    2PC     O12 9562   2.543   4.546   2.778
    2PC     O11 9563   2.733   4.621   2.874
    2PC      C1 9564   2.776   4.674   2.747
    2PC      HR 9565   2.886   4.679   2.746
    2PC      HS 9566   2.753   4.602   2.669
    2PC      C2 9567   2.702   4.803   2.707
    2PC      HX 9568   2.596   4.777   2.704
    2PC      C3 9569   2.751   4.845   2.568
    2PC      HA 9570   2.717   4.768   2.498
    2PC      HB 9571   2.703   4.940   2.540
    2PC     O31 9572   2.894   4.852   2.561
    2PC     P31 9573   2.952   4.890   2.417
    2PC     O32 9574   3.058   4.993   2.479
    2PC     C31 9575   3.088   5.111   2.402
    2PC     H1A 9576   3.188   5.143   2.430
    2PC     H1B 9577   3.083   5.089   2.295
    2PC     C32 9578   2.989   5.225   2.427
    2PC     H2A 9579   3.019   5.318   2.378
    2PC     H2B 9580   2.888   5.208   2.389
    2PC     N31 9581   2.957   5.256   2.570
    2PC     C33 9582   3.082   5.266   2.653
    2PC     H3A 9583   3.144   5.339   2.601
    2PC     H3B 9584   3.057   5.302   2.753
    2PC     H3C 9585   3.137   5.173   2.663
    2PC     C34 9586   2.887   5.389   2.577
    2PC     H4A 9587   2.867   5.422   2.679
    2PC     H4B 9588   2.957   5.458   2.530
    2PC     H4C 9589   2.794   5.382   2.521
    2PC     C35 9590   2.867   5.153   2.630
    2PC     H5A 9591   2.938   5.085   2.678
    2PC     H5B 9592   2.815   5.105   2.547
    2PC     H5C 9593   2.805   5.208   2.700
    2PC     O33 9594   3.019   4.788   2.333
    2PC     O34 9595   2.857   4.963   2.329
    2PC     O21 9596   2.736   4.911   2.796
    2PC     C21 9597   2.679   4.919   2.917
    2PC     O22 9598   2.577   4.861   2.949
    3OL     C12 9599   2.757   5.009   3.010
    3OL     H2R 9600   2.794   5.092   2.951
    3OL     H2S 9601   2.842   4.947   3.039
    3OL     C13 9602   2.683   5.055   3.137
    3OL     H3R 9603   2.757   5.099   3.204
    3OL     H3S 9604   2.652   4.965   3.189
    3OL     C14 9605   2.569   5.155   3.111
    3OL     H4R 9606   2.490   5.128   3.040
    3OL     H4S 9607   2.615   5.239   3.058
    3OL     C15 9608   2.499   5.204   3.238
    3OL     H5R 9609   2.580   5.243   3.300
    3OL     H5S 9610   2.447   5.119   3.282
    3OL     C16 9611   2.399   5.317   3.207
    3OL     H6R 9612   2.320   5.277   3.143
    3OL     H6S 9613   2.442   5.395   3.144
    3OL     C17 9614   2.327   5.368   3.332
    3OL     H7R 9615   2.268   5.293   3.386
    3OL     H7S 9616   2.254   5.445   3.304
    3OL     C18 9617   2.428   5.428   3.432
    3OL     H8R 9618   2.508   5.475   3.375
    3OL     H8S 9619   2.482   5.350   3.485
    3OL     C19 9620   2.365   5.531   3.523
    3OL     H9R 9621   2.285   5.584   3.471
    3OL    C110 9622   2.386   5.548   3.652
    3OL    H10R 9623   2.326   5.619   3.708
    3OL    C111 9624   2.481   5.466   3.736
    3OL    H11R 9625   2.572   5.520   3.762
    3OL    H11S 9626   2.509   5.368   3.698
    3OL    C112 9627   2.404   5.437   3.866
    3OL    H12R 9628   2.464   5.365   3.921
    3OL    H12S 9629   2.305   5.394   3.847
    3OL    C113 9630   2.396   5.564   3.952
    3OL    H13R 9631   2.337   5.643   3.905
    3OL    H13S 9632   2.493   5.601   3.985
    3OL    C114 9633   2.335   5.538   4.090
    3OL    H14R 9634   2.385   5.460   4.148
    3OL    H14S 9635   2.232   5.509   4.066
    3OL    C115 9636   2.334   5.669   4.170
    3OL    H15R 9637   2.259   5.738   4.129
    3OL    H15S 9638   2.429   5.722   4.160
    3OL    C116 9639   2.297   5.654   4.318
    3OL    H16R 9640   2.325   5.743   4.374
    3OL    H16S 9641   2.343   5.565   4.363
    3OL    C117 9642   2.146   5.642   4.347
    3OL    H17R 9643   2.132   5.536   4.325
    3OL    H17S 9644   2.089   5.689   4.267
    3OL    C118 9645   2.105   5.687   4.488
    3OL    H18R 9646   2.003   5.652   4.503
    3OL    H18S 9647   2.113   5.795   4.501
    3OL    H18T 9648   2.173   5.635   4.557
    1PA    C116 9649   0.512   5.783   4.061
    1PA    H16R 9650   0.619   5.765   4.053
    1PA    H16S 9651   0.462   5.740   3.973
    1PA    H16T 9652   0.461   5.750   4.151
    1PA    C115 9653   0.501   5.936   4.054
    1PA    H15R 9654   0.403   5.978   4.077
    1PA    H15S 9655   0.560   5.972   4.139
    1PA    C114 9656   0.544   6.001   3.922
    1PA    H14R 9657   0.547   6.108   3.944
    1PA    H14S 9658   0.648   5.980   3.895
    1PA    C113 9659   0.451   5.980   3.802
    1PA    H13R 9660   0.472   5.882   3.758
    1PA    H13S 9661   0.349   5.990   3.840
    1PA    C112 9662   0.482   6.080   3.690
    1PA    H12R 9663   0.445   6.178   3.719
    1PA    H12S 9664   0.588   6.094   3.667
    1PA    C111 9665   0.402   6.032   3.568
    1PA    H11R 9666   0.440   5.935   3.535
    1PA    H11S 9667   0.300   6.016   3.604
    1PA    C110 9668   0.383   6.132   3.453
    1PA    H10R 9669   0.331   6.072   3.379
    1PA    H10S 9670   0.336   6.225   3.487
    1PA     C19 9671   0.523   6.160   3.395
    1PA     H9R 9672   0.578   6.200   3.481
    1PA     H9S 9673   0.576   6.072   3.360
    1PA     C18 9674   0.520   6.266   3.284
    1PA     H8R 9675   0.443   6.342   3.298
    1PA     H8S 9676   0.615   6.320   3.288
    1PA     C17 9677   0.515   6.206   3.143
    1PA     H7R 9678   0.602   6.144   3.120
    1PA     H7S 9679   0.438   6.129   3.141
    1PA     C16 9680   0.492   6.310   3.033
    1PA     H6R 9681   0.408   6.378   3.051
    1PA     H6S 9682   0.584   6.368   3.033
    1PA     C15 9683   0.467   6.252   2.893
    1PA     H5R 9684   0.537   6.174   2.863
    1PA     H5S 9685   0.373   6.196   2.889
    1PA     C14 9686   0.477   6.369   2.794
    1PA     H4R 9687   0.392   6.433   2.816
    1PA     H4S 9688   0.570   6.425   2.807
    1PA     C13 9689   0.473   6.321   2.648
    1PA     H3R 9690   0.433   6.220   2.639
    1PA     H3S 9691   0.424   6.399   2.589
    1PA     C12 9692   0.618   6.322   2.597
    1PA     H2R 9693   0.649   6.427   2.599
    1PA     H2S 9694   0.680   6.263   2.664
    2PC     C11 9695   0.634   6.276   2.454
    2PC     O12 9696   0.723   6.308   2.377
    2PC     O11 9697   0.533   6.197   2.416
    2PC      C1 9698   0.514   6.152   2.281
    2PC      HR 9699   0.514   6.242   2.220
    2PC      HS 9700   0.602   6.092   2.257
    2PC      C2 9701   0.387   6.067   2.261
    2PC      HX 9702   0.389   6.038   2.155
    2PC      C3 9703   0.262   6.153   2.282
    2PC      HA 9704   0.246   6.153   2.390
    2PC      HB 9705   0.269   6.255   2.242
    2PC     O31 9706   0.142   6.102   2.221
    2PC     P31 9707   0.133   6.079   2.062
    2PC     O32 9708   0.194   5.931   2.051
    2PC     C31 9709   0.125   5.817   2.106
    2PC     H1A 9710   0.128   5.817   2.215
    2PC     H1B 9711   0.018   5.831   2.084
    2PC     C32 9712   0.172   5.683   2.047
    2PC     H2A 9713   0.275   5.673   2.079
    2PC     H2B 9714   0.113   5.611   2.104
    2PC     N31 9715   0.168   5.656   1.900
    2PC     C33 9716   0.030   5.637   1.845
    2PC     H3A 9717  -0.038   5.708   1.892
    2PC     H3B 9718   0.029   5.644   1.736
    2PC     H3C 9719  -0.005   5.539   1.879
    2PC     C34 9720   0.237   5.762   1.819
    2PC     H4A 9721   0.338   5.761   1.859
    2PC     H4B 9722   0.241   5.736   1.713
    2PC     H4C 9723   0.185   5.858   1.827
    2PC     C35 9724   0.236   5.524   1.879
    2PC     H5A 9725   0.341   5.535   1.906
    2PC     H5B 9726   0.239   5.495   1.774
    2PC     H5C 9727   0.200   5.444   1.945
    2PC     O33 9728  -0.013   6.073   2.037
    2PC     O34 9729   0.191   6.183   1.974
    2PC     O21 9730   0.401   5.953   2.348
    2PC     C21 9731   0.486   5.851   2.330
    2PC     O22 9732   0.580   5.859   2.253
    3OL     C12 9733   0.460   5.727   2.411
    3OL     H2R 9734   0.547   5.663   2.395
    3OL     H2S 9735   0.378   5.672   2.366
    3OL     C13 9736   0.417   5.760   2.555
    3OL     H3R 9737   0.326   5.821   2.563
    3OL     H3S 9738   0.486   5.826   2.607
    3OL     C14 9739   0.398   5.642   2.651
    3OL     H4R 9740   0.494   5.589   2.656
    3OL     H4S 9741   0.331   5.566   2.611
    3OL     C15 9742   0.349   5.686   2.790
    3OL     H5R 9743   0.300   5.606   2.845
    3OL     H5S 9744   0.282   5.771   2.786
    3OL     C16 9745   0.470   5.722   2.878
    3OL     H6R 9746   0.536   5.798   2.837
    3OL     H6S 9747   0.543   5.643   2.894
    3OL     C17 9748   0.428   5.768   3.018
    3OL     H7R 9749   0.324   5.801   3.009
    3OL     H7S 9750   0.490   5.853   3.050
    3OL     C18 9751   0.432   5.660   3.126
    3OL     H8R 9752   0.529   5.611   3.127
    3OL     H8S 9753   0.351   5.589   3.107
    3OL     C19 9754   0.411   5.722   3.262
    3OL     H9R 9755   0.498   5.749   3.322
    3OL    C110 9756   0.294   5.724   3.325
    3OL    H10R 9757   0.295   5.757   3.429
    3OL    C111 9758   0.167   5.666   3.270
    3OL    H11R 9759   0.178   5.645   3.164
    3OL    H11S 9760   0.090   5.742   3.254
    3OL    C112 9761   0.127   5.540   3.348
    3OL    H12R 9762   0.027   5.515   3.313
    3OL    H12S 9763   0.109   5.570   3.452
    3OL    C113 9764   0.229   5.425   3.344
    3OL    H13R 9765   0.318   5.469   3.390
    3OL    H13S 9766   0.242   5.401   3.238
    3OL    C114 9767   0.188   5.304   3.429
    3OL    H14R 9768   0.085   5.276   3.407
    3OL    H14S 9769   0.200   5.319   3.536
    3OL    C115 9770   0.264   5.179   3.383
    3OL    H15R 9771   0.372   5.192   3.398
    3OL    H15S 9772   0.250   5.172   3.275
    3OL    C116 9773   0.221   5.050   3.453
    3OL    H16R 9774   0.113   5.040   3.441
    3OL    H16S 9775   0.249   5.057   3.559
    3OL    C117 9776   0.284   4.926   3.388
    3OL    H17R 9777   0.392   4.941   3.393
    3OL    H17S 9778   0.257   4.922   3.282
    3OL    C118 9779   0.233   4.802   3.463
    3OL    H18R 9780   0.251   4.809   3.570
    3OL    H18S 9781   0.293   4.721   3.421
    3OL    H18T 9782   0.128   4.779   3.445
    1PA    C116 9783  -0.246  -0.028   3.515
    1PA    H16R 9784  -0.208  -0.110   3.453
    1PA    H16S 9785  -0.261   0.062   3.455
    1PA    H16T 9786  -0.337  -0.058   3.567
    1PA    C115 9787  -0.152  -0.009   3.634
    1PA    H15R 9788  -0.186   0.073   3.697
    1PA    H15S 9789  -0.158  -0.090   3.708
    1PA    C114 9790  -0.007   0.010   3.588
    1PA    H14R 9791   0.052  -0.045   3.663
    1PA    H14S 9792   0.014  -0.046   3.496
    1PA    C113 9793   0.051   0.152   3.591
    1PA    H13R 9794   0.000   0.218   3.521
    1PA    H13S 9795   0.055   0.195   3.691
    1PA    C112 9796   0.192   0.140   3.531
    1PA    H12R 9797   0.240   0.051   3.575
    1PA    H12S 9798   0.185   0.114   3.425
    1PA    C111 9799   0.291   0.256   3.550
    1PA    H11R 9800   0.240   0.344   3.510
    1PA    H11S 9801   0.305   0.268   3.658
    1PA    C110 9802   0.428   0.222   3.491
    1PA    H10R 9803   0.500   0.276   3.554
    1PA    H10S 9804   0.454   0.117   3.508
    1PA     C19 9805   0.441   0.273   3.347
    1PA     H9R 9806   0.385   0.364   3.326
    1PA     H9S 9807   0.547   0.298   3.338
    1PA     C18 9808   0.419   0.164   3.242
    1PA     H8R 9809   0.500   0.091   3.250
    1PA     H8S 9810   0.326   0.107   3.253
    1PA     C17 9811   0.416   0.227   3.102
    1PA     H7R 9812   0.365   0.159   3.033
    1PA     H7S 9813   0.363   0.322   3.100
    1PA     C16 9814   0.562   0.244   3.059
    1PA     H6R 9815   0.632   0.300   3.122
    1PA     H6S 9816   0.598   0.140   3.057
    1PA     C15 9817   0.580   0.287   2.913
    1PA     H5R 9818   0.677   0.243   2.893
    1PA     H5S 9819   0.499   0.254   2.848
    1PA     C14 9820   0.579   0.440   2.901
    1PA     H4R 9821   0.488   0.480   2.947
    1PA     H4S 9822   0.657   0.485   2.964
    1PA     C13 9823   0.586   0.482   2.754
    1PA     H3R 9824   0.617   0.587   2.749
    1PA     H3S 9825   0.651   0.413   2.698
    1PA     C12 9826   0.444   0.488   2.697
    1PA     H2R 9827   0.397   0.390   2.687
    1PA     H2S 9828   0.384   0.559   2.755
    2PC     C11 9829   0.451   0.537   2.555
    2PC     O12 9830   0.550   0.542   2.485
    2PC     O11 9831   0.325   0.553   2.512
    2PC      C1 9832   0.312   0.551   2.368
    2PC      HR 9833   0.216   0.597   2.341
    2PC      HS 9834   0.382   0.620   2.321
    2PC      C2 9835   0.329   0.414   2.302
    2PC      HX 9836   0.430   0.376   2.322
    2PC      C3 9837   0.308   0.436   2.151
    2PC      HA 9838   0.388   0.500   2.114
    2PC      HB 9839   0.322   0.346   2.090
    2PC     O31 9840   0.179   0.496   2.127
    2PC     P31 9841   0.131   0.506   1.975
    2PC     O32 9842   0.102   0.349   1.963
    2PC     C31 9843  -0.001   0.293   2.047
    2PC     H1A 9844   0.044   0.264   2.143
    2PC     H1B 9845  -0.078   0.369   2.062
    2PC     C32 9846  -0.055   0.169   1.975
    2PC     H2A 9847  -0.135   0.131   2.040
    2PC     H2B 9848  -0.086   0.202   1.876
    2PC     N31 9849   0.038   0.053   1.955
    2PC     C33 9850  -0.038  -0.049   1.875
    2PC     H3A 9851  -0.130  -0.062   1.932
    2PC     H3B 9852  -0.057  -0.015   1.773
    2PC     H3C 9853   0.022  -0.140   1.867
    2PC     C34 9854   0.158   0.074   1.868
    2PC     H4A 9855   0.217  -0.016   1.884
    2PC     H4B 9856   0.140   0.087   1.761
    2PC     H4C 9857   0.211   0.162   1.902
    2PC     C35 9858   0.088  -0.008   2.082
    2PC     H5A 9859   0.003  -0.015   2.150
    2PC     H5B 9860   0.174   0.039   2.130
    2PC     H5C 9861   0.118  -0.111   2.062
    2PC     O33 9862   0.004   0.577   1.953
    2PC     O34 9863   0.235   0.554   1.880
    2PC     O21 9864   0.226   0.334   2.361
    2PC     C21 9865   0.231   0.201   2.343
    2PC     O22 9866   0.299   0.143   2.260
    3OL     C12 9867   0.163   0.128   2.455
    3OL     H2R 9868   0.162   0.020   2.437
    3OL     H2S 9869   0.057   0.154   2.459
    3OL     C13 9870   0.202   0.152   2.602
    3OL     H3R 9871   0.216   0.259   2.623
    3OL     H3S 9872   0.298   0.102   2.619
    3OL     C14 9873   0.093   0.098   2.695
    3OL     H4R 9874   0.097  -0.011   2.693
    3OL     H4S 9875  -0.006   0.130   2.662
    3OL     C15 9876   0.118   0.141   2.840
    3OL     H5R 9877   0.118   0.250   2.849
    3OL     H5S 9878   0.221   0.112   2.865
    3OL     C16 9879   0.021   0.082   2.943
    3OL     H6R 9880   0.047  -0.023   2.959
    3OL     H6S 9881  -0.083   0.089   2.910
    3OL     C17 9882   0.040   0.157   3.075
    3OL     H7R 9883   0.053   0.264   3.066
    3OL     H7S 9884   0.136   0.130   3.119
    3OL     C18 9885  -0.066   0.129   3.183
    3OL     H8R 9886  -0.039   0.189   3.270
    3OL     H8S 9887  -0.055   0.023   3.204
    3OL     C19 9888  -0.206   0.157   3.136
    3OL     H9R 9889  -0.225   0.254   3.090
    3OL    C110 9890  -0.312   0.078   3.140
    3OL    H10R 9891  -0.402   0.119   3.095
    3OL    C111 9892  -0.295  -0.067   3.179
    3OL    H11R 9893  -0.367  -0.099   3.255
    3OL    H11S 9894  -0.195  -0.093   3.213
    3OL    C112 9895  -0.328  -0.157   3.059
    3OL    H12R 9896  -0.262  -0.121   2.980
    3OL    H12S 9897  -0.434  -0.141   3.041
    3OL    C113 9898  -0.305  -0.302   3.106
    3OL    H13R 9899  -0.387  -0.317   3.176
    3OL    H13S 9900  -0.208  -0.316   3.154
    3OL    C114 9901  -0.314  -0.388   2.979
    3OL    H14R 9902  -0.251  -0.351   2.898
    3OL    H14S 9903  -0.417  -0.377   2.943
    3OL    C115 9904  -0.270  -0.530   3.014
    3OL    H15R 9905  -0.335  -0.566   3.093
    3OL    H15S 9906  -0.170  -0.538   3.057
    3OL    C116 9907  -0.278  -0.626   2.894
    3OL    H16R 9908  -0.222  -0.577   2.814
    3OL    H16S 9909  -0.379  -0.628   2.852
    3OL    C117 9910  -0.237  -0.769   2.929
    3OL    H17R 9911  -0.276  -0.844   2.860
    3OL    H17S 9912  -0.282  -0.786   3.027
    3OL    C118 9913  -0.088  -0.800   2.950
    3OL    H18R 9914  -0.075  -0.906   2.972
    3OL    H18S 9915  -0.047  -0.746   3.036
    3OL    H18T 9916  -0.029  -0.776   2.861
    1PA    C116 9917   0.813   1.033   3.775
    1PA    H16R 9918   0.881   0.950   3.757
    1PA    H16S 9919   0.816   1.052   3.883
    1PA    H16T 9920   0.848   1.120   3.719
    1PA    C115 9921   0.669   0.995   3.738
    1PA    H15R 9922   0.635   0.913   3.801
    1PA    H15S 9923   0.612   1.087   3.750
    1PA    C114 9924   0.650   0.951   3.592
    1PA    H14R 9925   0.731   0.892   3.549
    1PA    H14S 9926   0.564   0.883   3.591
    1PA    C113 9927   0.640   1.067   3.492
    1PA    H13R 9928   0.540   1.108   3.507
    1PA    H13S 9929   0.716   1.145   3.504
    1PA    C112 9930   0.641   1.014   3.348
    1PA    H12R 9931   0.726   0.947   3.333
    1PA    H12S 9932   0.548   0.956   3.343
    1PA    C111 9933   0.641   1.121   3.238
    1PA    H11R 9934   0.579   1.098   3.152
    1PA    H11S 9935   0.592   1.213   3.271
    1PA    C110 9936   0.780   1.147   3.179
    1PA    H10R 9937   0.774   1.243   3.125
    1PA    H10S 9938   0.850   1.168   3.260
    1PA     C19 9939   0.828   1.029   3.093
    1PA     H9R 9940   0.822   0.939   3.155
    1PA     H9S 9941   0.758   1.016   3.010
    1PA     C18 9942   0.970   1.063   3.045
    1PA     H8R 9943   0.973   1.162   2.999
    1PA     H8S 9944   1.037   1.068   3.130
    1PA     C17 9945   1.016   0.947   2.956
    1PA     H7R 9946   1.009   0.857   3.016
    1PA     H7S 9947   0.944   0.932   2.874
    1PA     C16 9948   1.161   0.977   2.917
    1PA     H6R 9949   1.163   1.078   2.875
    1PA     H6S 9950   1.227   0.975   3.005
    1PA     C15 9951   1.206   0.877   2.810
    1PA     H5R 9952   1.165   0.785   2.852
    1PA     H5S 9953   1.151   0.900   2.719
    1PA     C14 9954   1.359   0.879   2.797
    1PA     H4R 9955   1.395   0.975   2.760
    1PA     H4S 9956   1.401   0.851   2.894
    1PA     C13 9957   1.408   0.775   2.696
    1PA     H3R 9958   1.376   0.676   2.729
    1PA     H3S 9959   1.363   0.799   2.600
    1PA     C12 9960   1.561   0.776   2.680
    1PA     H2R 9961   1.593   0.877   2.654
    1PA     H2S 9962   1.608   0.761   2.777
    2PC     C11 9963   1.603   0.668   2.583
    2PC     O12 9964   1.535   0.641   2.486
    2PC     O11 9965   1.721   0.608   2.606
    2PC      C1 9966   1.766   0.492   2.534
    2PC      HR 9967   1.726   0.496   2.432
    2PC      HS 9968   1.875   0.500   2.526
    2PC      C2 9969   1.719   0.360   2.594
    2PC      HX 9970   1.780   0.328   2.679
    2PC      C3 9971   1.743   0.246   2.494
    2PC      HA 9972   1.847   0.260   2.464
    2PC      HB 9973   1.732   0.144   2.532
    2PC     O31 9974   1.660   0.265   2.378
    2PC     P31 9975   1.696   0.183   2.246
    2PC     O32 9976   1.834   0.261   2.221
    2PC     C31 9977   1.832   0.396   2.169
    2PC     H1A 9978   1.784   0.401   2.071
    2PC     H1B 9979   1.777   0.472   2.226
    2PC     C32 9980   1.975   0.450   2.160
    2PC     H2A 9981   1.983   0.549   2.114
    2PC     H2B 9982   2.019   0.456   2.260
    2PC     N31 9983   2.069   0.370   2.074
    2PC     C33 9984   2.013   0.352   1.937
    2PC     H3A 9985   2.084   0.292   1.879
    2PC     H3B 9986   1.913   0.307   1.942
    2PC     H3C 9987   2.013   0.455   1.901
    2PC     C34 9988   2.200   0.443   2.081
    2PC     H4A 9989   2.183   0.549   2.067
    2PC     H4B 9990   2.242   0.428   2.181
    2PC     H4C 9991   2.262   0.391   2.008
    2PC     C35 9992   2.092   0.230   2.123
    2PC     H5A 9993   2.120   0.253   2.227
    2PC     H5B 9994   2.175   0.196   2.062
    2PC     H5C 9995   2.005   0.164   2.116
    2PC     O33 9996   1.713   0.036   2.242
    2PC     O34 9997   1.585   0.214   2.152
    2PC     O21 9998   1.581   0.361   2.636
    2PC     C21 9999   1.525   0.262   2.708
    2PC     O2210000   1.587   0.166   2.748
    3OL     C1210001   1.388   0.297   2.760
    3OL     H2R10002   1.336   0.358   2.686
    3OL     H2S10003   1.403   0.368   2.842
    3OL     C1310004   1.301   0.176   2.798
    3OL     H3R10005   1.320   0.098   2.723
    3OL     H3S10006   1.196   0.202   2.786
    3OL     C1410007   1.340   0.124   2.937
    3OL     H4R10008   1.448   0.110   2.944
    3OL     H4S10009   1.290   0.027   2.944
    3OL     C1510010   1.292   0.223   3.044
    3OL     H5R10011   1.190   0.254   3.021
    3OL     H5S10012   1.348   0.316   3.040
    3OL     C1610013   1.317   0.171   3.186
    3OL     H6R10014   1.296   0.250   3.258
    3OL     H6S10015   1.425   0.166   3.202
    3OL     C1710016   1.234   0.047   3.223
    3OL     H7R10017   1.300  -0.035   3.254
    3OL     H7S10018   1.179   0.003   3.139
    3OL     C1810019   1.136   0.087   3.333
    3OL     H8R10020   1.067   0.159   3.289
    3OL     H8S10021   1.182   0.133   3.421
    3OL     C1910022   1.060  -0.038   3.372
    3OL     H9R10023   1.093  -0.075   3.469
    3OL    C11010024   0.965  -0.098   3.302
    3OL    H10R10025   0.918  -0.189   3.339
    3OL    C11110026   0.904  -0.041   3.177
    3OL    H11R10027   0.937   0.062   3.161
    3OL    H11S10028   0.796  -0.042   3.193
    3OL    C11210029   0.937  -0.128   3.055
    3OL    H12R10030   0.901  -0.230   3.068
    3OL    H12S10031   1.044  -0.143   3.043
    3OL    C11310032   0.884  -0.072   2.922
    3OL    H13R10033   0.776  -0.080   2.910
    3OL    H13S10034   0.929  -0.130   2.841
    3OL    C11410035   0.936   0.067   2.881
    3OL    H14R10036   1.043   0.045   2.882
    3OL    H14S10037   0.912   0.146   2.952
    3OL    C11510038   0.862   0.098   2.750
    3OL    H15R10039   0.851   0.205   2.732
    3OL    H15S10040   0.756   0.075   2.763
    3OL    C11610041   0.934   0.035   2.631
    3OL    H16R10042   0.930  -0.074   2.623
    3OL    H16S10043   1.043   0.048   2.630
    3OL    C11710044   0.890   0.104   2.501
    3OL    H17R10045   0.904   0.213   2.503
    3OL    H17S10046   0.782   0.100   2.490
    3OL    C11810047   0.966   0.053   2.378
    3OL    H18R10048   0.923   0.106   2.293
    3OL    H18S10049   1.072   0.078   2.384
    3OL    H18T10050   0.947  -0.053   2.362
    1PA    C11610051   1.783   4.782   4.395
    1PA    H16R10052   1.866   4.765   4.463
    1PA    H16S10053   1.692   4.741   4.442
    1PA    H16T10054   1.803   4.726   4.303
    1PA    C11510055   1.780   4.932   4.367
    1PA    H15R10056   1.762   4.965   4.470
    1PA    H15S10057   1.879   4.968   4.340
    1PA    C11410058   1.677   4.970   4.259
    1PA    H14R10059   1.587   4.908   4.263
    1PA    H14S10060   1.632   5.067   4.281
    1PA    C11310061   1.740   4.975   4.119
    1PA    H13R10062   1.827   5.041   4.124
    1PA    H13S10063   1.773   4.873   4.097
    1PA    C11210064   1.636   5.015   4.014
    1PA    H12R10065   1.542   4.963   4.030
    1PA    H12S10066   1.622   5.123   4.021
    1PA    C11110067   1.691   4.989   3.873
    1PA    H11R10068   1.794   5.023   3.861
    1PA    H11S10069   1.686   4.882   3.854
    1PA    C11010070   1.597   5.056   3.772
    1PA    H10R10071   1.496   5.016   3.782
    1PA    H10S10072   1.595   5.165   3.786
    1PA     C1910073   1.642   5.042   3.626
    1PA     H9R10074   1.736   5.096   3.618
    1PA     H9S10075   1.659   4.938   3.598
    1PA     C1810076   1.546   5.126   3.541
    1PA     H8R10077   1.441   5.104   3.563
    1PA     H8S10078   1.563   5.228   3.577
    1PA     C1710079   1.583   5.117   3.392
    1PA     H7R10080   1.683   5.160   3.388
    1PA     H7S10081   1.589   5.011   3.367
    1PA     C1610082   1.476   5.177   3.299
    1PA     H6R10083   1.385   5.118   3.308
    1PA     H6S10084   1.463   5.284   3.316
    1PA     C1510085   1.535   5.151   3.160
    1PA     H5R10086   1.634   5.196   3.150
    1PA     H5S10087   1.535   5.047   3.127
    1PA     C1410088   1.446   5.224   3.058
    1PA     H4R10089   1.349   5.175   3.074
    1PA     H4S10090   1.423   5.327   3.084
    1PA     C1310091   1.498   5.199   2.916
    1PA     H3R10092   1.582   5.257   2.877
    1PA     H3S10093   1.511   5.091   2.910
    1PA     C1210094   1.387   5.232   2.816
    1PA     H2R10095   1.289   5.200   2.852
    1PA     H2S10096   1.383   5.341   2.806
    2PC     C1110097   1.413   5.167   2.682
    2PC     O1210098   1.328   5.165   2.596
    2PC     O1110099   1.542   5.138   2.656
    2PC      C110100   1.591   5.072   2.539
    2PC      HR10101   1.573   4.965   2.556
    2PC      HS10102   1.535   5.109   2.453
    2PC      C210103   1.741   5.096   2.516
    2PC      HX10104   1.751   5.205   2.508
    2PC      C310105   1.791   5.003   2.405
    2PC      HA10106   1.789   4.898   2.434
    2PC      HB10107   1.729   5.018   2.316
    2PC     O3110108   1.928   5.032   2.371
    2PC     P3110109   1.996   4.953   2.249
    2PC     O3210110   2.128   4.882   2.306
    2PC     C3110111   2.239   4.969   2.333
    2PC     H1A10112   2.214   5.067   2.375
    2PC     H1B10113   2.290   4.929   2.421
    2PC     C3210114   2.334   4.985   2.214
    2PC     H2A10115   2.284   5.029   2.127
    2PC     H2B10116   2.412   5.056   2.241
    2PC     N3110117   2.417   4.868   2.167
    2PC     C3310118   2.496   4.900   2.045
    2PC     H3A10119   2.534   4.804   2.008
    2PC     H3B10120   2.434   4.947   1.969
    2PC     H3C10121   2.572   4.973   2.072
    2PC     C3410122   2.510   4.838   2.281
    2PC     H4A10123   2.446   4.826   2.369
    2PC     H4B10124   2.559   4.743   2.261
    2PC     H4C10125   2.585   4.916   2.292
    2PC     C3510126   2.320   4.756   2.143
    2PC     H5A10127   2.278   4.738   2.241
    2PC     H5B10128   2.382   4.674   2.106
    2PC     H5C10129   2.254   4.788   2.062
    2PC     O3310130   1.910   4.841   2.205
    2PC     O3410131   2.003   5.044   2.132
    2PC     O2110132   1.807   5.055   2.637
    2PC     C2110133   1.915   5.124   2.679
    2PC     O2210134   1.958   5.224   2.625
    3OL     C1210135   1.984   5.065   2.800
    3OL     H2R10136   2.042   5.146   2.843
    3OL     H2S10137   2.054   4.988   2.765
    3OL     C1310138   1.884   5.011   2.903
    3OL     H3R10139   1.834   4.928   2.854
    3OL     H3S10140   1.807   5.083   2.931
    3OL     C1410141   1.971   4.961   3.019
    3OL     H4R10142   2.031   4.881   2.974
    3OL     H4S10143   1.906   4.907   3.088
    3OL     C1510144   2.044   5.059   3.112
    3OL     H5R10145   1.972   5.117   3.169
    3OL     H5S10146   2.096   5.135   3.054
    3OL     C1610147   2.136   4.993   3.216
    3OL     H6R10148   2.083   4.924   3.281
    3OL     H6S10149   2.166   5.078   3.277
    3OL     C1710150   2.262   4.931   3.153
    3OL     H7R10151   2.335   5.010   3.132
    3OL     H7S10152   2.247   4.878   3.059
    3OL     C1810153   2.329   4.822   3.239
    3OL     H8R10154   2.402   4.777   3.172
    3OL     H8S10155   2.259   4.741   3.261
    3OL     C1910156   2.395   4.877   3.363
    3OL     H9R10157   2.351   4.972   3.393
    3OL    C11010158   2.505   4.833   3.423
    3OL    H10R10159   2.541   4.894   3.505
    3OL    C11110160   2.582   4.705   3.404
    3OL    H11R10161   2.677   4.740   3.363
    3OL    H11S10162   2.529   4.637   3.337
    3OL    C11210163   2.605   4.640   3.541
    3OL    H12R10164   2.647   4.722   3.600
    3OL    H12S10165   2.676   4.557   3.541
    3OL    C11310166   2.472   4.595   3.601
    3OL    H13R10167   2.429   4.513   3.543
    3OL    H13S10168   2.403   4.680   3.599
    3OL    C11410169   2.473   4.551   3.748
    3OL    H14R10170   2.374   4.545   3.795
    3OL    H14S10171   2.538   4.619   3.802
    3OL    C11510172   2.543   4.415   3.767
    3OL    H15R10173   2.644   4.408   3.725
    3OL    H15S10174   2.479   4.344   3.715
    3OL    C11610175   2.548   4.380   3.916
    3OL    H16R10176   2.449   4.346   3.948
    3OL    H16S10177   2.556   4.466   3.982
    3OL    C11710178   2.660   4.276   3.929
    3OL    H17R10179   2.755   4.325   3.906
    3OL    H17S10180   2.646   4.195   3.858
    3OL    C11810181   2.673   4.228   4.075
    3OL    H18R10182   2.583   4.185   4.121
    3OL    H18S10183   2.707   4.309   4.140
    3OL    H18T10184   2.753   4.156   4.091
    1PA    C11610185   5.632   3.225   4.371
    1PA    H16R10186   5.531   3.182   4.366
    1PA    H16S10187   5.627   3.292   4.456
    1PA    H16T10188   5.704   3.145   4.390
    1PA    C11510189   5.653   3.298   4.237
    1PA    H15R10190   5.632   3.227   4.157
    1PA    H15S10191   5.581   3.379   4.224
    1PA    C11410192   5.795   3.345   4.206
    1PA    H14R10193   5.827   3.419   4.281
    1PA    H14S10194   5.857   3.255   4.208
    1PA    C11310195   5.800   3.407   4.066
    1PA    H13R10196   5.770   3.326   3.999
    1PA    H13S10197   5.717   3.479   4.055
    1PA    C11210198   5.935   3.465   4.021
    1PA    H12R10199   5.971   3.530   4.101
    1PA    H12S10200   6.007   3.383   4.016
    1PA    C11110201   5.932   3.551   3.894
    1PA    H11R10202   5.865   3.502   3.823
    1PA    H11S10203   5.891   3.649   3.921
    1PA    C11010204   6.072   3.565   3.834
    1PA    H10R10205   6.129   3.634   3.897
    1PA    H10S10206   6.125   3.470   3.830
    1PA     C1910207   6.072   3.612   3.688
    1PA     H9R10208   5.993   3.559   3.634
    1PA     H9S10209   6.036   3.715   3.686
    1PA     C1810210   6.214   3.605   3.627
    1PA     H8R10211   6.287   3.663   3.683
    1PA     H8S10212   6.250   3.503   3.643
    1PA     C1710213   6.213   3.647   3.480
    1PA     H7R10214   6.158   3.740   3.464
    1PA     H7S10215   6.311   3.672   3.440
    1PA     C1610216   6.149   3.536   3.396
    1PA     H6R10217   6.199   3.439   3.405
    1PA     H6S10218   6.043   3.528   3.420
    1PA     C1510219   6.154   3.578   3.248
    1PA     H5R10220   6.083   3.661   3.244
    1PA     H5S10221   6.254   3.608   3.217
    1PA     C1410222   6.105   3.466   3.156
    1PA     H4R10223   6.183   3.389   3.156
    1PA     H4S10224   6.011   3.425   3.194
    1PA     C1310225   6.082   3.527   3.018
    1PA     H3R10226   6.020   3.617   3.030
    1PA     H3S10227   6.178   3.559   2.978
    1PA     C1210228   6.029   3.413   2.930
    1PA     H2R10229   6.096   3.327   2.939
    1PA     H2S10230   5.932   3.380   2.968
    2PC     C1110231   6.012   3.455   2.786
    2PC     O1210232   5.898   3.477   2.748
    2PC     O1110233   6.128   3.480   2.723
    2PC      C110234   6.129   3.524   2.586
    2PC      HR10235   6.061   3.609   2.586
    2PC      HS10236   6.231   3.553   2.558
    2PC      C210237   6.085   3.415   2.488
    2PC      HX10238   6.130   3.322   2.526
    2PC      C310239   6.130   3.444   2.344
    2PC      HA10240   6.237   3.425   2.334
    2PC      HB10241   6.071   3.378   2.279
    2PC     O3110242   6.108   3.579   2.301
    2PC     P3110243   6.154   3.621   2.153
    2PC     O3210244   6.048   3.741   2.142
    2PC     C3110245   5.910   3.703   2.133
    2PC     H1A10246   5.887   3.702   2.027
    2PC     H1B10247   5.887   3.605   2.176
    2PC     C3210248   5.822   3.806   2.205
    2PC     H2A10249   5.873   3.841   2.295
    2PC     H2B10250   5.812   3.897   2.145
    2PC     N3110251   5.682   3.767   2.242
    2PC     C3310252   5.607   3.881   2.305
    2PC     H3A10253   5.614   3.964   2.235
    2PC     H3B10254   5.507   3.845   2.330
    2PC     H3C10255   5.649   3.917   2.398
    2PC     C3410256   5.611   3.738   2.112
    2PC     H4A10257   5.648   3.818   2.048
    2PC     H4B10258   5.629   3.638   2.073
    2PC     H4C10259   5.502   3.741   2.110
    2PC     C3510260   5.669   3.646   2.329
    2PC     H5A10261   5.729   3.659   2.420
    2PC     H5B10262   5.708   3.557   2.281
    2PC     H5C10263   5.568   3.621   2.359
    2PC     O3310264   6.292   3.672   2.138
    2PC     O3410265   6.108   3.525   2.049
    2PC     O2110266   5.942   3.401   2.497
    2PC     C2110267   5.886   3.283   2.467
    2PC     O2210268   5.946   3.181   2.437
    3OL     C1210269   5.735   3.275   2.474
    3OL     H2R10270   5.695   3.201   2.404
    3OL     H2S10271   5.691   3.367   2.437
    3OL     C1310272   5.696   3.246   2.620
    3OL     H3R10273   5.587   3.255   2.628
    3OL     H3S10274   5.722   3.325   2.691
    3OL     C1410275   5.742   3.111   2.675
    3OL     H4R10276   5.847   3.093   2.649
    3OL     H4S10277   5.675   3.031   2.644
    3OL     C1510278   5.727   3.112   2.828
    3OL     H5R10279   5.622   3.131   2.853
    3OL     H5S10280   5.792   3.183   2.879
    3OL     C1610281   5.773   2.976   2.882
    3OL     H6R10282   5.871   2.951   2.841
    3OL     H6S10283   5.708   2.899   2.838
    3OL     C1710284   5.787   2.977   3.035
    3OL     H7R10285   5.693   3.009   3.080
    3OL     H7S10286   5.872   3.040   3.060
    3OL     C1810287   5.815   2.835   3.085
    3OL     H8R10288   5.850   2.833   3.189
    3OL     H8S10289   5.898   2.803   3.022
    3OL     C1910290   5.700   2.741   3.060
    3OL     H9R10291   5.680   2.730   2.953
    3OL    C11010292   5.626   2.675   3.148
    3OL    H10R10293   5.542   2.614   3.116
    3OL    C11110294   5.643   2.676   3.298
    3OL    H11R10295   5.684   2.770   3.335
    3OL    H11S10296   5.699   2.587   3.327
    3OL    C11210297   5.504   2.663   3.362
    3OL    H12R10298   5.464   2.567   3.329
    3OL    H12S10299   5.438   2.744   3.331
    3OL    C11310300   5.503   2.652   3.515
    3OL    H13R10301   5.539   2.749   3.548
    3OL    H13S10302   5.573   2.575   3.551
    3OL    C11410303   5.367   2.607   3.570
    3OL    H14R10304   5.342   2.508   3.529
    3OL    H14S10305   5.299   2.682   3.529
    3OL    C11510306   5.362   2.596   3.723
    3OL    H15R10307   5.258   2.601   3.754
    3OL    H15S10308   5.416   2.682   3.763
    3OL    C11610309   5.412   2.458   3.766
    3OL    H16R10310   5.516   2.456   3.732
    3OL    H16S10311   5.350   2.387   3.711
    3OL    C11710312   5.402   2.447   3.919
    3OL    H17R10313   5.301   2.464   3.956
    3OL    H17S10314   5.478   2.515   3.959
    3OL    C11810315   5.439   2.301   3.949
    3OL    H18R10316   5.365   2.233   3.906
    3OL    H18S10317   5.431   2.288   4.057
    3OL    H18T10318   5.541   2.272   3.925
    1PA    C11610319   0.462   3.292   4.340
    1PA    H16R10320   0.406   3.239   4.418
    1PA    H16S10321   0.484   3.393   4.375
    1PA    H16T10322   0.560   3.245   4.334
    1PA    C11510323   0.395   3.280   4.202
    1PA    H15R10324   0.290   3.310   4.214
    1PA    H15S10325   0.422   3.357   4.129
    1PA    C11410326   0.400   3.135   4.152
    1PA    H14R10327   0.504   3.103   4.146
    1PA    H14S10328   0.358   3.069   4.228
    1PA    C11310329   0.319   3.112   4.024
    1PA    H13R10330   0.294   3.006   4.016
    1PA    H13S10331   0.227   3.171   4.032
    1PA    C11210332   0.400   3.161   3.903
    1PA    H12R10333   0.398   3.270   3.895
    1PA    H12S10334   0.504   3.132   3.918
    1PA    C11110335   0.344   3.086   3.781
    1PA    H11R10336   0.334   2.978   3.790
    1PA    H11S10337   0.244   3.121   3.753
    1PA    C11010338   0.440   3.120   3.666
    1PA    H10R10339   0.467   3.226   3.662
    1PA    H10S10340   0.533   3.063   3.672
    1PA     C1910341   0.373   3.064   3.540
    1PA     H9R10342   0.391   2.956   3.551
    1PA     H9S10343   0.267   3.086   3.548
    1PA     C1810344   0.443   3.107   3.410
    1PA     H8R10345   0.380   3.072   3.328
    1PA     H8S10346   0.450   3.216   3.410
    1PA     C1710347   0.576   3.032   3.404
    1PA     H7R10348   0.645   3.075   3.478
    1PA     H7S10349   0.565   2.923   3.404
    1PA     C1610350   0.642   3.061   3.268
    1PA     H6R10351   0.641   3.169   3.251
    1PA     H6S10352   0.746   3.030   3.278
    1PA     C1510353   0.589   2.982   3.148
    1PA     H5R10354   0.570   2.884   3.191
    1PA     H5S10355   0.492   3.020   3.116
    1PA     C1410356   0.681   2.970   3.025
    1PA     H4R10357   0.703   3.072   2.993
    1PA     H4S10358   0.781   2.933   3.046
    1PA     C1310359   0.632   2.871   2.917
    1PA     H3R10360   0.612   2.775   2.965
    1PA     H3S10361   0.535   2.909   2.887
    1PA     C1210362   0.725   2.852   2.797
    1PA     H2R10363   0.755   2.953   2.768
    1PA     H2S10364   0.819   2.806   2.830
    2PC     C1110365   0.657   2.797   2.674
    2PC     O1210366   0.542   2.761   2.661
    2PC     O1110367   0.753   2.783   2.581
    2PC      C110368   0.730   2.707   2.461
    2PC      HR10369   0.690   2.609   2.487
    2PC      HS10370   0.657   2.763   2.402
    2PC      C210371   0.862   2.694   2.384
    2PC      HX10372   0.928   2.780   2.401
    2PC      C310373   0.848   2.662   2.234
    2PC      HA10374   0.835   2.755   2.180
    2PC      HB10375   0.929   2.597   2.199
    2PC     O3110376   0.724   2.592   2.217
    2PC     P3110377   0.691   2.564   2.063
    2PC     O3210378   0.803   2.463   2.010
    2PC     C3110379   0.781   2.398   1.883
    2PC     H1A10380   0.685   2.345   1.887
    2PC     H1B10381   0.764   2.473   1.806
    2PC     C3210382   0.896   2.301   1.853
    2PC     H2A10383   0.993   2.346   1.872
    2PC     H2B10384   0.885   2.212   1.915
    2PC     N3110385   0.900   2.242   1.715
    2PC     C3310386   0.777   2.183   1.653
    2PC     H3A10387   0.718   2.124   1.724
    2PC     H3B10388   0.719   2.268   1.619
    2PC     H3C10389   0.804   2.124   1.566
    2PC     C3410390   0.946   2.349   1.621
    2PC     H4A10391   1.037   2.396   1.660
    2PC     H4B10392   0.974   2.289   1.535
    2PC     H4C10393   0.873   2.428   1.599
    2PC     C3510394   1.001   2.132   1.715
    2PC     H5A10395   1.003   2.091   1.613
    2PC     H5B10396   0.950   2.068   1.787
    2PC     H5C10397   1.099   2.164   1.751
    2PC     O3310398   0.559   2.496   2.065
    2PC     O3410399   0.693   2.681   1.973
    2PC     O2110400   0.921   2.576   2.443
    2PC     C2110401   1.053   2.554   2.441
    2PC     O2210402   1.131   2.641   2.409
    3OL     C1210403   1.093   2.409   2.453
    3OL     H2R10404   1.194   2.396   2.491
    3OL     H2S10405   1.096   2.376   2.349
    3OL     C1310406   0.992   2.314   2.520
    3OL     H3R10407   1.002   2.214   2.478
    3OL     H3S10408   0.888   2.344   2.506
    3OL     C1410409   1.010   2.308   2.672
    3OL     H4R10410   1.113   2.278   2.696
    3OL     H4S10411   0.946   2.229   2.711
    3OL     C1510412   0.985   2.443   2.742
    3OL     H5R10413   0.902   2.497   2.697
    3OL     H5S10414   1.079   2.494   2.719
    3OL     C1610415   0.958   2.437   2.893
    3OL     H6R10416   1.052   2.418   2.946
    3OL     H6S10417   0.882   2.361   2.911
    3OL     C1710418   0.899   2.569   2.945
    3OL     H7R10419   0.796   2.579   2.909
    3OL     H7S10420   0.956   2.649   2.898
    3OL     C1810421   0.917   2.577   3.097
    3OL     H8R10422   1.018   2.552   3.130
    3OL     H8S10423   0.866   2.489   3.138
    3OL     C1910424   0.858   2.697   3.166
    3OL     H9R10425   0.759   2.720   3.125
    3OL    C11010426   0.894   2.750   3.282
    3OL    H10R10427   0.826   2.823   3.326
    3OL    C11110428   1.031   2.736   3.342
    3OL    H11R10429   1.072   2.642   3.305
    3OL    H11S10430   1.028   2.725   3.450
    3OL    C11210431   1.117   2.852   3.289
    3OL    H12R10432   1.095   2.855   3.182
    3OL    H12S10433   1.225   2.838   3.300
    3OL    C11310434   1.083   2.988   3.352
    3OL    H13R10435   1.081   2.972   3.460
    3OL    H13S10436   0.992   3.031   3.311
    3OL    C11410437   1.188   3.095   3.320
    3OL    H14R10438   1.193   3.113   3.212
    3OL    H14S10439   1.287   3.058   3.350
    3OL    C11510440   1.150   3.226   3.390
    3OL    H15R10441   1.154   3.209   3.497
    3OL    H15S10442   1.046   3.239   3.358
    3OL    C11610443   1.238   3.343   3.346
    3OL    H16R10444   1.194   3.433   3.389
    3OL    H16S10445   1.249   3.345   3.238
    3OL    C11710446   1.383   3.334   3.397
    3OL    H17R10447   1.436   3.245   3.362
    3OL    H17S10448   1.376   3.333   3.506
    3OL    C11810449   1.467   3.455   3.353
    3OL    H18R10450   1.419   3.542   3.398
    3OL    H18S10451   1.457   3.470   3.245
    3OL    H18T10452   1.573   3.442   3.375
    1PA    C11610453   6.271   5.200   3.988
    1PA    H16R10454   6.318   5.296   3.966
    1PA    H16S10455   6.317   5.148   4.073
    1PA    H16T10456   6.163   5.203   4.001
    1PA    C11510457   6.307   5.114   3.866
    1PA    H15R10458   6.415   5.123   3.848
    1PA    H15S10459   6.281   5.009   3.879
    1PA    C11410460   6.223   5.165   3.748
    1PA    H14R10461   6.120   5.143   3.776
    1PA    H14S10462   6.234   5.272   3.728
    1PA    C11310463   6.268   5.095   3.619
    1PA    H13R10464   6.238   5.151   3.530
    1PA    H13S10465   6.376   5.096   3.605
    1PA    C11210466   6.222   4.949   3.609
    1PA    H12R10467   6.269   4.905   3.697
    1PA    H12S10468   6.114   4.939   3.622
    1PA    C11110469   6.273   4.880   3.481
    1PA    H11R10470   6.237   4.930   3.391
    1PA    H11S10471   6.382   4.890   3.477
    1PA    C11010472   6.237   4.731   3.475
    1PA    H10R10473   6.271   4.686   3.568
    1PA    H10S10474   6.136   4.704   3.444
    1PA     C1910475   6.315   4.672   3.357
    1PA     H9R10476   6.289   4.724   3.264
    1PA     H9S10477   6.419   4.702   3.371
    1PA     C1810478   6.325   4.521   3.334
    1PA     H8R10479   6.376   4.478   3.420
    1PA     H8S10480   6.228   4.472   3.343
    1PA     C1710481   6.379   4.494   3.193
    1PA     H7R10482   6.312   4.533   3.116
    1PA     H7S10483   6.470   4.551   3.177
    1PA     C1610484   6.390   4.342   3.178
    1PA     H6R10485   6.481   4.305   3.226
    1PA     H6S10486   6.309   4.291   3.231
    1PA     C1510487   6.369   4.305   3.030
    1PA     H5R10488   6.339   4.200   3.032
    1PA     H5S10489   6.285   4.363   2.991
    1PA     C1410490   6.500   4.323   2.952
    1PA     H4R10491   6.537   4.426   2.955
    1PA     H4S10492   6.572   4.251   2.992
    1PA     C1310493   6.470   4.294   2.804
    1PA     H3R10494   6.475   4.185   2.797
    1PA     H3S10495   6.377   4.339   2.769
    1PA     C1210496   6.588   4.339   2.718
    1PA     H2R10497   6.606   4.446   2.722
    1PA     H2S10498   6.671   4.280   2.757
    2PC     C1110499   6.568   4.301   2.573
    2PC     O1210500   6.588   4.389   2.491
    2PC     O1110501   6.554   4.173   2.536
    2PC      C110502   6.558   4.142   2.395
    2PC      HR10503   6.484   4.200   2.341
    2PC      HS10504   6.660   4.158   2.358
    2PC      C210505   6.531   3.994   2.363
    2PC      HX10506   6.615   3.940   2.408
    2PC      C310507   6.509   3.970   2.213
    2PC      HA10508   6.476   3.869   2.189
    2PC      HB10509   6.419   4.026   2.185
    2PC     O3110510   6.625   4.011   2.138
    2PC     P3110511   6.595   4.072   1.993
    2PC     O3210512   6.746   4.053   1.943
    2PC     C3110513   6.793   3.918   1.934
    2PC     H1A10514   6.815   3.883   2.035
    2PC     H1B10515   6.720   3.853   1.884
    2PC     C3210516   6.923   3.927   1.853
    2PC     H2A10517   6.987   3.985   1.920
    2PC     H2B10518   6.974   3.830   1.852
    2PC     N3110519   6.920   3.970   1.710
    2PC     C3310520   7.058   3.983   1.654
    2PC     H3A10521   7.041   4.025   1.554
    2PC     H3B10522   7.118   4.051   1.716
    2PC     H3C10523   7.107   3.887   1.637
    2PC     C3410524   6.839   3.864   1.641
    2PC     H4A10525   6.738   3.864   1.681
    2PC     H4B10526   6.831   3.913   1.544
    2PC     H4C10527   6.890   3.768   1.638
    2PC     C3510528   6.845   4.096   1.680
    2PC     H5A10529   6.737   4.078   1.686
    2PC     H5B10530   6.866   4.135   1.581
    2PC     H5C10531   6.866   4.171   1.757
    2PC     O3310532   6.491   4.006   1.911
    2PC     O3410533   6.564   4.216   2.003
    2PC     O2110534   6.405   3.962   2.425
    2PC     C2110535   6.395   3.908   2.547
    2PC     O2210536   6.491   3.877   2.615
    3OL     C1210537   6.254   3.899   2.601
    3OL     H2R10538   6.203   3.808   2.568
    3OL     H2S10539   6.193   3.984   2.572
    3OL     C1310540   6.232   3.890   2.753
    3OL     H3R10541   6.293   3.968   2.800
    3OL     H3S10542   6.257   3.789   2.784
    3OL     C1410543   6.085   3.916   2.788
    3OL     H4R10544   6.024   3.848   2.728
    3OL     H4S10545   6.047   4.018   2.773
    3OL     C1510546   6.053   3.892   2.936
    3OL     H5R10547   6.128   3.815   2.959
    3OL     H5S10548   5.959   3.836   2.934
    3OL     C1610549   6.055   4.016   3.026
    3OL     H6R10550   6.138   4.083   3.006
    3OL     H6S10551   6.088   3.973   3.121
    3OL     C1710552   5.921   4.087   3.047
    3OL     H7R10553   5.873   4.102   2.950
    3OL     H7S10554   5.932   4.183   3.098
    3OL     C1810555   5.815   4.009   3.126
    3OL     H8R10556   5.792   3.918   3.070
    3OL     H8S10557   5.727   4.072   3.139
    3OL     C1910558   5.869   3.968   3.261
    3OL     H9R10559   5.964   4.018   3.282
    3OL    C11010560   5.813   3.875   3.337
    3OL    H10R10561   5.858   3.858   3.434
    3OL    C11110562   5.690   3.793   3.308
    3OL    H11R10563   5.683   3.782   3.200
    3OL    H11S10564   5.603   3.851   3.340
    3OL    C11210565   5.693   3.662   3.388
    3OL    H12R10566   5.783   3.606   3.362
    3OL    H12S10567   5.611   3.599   3.353
    3OL    C11310568   5.667   3.671   3.539
    3OL    H13R10569   5.589   3.744   3.561
    3OL    H13S10570   5.755   3.708   3.591
    3OL    C11410571   5.618   3.537   3.595
    3OL    H14R10572   5.527   3.513   3.540
    3OL    H14S10573   5.589   3.566   3.697
    3OL    C11510574   5.712   3.415   3.595
    3OL    H15R10575   5.817   3.440   3.585
    3OL    H15S10576   5.699   3.364   3.500
    3OL    C11610577   5.686   3.325   3.717
    3OL    H16R10578   5.577   3.316   3.714
    3OL    H16S10579   5.719   3.368   3.812
    3OL    C11710580   5.753   3.188   3.703
    3OL    H17R10581   5.757   3.155   3.599
    3OL    H17S10582   5.686   3.120   3.757
    3OL    C11810583   5.889   3.182   3.774
    3OL    H18R10584   5.884   3.182   3.883
    3OL    H18S10585   5.950   3.265   3.737
    3OL    H18T10586   5.942   3.090   3.748
    1PA    C11610587   2.304   5.066   3.958
    1PA    H16R10588   2.378   5.046   4.036
    1PA    H16S10589   2.209   5.012   3.957
    1PA    H16T10590   2.281   5.170   3.982
    1PA    C11510591   2.380   5.052   3.825
    1PA    H15R10592   2.479   5.100   3.825
    1PA    H15S10593   2.397   4.947   3.801
    1PA    C11410594   2.309   5.108   3.702
    1PA    H14R10595   2.306   5.217   3.708
    1PA    H14S10596   2.370   5.076   3.617
    1PA    C11310597   2.162   5.067   3.691
    1PA    H13R10598   2.115   5.101   3.784
    1PA    H13S10599   2.121   5.126   3.609
    1PA    C11210600   2.130   4.917   3.676
    1PA    H12R10601   2.198   4.880   3.599
    1PA    H12S10602   2.161   4.864   3.766
    1PA    C11110603   1.985   4.891   3.636
    1PA    H11R10604   1.910   4.930   3.705
    1PA    H11S10605   1.955   4.948   3.547
    1PA    C11010606   1.955   4.742   3.620
    1PA    H10R10607   2.035   4.698   3.561
    1PA    H10S10608   1.960   4.699   3.721
    1PA     C1910609   1.820   4.687   3.571
    1PA     H9R10610   1.826   4.579   3.589
    1PA     H9S10611   1.747   4.747   3.626
    1PA     C1810612   1.809   4.704   3.419
    1PA     H8R10613   1.819   4.804   3.376
    1PA     H8S10614   1.891   4.642   3.382
    1PA     C1710615   1.684   4.642   3.354
    1PA     H7R10616   1.677   4.538   3.389
    1PA     H7S10617   1.609   4.703   3.403
    1PA     C1610618   1.682   4.650   3.201
    1PA     H6R10619   1.703   4.754   3.176
    1PA     H6S10620   1.763   4.592   3.157
    1PA     C1510621   1.546   4.617   3.138
    1PA     H5R10622   1.510   4.522   3.178
    1PA     H5S10623   1.479   4.695   3.174
    1PA     C1410624   1.547   4.621   2.985
    1PA     H4R10625   1.635   4.564   2.955
    1PA     H4S10626   1.456   4.582   2.939
    1PA     C1310627   1.566   4.762   2.927
    1PA     H3R10628   1.512   4.840   2.981
    1PA     H3S10629   1.673   4.777   2.941
    1PA     C1210630   1.551   4.763   2.774
    1PA     H2R10631   1.457   4.723   2.734
    1PA     H2S10632   1.576   4.862   2.736
    2PC     C1110633   1.646   4.669   2.704
    2PC     O1210634   1.617   4.553   2.682
    2PC     O1110635   1.767   4.724   2.685
    2PC      C110636   1.855   4.644   2.604
    2PC      HR10637   1.849   4.539   2.634
    2PC      HS10638   1.806   4.672   2.510
    2PC      C210639   1.998   4.696   2.627
    2PC      HX10640   1.996   4.805   2.633
    2PC      C310641   2.101   4.655   2.520
    2PC      HA10642   2.075   4.692   2.421
    2PC      HB10643   2.196   4.698   2.551
    2PC     O3110644   2.122   4.513   2.514
    2PC     P3110645   2.187   4.440   2.387
    2PC     O3210646   2.113   4.299   2.405
    2PC     C3110647   1.971   4.293   2.429
    2PC     H1A10648   1.954   4.318   2.534
    2PC     H1B10649   1.914   4.367   2.372
    2PC     C3210650   1.930   4.149   2.397
    2PC     H2A10651   2.005   4.081   2.438
    2PC     H2B10652   1.835   4.123   2.446
    2PC     N3110653   1.909   4.114   2.253
    2PC     C3310654   1.877   3.968   2.253
    2PC     H3A10655   1.796   3.956   2.326
    2PC     H3B10656   1.850   3.946   2.150
    2PC     H3C10657   1.960   3.906   2.286
    2PC     C3410658   1.790   4.191   2.204
    2PC     H4A10659   1.809   4.297   2.188
    2PC     H4B10660   1.767   4.134   2.114
    2PC     H4C10661   1.707   4.184   2.274
    2PC     C3510662   2.025   4.150   2.164
    2PC     H5A10663   2.110   4.095   2.204
    2PC     H5B10664   2.043   4.258   2.169
    2PC     H5C10665   1.998   4.119   2.063
    2PC     O3310666   2.131   4.497   2.263
    2PC     O3410667   2.334   4.448   2.403
    2PC     O2110668   2.041   4.629   2.747
    2PC     C2110669   2.148   4.683   2.807
    2PC     O2210670   2.197   4.789   2.774
    3OL     C1210671   2.204   4.596   2.917
    3OL     H2R10672   2.284   4.655   2.962
    3OL     H2S10673   2.250   4.508   2.872
    3OL     C1310674   2.107   4.550   3.027
    3OL     H3R10675   2.023   4.499   2.979
    3OL     H3S10676   2.064   4.644   3.062
    3OL     C1410677   2.169   4.465   3.138
    3OL     H4R10678   2.257   4.514   3.180
    3OL     H4S10679   2.210   4.370   3.106
    3OL     C1510680   2.077   4.449   3.260
    3OL     H5R10681   1.978   4.425   3.221
    3OL     H5S10682   2.070   4.542   3.316
    3OL     C1610683   2.128   4.339   3.354
    3OL     H6R10684   2.226   4.366   3.393
    3OL     H6S10685   2.133   4.246   3.298
    3OL     C1710686   2.034   4.311   3.472
    3OL     H7R10687   1.935   4.279   3.441
    3OL     H7S10688   2.012   4.402   3.528
    3OL     C1810689   2.091   4.215   3.578
    3OL     H8R10690   2.183   4.254   3.623
    3OL     H8S10691   2.111   4.124   3.522
    3OL     C1910692   1.989   4.159   3.673
    3OL     H9R10693   1.889   4.137   3.637
    3OL    C11010694   2.007   4.156   3.804
    3OL    H10R10695   1.927   4.118   3.866
    3OL    C11110696   2.131   4.188   3.884
    3OL    H11R10697   2.104   4.199   3.990
    3OL    H11S10698   2.170   4.283   3.848
    3OL    C11210699   2.231   4.071   3.881
    3OL    H12R10700   2.323   4.098   3.934
    3OL    H12S10701   2.251   4.039   3.778
    3OL    C11310702   2.160   3.951   3.944
    3OL    H13R10703   2.061   3.931   3.901
    3OL    H13S10704   2.143   3.976   4.049
    3OL    C11410705   2.248   3.825   3.947
    3OL    H14R10706   2.289   3.810   3.847
    3OL    H14S10707   2.170   3.750   3.963
    3OL    C11510708   2.362   3.828   4.050
    3OL    H15R10709   2.438   3.903   4.029
    3OL    H15S10710   2.412   3.733   4.029
    3OL    C11610711   2.318   3.856   4.194
    3OL    H16R10712   2.243   3.783   4.224
    3OL    H16S10713   2.283   3.958   4.211
    3OL    C11710714   2.434   3.852   4.295
    3OL    H17R10715   2.487   3.946   4.284
    3OL    H17S10716   2.500   3.765   4.282
    3OL    C11810717   2.382   3.850   4.439
    3OL    H18R10718   2.338   3.757   4.477
    3OL    H18S10719   2.305   3.926   4.453
    3OL    H18T10720   2.467   3.857   4.508
    1PA    C11610721   0.215   1.896   3.633
    1PA    H16R10722   0.253   1.992   3.667
    1PA    H16S10723   0.136   1.854   3.697
    1PA    H16T10724   0.160   1.931   3.545
    1PA    C11510725   0.315   1.789   3.588
    1PA    H15R10726   0.402   1.790   3.654
    1PA    H15S10727   0.273   1.691   3.612
    1PA    C11410728   0.363   1.797   3.442
    1PA    H14R10729   0.281   1.767   3.377
    1PA    H14S10730   0.382   1.903   3.422
    1PA    C11310731   0.482   1.704   3.415
    1PA    H13R10732   0.562   1.733   3.483
    1PA    H13S10733   0.473   1.598   3.439
    1PA    C11210734   0.522   1.710   3.267
    1PA    H12R10735   0.514   1.814   3.233
    1PA    H12S10736   0.625   1.692   3.235
    1PA    C11110737   0.418   1.630   3.188
    1PA    H11R10738   0.318   1.631   3.231
    1PA    H11S10739   0.414   1.684   3.094
    1PA    C11010740   0.467   1.485   3.172
    1PA    H10R10741   0.533   1.480   3.259
    1PA    H10S10742   0.389   1.410   3.182
    1PA     C1910743   0.541   1.455   3.041
    1PA     H9R10744   0.625   1.524   3.029
    1PA     H9S10745   0.586   1.357   3.054
    1PA     C1810746   0.450   1.461   2.917
    1PA     H8R10747   0.353   1.419   2.945
    1PA     H8S10748   0.434   1.568   2.902
    1PA     C1710749   0.507   1.378   2.801
    1PA     H7R10750   0.531   1.275   2.826
    1PA     H7S10751   0.421   1.374   2.733
    1PA     C1610752   0.633   1.437   2.738
    1PA     H6R10753   0.600   1.533   2.697
    1PA     H6S10754   0.713   1.456   2.810
    1PA     C1510755   0.693   1.356   2.622
    1PA     H5R10756   0.613   1.329   2.553
    1PA     H5S10757   0.756   1.421   2.561
    1PA     C1410758   0.762   1.229   2.675
    1PA     H4R10759   0.836   1.268   2.746
    1PA     H4S10760   0.690   1.166   2.727
    1PA     C1310761   0.825   1.145   2.564
    1PA     H3R10762   0.869   1.214   2.492
    1PA     H3S10763   0.908   1.084   2.602
    1PA     C1210764   0.726   1.049   2.497
    1PA     H2R10765   0.700   0.967   2.563
    1PA     H2S10766   0.634   1.093   2.459
    2PC     C1110767   0.784   0.993   2.369
    2PC     O1210768   0.827   1.058   2.277
    2PC     O1110769   0.774   0.859   2.361
    2PC      C110770   0.806   0.791   2.239
    2PC      HR10771   0.760   0.692   2.233
    2PC      HS10772   0.774   0.847   2.150
    2PC      C210773   0.958   0.784   2.216
    2PC      HX10774   1.009   0.880   2.208
    2PC      C310775   1.003   0.711   2.089
    2PC      HA10776   1.003   0.777   2.003
    2PC      HB10777   1.105   0.671   2.099
    2PC     O3110778   0.907   0.607   2.061
    2PC     P3110779   0.927   0.518   1.929
    2PC     O3210780   1.011   0.398   1.992
    2PC     C3110781   1.018   0.276   1.916
    2PC     H1A10782   0.918   0.254   1.879
    2PC     H1B10783   1.087   0.290   1.833
    2PC     C3210784   1.067   0.157   2.000
    2PC     H2A10785   1.159   0.170   2.057
    2PC     H2B10786   0.988   0.126   2.069
    2PC     N3110787   1.091   0.033   1.920
    2PC     C3310788   1.213   0.043   1.834
    2PC     H3A10789   1.240  -0.051   1.786
    2PC     H3B10790   1.192   0.125   1.765
    2PC     H3C10791   1.289   0.073   1.907
    2PC     C3410792   1.114  -0.086   2.009
    2PC     H4A10793   1.128  -0.174   1.946
    2PC     H4B10794   1.205  -0.058   2.062
    2PC     H4C10795   1.031  -0.099   2.079
    2PC     C3510796   0.971  -0.002   1.837
    2PC     H5A10797   0.955   0.068   1.754
    2PC     H5B10798   0.884  -0.006   1.902
    2PC     H5C10799   0.978  -0.102   1.795
    2PC     O3310800   0.793   0.487   1.873
    2PC     O3410801   0.996   0.574   1.810
    2PC     O2110802   1.021   0.714   2.325
    2PC     C2110803   1.045   0.770   2.445
    2PC     O2210804   1.047   0.890   2.465
    3OL     C1210805   1.070   0.658   2.543
    3OL     H2R10806   1.123   0.689   2.633
    3OL     H2S10807   1.137   0.585   2.499
    3OL     C1310808   0.936   0.596   2.588
    3OL     H3R10809   0.886   0.554   2.501
    3OL     H3S10810   0.865   0.669   2.627
    3OL     C1410811   0.961   0.487   2.693
    3OL     H4R10812   1.031   0.410   2.659
    3OL     H4S10813   0.862   0.442   2.703
    3OL     C1510814   1.015   0.550   2.822
    3OL     H5R10815   0.957   0.641   2.840
    3OL     H5S10816   1.120   0.577   2.812
    3OL     C1610817   0.983   0.464   2.945
    3OL     H6R10818   0.999   0.359   2.917
    3OL     H6S10819   0.876   0.466   2.965
    3OL     C1710820   1.056   0.498   3.075
    3OL     H7R10821   1.028   0.602   3.097
    3OL     H7S10822   1.163   0.479   3.064
    3OL     C1810823   1.014   0.401   3.187
    3OL     H8R10824   1.092   0.387   3.262
    3OL     H8S10825   1.009   0.300   3.144
    3OL     C1910826   0.882   0.431   3.251
    3OL     H9R10827   0.817   0.486   3.184
    3OL    C11010828   0.831   0.394   3.368
    3OL    H10R10829   0.727   0.418   3.387
    3OL    C11110830   0.890   0.326   3.490
    3OL    H11R10831   0.881   0.393   3.575
    3OL    H11S10832   0.995   0.300   3.479
    3OL    C11210833   0.823   0.190   3.516
    3OL    H12R10834   0.865   0.115   3.448
    3OL    H12S10835   0.715   0.200   3.498
    3OL    C11310836   0.858   0.131   3.653
    3OL    H13R10837   0.801   0.189   3.726
    3OL    H13S10838   0.966   0.131   3.673
    3OL    C11410839   0.806  -0.012   3.676
    3OL    H14R10840   0.870  -0.085   3.625
    3OL    H14S10841   0.704  -0.027   3.641
    3OL    C11510842   0.823  -0.052   3.823
    3OL    H15R10843   0.786  -0.154   3.834
    3OL    H15S10844   0.761   0.005   3.892
    3OL    C11610845   0.970  -0.054   3.868
    3OL    H16R10846   0.993   0.050   3.892
    3OL    H16S10847   1.032  -0.092   3.787
    3OL    C11710848   0.995  -0.135   3.996
    3OL    H17R10849   1.103  -0.132   4.011
    3OL    H17S10850   0.966  -0.239   3.975
    3OL    C11810851   0.914  -0.089   4.118
    3OL    H18R10852   0.934  -0.146   4.208
    3OL    H18S10853   0.809  -0.115   4.105
    3OL    H18T10854   0.927   0.019   4.131
    1PA    C11610855  -0.168   3.330   4.244
    1PA    H16R10856  -0.166   3.389   4.336
    1PA    H16S10857  -0.123   3.231   4.258
    1PA    H16T10858  -0.274   3.325   4.221
    1PA    C11510859  -0.082   3.400   4.138
    1PA    H15R10860  -0.099   3.508   4.143
    1PA    H15S10861   0.023   3.382   4.163
    1PA    C11410862  -0.116   3.342   3.999
    1PA    H14R10863  -0.101   3.234   4.006
    1PA    H14S10864  -0.221   3.357   3.972
    1PA    C11310865  -0.031   3.420   3.898
    1PA    H13R10866  -0.057   3.526   3.897
    1PA    H13S10867   0.072   3.419   3.936
    1PA    C11210868  -0.028   3.350   3.761
    1PA    H12R10869  -0.009   3.244   3.776
    1PA    H12S10870  -0.127   3.354   3.716
    1PA    C11110871   0.081   3.406   3.669
    1PA    H11R10872   0.069   3.515   3.672
    1PA    H11S10873   0.177   3.371   3.706
    1PA    C11010874   0.065   3.366   3.521
    1PA    H10R10875   0.070   3.257   3.520
    1PA    H10S10876  -0.030   3.404   3.485
    1PA     C1910877   0.172   3.412   3.421
    1PA     H9R10878   0.190   3.517   3.399
    1PA     H9S10879   0.261   3.371   3.471
    1PA     C1810880   0.153   3.327   3.295
    1PA     H8R10881   0.191   3.227   3.318
    1PA     H8S10882   0.052   3.323   3.254
    1PA     C1710883   0.259   3.375   3.195
    1PA     H7R10884   0.228   3.472   3.157
    1PA     H7S10885   0.361   3.370   3.235
    1PA     C1610886   0.256   3.285   3.071
    1PA     H6R10887   0.269   3.177   3.084
    1PA     H6S10888   0.163   3.308   3.019
    1PA     C1510889   0.372   3.324   2.978
    1PA     H5R10890   0.357   3.421   2.929
    1PA     H5S10891   0.462   3.315   3.040
    1PA     C1410892   0.389   3.226   2.862
    1PA     H4R10893   0.402   3.123   2.897
    1PA     H4S10894   0.296   3.232   2.807
    1PA     C1310895   0.500   3.272   2.767
    1PA     H3R10896   0.468   3.363   2.716
    1PA     H3S10897   0.591   3.294   2.823
    1PA     C1210898   0.539   3.177   2.652
    1PA     H2R10899   0.560   3.081   2.699
    1PA     H2S10900   0.459   3.159   2.580
    2PC     C1110901   0.659   3.225   2.575
    2PC     O1210902   0.670   3.337   2.530
    2PC     O1110903   0.754   3.130   2.568
    2PC      C110904   0.870   3.154   2.488
    2PC      HR10905   0.919   3.057   2.472
    2PC      HS10906   0.843   3.194   2.390
    2PC      C210907   0.973   3.241   2.561
    2PC      HX10908   0.929   3.340   2.563
    2PC      C310909   1.105   3.254   2.483
    2PC      HA10910   1.095   3.305   2.387
    2PC      HB10911   1.181   3.315   2.532
    2PC     O3110912   1.158   3.122   2.457
    2PC     P3110913   1.291   3.107   2.369
    2PC     O3210914   1.403   3.171   2.465
    2PC     C3110915   1.475   3.109   2.572
    2PC     H1A10916   1.403   3.109   2.655
    2PC     H1B10917   1.516   3.014   2.538
    2PC     C3210918   1.582   3.213   2.606
    2PC     H2A10919   1.543   3.303   2.654
    2PC     H2B10920   1.655   3.164   2.671
    2PC     N3110921   1.675   3.270   2.502
    2PC     C3310922   1.606   3.383   2.431
    2PC     H3A10923   1.507   3.342   2.411
    2PC     H3B10924   1.602   3.462   2.506
    2PC     H3C10925   1.662   3.403   2.340
    2PC     C3410926   1.791   3.320   2.583
    2PC     H4A10927   1.745   3.399   2.643
    2PC     H4B10928   1.837   3.242   2.643
    2PC     H4C10929   1.871   3.353   2.517
    2PC     C3510930   1.711   3.164   2.403
    2PC     H5A10931   1.797   3.200   2.346
    2PC     H5B10932   1.622   3.144   2.343
    2PC     H5C10933   1.741   3.080   2.466
    2PC     O3310934   1.321   2.964   2.347
    2PC     O3410935   1.289   3.169   2.234
    2PC     O2110936   0.997   3.181   2.689
    2PC     C2110937   1.041   3.261   2.788
    2PC     O2210938   1.073   3.378   2.777
    3OL     C1210939   1.039   3.197   2.924
    3OL     H2R10940   0.947   3.223   2.976
    3OL     H2S10941   1.120   3.240   2.985
    3OL     C1310942   1.043   3.044   2.927
    3OL     H3R10943   0.956   3.007   2.873
    3OL     H3S10944   1.029   3.014   3.031
    3OL     C1410945   1.176   2.987   2.878
    3OL     H4R10946   1.258   3.036   2.930
    3OL     H4S10947   1.185   3.006   2.771
    3OL     C1510948   1.190   2.835   2.897
    3OL     H5R10949   1.111   2.789   2.836
    3OL     H5S10950   1.174   2.798   2.998
    3OL     C1610951   1.328   2.787   2.851
    3OL     H6R10952   1.410   2.826   2.912
    3OL     H6S10953   1.357   2.833   2.757
    3OL     C1710954   1.348   2.635   2.850
    3OL     H7R10955   1.423   2.600   2.778
    3OL     H7S10956   1.253   2.587   2.825
    3OL     C1810957   1.380   2.574   2.987
    3OL     H8R10958   1.311   2.618   3.059
    3OL     H8S10959   1.484   2.602   3.005
    3OL     C1910960   1.351   2.426   2.995
    3OL     H9R10961   1.300   2.373   2.915
    3OL    C11010962   1.395   2.347   3.091
    3OL    H10R10963   1.383   2.239   3.088
    3OL    C11110964   1.471   2.388   3.214
    3OL    H11R10965   1.499   2.494   3.217
    3OL    H11S10966   1.562   2.328   3.206
    3OL    C11210967   1.387   2.344   3.335
    3OL    H12R10968   1.360   2.238   3.327
    3OL    H12S10969   1.299   2.407   3.344
    3OL    C11310970   1.463   2.368   3.466
    3OL    H13R10971   1.553   2.306   3.467
    3OL    H13S10972   1.396   2.350   3.550
    3OL    C11410973   1.508   2.514   3.486
    3OL    H14R10974   1.586   2.547   3.416
    3OL    H14S10975   1.564   2.507   3.580
    3OL    C11510976   1.395   2.617   3.497
    3OL    H15R10977   1.301   2.582   3.540
    3OL    H15S10978   1.376   2.658   3.398
    3OL    C11610979   1.454   2.727   3.587
    3OL    H16R10980   1.544   2.774   3.548
    3OL    H16S10981   1.475   2.699   3.691
    3OL    C11710982   1.347   2.836   3.603
    3OL    H17R10983   1.255   2.780   3.620
    3OL    H17S10984   1.334   2.876   3.502
    3OL    C11810985   1.385   2.944   3.706
    3OL    H18R10986   1.305   2.936   3.779
    3OL    H18S10987   1.387   3.042   3.659
    3OL    H18T10988   1.478   2.919   3.757
    1PA    C11610989   0.063   5.590   3.755
    1PA    H16R10990   0.037   5.515   3.680
    1PA    H16S10991   0.114   5.672   3.703
    1PA    H16T10992  -0.027   5.636   3.796
    1PA    C11510993   0.151   5.521   3.860
    1PA    H15R10994   0.198   5.605   3.913
    1PA    H15S10995   0.089   5.462   3.927
    1PA    C11410996   0.265   5.441   3.795
    1PA    H14R10997   0.340   5.419   3.872
    1PA    H14S10998   0.231   5.348   3.749
    1PA    C11310999   0.335   5.530   3.691
    1PA    H13R11000   0.281   5.546   3.598
    1PA    H13S11001   0.352   5.626   3.741
    1PA    C11211002   0.472   5.470   3.655
    1PA    H12R11003   0.525   5.445   3.747
    1PA    H12S11004   0.456   5.382   3.592
    1PA    C11111005   0.548   5.564   3.561
    1PA    H11R11006   0.504   5.564   3.461
    1PA    H11S11007   0.531   5.669   3.586
    1PA    C11011008   0.699   5.535   3.554
    1PA    H10R11009   0.739   5.559   3.653
    1PA    H10S11010   0.709   5.428   3.532
    1PA     C1911011   0.766   5.618   3.444
    1PA     H9R11012   0.873   5.598   3.447
    1PA     H9S11013   0.729   5.592   3.345
    1PA     C1811014   0.756   5.770   3.463
    1PA     H8R11015   0.650   5.797   3.472
    1PA     H8S11016   0.797   5.799   3.560
    1PA     C1711017   0.830   5.846   3.352
    1PA     H7R11018   0.866   5.940   3.395
    1PA     H7S11019   0.922   5.790   3.330
    1PA     C1611020   0.755   5.871   3.221
    1PA     H6R11021   0.712   5.776   3.190
    1PA     H6S11022   0.660   5.917   3.249
    1PA     C1511023   0.843   5.930   3.109
    1PA     H5R11024   0.881   6.024   3.149
    1PA     H5S11025   0.930   5.865   3.102
    1PA     C1411026   0.775   5.956   2.974
    1PA     H4R11027   0.732   5.861   2.943
    1PA     H4S11028   0.705   6.039   2.983
    1PA     C1311029   0.869   5.985   2.856
    1PA     H3R11030   0.842   6.086   2.824
    1PA     H3S11031   0.972   5.986   2.893
    1PA     C1211032   0.860   5.877   2.748
    1PA     H2R11033   0.865   5.775   2.787
    1PA     H2S11034   0.760   5.889   2.705
    2PC     C1111035   0.964   5.883   2.639
    2PC     O1211036   1.060   5.808   2.633
    2PC     O1111037   0.943   5.987   2.557
    2PC      C111038   1.046   6.035   2.469
    2PC      HR11039   1.136   5.972   2.462
    2PC      HS11040   0.990   6.040   2.375
    2PC      C211041   1.073   6.184   2.493
    2PC      HX11042   0.987   6.250   2.479
    2PC      C311043   1.175   6.233   2.389
    2PC      HA11044   1.125   6.250   2.294
    2PC      HB11045   1.220   6.326   2.423
    2PC     O3111046   1.270   6.129   2.361
    2PC     P3111047   1.383   6.150   2.249
    2PC     O3211048   1.505   6.070   2.315
    2PC     C3111049   1.642   6.112   2.295
    2PC     H1A11050   1.654   6.103   2.186
    2PC     H1B11051   1.641   6.217   2.324
    2PC     C3211052   1.742   6.037   2.383
    2PC     H2A11053   1.734   5.934   2.347
    2PC     H2B11054   1.840   6.082   2.364
    2PC     N3111055   1.714   6.023   2.529
    2PC     C3311056   1.667   6.152   2.590
    2PC     H3A11057   1.750   6.222   2.584
    2PC     H3B11058   1.585   6.190   2.529
    2PC     H3C11059   1.630   6.134   2.691
    2PC     C3411060   1.608   5.919   2.550
    2PC     H4A11061   1.571   5.935   2.652
    2PC     H4B11062   1.528   5.927   2.476
    2PC     H4C11063   1.647   5.817   2.541
    2PC     C3511064   1.842   5.984   2.595
    2PC     H5A11065   1.912   6.067   2.580
    2PC     H5B11066   1.870   5.896   2.537
    2PC     H5C11067   1.830   5.956   2.700
    2PC     O3311068   1.351   6.101   2.113
    2PC     O3411069   1.414   6.295   2.247
    2PC     O2111070   1.108   6.208   2.631
    2PC     C2111071   1.215   6.148   2.686
    2PC     O2211072   1.297   6.083   2.624
    3OL     C1211073   1.229   6.163   2.835
    3OL     H2R11074   1.131   6.177   2.881
    3OL     H2S11075   1.299   6.246   2.844
    3OL     C1311076   1.275   6.034   2.905
    3OL     H3R11077   1.357   5.986   2.851
    3OL     H3S11078   1.193   5.962   2.904
    3OL     C1411079   1.317   6.061   3.050
    3OL     H4R11080   1.339   6.167   3.065
    3OL     H4S11081   1.412   6.009   3.066
    3OL     C1511082   1.211   6.013   3.149
    3OL     H5R11083   1.230   5.906   3.158
    3OL     H5S11084   1.109   6.027   3.111
    3OL     C1611085   1.237   6.077   3.286
    3OL     H6R11086   1.259   6.184   3.276
    3OL     H6S11087   1.326   6.029   3.326
    3OL     C1711088   1.118   6.061   3.382
    3OL     H7R11089   1.099   5.954   3.380
    3OL     H7S11090   1.024   6.097   3.340
    3OL     C1811091   1.146   6.106   3.526
    3OL     H8R11092   1.188   6.206   3.514
    3OL     H8S11093   1.218   6.034   3.568
    3OL     C1911094   1.018   6.125   3.603
    3OL     H9R11095   0.945   6.191   3.557
    3OL    C11011096   0.979   6.071   3.718
    3OL    H10R11097   0.879   6.095   3.753
    3OL    C11111098   1.054   5.969   3.799
    3OL    H11R11099   1.097   6.007   3.892
    3OL    H11S11100   1.139   5.926   3.746
    3OL    C11211101   0.951   5.861   3.836
    3OL    H12R11102   0.905   5.823   3.744
    3OL    H12S11103   0.866   5.906   3.886
    3OL    C11311104   1.002   5.747   3.926
    3OL    H13R11105   1.087   5.700   3.876
    3OL    H13S11106   0.929   5.668   3.942
    3OL    C11411107   1.066   5.791   4.059
    3OL    H14R11108   1.151   5.858   4.044
    3OL    H14S11109   1.096   5.703   4.117
    3OL    C11511110   0.968   5.884   4.131
    3OL    H15R11111   0.864   5.851   4.129
    3OL    H15S11112   0.958   5.979   4.076
    3OL    C11611113   1.006   5.920   4.275
    3OL    H16R11114   0.937   6.000   4.304
    3OL    H16S11115   1.105   5.966   4.273
    3OL    C11711116   0.994   5.798   4.367
    3OL    H17R11117   1.051   5.805   4.460
    3OL    H17S11118   1.043   5.711   4.322
    3OL    C11811119   0.854   5.753   4.414
    3OL    H18R11120   0.794   5.735   4.324
    3OL    H18S11121   0.797   5.836   4.456
    3OL    H18T11122   0.861   5.672   4.486
    1PA    C11611123   0.964   3.557   3.080
    1PA    H16R11124   1.014   3.549   3.177
    1PA    H16S11125   0.969   3.458   3.034
    1PA    H16T11126   0.860   3.592   3.089
    1PA    C11511127   1.043   3.661   2.999
    1PA    H15R11128   1.148   3.634   3.004
    1PA    H15S11129   1.018   3.653   2.893
    1PA    C11411130   1.025   3.802   3.056
    1PA    H14R11131   1.044   3.873   2.975
    1PA    H14S11132   0.920   3.819   3.079
    1PA    C11311133   1.113   3.832   3.178
    1PA    H13R11134   1.056   3.789   3.261
    1PA    H13S11135   1.210   3.782   3.178
    1PA    C11211136   1.125   3.984   3.194
    1PA    H12R11137   1.179   4.024   3.108
    1PA    H12S11138   1.031   4.040   3.203
    1PA    C11111139   1.210   4.020   3.317
    1PA    H11R11140   1.194   4.123   3.350
    1PA    H11S11141   1.164   3.966   3.401
    1PA    C11011142   1.362   4.008   3.303
    1PA    H10R11143   1.417   3.991   3.396
    1PA    H10S11144   1.390   3.920   3.245
    1PA     C1911145   1.408   4.133   3.226
    1PA     H9R11146   1.343   4.145   3.139
    1PA     H9S11147   1.380   4.212   3.296
    1PA     C1811148   1.560   4.131   3.202
    1PA     H8R11149   1.626   4.113   3.286
    1PA     H8S11150   1.591   4.052   3.133
    1PA     C1711151   1.604   4.268   3.149
    1PA     H7R11152   1.557   4.302   3.056
    1PA     H7S11153   1.573   4.342   3.223
    1PA     C1611154   1.754   4.263   3.117
    1PA     H6R11155   1.799   4.363   3.112
    1PA     H6S11156   1.801   4.208   3.200
    1PA     C1511157   1.787   4.183   2.990
    1PA     H5R11158   1.777   4.076   3.003
    1PA     H5S11159   1.726   4.229   2.913
    1PA     C1411160   1.935   4.217   2.968
    1PA     H4R11161   1.947   4.321   2.937
    1PA     H4S11162   1.985   4.203   3.064
    1PA     C1311163   2.001   4.132   2.858
    1PA     H3R11164   2.034   4.036   2.899
    1PA     H3S11165   1.934   4.114   2.773
    1PA     C1211166   2.126   4.210   2.817
    1PA     H2R11167   2.085   4.301   2.772
    1PA     H2S11168   2.192   4.243   2.898
    2PC     C1111169   2.215   4.146   2.713
    2PC     O1211170   2.179   4.054   2.642
    2PC     O1111171   2.338   4.200   2.714
    2PC      C111172   2.421   4.170   2.600
    2PC      HR11173   2.439   4.062   2.606
    2PC      HS11174   2.374   4.195   2.504
    2PC      C211175   2.556   4.241   2.615
    2PC      HX11176   2.550   4.330   2.677
    2PC      C311177   2.616   4.272   2.477
    2PC      HA11178   2.557   4.334   2.409
    2PC      HB11179   2.711   4.322   2.496
    2PC     O3111180   2.644   4.149   2.407
    2PC     P3111181   2.690   4.175   2.256
    2PC     O3211182   2.703   4.026   2.198
    2PC     C3111183   2.578   3.963   2.162
    2PC     H1A11184   2.522   3.940   2.253
    2PC     H1B11185   2.516   4.032   2.105
    2PC     C3211186   2.606   3.829   2.093
    2PC     H2A11187   2.685   3.776   2.145
    2PC     H2B11188   2.517   3.767   2.102
    2PC     N3111189   2.667   3.835   1.956
    2PC     C3311190   2.786   3.925   1.945
    2PC     H3A11191   2.757   4.029   1.965
    2PC     H3B11192   2.859   3.883   2.014
    2PC     H3C11193   2.833   3.912   1.847
    2PC     C3411194   2.702   3.691   1.932
    2PC     H4A11195   2.775   3.671   2.011
    2PC     H4B11196   2.614   3.628   1.916
    2PC     H4C11197   2.752   3.691   1.835
    2PC     C3511198   2.567   3.878   1.853
    2PC     H5A11199   2.551   3.986   1.861
    2PC     H5B11200   2.480   3.817   1.876
    2PC     H5C11201   2.604   3.868   1.751
    2PC     O3311202   2.610   4.264   2.168
    2PC     O3411203   2.820   4.245   2.263
    2PC     O2111204   2.655   4.160   2.682
    2PC     C2111205   2.758   4.217   2.748
    2PC     O2211206   2.767   4.338   2.748
    3OL     C1211207   2.866   4.133   2.811
    3OL     H2R11208   2.959   4.148   2.756
    3OL     H2S11209   2.838   4.028   2.804
    3OL     C1311210   2.892   4.180   2.955
    3OL     H3R11211   2.793   4.148   2.988
    3OL     H3S11212   2.900   4.289   2.959
    3OL     C1411213   3.005   4.096   3.015
    3OL     H4R11214   3.095   4.157   3.005
    3OL     H4S11215   3.020   4.010   2.949
    3OL     C1511216   2.992   4.049   3.161
    3OL     H5R11217   2.908   3.979   3.165
    3OL     H5S11218   2.964   4.131   3.226
    3OL     C1611219   3.126   3.989   3.205
    3OL     H6R11220   3.205   4.055   3.170
    3OL     H6S11221   3.146   3.902   3.142
    3OL     C1711222   3.144   3.969   3.356
    3OL     H7R11223   3.079   3.889   3.392
    3OL     H7S11224   3.119   4.062   3.407
    3OL     C1811225   3.288   3.932   3.394
    3OL     H8R11226   3.314   3.969   3.494
    3OL     H8S11227   3.355   3.988   3.328
    3OL     C1911228   3.310   3.783   3.399
    3OL     H9R11229   3.237   3.728   3.340
    3OL    C11011230   3.410   3.719   3.459
    3OL    H10R11231   3.414   3.611   3.450
    3OL    C11111232   3.531   3.784   3.520
    3OL    H11R11233   3.524   3.893   3.525
    3OL    H11S11234   3.620   3.763   3.459
    3OL    C11211235   3.558   3.738   3.664
    3OL    H12R11236   3.582   3.632   3.671
    3OL    H12S11237   3.462   3.753   3.714
    3OL    C11311238   3.658   3.820   3.746
    3OL    H13R11239   3.625   3.924   3.752
    3OL    H13S11240   3.751   3.808   3.691
    3OL    C11411241   3.684   3.754   3.882
    3OL    H14R11242   3.718   3.652   3.863
    3OL    H14S11243   3.590   3.735   3.934
    3OL    C11511244   3.796   3.825   3.960
    3OL    H15R11245   3.775   3.931   3.976
    3OL    H15S11246   3.889   3.812   3.904
    3OL    C11611247   3.808   3.759   4.098
    3OL    H16R11248   3.903   3.776   4.149
    3OL    H16S11249   3.793   3.651   4.090
    3OL    C11711250   3.700   3.807   4.195
    3OL    H17R11251   3.613   3.747   4.166
    3OL    H17S11252   3.668   3.911   4.197
    3OL    C11811253   3.738   3.761   4.336
    3OL    H18R11254   3.680   3.804   4.418
    3OL    H18S11255   3.836   3.801   4.363
    3OL    H18T11256   3.754   3.653   4.333
    1PA    C11611257   2.738   2.396   3.893
    1PA    H16R11258   2.815   2.367   3.965
    1PA    H16S11259   2.666   2.315   3.878
    1PA    H16T11260   2.679   2.473   3.943
    1PA    C11511261   2.803   2.455   3.768
    1PA    H15R11262   2.721   2.480   3.700
    1PA    H15S11263   2.863   2.542   3.795
    1PA    C11411264   2.893   2.352   3.697
    1PA    H14R11265   2.981   2.328   3.757
    1PA    H14S11266   2.835   2.264   3.673
    1PA    C11311267   2.948   2.411   3.566
    1PA    H13R11268   2.867   2.440   3.499
    1PA    H13S11269   3.007   2.500   3.591
    1PA    C11211270   3.033   2.313   3.484
    1PA    H12R11271   3.101   2.269   3.556
    1PA    H12S11272   2.977   2.226   3.450
    1PA    C11111273   3.114   2.373   3.368
    1PA    H11R11274   3.146   2.468   3.411
    1PA    H11S11275   3.187   2.300   3.332
    1PA    C11011276   3.024   2.391   3.244
    1PA    H10R11277   2.994   2.294   3.203
    1PA    H10S11278   2.943   2.460   3.265
    1PA     C1911279   3.096   2.446   3.120
    1PA     H9R11280   3.179   2.376   3.101
    1PA     H9S11281   3.033   2.438   3.032
    1PA     C1811282   3.152   2.587   3.139
    1PA     H8R11283   3.073   2.647   3.185
    1PA     H8S11284   3.230   2.586   3.216
    1PA     C1711285   3.205   2.648   3.009
    1PA     H7R11286   3.304   2.610   2.984
    1PA     H7S11287   3.138   2.644   2.923
    1PA     C1611288   3.245   2.795   3.033
    1PA     H6R11289   3.158   2.851   3.067
    1PA     H6S11290   3.316   2.798   3.116
    1PA     C1511291   3.296   2.870   2.910
    1PA     H5R11292   3.377   2.818   2.857
    1PA     H5S11293   3.217   2.881   2.836
    1PA     C1411294   3.344   3.011   2.947
    1PA     H4R11295   3.267   3.061   3.005
    1PA     H4S11296   3.437   3.007   3.005
    1PA     C1311297   3.372   3.097   2.823
    1PA     H3R11298   3.442   3.042   2.760
    1PA     H3S11299   3.282   3.120   2.766
    1PA     C1211300   3.429   3.235   2.858
    1PA     H2R11301   3.378   3.291   2.937
    1PA     H2S11302   3.525   3.213   2.907
    2PC     C1111303   3.446   3.324   2.738
    2PC     O1211304   3.389   3.309   2.632
    2PC     O1111305   3.537   3.419   2.764
    2PC      C111306   3.580   3.506   2.657
    2PC      HR11307   3.687   3.524   2.672
    2PC      HS11308   3.572   3.453   2.562
    2PC      C211309   3.514   3.645   2.654
    2PC      HX11310   3.407   3.633   2.675
    2PC      C311311   3.508   3.684   2.506
    2PC      HA11312   3.458   3.598   2.460
    2PC      HB11313   3.456   3.778   2.487
    2PC     O3111314   3.643   3.676   2.458
    2PC     P3111315   3.673   3.689   2.302
    2PC     O3211316   3.765   3.820   2.303
    2PC     C3111317   3.707   3.939   2.247
    2PC     H1A11318   3.661   3.927   2.148
    2PC     H1B11319   3.634   3.969   2.323
    2PC     C3211320   3.816   4.047   2.249
    2PC     H2A11321   3.758   4.135   2.217
    2PC     H2B11322   3.840   4.080   2.350
    2PC     N3111323   3.936   4.045   2.159
    2PC     C3311324   4.039   3.959   2.225
    2PC     H3A11325   3.994   3.870   2.269
    2PC     H3B11326   4.111   3.929   2.149
    2PC     H3C11327   4.080   4.021   2.306
    2PC     C3411328   3.897   3.999   2.022
    2PC     H4A11329   3.871   3.893   2.029
    2PC     H4B11330   3.817   4.064   1.985
    2PC     H4C11331   3.987   4.003   1.961
    2PC     C3511332   3.995   4.182   2.152
    2PC     H5A11333   4.085   4.177   2.090
    2PC     H5B11334   4.040   4.208   2.248
    2PC     H5C11335   3.934   4.267   2.122
    2PC     O3311336   3.755   3.581   2.243
    2PC     O3411337   3.567   3.693   2.199
    2PC     O2111338   3.565   3.746   2.743
    2PC     C2111339   3.481   3.846   2.777
    2PC     O2211340   3.374   3.865   2.723
    3OL     C1211341   3.537   3.928   2.890
    3OL     H2R11342   3.632   3.972   2.859
    3OL     H2S11343   3.567   3.865   2.973
    3OL     C1311344   3.438   4.033   2.943
    3OL     H3R11345   3.351   3.972   2.967
    3OL     H3S11346   3.419   4.114   2.872
    3OL     C1411347   3.489   4.086   3.078
    3OL     H4R11348   3.598   4.095   3.076
    3OL     H4S11349   3.476   4.012   3.158
    3OL     C1511350   3.419   4.220   3.104
    3OL     H5R11351   3.311   4.216   3.089
    3OL     H5S11352   3.453   4.291   3.028
    3OL     C1611353   3.445   4.278   3.244
    3OL     H6R11354   3.552   4.285   3.265
    3OL     H6S11355   3.404   4.216   3.324
    3OL     C1711356   3.385   4.419   3.252
    3OL     H7R11357   3.280   4.430   3.224
    3OL     H7S11358   3.429   4.480   3.173
    3OL     C1811359   3.399   4.490   3.387
    3OL     H8R11360   3.507   4.501   3.391
    3OL     H8S11361   3.367   4.420   3.465
    3OL     C1911362   3.323   4.620   3.385
    3OL     H9R11363   3.331   4.676   3.292
    3OL    C11011364   3.260   4.681   3.484
    3OL    H10R11365   3.213   4.777   3.464
    3OL    C11111366   3.249   4.620   3.621
    3OL    H11R11367   3.217   4.517   3.607
    3OL    H11S11368   3.173   4.677   3.676
    3OL    C11211369   3.385   4.642   3.688
    3OL    H12R11370   3.421   4.742   3.662
    3OL    H12S11371   3.463   4.587   3.635
    3OL    C11311372   3.389   4.608   3.838
    3OL    H13R11373   3.354   4.506   3.852
    3OL    H13S11374   3.308   4.667   3.880
    3OL    C11411375   3.524   4.648   3.900
    3OL    H14R11376   3.561   4.746   3.869
    3OL    H14S11377   3.596   4.579   3.856
    3OL    C11511378   3.518   4.632   4.052
    3OL    H15R11379   3.469   4.538   4.080
    3OL    H15S11380   3.470   4.718   4.100
    3OL    C11611381   3.659   4.628   4.112
    3OL    H16R11382   3.718   4.541   4.081
    3OL    H16S11383   3.653   4.608   4.219
    3OL    C11711384   3.753   4.746   4.082
    3OL    H17R11385   3.816   4.767   4.168
    3OL    H17S11386   3.686   4.831   4.068
    3OL    C11811387   3.843   4.713   3.962
    3OL    H18R11388   3.902   4.801   3.934
    3OL    H18S11389   3.789   4.681   3.872
    3OL    H18T11390   3.918   4.639   3.989
    1PA    C11611391   5.337   6.362   3.446
    1PA    H16R11392   5.388   6.425   3.519
    1PA    H16S11393   5.247   6.411   3.408
    1PA    H16T11394   5.404   6.323   3.369
    1PA    C11511395   5.291   6.240   3.526
    1PA    H15R11396   5.202   6.190   3.489
    1PA    H15S11397   5.376   6.171   3.531
    1PA    C11411398   5.255   6.276   3.671
    1PA    H14R11399   5.261   6.183   3.729
    1PA    H14S11400   5.330   6.339   3.719
    1PA    C11311401   5.115   6.336   3.682
    1PA    H13R11402   5.102   6.417   3.754
    1PA    H13S11403   5.092   6.378   3.584
    1PA    C11211404   5.009   6.239   3.737
    1PA    H12R11405   5.052   6.200   3.830
    1PA    H12S11406   4.922   6.301   3.763
    1PA    C11111407   4.980   6.120   3.646
    1PA    H11R11408   5.074   6.086   3.600
    1PA    H11S11409   4.938   6.034   3.697
    1PA    C11011410   4.889   6.166   3.531
    1PA    H10R11411   4.799   6.211   3.571
    1PA    H10S11412   4.945   6.233   3.465
    1PA     C1911413   4.848   6.043   3.448
    1PA     H9R11414   4.939   5.992   3.415
    1PA     H9S11415   4.792   5.971   3.507
    1PA     C1811416   4.768   6.076   3.322
    1PA     H8R11417   4.753   5.990   3.257
    1PA     H8S11418   4.669   6.092   3.365
    1PA     C1711419   4.809   6.203   3.246
    1PA     H7R11420   4.728   6.225   3.177
    1PA     H7S11421   4.827   6.289   3.311
    1PA     C1611422   4.937   6.178   3.166
    1PA     H6R11423   5.028   6.162   3.225
    1PA     H6S11424   4.917   6.087   3.108
    1PA     C1511425   4.972   6.291   3.068
    1PA     H5R11426   4.916   6.282   2.975
    1PA     H5S11427   4.943   6.389   3.106
    1PA     C1411428   5.122   6.287   3.034
    1PA     H4R11429   5.175   6.288   3.130
    1PA     H4S11430   5.157   6.200   2.978
    1PA     C1311431   5.164   6.404   2.943
    1PA     H3R11432   5.108   6.391   2.850
    1PA     H3S11433   5.121   6.491   2.992
    1PA     C1211434   5.316   6.417   2.923
    1PA     H2R11435   5.339   6.521   2.899
    1PA     H2S11436   5.362   6.396   3.019
    2PC     C1111437   5.360   6.322   2.814
    2PC     O1211438   5.380   6.356   2.699
    2PC     O1111439   5.374   6.193   2.849
    2PC      C111440   5.400   6.099   2.743
    2PC      HR11441   5.328   6.102   2.661
    2PC      HS11442   5.502   6.115   2.707
    2PC      C211443   5.400   5.958   2.804
    2PC      HX11444   5.470   5.954   2.887
    2PC      C311445   5.454   5.859   2.700
    2PC      HA11446   5.559   5.877   2.674
    2PC      HB11447   5.448   5.762   2.750
    2PC     O3111448   5.374   5.869   2.580
    2PC     P3111449   5.402   5.759   2.467
    2PC     O3211450   5.421   5.627   2.557
    2PC     C3111451   5.494   5.520   2.495
    2PC     H1A11452   5.428   5.480   2.417
    2PC     H1B11453   5.588   5.553   2.451
    2PC     C3211454   5.518   5.408   2.597
    2PC     H2A11455   5.543   5.315   2.546
    2PC     H2B11456   5.602   5.437   2.661
    2PC     N3111457   5.415   5.378   2.701
    2PC     C3311458   5.443   5.250   2.774
    2PC     H3A11459   5.453   5.170   2.700
    2PC     H3B11460   5.536   5.280   2.822
    2PC     H3C11461   5.359   5.222   2.838
    2PC     C3411462   5.397   5.481   2.809
    2PC     H4A11463   5.327   5.446   2.885
    2PC     H4B11464   5.495   5.506   2.851
    2PC     H4C11465   5.360   5.571   2.760
    2PC     C3511466   5.282   5.360   2.634
    2PC     H5A11467   5.213   5.325   2.712
    2PC     H5B11468   5.284   5.278   2.562
    2PC     H5C11469   5.249   5.442   2.571
    2PC     O3311470   5.275   5.738   2.394
    2PC     O3411471   5.511   5.795   2.374
    2PC     O2111472   5.267   5.919   2.842
    2PC     C2111473   5.240   5.815   2.922
    2PC     O2211474   5.309   5.719   2.949
    3OL     C1211475   5.101   5.835   2.978
    3OL     H2R11476   5.045   5.903   2.914
    3OL     H2S11477   5.120   5.885   3.073
    3OL     C1311478   5.017   5.707   2.991
    3OL     H3R11479   5.084   5.632   3.035
    3OL     H3S11480   4.982   5.668   2.895
    3OL     C1411481   4.903   5.724   3.093
    3OL     H4R11482   4.841   5.806   3.054
    3OL     H4S11483   4.950   5.763   3.184
    3OL     C1511484   4.818   5.599   3.116
    3OL     H5R11485   4.883   5.524   3.163
    3OL     H5S11486   4.789   5.552   3.021
    3OL     C1611487   4.708   5.622   3.220
    3OL     H6R11488   4.639   5.537   3.225
    3OL     H6S11489   4.655   5.711   3.186
    3OL     C1711490   4.762   5.642   3.362
    3OL     H7R11491   4.799   5.745   3.361
    3OL     H7S11492   4.844   5.573   3.380
    3OL     C1811493   4.648   5.628   3.463
    3OL     H8R11494   4.641   5.520   3.482
    3OL     H8S11495   4.553   5.657   3.418
    3OL     C1911496   4.682   5.700   3.591
    3OL     H9R11497   4.721   5.801   3.581
    3OL    C11011498   4.661   5.666   3.717
    3OL    H10R11499   4.694   5.732   3.797
    3OL    C11111500   4.599   5.534   3.757
    3OL    H11R11501   4.672   5.453   3.748
    3OL    H11S11502   4.515   5.517   3.690
    3OL    C11211503   4.537   5.535   3.897
    3OL    H12R11504   4.500   5.434   3.917
    3OL    H12S11505   4.449   5.600   3.893
    3OL    C11311506   4.622   5.581   4.017
    3OL    H13R11507   4.555   5.606   4.099
    3OL    H13S11508   4.676   5.675   4.002
    3OL    C11411509   4.709   5.464   4.063
    3OL    H14R11510   4.775   5.435   3.981
    3OL    H14S11511   4.645   5.378   4.081
    3OL    C11511512   4.780   5.484   4.198
    3OL    H15R11513   4.834   5.394   4.225
    3OL    H15S11514   4.711   5.512   4.277
    3OL    C11611515   4.887   5.593   4.179
    3OL    H16R11516   4.844   5.691   4.158
    3OL    H16S11517   4.946   5.573   4.089
    3OL    C11711518   4.985   5.603   4.296
    3OL    H17R11519   5.017   5.504   4.327
    3OL    H17S11520   4.937   5.641   4.387
    3OL    C11811521   5.105   5.696   4.269
    3OL    H18R11522   5.057   5.792   4.249
    3OL    H18S11523   5.159   5.668   4.178
    3OL    H18T11524   5.167   5.700   4.358
    1PA    C11611525   3.014   3.739   4.366
    1PA    H16R11526   2.908   3.753   4.384
    1PA    H16S11527   3.064   3.771   4.458
    1PA    H16T11528   3.021   3.631   4.358
    1PA    C11511529   3.063   3.815   4.241
    1PA    H15R11530   3.023   3.770   4.150
    1PA    H15S11531   3.031   3.919   4.242
    1PA    C11411532   3.217   3.811   4.236
    1PA    H14R11533   3.253   3.885   4.308
    1PA    H14S11534   3.256   3.718   4.276
    1PA    C11311535   3.279   3.830   4.097
    1PA    H13R11536   3.383   3.800   4.084
    1PA    H13S11537   3.220   3.771   4.026
    1PA    C11211538   3.274   3.979   4.062
    1PA    H12R11539   3.169   4.008   4.049
    1PA    H12S11540   3.311   4.046   4.139
    1PA    C11111541   3.345   4.010   3.930
    1PA    H11R11542   3.453   4.017   3.941
    1PA    H11S11543   3.334   3.923   3.865
    1PA    C11011544   3.290   4.142   3.872
    1PA    H10R11545   3.281   4.206   3.960
    1PA    H10S11546   3.368   4.175   3.803
    1PA     C1911547   3.158   4.109   3.801
    1PA     H9R11548   3.166   4.031   3.724
    1PA     H9S11549   3.085   4.073   3.873
    1PA     C1811550   3.102   4.239   3.742
    1PA     H8R11551   3.104   4.316   3.820
    1PA     H8S11552   3.174   4.276   3.668
    1PA     C1711553   2.969   4.215   3.671
    1PA     H7R11554   2.985   4.137   3.596
    1PA     H7S11555   2.891   4.189   3.743
    1PA     C1611556   2.912   4.347   3.615
    1PA     H6R11557   2.804   4.338   3.600
    1PA     H6S11558   2.943   4.424   3.685
    1PA     C1511559   2.976   4.369   3.477
    1PA     H5R11560   3.085   4.376   3.481
    1PA     H5S11561   2.967   4.276   3.421
    1PA     C1411562   2.936   4.499   3.405
    1PA     H4R11563   2.828   4.502   3.413
    1PA     H4S11564   2.983   4.590   3.443
    1PA     C1311565   2.981   4.479   3.259
    1PA     H3R11566   3.089   4.467   3.255
    1PA     H3S11567   2.941   4.391   3.208
    1PA     C1211568   2.944   4.599   3.169
    1PA     H2R11569   2.837   4.601   3.149
    1PA     H2S11570   2.975   4.688   3.224
    2PC     C1111571   3.022   4.591   3.040
    2PC     O1211572   3.050   4.486   2.986
    2PC     O1111573   3.068   4.713   3.007
    2PC      C111574   3.169   4.720   2.905
    2PC      HR11575   3.261   4.675   2.943
    2PC      HS11576   3.143   4.659   2.818
    2PC      C211577   3.188   4.866   2.864
    2PC      HX11578   3.091   4.917   2.862
    2PC      C311579   3.252   4.871   2.724
    2PC      HA11580   3.179   4.835   2.651
    2PC      HB11581   3.278   4.974   2.699
    2PC     O3111582   3.373   4.793   2.717
    2PC     P3111583   3.453   4.784   2.578
    2PC     O3211584   3.377   4.671   2.494
    2PC     C3111585   3.382   4.533   2.534
    2PC     H1A11586   3.486   4.497   2.539
    2PC     H1B11587   3.352   4.527   2.638
    2PC     C3211588   3.291   4.438   2.455
    2PC     H2A11589   3.309   4.335   2.488
    2PC     H2B11590   3.186   4.456   2.481
    2PC     N3111591   3.314   4.440   2.307
    2PC     C3311592   3.460   4.443   2.272
    2PC     H3A11593   3.476   4.440   2.164
    2PC     H3B11594   3.493   4.540   2.309
    2PC     H3C11595   3.527   4.374   2.323
    2PC     C3411596   3.264   4.312   2.249
    2PC     H4A11597   3.155   4.316   2.246
    2PC     H4B11598   3.298   4.297   2.146
    2PC     H4C11599   3.301   4.229   2.309
    2PC     C3511600   3.247   4.560   2.248
    2PC     H5A11601   3.247   4.549   2.139
    2PC     H5B11602   3.305   4.649   2.274
    2PC     H5C11603   3.142   4.575   2.274
    2PC     O3311604   3.463   4.910   2.500
    2PC     O3411605   3.596   4.753   2.598
    2PC     O2111606   3.278   4.922   2.962
    2PC     C2111607   3.300   5.054   2.953
    2PC     O2211608   3.238   5.129   2.880
    3OL     C1211609   3.410   5.110   3.038
    3OL     H2R11610   3.413   5.219   3.036
    3OL     H2S11611   3.500   5.075   2.987
    3OL     C1311612   3.424   5.056   3.181
    3OL     H3R11613   3.477   4.960   3.181
    3OL     H3S11614   3.329   5.059   3.234
    3OL     C1411615   3.518   5.147   3.262
    3OL     H4R11616   3.488   5.252   3.263
    3OL     H4S11617   3.619   5.151   3.221
    3OL     C1511618   3.537   5.111   3.409
    3OL     H5R11619   3.640   5.136   3.434
    3OL     H5S11620   3.513   5.005   3.424
    3OL     C1611621   3.439   5.195   3.491
    3OL     H6R11622   3.336   5.179   3.459
    3OL     H6S11623   3.443   5.300   3.460
    3OL     C1711624   3.452   5.170   3.642
    3OL     H7R11625   3.411   5.256   3.694
    3OL     H7S11626   3.558   5.167   3.668
    3OL     C1811627   3.380   5.042   3.687
    3OL     H8R11628   3.394   4.960   3.617
    3OL     H8S11629   3.272   5.052   3.685
    3OL     C1911630   3.447   5.001   3.816
    3OL     H9R11631   3.542   4.951   3.798
    3OL    C11011632   3.397   5.021   3.937
    3OL    H10R11633   3.454   4.997   4.027
    3OL    C11111634   3.258   5.069   3.969
    3OL    H11R11635   3.178   5.028   3.907
    3OL    H11S11636   3.254   5.176   3.950
    3OL    C11211637   3.216   5.051   4.116
    3OL    H12R11638   3.284   5.099   4.187
    3OL    H12S11639   3.216   4.943   4.132
    3OL    C11311640   3.070   5.092   4.136
    3OL    H13R11641   3.015   5.031   4.064
    3OL    H13S11642   3.067   5.199   4.112
    3OL    C11411643   3.028   5.066   4.282
    3OL    H14R11644   3.111   5.094   4.347
    3OL    H14S11645   3.020   4.958   4.286
    3OL    C11511646   2.896   5.130   4.330
    3OL    H15R11647   2.822   5.113   4.251
    3OL    H15S11648   2.912   5.238   4.330
    3OL    C11611649   2.845   5.082   4.466
    3OL    H16R11650   2.822   4.976   4.452
    3OL    H16S11651   2.757   5.139   4.499
    3OL    C11711652   2.944   5.095   4.582
    3OL    H17R11653   3.025   5.024   4.564
    3OL    H17S11654   2.903   5.050   4.673
    3OL    C11811655   2.989   5.239   4.611
    3OL    H18R11656   2.917   5.305   4.660
    3OL    H18S11657   3.027   5.278   4.516
    3OL    H18T11658   3.072   5.239   4.683
    1PA    C11611659   6.579   5.895   4.183
    1PA    H16R11660   6.489   5.839   4.207
    1PA    H16S11661   6.607   5.953   4.272
    1PA    H16T11662   6.656   5.821   4.161
    1PA    C11511663   6.564   5.991   4.064
    1PA    H15R11664   6.473   6.047   4.087
    1PA    H15S11665   6.653   6.053   4.049
    1PA    C11411666   6.553   5.917   3.930
    1PA    H14R11667   6.650   5.867   3.921
    1PA    H14S11668   6.475   5.842   3.940
    1PA    C11311669   6.522   6.020   3.821
    1PA    H13R11670   6.441   6.074   3.871
    1PA    H13S11671   6.596   6.101   3.813
    1PA    C11211672   6.471   5.962   3.688
    1PA    H12R11673   6.550   5.906   3.637
    1PA    H12S11674   6.400   5.883   3.711
    1PA    C11111675   6.398   6.072   3.610
    1PA    H11R11676   6.302   6.104   3.652
    1PA    H11S11677   6.453   6.166   3.609
    1PA    C11011678   6.360   6.020   3.471
    1PA    H10R11679   6.333   5.915   3.480
    1PA    H10S11680   6.274   6.078   3.438
    1PA     C1911681   6.474   6.029   3.368
    1PA     H9R11682   6.567   6.001   3.417
    1PA     H9S11683   6.461   5.968   3.279
    1PA     C1811684   6.505   6.173   3.324
    1PA     H8R11685   6.415   6.234   3.312
    1PA     H8S11686   6.570   6.217   3.401
    1PA     C1711687   6.592   6.179   3.198
    1PA     H7R11688   6.659   6.266   3.197
    1PA     H7S11689   6.661   6.095   3.198
    1PA     C1611690   6.509   6.172   3.069
    1PA     H6R11691   6.438   6.089   3.076
    1PA     H6S11692   6.459   6.269   3.064
    1PA     C1511693   6.594   6.161   2.942
    1PA     H5R11694   6.659   6.248   2.943
    1PA     H5S11695   6.655   6.071   2.948
    1PA     C1411696   6.497   6.160   2.823
    1PA     H4R11697   6.423   6.080   2.836
    1PA     H4S11698   6.436   6.251   2.819
    1PA     C1311699   6.585   6.151   2.698
    1PA     H3R11700   6.566   6.216   2.612
    1PA     H3S11701   6.687   6.179   2.725
    1PA     C1211702   6.588   6.004   2.654
    1PA     H2R11703   6.682   5.999   2.599
    1PA     H2S11704   6.577   5.936   2.738
    2PC     C1111705   6.470   5.969   2.567
    2PC     O1211706   6.421   5.858   2.570
    2PC     O1111707   6.431   6.058   2.475
    2PC      C111708   6.328   6.018   2.383
    2PC      HR11709   6.328   6.076   2.291
    2PC      HS11710   6.355   5.921   2.338
    2PC      C211711   6.185   6.010   2.439
    2PC      HX11712   6.178   5.950   2.529
    2PC      C311713   6.087   5.947   2.339
    2PC      HA11714   6.126   5.853   2.300
    2PC      HB11715   5.987   5.947   2.383
    2PC     O3111716   6.083   6.039   2.229
    2PC     P3111717   5.999   5.991   2.101
    2PC     O3211718   5.858   6.057   2.140
    2PC     C3111719   5.859   6.201   2.153
    2PC     H1A11720   5.898   6.231   2.251
    2PC     H1B11721   5.907   6.252   2.069
    2PC     C3211722   5.710   6.234   2.137
    2PC     H2A11723   5.702   6.321   2.072
    2PC     H2B11724   5.651   6.156   2.090
    2PC     N3111725   5.622   6.256   2.257
    2PC     C3311726   5.654   6.384   2.327
    2PC     H3A11727   5.656   6.458   2.247
    2PC     H3B11728   5.571   6.392   2.398
    2PC     H3C11729   5.754   6.370   2.369
    2PC     C3411730   5.483   6.257   2.201
    2PC     H4A11731   5.404   6.278   2.273
    2PC     H4B11732   5.466   6.338   2.130
    2PC     H4C11733   5.442   6.165   2.160
    2PC     C3511734   5.632   6.141   2.353
    2PC     H5A11735   5.734   6.135   2.393
    2PC     H5B11736   5.583   6.058   2.304
    2PC     H5C11737   5.567   6.165   2.438
    2PC     O3311738   6.052   6.054   1.978
    2PC     O3411739   6.005   5.844   2.083
    2PC     O2111740   6.134   6.142   2.467
    2PC     C2111741   6.058   6.162   2.576
    2PC     O2211742   6.006   6.071   2.639
    3OL     C1211743   6.047   6.308   2.611
    3OL     H2R11744   5.970   6.324   2.686
    3OL     H2S11745   6.008   6.356   2.521
    3OL     C1311746   6.175   6.375   2.663
    3OL     H3R11747   6.258   6.325   2.613
    3OL     H3S11748   6.185   6.343   2.767
    3OL     C1411749   6.183   6.529   2.661
    3OL     H4R11750   6.165   6.572   2.563
    3OL     H4S11751   6.282   6.558   2.697
    3OL     C1511752   6.079   6.581   2.762
    3OL     H5R11753   6.114   6.548   2.860
    3OL     H5S11754   5.985   6.537   2.730
    3OL     C1611755   6.057   6.733   2.758
    3OL     H6R11756   6.011   6.763   2.664
    3OL     H6S11757   6.151   6.788   2.763
    3OL     C1711758   5.959   6.788   2.861
    3OL     H7R11759   6.007   6.780   2.959
    3OL     H7S11760   5.873   6.720   2.856
    3OL     C1811761   5.909   6.932   2.840
    3OL     H8R11762   5.829   6.949   2.912
    3OL     H8S11763   5.862   6.936   2.741
    3OL     C1911764   6.006   7.047   2.841
    3OL     H9R11765   6.070   7.073   2.757
    3OL    C11011766   6.020   7.121   2.950
    3OL    H10R11767   6.090   7.204   2.955
    3OL    C11111768   5.970   7.084   3.087
    3OL    H11R11769   5.936   6.981   3.086
    3OL    H11S11770   5.889   7.148   3.123
    3OL    C11211771   6.082   7.091   3.193
    3OL    H12R11772   6.128   7.189   3.205
    3OL    H12S11773   6.155   7.027   3.143
    3OL    C11311774   6.029   7.037   3.326
    3OL    H13R11775   5.967   6.947   3.316
    3OL    H13S11776   5.954   7.110   3.357
    3OL    C11411777   6.140   7.007   3.427
    3OL    H14R11778   6.215   7.086   3.441
    3OL    H14S11779   6.194   6.923   3.383
    3OL    C11511780   6.083   6.960   3.562
    3OL    H15R11781   6.155   6.892   3.610
    3OL    H15S11782   5.994   6.900   3.540
    3OL    C11611783   6.050   7.078   3.653
    3OL    H16R11784   6.007   7.163   3.598
    3OL    H16S11785   6.144   7.119   3.689
    3OL    C11711786   5.975   7.024   3.776
    3OL    H17R11787   5.968   7.112   3.841
    3OL    H17S11788   6.038   6.949   3.825
    3OL    C11811789   5.837   6.966   3.744
    3OL    H18R11790   5.839   6.865   3.704
    3OL    H18S11791   5.786   7.033   3.674
    3OL    H18T11792   5.774   6.968   3.834
    1PA    C11611793   5.052  -0.655   3.946
    1PA    H16R11794   5.131  -0.718   3.987
    1PA    H16S11795   4.969  -0.655   4.018
    1PA    H16T11796   5.089  -0.553   3.933
    1PA    C11511797   4.999  -0.709   3.812
    1PA    H15R11798   4.946  -0.803   3.827
    1PA    H15S11799   4.920  -0.652   3.763
    1PA    C11411800   5.113  -0.713   3.710
    1PA    H14R11801   5.153  -0.614   3.687
    1PA    H14S11802   5.191  -0.776   3.754
    1PA    C11311803   5.062  -0.764   3.575
    1PA    H13R11804   5.007  -0.858   3.589
    1PA    H13S11805   4.983  -0.701   3.533
    1PA    C11211806   5.165  -0.784   3.463
    1PA    H12R11807   5.257  -0.838   3.487
    1PA    H12S11808   5.118  -0.819   3.371
    1PA    C11111809   5.220  -0.648   3.417
    1PA    H11R11810   5.144  -0.594   3.361
    1PA    H11S11811   5.256  -0.585   3.499
    1PA    C11011812   5.342  -0.666   3.325
    1PA    H10R11813   5.421  -0.718   3.379
    1PA    H10S11814   5.314  -0.716   3.232
    1PA     C1911815   5.395  -0.525   3.293
    1PA     H9R11816   5.309  -0.475   3.247
    1PA     H9S11817   5.429  -0.473   3.383
    1PA     C1811818   5.508  -0.524   3.189
    1PA     H8R11819   5.587  -0.596   3.211
    1PA     H8S11820   5.476  -0.566   3.094
    1PA     C1711821   5.562  -0.381   3.173
    1PA     H7R11822   5.487  -0.326   3.115
    1PA     H7S11823   5.565  -0.326   3.267
    1PA     C1611824   5.695  -0.369   3.098
    1PA     H6R11825   5.751  -0.459   3.126
    1PA     H6S11826   5.673  -0.374   2.991
    1PA     C1511827   5.767  -0.236   3.125
    1PA     H5R11828   5.786  -0.217   3.231
    1PA     H5S11829   5.852  -0.238   3.057
    1PA     C1411830   5.679  -0.116   3.086
    1PA     H4R11831   5.638  -0.134   2.986
    1PA     H4S11832   5.600  -0.102   3.160
    1PA     C1311833   5.763   0.012   3.074
    1PA     H3R11834   5.831   0.031   3.158
    1PA     H3S11835   5.832  -0.003   2.990
    1PA     C1211836   5.679   0.137   3.047
    1PA     H2R11837   5.597   0.138   3.119
    1PA     H2S11838   5.740   0.223   3.073
    2PC     C1111839   5.635   0.159   2.904
    2PC     O1211840   5.639   0.071   2.821
    2PC     O1111841   5.602   0.286   2.878
    2PC      C111842   5.564   0.336   2.748
    2PC      HR11843   5.543   0.442   2.765
    2PC      HS11844   5.642   0.326   2.673
    2PC      C211845   5.434   0.265   2.706
    2PC      HX11846   5.432   0.162   2.743
    2PC      C311847   5.420   0.252   2.554
    2PC      HA11848   5.503   0.186   2.528
    2PC      HB11849   5.321   0.212   2.527
    2PC     O3111850   5.445   0.382   2.500
    2PC     P3111851   5.405   0.414   2.348
    2PC     O3211852   5.363   0.567   2.367
    2PC     C3111853   5.470   0.656   2.405
    2PC     H1A11854   5.558   0.593   2.419
    2PC     H1B11855   5.493   0.730   2.329
    2PC     C3211856   5.436   0.723   2.538
    2PC     H2A11857   5.422   0.640   2.608
    2PC     H2B11858   5.524   0.772   2.579
    2PC     N3111859   5.316   0.813   2.539
    2PC     C3311860   5.293   0.860   2.680
    2PC     H3A11861   5.389   0.897   2.716
    2PC     H3B11862   5.219   0.940   2.683
    2PC     H3C11863   5.276   0.770   2.740
    2PC     C3411864   5.339   0.935   2.456
    2PC     H4A11865   5.374   0.897   2.359
    2PC     H4B11866   5.241   0.981   2.447
    2PC     H4C11867   5.408   1.012   2.491
    2PC     C3511868   5.191   0.749   2.486
    2PC     H5A11869   5.173   0.660   2.546
    2PC     H5B11870   5.202   0.736   2.378
    2PC     H5C11871   5.112   0.820   2.514
    2PC     O3311872   5.508   0.403   2.242
    2PC     O3411873   5.290   0.337   2.295
    2PC     O2111874   5.324   0.345   2.754
    2PC     C2111875   5.201   0.289   2.751
    2PC     O2211876   5.178   0.176   2.714
    3OL     C1211877   5.101   0.390   2.800
    3OL     H2R11878   5.001   0.347   2.803
    3OL     H2S11879   5.101   0.473   2.730
    3OL     C1311880   5.137   0.447   2.938
    3OL     H3R11881   5.242   0.476   2.935
    3OL     H3S11882   5.123   0.365   3.008
    3OL     C1411883   5.038   0.555   2.984
    3OL     H4R11884   4.934   0.521   2.993
    3OL     H4S11885   5.036   0.637   2.913
    3OL     C1511886   5.076   0.609   3.123
    3OL     H5R11887   5.180   0.643   3.123
    3OL     H5S11888   5.066   0.533   3.202
    3OL     C1611889   4.991   0.729   3.167
    3OL     H6R11890   4.885   0.702   3.162
    3OL     H6S11891   5.014   0.817   3.106
    3OL     C1711892   5.015   0.761   3.315
    3OL     H7R11893   4.968   0.858   3.335
    3OL     H7S11894   5.121   0.759   3.337
    3OL     C1811895   4.932   0.668   3.405
    3OL     H8R11896   4.954   0.565   3.375
    3OL     H8S11897   4.828   0.695   3.391
    3OL     C1911898   4.984   0.685   3.545
    3OL     H9R11899   5.092   0.688   3.552
    3OL    C11011900   4.911   0.685   3.656
    3OL    H10R11901   4.967   0.699   3.748
    3OL    C11111902   4.760   0.675   3.659
    3OL    H11R11903   4.711   0.590   3.612
    3OL    H11S11904   4.724   0.765   3.609
    3OL    C11211905   4.714   0.695   3.804
    3OL    H12R11906   4.717   0.799   3.836
    3OL    H12S11907   4.790   0.649   3.867
    3OL    C11311908   4.569   0.646   3.822
    3OL    H13R11909   4.561   0.538   3.811
    3OL    H13S11910   4.507   0.705   3.755
    3OL    C11411911   4.530   0.673   3.968
    3OL    H14R11912   4.425   0.694   3.987
    3OL    H14S11913   4.575   0.762   4.013
    3OL    C11511914   4.557   0.552   4.059
    3OL    H15R11915   4.664   0.535   4.075
    3OL    H15S11916   4.506   0.469   4.009
    3OL    C11611917   4.507   0.579   4.201
    3OL    H16R11918   4.503   0.687   4.218
    3OL    H16S11919   4.572   0.539   4.279
    3OL    C11711920   4.363   0.531   4.224
    3OL    H17R11921   4.362   0.430   4.265
    3OL    H17S11922   4.305   0.532   4.132
    3OL    C11811923   4.286   0.624   4.319
    3OL    H18R11924   4.198   0.568   4.352
    3OL    H18S11925   4.256   0.714   4.266
    3OL    H18T11926   4.350   0.648   4.405
    1PA    C11611927   1.647   0.656   4.034
    1PA    H16R11928   1.664   0.670   4.141
    1PA    H16S11929   1.581   0.738   4.005
    1PA    H16T11930   1.744   0.668   3.984
    1PA    C11511931   1.582   0.518   4.013
    1PA    H15R11932   1.483   0.521   4.058
    1PA    H15S11933   1.577   0.505   3.905
    1PA    C11411934   1.656   0.401   4.079
    1PA    H14R11935   1.647   0.421   4.186
    1PA    H14S11936   1.590   0.319   4.049
    1PA    C11311937   1.798   0.374   4.027
    1PA    H13R11938   1.854   0.463   4.055
    1PA    H13S11939   1.833   0.286   4.082
    1PA    C11211940   1.812   0.351   3.876
    1PA    H12R11941   1.745   0.274   3.838
    1PA    H12S11942   1.786   0.442   3.822
    1PA    C11111943   1.958   0.316   3.844
    1PA    H11R11944   2.019   0.405   3.862
    1PA    H11S11945   1.986   0.239   3.916
    1PA    C11011946   1.977   0.267   3.700
    1PA    H10R11947   1.897   0.197   3.676
    1PA    H10S11948   1.966   0.353   3.633
    1PA     C1911949   2.122   0.224   3.673
    1PA     H9R11950   2.190   0.308   3.675
    1PA     H9S11951   2.148   0.150   3.750
    1PA     C1811952   2.129   0.169   3.529
    1PA     H8R11953   2.077   0.075   3.512
    1PA     H8S11954   2.071   0.241   3.471
    1PA     C1711955   2.274   0.145   3.485
    1PA     H7R11956   2.313   0.088   3.569
    1PA     H7S11957   2.278   0.089   3.392
    1PA     C1611958   2.357   0.274   3.480
    1PA     H6R11959   2.366   0.317   3.580
    1PA     H6S11960   2.458   0.253   3.446
    1PA     C1511961   2.301   0.389   3.394
    1PA     H5R11962   2.255   0.360   3.300
    1PA     H5S11963   2.221   0.441   3.448
    1PA     C1411964   2.402   0.500   3.362
    1PA     H4R11965   2.356   0.598   3.374
    1PA     H4S11966   2.488   0.498   3.428
    1PA     C1311967   2.451   0.482   3.217
    1PA     H3R11968   2.496   0.383   3.208
    1PA     H3S11969   2.365   0.483   3.150
    1PA     C1211970   2.559   0.580   3.167
    1PA     H2R11971   2.533   0.686   3.162
    1PA     H2S11972   2.637   0.583   3.243
    2PC     C1111973   2.593   0.550   3.023
    2PC     O1211974   2.697   0.494   2.994
    2PC     O1111975   2.494   0.574   2.935
    2PC      C111976   2.507   0.556   2.793
    2PC      HR11977   2.416   0.588   2.742
    2PC      HS11978   2.585   0.617   2.747
    2PC      C211979   2.530   0.408   2.756
    2PC      HX11980   2.635   0.382   2.772
    2PC      C311981   2.504   0.391   2.606
    2PC      HA11982   2.552   0.468   2.545
    2PC      HB11983   2.555   0.302   2.569
    2PC     O3111984   2.363   0.400   2.578
    2PC     P3111985   2.312   0.391   2.426
    2PC     O3211986   2.383   0.521   2.366
    2PC     C3111987   2.335   0.644   2.424
    2PC     H1A11988   2.232   0.664   2.393
    2PC     H1B11989   2.344   0.634   2.532
    2PC     C3211990   2.437   0.754   2.392
    2PC     H2A11991   2.399   0.852   2.422
    2PC     H2B11992   2.524   0.744   2.457
    2PC     N3111993   2.498   0.761   2.255
    2PC     C3311994   2.548   0.901   2.239
    2PC     H3A11995   2.628   0.918   2.312
    2PC     H3B11996   2.588   0.924   2.140
    2PC     H3C11997   2.468   0.972   2.262
    2PC     C3411998   2.616   0.675   2.222
    2PC     H4A11999   2.704   0.711   2.275
    2PC     H4B12000   2.593   0.578   2.265
    2PC     H4C12001   2.635   0.670   2.115
    2PC     C3512002   2.398   0.738   2.145
    2PC     H5A12003   2.338   0.648   2.159
    2PC     H5B12004   2.439   0.739   2.044
    2PC     H5C12005   2.332   0.825   2.149
    2PC     O3312006   2.354   0.268   2.355
    2PC     O3412007   2.164   0.377   2.426
    2PC     O2112008   2.434   0.330   2.829
    2PC     C2112009   2.427   0.198   2.806
    2PC     O2212010   2.492   0.134   2.726
    3OL     C1212011   2.326   0.130   2.896
    3OL     H2R12012   2.245   0.088   2.836
    3OL     H2S12013   2.277   0.204   2.959
    3OL     C1312014   2.394   0.026   2.986
    3OL     H3R12015   2.477   0.075   3.037
    3OL     H3S12016   2.424  -0.048   2.912
    3OL     C1412017   2.291  -0.024   3.089
    3OL     H4R12018   2.220  -0.079   3.027
    3OL     H4S12019   2.235   0.057   3.135
    3OL     C1512020   2.354  -0.117   3.194
    3OL     H5R12021   2.421  -0.060   3.259
    3OL     H5S12022   2.412  -0.195   3.146
    3OL     C1612023   2.241  -0.172   3.282
    3OL     H6R12024   2.196  -0.258   3.232
    3OL     H6S12025   2.158  -0.101   3.291
    3OL     C1712026   2.293  -0.211   3.421
    3OL     H7R12027   2.368  -0.138   3.449
    3OL     H7S12028   2.359  -0.298   3.422
    3OL     C1812029   2.193  -0.227   3.536
    3OL     H8R12030   2.125  -0.312   3.536
    3OL     H8S12031   2.127  -0.143   3.513
    3OL     C1912032   2.262  -0.226   3.671
    3OL     H9R12033   2.370  -0.237   3.664
    3OL    C11012034   2.198  -0.186   3.779
    3OL    H10R12035   2.253  -0.171   3.872
    3OL    C11112036   2.052  -0.147   3.788
    3OL    H11R12037   2.001  -0.243   3.779
    3OL    H11S12038   2.019  -0.093   3.699
    3OL    C11212039   2.003  -0.092   3.923
    3OL    H12R12040   2.049   0.006   3.936
    3OL    H12S12041   2.038  -0.147   4.010
    3OL    C11312042   1.852  -0.069   3.930
    3OL    H13R12043   1.811  -0.168   3.908
    3OL    H13S12044   1.825  -0.009   3.843
    3OL    C11412045   1.805   0.012   4.052
    3OL    H14R12046   1.864   0.104   4.059
    3OL    H14S12047   1.845  -0.044   4.137
    3OL    C11512048   1.653   0.033   4.060
    3OL    H15R12049   1.613   0.066   3.964
    3OL    H15S12050   1.622   0.108   4.134
    3OL    C11612051   1.591  -0.104   4.091
    3OL    H16R12052   1.634  -0.134   4.187
    3OL    H16S12053   1.626  -0.174   4.015
    3OL    C11712054   1.439  -0.105   4.112
    3OL    H17R12055   1.389  -0.050   4.032
    3OL    H17S12056   1.421  -0.069   4.213
    3OL    C11812057   1.394  -0.251   4.108
    3OL    H18R12058   1.443  -0.309   4.029
    3OL    H18S12059   1.286  -0.252   4.096
    3OL    H18T12060   1.412  -0.293   4.207
    1PA    C11612061   4.046   5.953   4.257
    1PA    H16R12062   4.132   5.908   4.306
    1PA    H16S12063   4.013   6.029   4.328
    1PA    H16T12064   4.074   6.010   4.168
    1PA    C11512065   3.936   5.849   4.230
    1PA    H15R12066   3.893   5.817   4.325
    1PA    H15S12067   3.860   5.899   4.170
    1PA    C11412068   3.982   5.724   4.154
    1PA    H14R12069   4.078   5.692   4.195
    1PA    H14S12070   3.918   5.636   4.162
    1PA    C11312071   4.000   5.743   4.003
    1PA    H13R12072   3.914   5.799   3.966
    1PA    H13S12073   4.089   5.806   3.991
    1PA    C11212074   4.004   5.607   3.931
    1PA    H12R12075   4.095   5.552   3.956
    1PA    H12S12076   3.921   5.541   3.957
    1PA    C11112077   4.013   5.619   3.779
    1PA    H11R12078   3.976   5.523   3.742
    1PA    H11S12079   3.953   5.705   3.750
    1PA    C11012080   4.152   5.650   3.721
    1PA    H10R12081   4.178   5.748   3.762
    1PA    H10S12082   4.218   5.575   3.766
    1PA     C1912083   4.158   5.655   3.568
    1PA     H9R12084   4.131   5.555   3.532
    1PA     H9S12085   4.089   5.728   3.525
    1PA     C1812086   4.296   5.676   3.505
    1PA     H8R12087   4.350   5.760   3.549
    1PA     H8S12088   4.359   5.590   3.527
    1PA     C1712089   4.291   5.693   3.352
    1PA     H7R12090   4.245   5.790   3.331
    1PA     H7S12091   4.395   5.709   3.323
    1PA     C1612092   4.223   5.581   3.272
    1PA     H6R12093   4.259   5.481   3.297
    1PA     H6S12094   4.117   5.572   3.299
    1PA     C1512095   4.223   5.614   3.122
    1PA     H5R12096   4.161   5.535   3.079
    1PA     H5S12097   4.187   5.713   3.096
    1PA     C1412098   4.361   5.593   3.058
    1PA     H4R12099   4.430   5.664   3.104
    1PA     H4S12100   4.402   5.493   3.076
    1PA     C1312101   4.368   5.610   2.905
    1PA     H3R12102   4.295   5.546   2.855
    1PA     H3S12103   4.339   5.715   2.892
    1PA     C1212104   4.508   5.580   2.851
    1PA     H2R12105   4.572   5.660   2.889
    1PA     H2S12106   4.539   5.480   2.883
    2PC     C1112107   4.505   5.566   2.700
    2PC     O1212108   4.516   5.458   2.645
    2PC     O1112109   4.481   5.686   2.646
    2PC      C112110   4.454   5.696   2.505
    2PC      HR12111   4.476   5.801   2.486
    2PC      HS12112   4.526   5.639   2.445
    2PC      C212113   4.305   5.676   2.478
    2PC      HX12114   4.278   5.573   2.504
    2PC      C312115   4.266   5.706   2.333
    2PC      HA12116   4.281   5.813   2.316
    2PC      HB12117   4.333   5.648   2.269
    2PC     O3112118   4.129   5.670   2.307
    2PC     P3112119   4.068   5.702   2.163
    2PC     O3212120   4.064   5.548   2.117
    2PC     C3112121   4.056   5.522   1.975
    2PC     H1A12122   3.951   5.538   1.949
    2PC     H1B12123   4.115   5.593   1.917
    2PC     C3212124   4.100   5.380   1.940
    2PC     H2A12125   4.103   5.373   1.831
    2PC     H2B12126   4.202   5.362   1.975
    2PC     N3112127   4.012   5.266   1.980
    2PC     C3312128   3.943   5.297   2.110
    2PC     H3A12129   4.025   5.304   2.182
    2PC     H3B12130   3.896   5.395   2.110
    2PC     H3C12131   3.883   5.212   2.143
    2PC     C3412132   3.914   5.236   1.871
    2PC     H4A12133   3.836   5.309   1.894
    2PC     H4B12134   3.957   5.239   1.771
    2PC     H4C12135   3.872   5.136   1.879
    2PC     C3512136   4.100   5.145   1.993
    2PC     H5A12137   4.151   5.128   1.898
    2PC     H5B12138   4.029   5.067   2.021
    2PC     H5C12139   4.163   5.167   2.080
    2PC     O3312140   3.937   5.771   2.164
    2PC     O3412141   4.147   5.793   2.077
    2PC     O2112142   4.242   5.771   2.567
    2PC     C2112143   4.146   5.746   2.657
    2PC     O2212144   4.087   5.641   2.671
    3OL     C1212145   4.119   5.867   2.743
    3OL     H2R12146   4.095   5.945   2.671
    3OL     H2S12147   4.214   5.890   2.791
    3OL     C1312148   4.002   5.842   2.840
    3OL     H3R12149   4.034   5.759   2.903
    3OL     H3S12150   3.921   5.802   2.779
    3OL     C1412151   3.957   5.968   2.916
    3OL     H4R12152   3.913   6.037   2.844
    3OL     H4S12153   4.049   6.015   2.949
    3OL     C1512154   3.856   5.951   3.031
    3OL     H5R12155   3.833   6.049   3.073
    3OL     H5S12156   3.900   5.879   3.101
    3OL     C1612157   3.730   5.881   2.980
    3OL     H6R12158   3.747   5.776   2.956
    3OL     H6S12159   3.700   5.936   2.891
    3OL     C1712160   3.633   5.883   3.100
    3OL     H7R12161   3.625   5.980   3.148
    3OL     H7S12162   3.681   5.823   3.177
    3OL     C1812163   3.496   5.822   3.069
    3OL     H8R12164   3.510   5.749   2.989
    3OL     H8S12165   3.431   5.903   3.035
    3OL     C1912166   3.440   5.758   3.194
    3OL     H9R12167   3.514   5.691   3.238
    3OL    C11012168   3.328   5.783   3.260
    3OL    H10R12169   3.297   5.735   3.353
    3OL    C11112170   3.223   5.876   3.204
    3OL    H11R12171   3.158   5.826   3.132
    3OL    H11S12172   3.283   5.949   3.149
    3OL    C11212173   3.142   5.942   3.316
    3OL    H12R12174   3.071   6.010   3.268
    3OL    H12S12175   3.196   6.015   3.377
    3OL    C11312176   3.069   5.839   3.403
    3OL    H13R12177   3.047   5.749   3.345
    3OL    H13S12178   2.969   5.869   3.435
    3OL    C11412179   3.140   5.804   3.535
    3OL    H14R12180   3.176   5.890   3.592
    3OL    H14S12181   3.226   5.740   3.514
    3OL    C11512182   3.039   5.723   3.618
    3OL    H15R12183   2.987   5.656   3.550
    3OL    H15S12184   2.964   5.794   3.655
    3OL    C11612185   3.098   5.644   3.736
    3OL    H16R12186   3.141   5.556   3.686
    3OL    H16S12187   3.027   5.598   3.805
    3OL    C11712188   3.202   5.726   3.813
    3OL    H17R12189   3.171   5.831   3.820
    3OL    H17S12190   3.301   5.712   3.770
    3OL    C11812191   3.223   5.672   3.955
    3OL    H18R12192   3.128   5.693   4.006
    3OL    H18S12193   3.301   5.731   4.004
    3OL    H18T12194   3.262   5.570   3.963
    1PA    C11612195   4.588   3.676   3.726
    1PA    H16R12196   4.653   3.711   3.806
    1PA    H16S12197   4.483   3.705   3.738
    1PA    H16T12198   4.619   3.727   3.635
    1PA    C11512199   4.596   3.523   3.712
    1PA    H15R12200   4.545   3.474   3.794
    1PA    H15S12201   4.553   3.480   3.621
    1PA    C11412202   4.745   3.488   3.724
    1PA    H14R12203   4.798   3.550   3.651
    1PA    H14S12204   4.777   3.502   3.828
    1PA    C11312205   4.782   3.343   3.688
    1PA    H13R12206   4.873   3.322   3.745
    1PA    H13S12207   4.701   3.280   3.726
    1PA    C11212208   4.789   3.321   3.536
    1PA    H12R12209   4.696   3.362   3.495
    1PA    H12S12210   4.873   3.375   3.492
    1PA    C11112211   4.794   3.170   3.509
    1PA    H11R12212   4.884   3.128   3.555
    1PA    H11S12213   4.700   3.145   3.558
    1PA    C11012214   4.793   3.135   3.359
    1PA    H10R12215   4.742   3.042   3.336
    1PA    H10S12216   4.727   3.210   3.315
    1PA     C1912217   4.932   3.127   3.294
    1PA     H9R12218   4.956   3.233   3.286
    1PA     H9S12219   5.004   3.073   3.355
    1PA     C1812220   4.931   3.075   3.150
    1PA     H8R12221   4.879   2.979   3.152
    1PA     H8S12222   4.877   3.146   3.087
    1PA     C1712223   5.076   3.047   3.108
    1PA     H7R12224   5.125   3.143   3.091
    1PA     H7S12225   5.132   2.991   3.183
    1PA     C1612226   5.080   2.969   2.976
    1PA     H6R12227   5.016   2.882   2.990
    1PA     H6S12228   5.032   3.028   2.897
    1PA     C1512229   5.225   2.929   2.949
    1PA     H5R12230   5.276   3.025   2.942
    1PA     H5S12231   5.252   2.874   3.039
    1PA     C1412232   5.255   2.840   2.827
    1PA     H4R12233   5.201   2.746   2.835
    1PA     H4S12234   5.222   2.889   2.735
    1PA     C1312235   5.407   2.814   2.826
    1PA     H3R12236   5.456   2.907   2.796
    1PA     H3S12237   5.433   2.772   2.923
    1PA     C1212238   5.449   2.710   2.721
    1PA     H2R12239   5.556   2.694   2.732
    1PA     H2S12240   5.394   2.619   2.746
    2PC     C1112241   5.414   2.752   2.581
    2PC     O1212242   5.323   2.698   2.520
    2PC     O1112243   5.486   2.859   2.546
    2PC      C112244   5.476   2.902   2.409
    2PC      HR12245   5.566   2.963   2.396
    2PC      HS12246   5.479   2.823   2.333
    2PC      C212247   5.351   2.990   2.393
    2PC      HX12248   5.259   2.936   2.415
    2PC      C312249   5.345   3.055   2.254
    2PC      HA12250   5.244   3.090   2.232
    2PC      HB12251   5.407   3.145   2.258
    2PC     O3112252   5.405   2.979   2.148
    2PC     P3112253   5.443   3.058   2.014
    2PC     O3212254   5.434   2.929   1.919
    2PC     C3112255   5.304   2.889   1.873
    2PC     H1A12256   5.250   2.841   1.954
    2PC     H1B12257   5.247   2.974   1.833
    2PC     C3212258   5.333   2.789   1.761
    2PC     H2A12259   5.357   2.840   1.668
    2PC     H2B12260   5.409   2.714   1.784
    2PC     N3112261   5.217   2.707   1.713
    2PC     C3312262   5.130   2.642   1.817
    2PC     H3A12263   5.198   2.578   1.873
    2PC     H3B12264   5.078   2.711   1.883
    2PC     H3C12265   5.065   2.575   1.759
    2PC     C3412266   5.133   2.798   1.628
    2PC     H4A12267   5.186   2.851   1.549
    2PC     H4B12268   5.051   2.744   1.581
    2PC     H4C12269   5.091   2.873   1.695
    2PC     C3512270   5.272   2.606   1.617
    2PC     H5A12271   5.303   2.648   1.522
    2PC     H5B12272   5.194   2.536   1.586
    2PC     H5C12273   5.355   2.551   1.661
    2PC     O3312274   5.349   3.171   2.000
    2PC     O3412275   5.575   3.125   2.020
    2PC     O2112276   5.365   3.089   2.496
    2PC     C2112277   5.259   3.166   2.528
    2PC     O2212278   5.149   3.157   2.478
    3OL     C1212279   5.285   3.246   2.654
    3OL     H2R12280   5.352   3.327   2.624
    3OL     H2S12281   5.330   3.198   2.740
    3OL     C1312282   5.154   3.301   2.713
    3OL     H3R12283   5.084   3.218   2.702
    3OL     H3S12284   5.118   3.373   2.638
    3OL     C1412285   5.165   3.353   2.857
    3OL     H4R12286   5.215   3.451   2.856
    3OL     H4S12287   5.215   3.286   2.926
    3OL     C1512288   5.028   3.393   2.912
    3OL     H5R12289   4.968   3.304   2.930
    3OL     H5S12290   4.988   3.466   2.841
    3OL     C1612291   5.037   3.470   3.045
    3OL     H6R12292   5.094   3.561   3.028
    3OL     H6S12293   5.078   3.405   3.122
    3OL     C1712294   4.895   3.500   3.095
    3OL     H7R12295   4.839   3.407   3.110
    3OL     H7S12296   4.840   3.576   3.039
    3OL     C1812297   4.903   3.558   3.237
    3OL     H8R12298   4.962   3.650   3.233
    3OL     H8S12299   4.963   3.490   3.297
    3OL     C1912300   4.765   3.580   3.293
    3OL     H9R12301   4.707   3.488   3.298
    3OL    C11012302   4.705   3.696   3.317
    3OL    H10R12303   4.601   3.693   3.349
    3OL    C11112304   4.759   3.836   3.304
    3OL    H11R12305   4.711   3.892   3.224
    3OL    H11S12306   4.865   3.825   3.277
    3OL    C11212307   4.746   3.920   3.432
    3OL    H12R12308   4.641   3.912   3.461
    3OL    H12S12309   4.767   4.025   3.411
    3OL    C11312310   4.820   3.863   3.554
    3OL    H13R12311   4.820   3.754   3.546
    3OL    H13S12312   4.766   3.892   3.645
    3OL    C11412313   4.967   3.905   3.558
    3OL    H14R12314   4.978   4.014   3.566
    3OL    H14S12315   5.007   3.882   3.459
    3OL    C11512316   5.035   3.826   3.671
    3OL    H15R12317   5.036   3.728   3.623
    3OL    H15S12318   4.976   3.822   3.763
    3OL    C11612319   5.180   3.865   3.699
    3OL    H16R12320   5.179   3.968   3.735
    3OL    H16S12321   5.243   3.864   3.610
    3OL    C11712322   5.242   3.769   3.803
    3OL    H17R12323   5.227   3.669   3.761
    3OL    H17S12324   5.196   3.775   3.901
    3OL    C11812325   5.393   3.785   3.821
    3OL    H18R12326   5.439   3.716   3.893
    3OL    H18S12327   5.415   3.887   3.852
    3OL    H18T12328   5.436   3.780   3.720
    1PA    C11612329   6.069   2.454   3.836
    1PA    H16R12330   6.086   2.448   3.943
    1PA    H16S12331   6.096   2.552   3.794
    1PA    H16T12332   6.116   2.378   3.774
    1PA    C11512333   5.922   2.418   3.811
    1PA    H15R12334   5.890   2.320   3.847
    1PA    H15S12335   5.849   2.486   3.857
    1PA    C11412336   5.874   2.428   3.665
    1PA    H14R12337   5.906   2.332   3.624
    1PA    H14S12338   5.765   2.421   3.667
    1PA    C11312339   5.925   2.542   3.577
    1PA    H13R12340   6.034   2.552   3.581
    1PA    H13S12341   5.900   2.526   3.472
    1PA    C11212342   5.868   2.676   3.625
    1PA    H12R12343   5.758   2.677   3.619
    1PA    H12S12344   5.898   2.687   3.729
    1PA    C11112345   5.911   2.803   3.550
    1PA    H11R12346   5.881   2.808   3.445
    1PA    H11S12347   5.864   2.894   3.587
    1PA    C11012348   6.062   2.829   3.541
    1PA    H10R12349   6.093   2.833   3.646
    1PA    H10S12350   6.111   2.754   3.479
    1PA     C1912351   6.095   2.965   3.479
    1PA     H9R12352   6.053   2.973   3.378
    1PA     H9S12353   6.048   3.047   3.534
    1PA     C1812354   6.249   2.971   3.484
    1PA     H8R12355   6.287   2.948   3.583
    1PA     H8S12356   6.287   2.894   3.416
    1PA     C1712357   6.304   3.108   3.443
    1PA     H7R12358   6.252   3.169   3.518
    1PA     H7S12359   6.411   3.092   3.460
    1PA     C1612360   6.271   3.156   3.301
    1PA     H6R12361   6.165   3.182   3.296
    1PA     H6S12362   6.315   3.255   3.292
    1PA     C1512363   6.321   3.070   3.184
    1PA     H5R12364   6.429   3.062   3.178
    1PA     H5S12365   6.289   2.968   3.207
    1PA     C1412366   6.243   3.112   3.058
    1PA     H4R12367   6.135   3.130   3.067
    1PA     H4S12368   6.289   3.207   3.031
    1PA     C1312369   6.254   3.022   2.934
    1PA     H3R12370   6.201   3.065   2.849
    1PA     H3S12371   6.358   3.011   2.904
    1PA     C1212372   6.194   2.884   2.963
    1PA     H2R12373   6.262   2.831   3.030
    1PA     H2S12374   6.093   2.878   3.003
    2PC     C1112375   6.189   2.811   2.831
    2PC     O1212376   6.230   2.858   2.727
    2PC     O1112377   6.125   2.693   2.844
    2PC      C112378   6.110   2.595   2.740
    2PC      HR12379   6.189   2.611   2.667
    2PC      HS12380   6.133   2.497   2.785
    2PC      C212381   5.970   2.582   2.678
    2PC      HX12382   5.972   2.511   2.595
    2PC      C312383   5.930   2.720   2.625
    2PC      HA12384   5.921   2.794   2.705
    2PC      HB12385   6.008   2.748   2.553
    2PC     O3112386   5.799   2.721   2.564
    2PC     P3112387   5.778   2.656   2.419
    2PC     O3212388   5.740   2.779   2.324
    2PC     C3112389   5.831   2.890   2.324
    2PC     H1A12390   5.821   2.948   2.416
    2PC     H1B12391   5.929   2.842   2.333
    2PC     C3212392   5.811   2.975   2.198
    2PC     H2A12393   5.704   2.991   2.186
    2PC     H2B12394   5.867   3.067   2.210
    2PC     N3112395   5.856   2.923   2.065
    2PC     C3312396   5.754   2.825   2.015
    2PC     H3A12397   5.660   2.880   2.003
    2PC     H3B12398   5.777   2.790   1.914
    2PC     H3C12399   5.744   2.735   2.075
    2PC     C3412400   5.870   3.027   1.958
    2PC     H4A12401   5.784   3.093   1.962
    2PC     H4B12402   5.960   3.086   1.978
    2PC     H4C12403   5.882   2.978   1.862
    2PC     C3512404   5.990   2.854   2.068
    2PC     H5A12405   6.058   2.936   2.044
    2PC     H5B12406   5.983   2.790   1.980
    2PC     H5C12407   6.018   2.806   2.162
    2PC     O3312408   5.905   2.594   2.374
    2PC     O3412409   5.684   2.545   2.389
    2PC     O2112410   5.862   2.538   2.762
    2PC     C2112411   5.852   2.406   2.785
    2PC     O2212412   5.928   2.320   2.745
    3OL     C1212413   5.731   2.368   2.867
    3OL     H2R12414   5.668   2.310   2.799
    3OL     H2S12415   5.668   2.457   2.873
    3OL     C1312416   5.765   2.296   2.998
    3OL     H3R12417   5.840   2.354   3.054
    3OL     H3S12418   5.812   2.199   2.982
    3OL     C1412419   5.635   2.279   3.078
    3OL     H4R12420   5.572   2.205   3.029
    3OL     H4S12421   5.587   2.377   3.071
    3OL     C1512422   5.660   2.253   3.227
    3OL     H5R12423   5.736   2.326   3.254
    3OL     H5S12424   5.699   2.151   3.234
    3OL     C1612425   5.541   2.268   3.323
    3OL     H6R12426   5.468   2.189   3.305
    3OL     H6S12427   5.488   2.360   3.298
    3OL     C1712428   5.575   2.281   3.472
    3OL     H7R12429   5.482   2.315   3.520
    3OL     H7S12430   5.658   2.351   3.485
    3OL     C1812431   5.622   2.153   3.541
    3OL     H8R12432   5.644   2.176   3.645
    3OL     H8S12433   5.712   2.111   3.495
    3OL     C1912434   5.520   2.042   3.532
    3OL     H9R12435   5.467   2.035   3.438
    3OL    C11012436   5.484   1.964   3.633
    3OL    H10R12437   5.409   1.887   3.623
    3OL    C11112438   5.524   1.977   3.778
    3OL    H11R12439   5.426   1.980   3.826
    3OL    H11S12440   5.569   2.073   3.803
    3OL    C11212441   5.602   1.853   3.823
    3OL    H12R12442   5.554   1.758   3.798
    3OL    H12S12443   5.595   1.851   3.932
    3OL    C11312444   5.748   1.851   3.776
    3OL    H13R12445   5.790   1.951   3.790
    3OL    H13S12446   5.748   1.838   3.668
    3OL    C11412447   5.831   1.739   3.840
    3OL    H14R12448   5.902   1.709   3.764
    3OL    H14S12449   5.756   1.661   3.850
    3OL    C11512450   5.905   1.775   3.969
    3OL    H15R12451   5.829   1.803   4.043
    3OL    H15S12452   5.956   1.869   3.945
    3OL    C11612453   6.002   1.678   4.039
    3OL    H16R12454   5.948   1.599   4.093
    3OL    H16S12455   6.049   1.738   4.117
    3OL    C11712456   6.108   1.622   3.943
    3OL    H17R12457   6.124   1.697   3.865
    3OL    H17S12458   6.069   1.531   3.897
    3OL    C11812459   6.239   1.589   4.016
    3OL    H18R12460   6.316   1.567   3.941
    3OL    H18S12461   6.230   1.508   4.089
    3OL    H18T12462   6.268   1.682   4.064
    1PA    C11612463   1.486   2.684   4.170
    1PA    H16R12464   1.452   2.776   4.219
    1PA    H16S12465   1.401   2.646   4.113
    1PA    H16T12466   1.562   2.717   4.099
    1PA    C11512467   1.543   2.585   4.272
    1PA    H15R12468   1.610   2.636   4.342
    1PA    H15S12469   1.457   2.548   4.328
    1PA    C11412470   1.606   2.466   4.199
    1PA    H14R12471   1.612   2.384   4.272
    1PA    H14S12472   1.545   2.442   4.111
    1PA    C11312473   1.750   2.494   4.154
    1PA    H13R12474   1.759   2.587   4.098
    1PA    H13S12475   1.820   2.515   4.236
    1PA    C11212476   1.822   2.390   4.067
    1PA    H12R12477   1.912   2.441   4.031
    1PA    H12S12478   1.847   2.303   4.127
    1PA    C11112479   1.747   2.359   3.937
    1PA    H11R12480   1.653   2.305   3.954
    1PA    H11S12481   1.734   2.442   3.868
    1PA    C11012482   1.820   2.246   3.863
    1PA    H10R12483   1.874   2.180   3.931
    1PA    H10S12484   1.742   2.179   3.825
    1PA     C1912485   1.908   2.302   3.751
    1PA     H9R12486   1.844   2.366   3.689
    1PA     H9S12487   1.988   2.362   3.795
    1PA     C1812488   1.977   2.194   3.667
    1PA     H8R12489   2.045   2.139   3.733
    1PA     H8S12490   1.904   2.122   3.630
    1PA     C1712491   2.062   2.261   3.558
    1PA     H7R12492   1.991   2.309   3.491
    1PA     H7S12493   2.127   2.339   3.597
    1PA     C1612494   2.149   2.155   3.489
    1PA     H6R12495   2.202   2.091   3.559
    1PA     H6S12496   2.095   2.090   3.420
    1PA     C1512497   2.252   2.222   3.396
    1PA     H5R12498   2.214   2.250   3.297
    1PA     H5S12499   2.292   2.315   3.437
    1PA     C1412500   2.371   2.131   3.365
    1PA     H4R12501   2.434   2.114   3.453
    1PA     H4S12502   2.340   2.036   3.321
    1PA     C1312503   2.470   2.183   3.261
    1PA     H3R12504   2.560   2.122   3.270
    1PA     H3S12505   2.433   2.168   3.159
    1PA     C1212506   2.512   2.329   3.281
    1PA     H2R12507   2.414   2.376   3.271
    1PA     H2S12508   2.565   2.358   3.372
    2PC     C1112509   2.595   2.382   3.166
    2PC     O1212510   2.674   2.316   3.101
    2PC     O1112511   2.566   2.511   3.142
    2PC      C112512   2.597   2.565   3.013
    2PC      HR12513   2.612   2.674   3.015
    2PC      HS12514   2.693   2.527   2.976
    2PC      C212515   2.479   2.547   2.917
    2PC      HX12516   2.466   2.439   2.919
    2PC      C312517   2.528   2.587   2.777
    2PC      HA12518   2.449   2.579   2.702
    2PC      HB12519   2.566   2.690   2.772
    2PC     O3112520   2.630   2.496   2.731
    2PC     P3112521   2.709   2.514   2.593
    2PC     O3212522   2.782   2.373   2.571
    2PC     C3112523   2.899   2.372   2.487
    2PC     H1A12524   2.865   2.378   2.384
    2PC     H1B12525   2.964   2.457   2.512
    2PC     C3212526   2.984   2.246   2.502
    2PC     H2A12527   3.024   2.227   2.602
    2PC     H2B12528   2.920   2.161   2.478
    2PC     N3112529   3.110   2.240   2.420
    2PC     C3312530   3.083   2.243   2.273
    2PC     H3A12531   3.091   2.347   2.240
    2PC     H3B12532   3.151   2.175   2.220
    2PC     H3C12533   2.983   2.200   2.276
    2PC     C3412534   3.213   2.344   2.453
    2PC     H4A12535   3.163   2.440   2.466
    2PC     H4B12536   3.249   2.322   2.554
    2PC     H4C12537   3.290   2.338   2.376
    2PC     C3512538   3.168   2.105   2.448
    2PC     H5A12539   3.197   2.103   2.553
    2PC     H5B12540   3.261   2.095   2.392
    2PC     H5C12541   3.101   2.027   2.414
    2PC     O3312542   2.611   2.543   2.487
    2PC     O3412543   2.799   2.631   2.596
    2PC     O2112544   2.368   2.626   2.963
    2PC     C2112545   2.280   2.571   3.049
    2PC     O2212546   2.270   2.454   3.076
    3OL     C1212547   2.184   2.668   3.113
    3OL     H2R12548   2.121   2.712   3.035
    3OL     H2S12549   2.235   2.753   3.160
    3OL     C1312550   2.087   2.607   3.215
    3OL     H3R12551   2.140   2.576   3.305
    3OL     H3S12552   2.046   2.516   3.171
    3OL     C1412553   1.974   2.708   3.241
    3OL     H4R12554   1.926   2.719   3.144
    3OL     H4S12555   2.025   2.798   3.276
    3OL     C1512556   1.869   2.669   3.346
    3OL     H5R12557   1.909   2.617   3.434
    3OL     H5S12558   1.804   2.593   3.301
    3OL     C1612559   1.779   2.790   3.372
    3OL     H6R12560   1.837   2.883   3.370
    3OL     H6S12561   1.722   2.763   3.461
    3OL     C1712562   1.679   2.802   3.256
    3OL     H7R12563   1.626   2.707   3.252
    3OL     H7S12564   1.729   2.809   3.159
    3OL     C1812565   1.583   2.920   3.277
    3OL     H8R12566   1.641   3.000   3.323
    3OL     H8S12567   1.514   2.905   3.360
    3OL     C1912568   1.504   2.958   3.154
    3OL     H9R12569   1.426   2.887   3.127
    3OL    C11012570   1.524   3.066   3.081
    3OL    H10R12571   1.457   3.081   2.997
    3OL    C11112572   1.620   3.176   3.116
    3OL    H11R12573   1.654   3.164   3.219
    3OL    H11S12574   1.564   3.269   3.101
    3OL    C11212575   1.744   3.182   3.025
    3OL    H12R12576   1.809   3.262   3.061
    3OL    H12S12577   1.724   3.203   2.919
    3OL    C11312578   1.825   3.052   3.028
    3OL    H13R12579   1.782   2.977   2.961
    3OL    H13S12580   1.819   2.998   3.122
    3OL    C11412581   1.971   3.077   2.985
    3OL    H14R12582   2.010   3.151   3.054
    3OL    H14S12583   1.969   3.106   2.880
    3OL    C11512584   2.061   2.953   2.999
    3OL    H15R12585   2.025   2.866   2.943
    3OL    H15S12586   2.065   2.925   3.104
    3OL    C11612587   2.208   2.979   2.963
    3OL    H16R12588   2.221   3.011   2.859
    3OL    H16S12589   2.257   2.883   2.980
    3OL    C11712590   2.275   3.080   3.057
    3OL    H17R12591   2.228   3.082   3.155
    3OL    H17S12592   2.266   3.184   3.023
    3OL    C11812593   2.421   3.037   3.078
    3OL    H18R12594   2.477   3.039   2.984
    3OL    H18S12595   2.423   2.936   3.118
    3OL    H18T12596   2.463   3.113   3.144
    1PA    C11612597   1.106   1.267   3.900
    1PA    H16R12598   1.076   1.287   4.004
    1PA    H16S12599   1.097   1.161   3.878
    1PA    H16T12600   1.041   1.331   3.841
    1PA    C11512601   1.249   1.313   3.866
    1PA    H15R12602   1.320   1.233   3.889
    1PA    H15S12603   1.249   1.319   3.757
    1PA    C11412604   1.281   1.448   3.931
    1PA    H14R12605   1.256   1.441   4.037
    1PA    H14S12606   1.388   1.464   3.943
    1PA    C11312607   1.214   1.573   3.872
    1PA    H13R12608   1.105   1.566   3.869
    1PA    H13S12609   1.229   1.665   3.930
    1PA    C11212610   1.268   1.596   3.730
    1PA    H12R12611   1.376   1.594   3.747
    1PA    H12S12612   1.239   1.514   3.664
    1PA    C11112613   1.226   1.732   3.673
    1PA    H11R12614   1.119   1.732   3.693
    1PA    H11S12615   1.266   1.809   3.739
    1PA    C11012616   1.259   1.762   3.526
    1PA    H10R12617   1.367   1.763   3.509
    1PA    H10S12618   1.225   1.682   3.460
    1PA     C1912619   1.193   1.895   3.485
    1PA     H9R12620   1.087   1.894   3.460
    1PA     H9S12621   1.208   1.968   3.565
    1PA     C1812622   1.255   1.954   3.358
    1PA     H8R12623   1.229   2.060   3.352
    1PA     H8S12624   1.364   1.944   3.362
    1PA     C1712625   1.210   1.891   3.226
    1PA     H7R12626   1.260   1.794   3.221
    1PA     H7S12627   1.102   1.882   3.215
    1PA     C1612628   1.274   1.970   3.111
    1PA     H6R12629   1.254   2.076   3.123
    1PA     H6S12630   1.382   1.951   3.120
    1PA     C1512631   1.224   1.918   2.975
    1PA     H5R12632   1.262   1.816   2.967
    1PA     H5S12633   1.116   1.907   2.986
    1PA     C1412634   1.270   2.000   2.854
    1PA     H4R12635   1.220   2.097   2.854
    1PA     H4S12636   1.378   2.014   2.858
    1PA     C1312637   1.237   1.939   2.717
    1PA     H3R12638   1.269   1.836   2.731
    1PA     H3S12639   1.130   1.933   2.694
    1PA     C1212640   1.310   2.016   2.607
    1PA     H2R12641   1.277   2.120   2.598
    1PA     H2S12642   1.416   2.022   2.634
    2PC     C1112643   1.302   1.957   2.468
    2PC     O1212644   1.346   1.847   2.441
    2PC     O1112645   1.235   2.037   2.384
    2PC      C112646   1.214   1.995   2.248
    2PC      HR12647   1.309   1.955   2.210
    2PC      HS12648   1.141   1.915   2.240
    2PC      C212649   1.177   2.112   2.156
    2PC      HX12650   1.151   2.071   2.058
    2PC      C312651   1.283   2.224   2.153
    2PC      HA12652   1.284   2.272   2.251
    2PC      HB12653   1.382   2.184   2.130
    2PC     O3112654   1.236   2.315   2.052
    2PC     P3112655   1.341   2.425   2.004
    2PC     O3212656   1.404   2.479   2.141
    2PC     C3112657   1.463   2.609   2.157
    2PC     H1A12658   1.510   2.635   2.061
    2PC     H1B12659   1.379   2.677   2.173
    2PC     C3212660   1.565   2.609   2.272
    2PC     H2A12661   1.524   2.603   2.373
    2PC     H2B12662   1.615   2.513   2.265
    2PC     N3112663   1.677   2.709   2.277
    2PC     C3312664   1.745   2.684   2.146
    2PC     H3A12665   1.780   2.581   2.137
    2PC     H3B12666   1.682   2.710   2.060
    2PC     H3C12667   1.827   2.757   2.144
    2PC     C3412668   1.608   2.842   2.286
    2PC     H4A12669   1.535   2.841   2.367
    2PC     H4B12670   1.672   2.928   2.303
    2PC     H4C12671   1.557   2.860   2.191
    2PC     C3512672   1.766   2.678   2.393
    2PC     H5A12673   1.712   2.699   2.486
    2PC     H5B12674   1.850   2.746   2.375
    2PC     H5C12675   1.808   2.578   2.387
    2PC     O3312676   1.435   2.366   1.905
    2PC     O3412677   1.264   2.535   1.943
    2PC     O2112678   1.051   2.170   2.195
    2PC     C2112679   0.930   2.124   2.160
    2PC     O2212680   0.911   2.034   2.081
    3OL     C1212681   0.816   2.207   2.213
    3OL     H2R12682   0.745   2.206   2.130
    3OL     H2S12683   0.852   2.309   2.230
    3OL     C1312684   0.745   2.143   2.332
    3OL     H3R12685   0.821   2.112   2.404
    3OL     H3S12686   0.703   2.050   2.292
    3OL     C1412687   0.633   2.224   2.398
    3OL     H4R12688   0.551   2.239   2.327
    3OL     H4S12689   0.662   2.329   2.411
    3OL     C1512690   0.574   2.164   2.527
    3OL     H5R12691   0.587   2.056   2.534
    3OL     H5S12692   0.465   2.166   2.533
    3OL     C1612693   0.638   2.208   2.659
    3OL     H6R12694   0.745   2.191   2.655
    3OL     H6S12695   0.581   2.157   2.738
    3OL     C1712696   0.598   2.355   2.683
    3OL     H7R12697   0.598   2.419   2.595
    3OL     H7S12698   0.656   2.394   2.767
    3OL     C1812699   0.449   2.358   2.720
    3OL     H8R12700   0.442   2.293   2.808
    3OL     H8S12701   0.384   2.321   2.640
    3OL     C1912702   0.415   2.501   2.751
    3OL     H9R12703   0.414   2.569   2.666
    3OL    C11012704   0.387   2.549   2.871
    3OL    H10R12705   0.351   2.652   2.873
    3OL    C11112706   0.386   2.477   3.004
    3OL    H11R12707   0.380   2.369   2.991
    3OL    H11S12708   0.299   2.507   3.062
    3OL    C11212709   0.510   2.519   3.085
    3OL    H12R12710   0.517   2.628   3.098
    3OL    H12S12711   0.601   2.488   3.033
    3OL    C11312712   0.534   2.464   3.226
    3OL    H13R12713   0.635   2.490   3.261
    3OL    H13S12714   0.512   2.359   3.206
    3OL    C11412715   0.423   2.499   3.326
    3OL    H14R12716   0.327   2.457   3.296
    3OL    H14S12717   0.407   2.606   3.340
    3OL    C11512718   0.464   2.449   3.465
    3OL    H15R12719   0.497   2.345   3.463
    3OL    H15S12720   0.377   2.448   3.530
    3OL    C11612721   0.571   2.544   3.523
    3OL    H16R12722   0.535   2.647   3.519
    3OL    H16S12723   0.661   2.536   3.461
    3OL    C11712724   0.611   2.513   3.668
    3OL    H17R12725   0.631   2.406   3.677
    3OL    H17S12726   0.526   2.538   3.732
    3OL    C11812727   0.733   2.600   3.701
    3OL    H18R12728   0.757   2.595   3.807
    3OL    H18S12729   0.697   2.701   3.682
    3OL    H18T12730   0.815   2.576   3.633
    1PA    C11612731   0.471   0.576   3.690
    1PA    H16R12732   0.416   0.666   3.714
    1PA    H16S12733   0.544   0.550   3.768
    1PA    H16T12734   0.404   0.493   3.669
    1PA    C11512735   0.550   0.603   3.561
    1PA    H15R12736   0.617   0.684   3.589
    1PA    H15S12737   0.606   0.514   3.533
    1PA    C11412738   0.459   0.650   3.447
    1PA    H14R12739   0.393   0.567   3.421
    1PA    H14S12740   0.406   0.738   3.485
    1PA    C11312741   0.530   0.678   3.314
    1PA    H13R12742   0.611   0.748   3.333
    1PA    H13S12743   0.581   0.589   3.278
    1PA    C11212744   0.434   0.734   3.207
    1PA    H12R12745   0.365   0.657   3.174
    1PA    H12S12746   0.377   0.824   3.233
    1PA    C11112747   0.505   0.771   3.076
    1PA    H11R12748   0.564   0.860   3.100
    1PA    H11S12749   0.568   0.688   3.041
    1PA    C11012750   0.401   0.824   2.977
    1PA    H10R12751   0.337   0.736   2.962
    1PA    H10S12752   0.339   0.902   3.021
    1PA     C1912753   0.461   0.875   2.845
    1PA     H9R12754   0.538   0.951   2.860
    1PA     H9S12755   0.513   0.789   2.804
    1PA     C1812756   0.343   0.908   2.752
    1PA     H8R12757   0.283   0.817   2.750
    1PA     H8S12758   0.277   0.989   2.786
    1PA     C1712759   0.386   0.945   2.610
    1PA     H7R12760   0.429   1.045   2.624
    1PA     H7S12761   0.442   0.865   2.562
    1PA     C1612762   0.255   0.970   2.533
    1PA     H6R12763   0.272   0.980   2.426
    1PA     H6S12764   0.191   0.881   2.535
    1PA     C1512765   0.179   1.098   2.569
    1PA     H5R12766   0.082   1.098   2.520
    1PA     H5S12767   0.157   1.106   2.676
    1PA     C1412768   0.247   1.232   2.533
    1PA     H4R12769   0.196   1.321   2.571
    1PA     H4S12770   0.350   1.220   2.567
    1PA     C1312771   0.269   1.263   2.385
    1PA     H3R12772   0.323   1.358   2.383
    1PA     H3S12773   0.335   1.191   2.336
    1PA     C1212774   0.142   1.261   2.299
    1PA     H2R12775   0.095   1.163   2.309
    1PA     H2S12776   0.069   1.334   2.335
    2PC     C1112777   0.165   1.288   2.152
    2PC     O1212778   0.163   1.199   2.070
    2PC     O1112779   0.201   1.411   2.114
    2PC      C112780   0.186   1.437   1.973
    2PC      HR12781   0.239   1.363   1.911
    2PC      HS12782   0.081   1.425   1.946
    2PC      C212783   0.242   1.578   1.951
    2PC      HX12784   0.180   1.652   2.001
    2PC      C312785   0.226   1.611   1.802
    2PC      HA12786   0.134   1.568   1.761
    2PC      HB12787   0.223   1.720   1.796
    2PC     O3112788   0.331   1.545   1.730
    2PC     P3112789   0.327   1.557   1.570
    2PC     O3212790   0.274   1.408   1.549
    2PC     C3112791   0.299   1.345   1.422
    2PC     H1A12792   0.399   1.357   1.380
    2PC     H1B12793   0.273   1.242   1.445
    2PC     C3212794   0.191   1.408   1.334
    2PC     H2A12795   0.096   1.359   1.355
    2PC     H2B12796   0.186   1.510   1.373
    2PC     N3112797   0.209   1.418   1.185
    2PC     C3312798   0.090   1.489   1.127
    2PC     H3A12799   0.100   1.491   1.018
    2PC     H3B12800  -0.002   1.443   1.163
    2PC     H3C12801   0.084   1.588   1.174
    2PC     C3412802   0.325   1.507   1.152
    2PC     H4A12803   0.311   1.600   1.206
    2PC     H4B12804   0.419   1.457   1.176
    2PC     H4C12805   0.322   1.522   1.044
    2PC     C3512806   0.231   1.291   1.110
    2PC     H5A12807   0.156   1.214   1.132
    2PC     H5B12808   0.328   1.249   1.137
    2PC     H5C12809   0.231   1.304   1.002
    2PC     O3312810   0.245   1.672   1.524
    2PC     O3412811   0.461   1.570   1.508
    2PC     O2112812   0.382   1.584   1.987
    2PC     C2112813   0.432   1.705   2.014
    2PC     O2212814   0.379   1.813   1.994
    3OL     C1212815   0.564   1.703   2.087
    3OL     H2R12816   0.631   1.787   2.062
    3OL     H2S12817   0.616   1.610   2.065
    3OL     C1312818   0.540   1.726   2.237
    3OL     H3R12819   0.478   1.655   2.291
    3OL     H3S12820   0.487   1.820   2.253
    3OL     C1412821   0.678   1.739   2.302
    3OL     H4R12822   0.714   1.837   2.272
    3OL     H4S12823   0.748   1.663   2.267
    3OL     C1512824   0.670   1.727   2.455
    3OL     H5R12825   0.649   1.620   2.463
    3OL     H5S12826   0.586   1.772   2.508
    3OL     C1612827   0.800   1.769   2.525
    3OL     H6R12828   0.838   1.867   2.498
    3OL     H6S12829   0.880   1.699   2.500
    3OL     C1712830   0.805   1.744   2.677
    3OL     H7R12831   0.907   1.742   2.716
    3OL     H7S12832   0.767   1.643   2.693
    3OL     C1812833   0.722   1.838   2.766
    3OL     H8R12834   0.619   1.837   2.728
    3OL     H8S12835   0.760   1.939   2.752
    3OL     C1912836   0.726   1.797   2.911
    3OL     H9R12837   0.747   1.692   2.934
    3OL    C11012838   0.706   1.877   3.014
    3OL    H10R12839   0.719   1.840   3.116
    3OL    C11112840   0.627   2.004   3.003
    3OL    H11R12841   0.524   1.977   2.978
    3OL    H11S12842   0.663   2.066   2.921
    3OL    C11212843   0.634   2.090   3.130
    3OL    H12R12844   0.556   2.060   3.200
    3OL    H12S12845   0.613   2.192   3.096
    3OL    C11312846   0.768   2.094   3.205
    3OL    H13R12847   0.838   2.098   3.121
    3OL    H13S12848   0.787   2.004   3.265
    3OL    C11412849   0.783   2.213   3.300
    3OL    H14R12850   0.703   2.219   3.374
    3OL    H14S12851   0.767   2.310   3.252
    3OL    C11512852   0.918   2.204   3.373
    3OL    H15R12853   1.000   2.200   3.302
    3OL    H15S12854   0.920   2.115   3.435
    3OL    C11612855   0.927   2.327   3.465
    3OL    H16R12856   0.845   2.326   3.537
    3OL    H16S12857   0.906   2.405   3.392
    3OL    C11712858   1.057   2.349   3.544
    3OL    H17R12859   1.057   2.455   3.569
    3OL    H17S12860   1.141   2.332   3.476
    3OL    C11812861   1.066   2.262   3.671
    3OL    H18R12862   1.055   2.155   3.656
    3OL    H18S12863   0.979   2.287   3.732
    3OL    H18T12864   1.158   2.294   3.721
    1PA    C11612865   2.134   3.246   4.555
    1PA    H16R12866   2.153   3.144   4.589
    1PA    H16S12867   2.039   3.263   4.504
    1PA    H16T12868   2.152   3.298   4.649
    1PA    C11512869   2.251   3.277   4.460
    1PA    H15R12870   2.350   3.274   4.505
    1PA    H15S12871   2.245   3.193   4.391
    1PA    C11412872   2.224   3.417   4.402
    1PA    H14R12873   2.120   3.429   4.373
    1PA    H14S12874   2.237   3.489   4.483
    1PA    C11312875   2.314   3.451   4.283
    1PA    H13R12876   2.315   3.560   4.276
    1PA    H13S12877   2.414   3.417   4.310
    1PA    C11212878   2.275   3.381   4.152
    1PA    H12R12879   2.338   3.422   4.072
    1PA    H12S12880   2.304   3.276   4.155
    1PA    C11112881   2.127   3.395   4.115
    1PA    H11R12882   2.056   3.351   4.186
    1PA    H11S12883   2.100   3.501   4.108
    1PA    C11012884   2.117   3.335   3.974
    1PA    H10R12885   2.183   3.389   3.905
    1PA    H10S12886   2.159   3.234   3.979
    1PA     C1912887   1.971   3.318   3.932
    1PA     H9R12888   1.930   3.243   4.000
    1PA     H9S12889   1.909   3.409   3.937
    1PA     C1812890   1.956   3.265   3.789
    1PA     H8R12891   2.013   3.332   3.725
    1PA     H8S12892   1.983   3.160   3.789
    1PA     C1712893   1.806   3.272   3.754
    1PA     H7R12894   1.748   3.206   3.818
    1PA     H7S12895   1.769   3.375   3.759
    1PA     C1612896   1.780   3.217   3.613
    1PA     H6R12897   1.837   3.126   3.591
    1PA     H6S12898   1.674   3.191   3.609
    1PA     C1512899   1.806   3.312   3.496
    1PA     H5R12900   1.736   3.291   3.415
    1PA     H5S12901   1.772   3.412   3.526
    1PA     C1412902   1.948   3.327   3.439
    1PA     H4R12903   2.012   3.382   3.509
    1PA     H4S12904   1.990   3.226   3.433
    1PA     C1312905   1.934   3.402   3.306
    1PA     H3R12906   1.859   3.355   3.242
    1PA     H3S12907   1.897   3.502   3.329
    1PA     C1212908   2.072   3.408   3.238
    1PA     H2R12909   2.125   3.469   3.311
    1PA     H2S12910   2.122   3.311   3.228
    2PC     C1112911   2.069   3.481   3.106
    2PC     O1212912   2.046   3.422   3.002
    2PC     O1112913   2.070   3.615   3.114
    2PC      C112914   2.066   3.688   2.990
    2PC      HR12915   2.072   3.794   3.016
    2PC      HS12916   2.145   3.659   2.921
    2PC      C212917   1.928   3.675   2.922
    2PC      HX12918   1.912   3.567   2.915
    2PC      C312919   1.927   3.732   2.780
    2PC      HA12920   1.926   3.841   2.788
    2PC      HB12921   2.017   3.699   2.728
    2PC     O3112922   1.814   3.684   2.705
    2PC     P3112923   1.803   3.745   2.558
    2PC     O3212924   1.662   3.707   2.492
    2PC     C3112925   1.554   3.797   2.524
    2PC     H1A12926   1.550   3.815   2.632
    2PC     H1B12927   1.568   3.893   2.475
    2PC     C3212928   1.431   3.730   2.463
    2PC     H2A12929   1.432   3.623   2.483
    2PC     H2B12930   1.334   3.769   2.494
    2PC     N3112931   1.423   3.737   2.313
    2PC     C3312932   1.309   3.657   2.257
    2PC     H3A12933   1.223   3.672   2.322
    2PC     H3B12934   1.291   3.704   2.160
    2PC     H3C12935   1.329   3.550   2.254
    2PC     C3412936   1.413   3.879   2.266
    2PC     H4A12937   1.389   3.885   2.160
    2PC     H4B12938   1.330   3.914   2.327
    2PC     H4C12939   1.507   3.927   2.294
    2PC     C3512940   1.544   3.686   2.241
    2PC     H5A12941   1.535   3.728   2.141
    2PC     H5B12942   1.549   3.577   2.244
    2PC     H5C12943   1.627   3.739   2.288
    2PC     O3312944   1.819   3.892   2.547
    2PC     O3412945   1.911   3.675   2.485
    2PC     O2112946   1.828   3.742   2.999
    2PC     C2112947   1.709   3.683   3.020
    2PC     O2212948   1.673   3.578   2.970
    3OL     C1212949   1.627   3.753   3.125
    3OL     H2R12950   1.525   3.716   3.136
    3OL     H2S12951   1.615   3.860   3.106
    3OL     C1312952   1.704   3.749   3.258
    3OL     H3R12953   1.782   3.824   3.245
    3OL     H3S12954   1.750   3.650   3.266
    3OL     C1412955   1.630   3.791   3.386
    3OL     H4R12956   1.529   3.751   3.397
    3OL     H4S12957   1.618   3.899   3.393
    3OL     C1512958   1.712   3.750   3.509
    3OL     H5R12959   1.725   3.642   3.507
    3OL     H5S12960   1.638   3.766   3.589
    3OL     C1612961   1.842   3.828   3.533
    3OL     H6R12962   1.830   3.930   3.569
    3OL     H6S12963   1.896   3.843   3.440
    3OL     C1712964   1.929   3.760   3.640
    3OL     H7R12965   2.015   3.819   3.670
    3OL     H7S12966   1.967   3.665   3.601
    3OL     C1812967   1.865   3.723   3.774
    3OL     H8R12968   1.930   3.657   3.831
    3OL     H8S12969   1.780   3.661   3.744
    3OL     C1912970   1.818   3.845   3.850
    3OL     H9R12971   1.780   3.930   3.793
    3OL    C11012972   1.825   3.865   3.981
    3OL    H10R12973   1.803   3.963   4.022
    3OL    C11112974   1.874   3.765   4.083
    3OL    H11R12975   1.966   3.805   4.125
    3OL    H11S12976   1.870   3.662   4.044
    3OL    C11212977   1.778   3.762   4.203
    3OL    H12R12978   1.760   3.866   4.230
    3OL    H12S12979   1.825   3.708   4.286
    3OL    C11312980   1.639   3.710   4.163
    3OL    H13R12981   1.605   3.773   4.080
    3OL    H13S12982   1.572   3.721   4.248
    3OL    C11412983   1.653   3.565   4.116
    3OL    H14R12984   1.710   3.507   4.190
    3OL    H14S12985   1.680   3.572   4.011
    3OL    C11512986   1.512   3.505   4.115
    3OL    H15R12987   1.453   3.543   4.031
    3OL    H15S12988   1.453   3.522   4.205
    3OL    C11612989   1.506   3.351   4.109
    3OL    H16R12990   1.549   3.309   4.200
    3OL    H16S12991   1.566   3.324   4.022
    3OL    C11712992   1.364   3.294   4.092
    3OL    H17R12993   1.307   3.343   4.012
    3OL    H17S12994   1.298   3.321   4.175
    3OL    C11812995   1.371   3.142   4.071
    3OL    H18R12996   1.454   3.110   4.008
    3OL    H18S12997   1.270   3.110   4.045
    3OL    H18T12998   1.389   3.096   4.168
    1PA    C11612999   6.327   1.055   3.885
    1PA    H16R13000   6.232   1.103   3.859
    1PA    H16S13001   6.370   1.012   3.794
    1PA    H16T13002   6.401   1.130   3.912
    1PA    C11513003   6.306   0.960   4.004
    1PA    H15R13004   6.269   1.018   4.088
    1PA    H15S13005   6.243   0.876   3.973
    1PA    C11413006   6.440   0.897   4.043
    1PA    H14R13007   6.515   0.976   4.046
    1PA    H14S13008   6.439   0.870   4.149
    1PA    C11313009   6.487   0.787   3.945
    1PA    H13R13010   6.487   0.836   3.848
    1PA    H13S13011   6.584   0.752   3.981
    1PA    C11213012   6.392   0.666   3.943
    1PA    H12R13013   6.368   0.632   4.044
    1PA    H12S13014   6.295   0.690   3.900
    1PA    C11113015   6.445   0.541   3.871
    1PA    H11R13016   6.504   0.480   3.939
    1PA    H11S13017   6.359   0.481   3.842
    1PA    C11013018   6.533   0.563   3.747
    1PA    H10R13019   6.618   0.631   3.757
    1PA    H10S13020   6.595   0.474   3.733
    1PA     C1913021   6.459   0.588   3.615
    1PA     H9R13022   6.390   0.506   3.592
    1PA     H9S13023   6.389   0.672   3.620
    1PA     C1813024   6.549   0.619   3.494
    1PA     H8R13025   6.597   0.716   3.499
    1PA     H8S13026   6.633   0.550   3.491
    1PA     C1713027   6.477   0.610   3.359
    1PA     H7R13028   6.426   0.514   3.356
    1PA     H7S13029   6.401   0.687   3.344
    1PA     C1613030   6.565   0.593   3.234
    1PA     H6R13031   6.627   0.682   3.219
    1PA     H6S13032   6.631   0.507   3.248
    1PA     C1513033   6.479   0.558   3.112
    1PA     H5R13034   6.433   0.459   3.116
    1PA     H5S13035   6.399   0.632   3.111
    1PA     C1413036   6.543   0.572   2.972
    1PA     H4R13037   6.573   0.677   2.962
    1PA     H4S13038   6.635   0.515   2.967
    1PA     C1313039   6.462   0.538   2.846
    1PA     H3R13040   6.435   0.432   2.846
    1PA     H3S13041   6.370   0.597   2.843
    1PA     C1213042   6.564   0.559   2.734
    1PA     H2R13043   6.618   0.654   2.742
    1PA     H2S13044   6.638   0.478   2.736
    2PC     C1113045   6.498   0.543   2.600
    2PC     O1213046   6.512   0.632   2.519
    2PC     O1113047   6.427   0.430   2.579
    2PC      C113048   6.355   0.417   2.455
    2PC      HR13049   6.415   0.456   2.373
    2PC      HS13050   6.332   0.312   2.438
    2PC      C213051   6.222   0.494   2.461
    2PC      HX13052   6.192   0.482   2.565
    2PC      C313053   6.112   0.441   2.369
    2PC      HA13054   6.075   0.343   2.401
    2PC      HB13055   6.028   0.512   2.375
    2PC     O3113056   6.152   0.443   2.231
    2PC     P3113057   6.088   0.350   2.117
    2PC     O3213058   5.930   0.380   2.108
    2PC     C3113059   5.883   0.506   2.058
    2PC     H1A13060   5.913   0.588   2.123
    2PC     H1B13061   5.930   0.529   1.962
    2PC     C3213062   5.730   0.502   2.041
    2PC     H2A13063   5.708   0.400   2.007
    2PC     H2B13064   5.686   0.517   2.139
    2PC     N3113065   5.658   0.615   1.975
    2PC     C3313066   5.685   0.617   1.827
    2PC     H3A13067   5.692   0.516   1.786
    2PC     H3B13068   5.605   0.680   1.789
    2PC     H3C13069   5.786   0.656   1.815
    2PC     C3413070   5.513   0.603   2.010
    2PC     H4A13071   5.469   0.530   1.942
    2PC     H4B13072   5.492   0.564   2.109
    2PC     H4C13073   5.462   0.697   1.987
    2PC     C3513074   5.712   0.738   2.041
    2PC     H5A13075   5.716   0.739   2.150
    2PC     H5B13076   5.637   0.814   2.020
    2PC     H5C13077   5.806   0.761   1.991
    2PC     O3313078   6.146   0.370   1.983
    2PC     O3413079   6.125   0.211   2.153
    2PC     O2113080   6.245   0.636   2.446
    2PC     C2113081   6.144   0.721   2.473
    2PC     O2213082   6.045   0.688   2.535
    3OL     C1213083   6.181   0.865   2.448
    3OL     H2R13084   6.091   0.926   2.454
    3OL     H2S13085   6.216   0.880   2.346
    3OL     C1313086   6.283   0.925   2.546
    3OL     H3R13087   6.289   1.033   2.531
    3OL     H3S13088   6.385   0.895   2.522
    3OL     C1413089   6.241   0.892   2.690
    3OL     H4R13090   6.238   0.784   2.706
    3OL     H4S13091   6.158   0.953   2.726
    3OL     C1513092   6.355   0.940   2.782
    3OL     H5R13093   6.373   1.047   2.773
    3OL     H5S13094   6.448   0.901   2.742
    3OL     C1613095   6.341   0.897   2.929
    3OL     H6R13096   6.343   0.788   2.932
    3OL     H6S13097   6.238   0.918   2.958
    3OL     C1713098   6.441   0.957   3.029
    3OL     H7R13099   6.539   0.917   3.004
    3OL     H7S13100   6.415   0.940   3.134
    3OL     C1813101   6.444   1.111   3.032
    3OL     H8R13102   6.394   1.144   3.124
    3OL     H8S13103   6.389   1.148   2.946
    3OL     C1913104   6.583   1.166   3.014
    3OL     H9R13105   6.605   1.199   2.912
    3OL    C11013106   6.684   1.151   3.098
    3OL    H10R13107   6.782   1.195   3.082
    3OL    C11113108   6.671   1.093   3.236
    3OL    H11R13109   6.721   0.997   3.246
    3OL    H11S13110   6.563   1.075   3.247
    3OL    C11213111   6.726   1.182   3.348
    3OL    H12R13112   6.674   1.278   3.346
    3OL    H12S13113   6.834   1.195   3.343
    3OL    C11313114   6.693   1.121   3.485
    3OL    H13R13115   6.749   1.030   3.504
    3OL    H13S13116   6.589   1.089   3.496
    3OL    C11413117   6.739   1.221   3.592
    3OL    H14R13118   6.694   1.317   3.564
    3OL    H14S13119   6.847   1.230   3.588
    3OL    C11513120   6.678   1.181   3.728
    3OL    H15R13121   6.714   1.080   3.747
    3OL    H15S13122   6.569   1.191   3.724
    3OL    C11613123   6.745   1.262   3.839
    3OL    H16R13124   6.851   1.237   3.847
    3OL    H16S13125   6.714   1.212   3.931
    3OL    C11713126   6.732   1.415   3.845
    3OL    H17R13127   6.787   1.461   3.762
    3OL    H17S13128   6.792   1.457   3.926
    3OL    C11813129   6.584   1.454   3.857
    3OL    H18R13130   6.554   1.513   3.770
    3OL    H18S13131   6.567   1.511   3.948
    3OL    H18T13132   6.509   1.376   3.866
    1PA    C11613133   6.200   1.036   3.482
    1PA    H16R13134   6.168   1.035   3.378
    1PA    H16S13135   6.175   0.938   3.524
    1PA    H16T13136   6.308   1.049   3.489
    1PA    C11513137   6.129   1.145   3.563
    1PA    H15R13138   6.021   1.131   3.551
    1PA    H15S13139   6.152   1.134   3.669
    1PA    C11413140   6.170   1.287   3.520
    1PA    H14R13141   6.177   1.296   3.411
    1PA    H14S13142   6.094   1.358   3.551
    1PA    C11313143   6.306   1.335   3.574
    1PA    H13R13144   6.294   1.351   3.681
    1PA    H13S13145   6.391   1.270   3.557
    1PA    C11213146   6.341   1.476   3.524
    1PA    H12R13147   6.244   1.525   3.512
    1PA    H12S13148   6.393   1.525   3.606
    1PA    C11113149   6.421   1.459   3.394
    1PA    H11R13150   6.516   1.410   3.419
    1PA    H11S13151   6.367   1.392   3.327
    1PA    C11013152   6.438   1.592   3.320
    1PA    H10R13153   6.339   1.639   3.321
    1PA    H10S13154   6.496   1.659   3.383
    1PA     C1913155   6.500   1.589   3.180
    1PA     H9R13156   6.553   1.683   3.163
    1PA     H9S13157   6.581   1.515   3.181
    1PA     C1813158   6.405   1.565   3.061
    1PA     H8R13159   6.355   1.469   3.069
    1PA     H8S13160   6.322   1.635   3.068
    1PA     C1713161   6.468   1.579   2.922
    1PA     H7R13162   6.485   1.684   2.895
    1PA     H7S13163   6.556   1.517   2.904
    1PA     C1613164   6.360   1.531   2.825
    1PA     H6R13165   6.347   1.425   2.848
    1PA     H6S13166   6.264   1.581   2.837
    1PA     C1513167   6.402   1.547   2.678
    1PA     H5R13168   6.439   1.649   2.663
    1PA     H5S13169   6.493   1.492   2.650
    1PA     C1413170   6.281   1.538   2.585
    1PA     H4R13171   6.191   1.572   2.638
    1PA     H4S13172   6.287   1.607   2.500
    1PA     C1313173   6.247   1.397   2.535
    1PA     H3R13174   6.320   1.363   2.461
    1PA     H3S13175   6.242   1.329   2.620
    1PA     C1213176   6.109   1.390   2.467
    1PA     H2R13177   6.097   1.284   2.445
    1PA     H2S13178   6.028   1.414   2.536
    2PC     C1113179   6.122   1.453   2.331
    2PC     O1213180   6.022   1.493   2.276
    2PC     O1113181   6.242   1.457   2.271
    2PC      C113182   6.249   1.509   2.137
    2PC      HR13183   6.322   1.451   2.080
    2PC      HS13184   6.158   1.508   2.076
    2PC      C213185   6.280   1.659   2.154
    2PC      HX13186   6.217   1.707   2.230
    2PC      C313187   6.271   1.729   2.018
    2PC      HA13188   6.165   1.716   1.994
    2PC      HB13189   6.306   1.832   2.017
    2PC     O3113190   6.349   1.653   1.924
    2PC     P3113191   6.301   1.636   1.772
    2PC     O3213192   6.372   1.755   1.692
    2PC     C3113193   6.338   1.893   1.716
    2PC     H1A13194   6.230   1.911   1.710
    2PC     H1B13195   6.369   1.917   1.818
    2PC     C3213196   6.422   1.973   1.617
    2PC     H2A13197   6.427   2.070   1.667
    2PC     H2B13198   6.522   1.931   1.604
    2PC     N3113199   6.364   2.004   1.482
    2PC     C3313200   6.478   2.045   1.393
    2PC     H3A13201   6.516   1.948   1.361
    2PC     H3B13202   6.451   2.118   1.317
    2PC     H3C13203   6.559   2.098   1.442
    2PC     C3413204   6.301   1.885   1.416
    2PC     H4A13205   6.369   1.800   1.410
    2PC     H4B13206   6.213   1.860   1.475
    2PC     H4C13207   6.270   1.913   1.315
    2PC     C3513208   6.262   2.112   1.498
    2PC     H5A13209   6.302   2.208   1.530
    2PC     H5B13210   6.175   2.087   1.560
    2PC     H5C13211   6.221   2.130   1.398
    2PC     O3313212   6.345   1.511   1.706
    2PC     O3413213   6.155   1.634   1.750
    2PC     O2113214   6.416   1.675   2.197
    2PC     C2113215   6.464   1.787   2.254
    2PC     O2213216   6.394   1.884   2.271
    3OL     C1213217   6.610   1.780   2.292
    3OL     H2R13218   6.659   1.873   2.263
    3OL     H2S13219   6.655   1.694   2.242
    3OL     C1313220   6.611   1.764   2.445
    3OL     H3R13221   6.545   1.680   2.467
    3OL     H3S13222   6.564   1.853   2.487
    3OL     C1413223   6.754   1.738   2.494
    3OL     H4R13224   6.816   1.825   2.475
    3OL     H4S13225   6.795   1.658   2.430
    3OL     C1513226   6.782   1.712   2.642
    3OL     H5R13227   6.885   1.675   2.649
    3OL     H5S13228   6.702   1.647   2.678
    3OL     C1613229   6.781   1.845   2.719
    3OL     H6R13230   6.683   1.880   2.685
    3OL     H6S13231   6.865   1.905   2.681
    3OL     C1713232   6.782   1.827   2.871
    3OL     H7R13233   6.880   1.791   2.904
    3OL     H7S13234   6.707   1.750   2.892
    3OL     C1813235   6.723   1.950   2.941
    3OL     H8R13236   6.626   1.974   2.898
    3OL     H8S13237   6.789   2.037   2.935
    3OL     C1913238   6.701   1.910   3.085
    3OL     H9R13239   6.699   1.803   3.100
    3OL    C11013240   6.686   1.992   3.188
    3OL    H10R13241   6.695   1.946   3.286
    3OL    C11113242   6.681   2.141   3.167
    3OL    H11R13243   6.627   2.175   3.078
    3OL    H11S13244   6.784   2.175   3.159
    3OL    C11213245   6.609   2.209   3.285
    3OL    H12R13246   6.616   2.317   3.268
    3OL    H12S13247   6.654   2.183   3.381
    3OL    C11313248   6.458   2.181   3.288
    3OL    H13R13249   6.440   2.073   3.294
    3OL    H13S13250   6.406   2.215   3.199
    3OL    C11413251   6.397   2.257   3.407
    3OL    H14R13252   6.451   2.229   3.497
    3OL    H14S13253   6.297   2.217   3.422
    3OL    C11513254   6.377   2.409   3.398
    3OL    H15R13255   6.477   2.447   3.418
    3OL    H15S13256   6.302   2.436   3.474
    3OL    C11613257   6.325   2.457   3.262
    3OL    H16R13258   6.252   2.389   3.217
    3OL    H16S13259   6.407   2.464   3.190
    3OL    C11713260   6.266   2.598   3.272
    3OL    H17R13261   6.324   2.665   3.209
    3OL    H17S13262   6.284   2.637   3.372
    3OL    C11813263   6.119   2.598   3.225
    3OL    H18R13264   6.053   2.556   3.301
    3OL    H18S13265   6.107   2.522   3.148
    3OL    H18T13266   6.086   2.697   3.193
    1PA    C11613267   6.305   4.343   4.525
    1PA    H16R13268   6.374   4.397   4.590
    1PA    H16S13269   6.371   4.280   4.465
    1PA    H16T13270   6.246   4.264   4.574
    1PA    C11513271   6.213   4.439   4.448
    1PA    H15R13272   6.111   4.403   4.439
    1PA    H15S13273   6.221   4.527   4.512
    1PA    C11413274   6.281   4.469   4.313
    1PA    H14R13275   6.369   4.529   4.338
    1PA    H14S13276   6.317   4.382   4.258
    1PA    C11313277   6.196   4.547   4.212
    1PA    H13R13278   6.120   4.475   4.181
    1PA    H13S13279   6.143   4.631   4.256
    1PA    C11213280   6.284   4.594   4.094
    1PA    H12R13281   6.363   4.661   4.128
    1PA    H12S13282   6.338   4.508   4.053
    1PA    C11113283   6.198   4.661   3.986
    1PA    H11R13284   6.138   4.736   4.038
    1PA    H11S13285   6.268   4.707   3.917
    1PA    C11013286   6.107   4.569   3.903
    1PA    H10R13287   6.053   4.495   3.962
    1PA    H10S13288   6.035   4.634   3.852
    1PA     C1913289   6.184   4.484   3.801
    1PA     H9R13290   6.235   4.547   3.729
    1PA     H9S13291   6.256   4.425   3.858
    1PA     C1813292   6.114   4.376   3.717
    1PA     H8R13293   6.188   4.320   3.661
    1PA     H8S13294   6.074   4.304   3.789
    1PA     C1713295   6.004   4.432   3.626
    1PA     H7R13296   5.922   4.465   3.691
    1PA     H7S13297   6.032   4.523   3.574
    1PA     C1613298   5.957   4.318   3.534
    1PA     H6R13299   6.035   4.288   3.464
    1PA     H6S13300   5.923   4.228   3.585
    1PA     C1513301   5.837   4.378   3.458
    1PA     H5R13302   5.765   4.410   3.533
    1PA     H5S13303   5.865   4.462   3.395
    1PA     C1413304   5.774   4.261   3.382
    1PA     H4R13305   5.852   4.217   3.319
    1PA     H4S13306   5.753   4.184   3.457
    1PA     C1313307   5.655   4.296   3.291
    1PA     H3R13308   5.613   4.204   3.249
    1PA     H3S13309   5.577   4.342   3.353
    1PA     C1213310   5.695   4.381   3.170
    1PA     H2R13311   5.713   4.480   3.212
    1PA     H2S13312   5.784   4.333   3.128
    2PC     C1113313   5.599   4.394   3.054
    2PC     O1213314   5.641   4.452   2.956
    2PC     O1113315   5.481   4.333   3.075
    2PC      C113316   5.379   4.345   2.975
    2PC      HR13317   5.279   4.324   3.015
    2PC      HS13318   5.378   4.447   2.936
    2PC      C213319   5.405   4.248   2.859
    2PC      HX13320   5.511   4.224   2.851
    2PC      C313321   5.371   4.314   2.725
    2PC      HA13322   5.267   4.348   2.724
    2PC      HB13323   5.442   4.394   2.702
    2PC     O3113324   5.391   4.231   2.609
    2PC     P3113325   5.357   4.289   2.464
    2PC     O3213326   5.210   4.227   2.458
    2PC     C3113327   5.201   4.083   2.454
    2PC     H1A13328   5.233   4.050   2.355
    2PC     H1B13329   5.268   4.041   2.530
    2PC     C3213330   5.051   4.060   2.475
    2PC     H2A13331   5.004   4.113   2.393
    2PC     H2B13332   5.018   3.956   2.471
    2PC     N3113333   4.984   4.101   2.603
    2PC     C3313334   4.959   4.249   2.601
    2PC     H3A13335   4.896   4.273   2.516
    2PC     H3B13336   4.919   4.277   2.699
    2PC     H3C13337   5.054   4.298   2.584
    2PC     C3413338   4.850   4.036   2.612
    2PC     H4A13339   4.796   4.053   2.519
    2PC     H4B13340   4.863   3.928   2.623
    2PC     H4C13341   4.801   4.067   2.705
    2PC     C3513342   5.067   4.066   2.723
    2PC     H5A13343   5.029   4.115   2.813
    2PC     H5B13344   5.172   4.094   2.710
    2PC     H5C13345   5.057   3.958   2.739
    2PC     O3313346   5.376   4.436   2.467
    2PC     O3413347   5.454   4.234   2.368
    2PC     O2113348   5.331   4.128   2.886
    2PC     C2113349   5.393   4.033   2.959
    2PC     O2213350   5.505   4.044   3.005
    3OL     C1213351   5.294   3.926   2.997
    3OL     H2R13352   5.280   3.850   2.920
    3OL     H2S13353   5.196   3.967   3.023
    3OL     C1313354   5.347   3.863   3.127
    3OL     H3R13355   5.368   3.943   3.199
    3OL     H3S13356   5.434   3.803   3.101
    3OL     C1413357   5.236   3.778   3.190
    3OL     H4R13358   5.210   3.706   3.113
    3OL     H4S13359   5.151   3.842   3.216
    3OL     C1513360   5.292   3.705   3.313
    3OL     H5R13361   5.318   3.785   3.384
    3OL     H5S13362   5.380   3.656   3.271
    3OL     C1613363   5.200   3.597   3.370
    3OL     H6R13364   5.174   3.533   3.285
    3OL     H6S13365   5.104   3.632   3.408
    3OL     C1713366   5.264   3.508   3.478
    3OL     H7R13367   5.303   3.573   3.556
    3OL     H7S13368   5.345   3.455   3.427
    3OL     C1813369   5.166   3.405   3.536
    3OL     H8R13370   5.134   3.329   3.466
    3OL     H8S13371   5.072   3.450   3.569
    3OL     C1913372   5.225   3.344   3.661
    3OL     H9R13373   5.221   3.415   3.744
    3OL    C11013374   5.271   3.222   3.678
    3OL    H10R13375   5.304   3.183   3.774
    3OL    C11113376   5.274   3.116   3.571
    3OL    H11R13377   5.234   3.156   3.478
    3OL    H11S13378   5.206   3.040   3.609
    3OL    C11213379   5.418   3.065   3.559
    3OL    H12R13380   5.423   2.956   3.549
    3OL    H12S13381   5.472   3.089   3.651
    3OL    C11313382   5.498   3.130   3.445
    3OL    H13R13383   5.602   3.096   3.447
    3OL    H13S13384   5.492   3.238   3.453
    3OL    C11413385   5.438   3.104   3.305
    3OL    H14R13386   5.337   3.141   3.288
    3OL    H14S13387   5.435   2.996   3.294
    3OL    C11513388   5.519   3.163   3.189
    3OL    H15R13389   5.486   3.120   3.094
    3OL    H15S13390   5.620   3.127   3.214
    3OL    C11613391   5.512   3.315   3.179
    3OL    H16R13392   5.545   3.357   3.274
    3OL    H16S13393   5.408   3.341   3.157
    3OL    C11713394   5.597   3.365   3.062
    3OL    H17R13395   5.553   3.338   2.966
    3OL    H17S13396   5.698   3.322   3.064
    3OL    C11813397   5.599   3.518   3.064
    3OL    H18R13398   5.664   3.567   3.137
    3OL    H18S13399   5.498   3.550   3.088
    3OL    H18T13400   5.624   3.566   2.969
    1PA    C11613401   0.634   1.444   3.787
    1PA    H16R13402   0.651   1.354   3.728
    1PA    H16S13403   0.547   1.501   3.753
    1PA    H16T13404   0.604   1.411   3.886
    1PA    C11513405   0.764   1.524   3.802
    1PA    H15R13406   0.758   1.587   3.891
    1PA    H15S13407   0.840   1.447   3.815
    1PA    C11413408   0.807   1.612   3.683
    1PA    H14R13409   0.725   1.675   3.648
    1PA    H14S13410   0.892   1.675   3.708
    1PA    C11313411   0.842   1.523   3.563
    1PA    H13R13412   0.930   1.463   3.589
    1PA    H13S13413   0.757   1.459   3.539
    1PA    C11213414   0.876   1.612   3.443
    1PA    H12R13415   0.792   1.677   3.419
    1PA    H12S13416   0.964   1.671   3.470
    1PA    C11113417   0.906   1.525   3.320
    1PA    H11R13418   0.979   1.446   3.336
    1PA    H11S13419   0.810   1.480   3.294
    1PA    C11013420   0.953   1.613   3.203
    1PA    H10R13421   0.882   1.695   3.190
    1PA    H10S13422   1.049   1.657   3.230
    1PA     C1913423   0.952   1.528   3.075
    1PA     H9R13424   0.978   1.423   3.087
    1PA     H9S13425   0.847   1.515   3.048
    1PA     C1813426   1.031   1.600   2.965
    1PA     H8R13427   0.993   1.695   2.928
    1PA     H8S13428   1.125   1.627   3.013
    1PA     C1713429   1.061   1.497   2.855
    1PA     H7R13430   1.090   1.404   2.905
    1PA     H7S13431   0.976   1.479   2.790
    1PA     C1613432   1.182   1.543   2.772
    1PA     H6R13433   1.159   1.641   2.731
    1PA     H6S13434   1.271   1.527   2.834
    1PA     C1513435   1.216   1.463   2.645
    1PA     H5R13436   1.142   1.490   2.570
    1PA     H5S13437   1.317   1.499   2.624
    1PA     C1413438   1.198   1.313   2.668
    1PA     H4R13439   1.256   1.277   2.753
    1PA     H4S13440   1.095   1.284   2.688
    1PA     C1313441   1.227   1.232   2.541
    1PA     H3R13442   1.188   1.131   2.555
    1PA     H3S13443   1.183   1.279   2.452
    1PA     C1213444   1.378   1.216   2.519
    1PA     H2R13445   1.434   1.306   2.493
    1PA     H2S13446   1.425   1.179   2.610
    2PC     C1113447   1.401   1.113   2.411
    2PC     O1213448   1.323   1.051   2.342
    2PC     O1113449   1.533   1.093   2.397
    2PC      C113450   1.576   1.008   2.289
    2PC      HR13451   1.537   0.907   2.303
    2PC      HS13452   1.533   1.047   2.197
    2PC      C213453   1.729   1.020   2.279
    2PC      HX13454   1.770   1.121   2.294
    2PC      C313455   1.769   0.975   2.138
    2PC      HA13456   1.740   1.039   2.053
    2PC      HB13457   1.878   0.972   2.133
    2PC     O3113458   1.722   0.840   2.126
    2PC     P3113459   1.741   0.754   1.992
    2PC     O3213460   1.677   0.617   2.044
    2PC     C3113461   1.534   0.615   2.062
    2PC     H1A13462   1.507   0.716   2.094
    2PC     H1B13463   1.488   0.590   1.966
    2PC     C3213464   1.514   0.518   2.179
    2PC     H2A13465   1.558   0.421   2.159
    2PC     H2B13466   1.570   0.570   2.257
    2PC     N3113467   1.373   0.496   2.225
    2PC     C3313468   1.377   0.402   2.342
    2PC     H3A13469   1.277   0.381   2.379
    2PC     H3B13470   1.425   0.309   2.311
    2PC     H3C13471   1.429   0.449   2.425
    2PC     C3413472   1.313   0.627   2.267
    2PC     H4A13473   1.381   0.682   2.332
    2PC     H4B13474   1.290   0.690   2.181
    2PC     H4C13475   1.221   0.609   2.323
    2PC     C3513476   1.287   0.429   2.122
    2PC     H5A13477   1.288   0.492   2.033
    2PC     H5B13478   1.188   0.427   2.166
    2PC     H5C13479   1.324   0.329   2.097
    2PC     O3313480   1.689   0.819   1.870
    2PC     O3413481   1.886   0.730   1.977
    2PC     O2113482   1.782   0.923   2.370
    2PC     C2113483   1.914   0.934   2.388
    2PC     O2213484   1.994   1.013   2.341
    3OL     C1213485   1.945   0.821   2.483
    3OL     H2R13486   1.959   0.723   2.435
    3OL     H2S13487   1.863   0.811   2.554
    3OL     C1313488   2.053   0.855   2.586
    3OL     H3R13489   2.058   0.961   2.614
    3OL     H3S13490   2.146   0.851   2.529
    3OL     C1413491   2.055   0.755   2.703
    3OL     H4R13492   2.065   0.652   2.669
    3OL     H4S13493   1.957   0.757   2.752
    3OL     C1513494   2.165   0.768   2.810
    3OL     H5R13495   2.162   0.868   2.854
    3OL     H5S13496   2.262   0.778   2.761
    3OL     C1613497   2.174   0.657   2.915
    3OL     H6R13498   2.274   0.665   2.960
    3OL     H6S13499   2.152   0.558   2.875
    3OL     C1713500   2.080   0.675   3.035
    3OL     H7R13501   2.037   0.775   3.044
    3OL     H7S13502   2.130   0.652   3.130
    3OL     C1813503   1.962   0.577   3.027
    3OL     H8R13504   2.008   0.478   3.023
    3OL     H8S13505   1.915   0.602   2.932
    3OL     C1913506   1.873   0.591   3.148
    3OL     H9R13507   1.934   0.607   3.237
    3OL    C11013508   1.742   0.577   3.154
    3OL    H10R13509   1.689   0.589   3.249
    3OL    C11113510   1.643   0.537   3.047
    3OL    H11R13511   1.609   0.434   3.065
    3OL    H11S13512   1.688   0.523   2.949
    3OL    C11213513   1.526   0.634   3.033
    3OL    H12R13514   1.463   0.596   2.951
    3OL    H12S13515   1.567   0.733   3.011
    3OL    C11313516   1.430   0.642   3.153
    3OL    H13R13517   1.494   0.675   3.236
    3OL    H13S13518   1.403   0.543   3.192
    3OL    C11413519   1.306   0.732   3.147
    3OL    H14R13520   1.253   0.702   3.056
    3OL    H14S13521   1.330   0.838   3.140
    3OL    C11513522   1.229   0.712   3.278
    3OL    H15R13523   1.300   0.742   3.356
    3OL    H15S13524   1.205   0.606   3.281
    3OL    C11613525   1.104   0.801   3.276
    3OL    H16R13526   1.019   0.764   3.220
    3OL    H16S13527   1.130   0.903   3.244
    3OL    C11713528   1.053   0.795   3.421
    3OL    H17R13529   1.016   0.893   3.453
    3OL    H17S13530   1.140   0.774   3.483
    3OL    C11813531   0.941   0.694   3.454
    3OL    H18R13532   0.930   0.698   3.562
    3OL    H18S13533   0.972   0.596   3.417
    3OL    H18T13534   0.848   0.725   3.407
    1PA    C11613535   4.074   5.140   3.459
    1PA    H16R13536   4.008   5.226   3.468
    1PA    H16S13537   4.018   5.051   3.427
    1PA    H16T13538   4.143   5.149   3.375
    1PA    C11513539   4.143   5.120   3.594
    1PA    H15R13540   4.163   5.014   3.607
    1PA    H15S13541   4.225   5.191   3.609
    1PA    C11413542   4.038   5.135   3.706
    1PA    H14R13543   4.072   5.084   3.796
    1PA    H14S13544   4.026   5.243   3.722
    1PA    C11313545   3.898   5.080   3.677
    1PA    H13R13546   3.823   5.117   3.747
    1PA    H13S13547   3.865   5.111   3.578
    1PA    C11213548   3.893   4.927   3.670
    1PA    H12R13549   3.959   4.898   3.588
    1PA    H12S13550   3.941   4.891   3.761
    1PA    C11113551   3.750   4.880   3.639
    1PA    H11R13552   3.696   4.868   3.733
    1PA    H11S13553   3.695   4.954   3.581
    1PA    C11013554   3.743   4.749   3.558
    1PA    H10R13555   3.761   4.666   3.626
    1PA    H10S13556   3.641   4.736   3.523
    1PA     C1913557   3.826   4.743   3.429
    1PA     H9R13558   3.812   4.837   3.374
    1PA     H9S13559   3.928   4.719   3.458
    1PA     C1813560   3.790   4.618   3.347
    1PA     H8R13561   3.786   4.527   3.406
    1PA     H8S13562   3.693   4.639   3.302
    1PA     C1713563   3.881   4.590   3.226
    1PA     H7R13564   3.890   4.683   3.169
    1PA     H7S13565   3.984   4.564   3.249
    1PA     C1613566   3.811   4.481   3.144
    1PA     H6R13567   3.791   4.400   3.214
    1PA     H6S13568   3.719   4.523   3.103
    1PA     C1513569   3.889   4.429   3.022
    1PA     H5R13570   3.878   4.497   2.938
    1PA     H5S13571   3.989   4.390   3.046
    1PA     C1413572   3.822   4.303   2.966
    1PA     H4R13573   3.832   4.209   3.020
    1PA     H4S13574   3.715   4.323   2.959
    1PA     C1313575   3.881   4.272   2.827
    1PA     H3R13576   3.802   4.222   2.772
    1PA     H3S13577   3.902   4.366   2.775
    1PA     C1213578   4.008   4.188   2.842
    1PA     H2R13579   4.081   4.246   2.899
    1PA     H2S13580   4.005   4.100   2.907
    2PC     C1113581   4.054   4.147   2.704
    2PC     O1213582   3.987   4.160   2.603
    2PC     O1113583   4.177   4.094   2.710
    2PC      C113584   4.226   4.029   2.591
    2PC      HR13585   4.155   3.952   2.561
    2PC      HS13586   4.233   4.103   2.510
    2PC      C213587   4.368   3.982   2.625
    2PC      HX13588   4.413   4.072   2.668
    2PC      C313589   4.444   3.942   2.498
    2PC      HA13590   4.484   4.030   2.447
    2PC      HB13591   4.524   3.873   2.527
    2PC     O3113592   4.356   3.867   2.412
    2PC     P3113593   4.387   3.857   2.255
    2PC     O3213594   4.265   3.768   2.201
    2PC     C3113595   4.255   3.728   2.063
    2PC     H1A13596   4.153   3.694   2.043
    2PC     H1B13597   4.275   3.819   2.005
    2PC     C3213598   4.354   3.613   2.043
    2PC     H2A13599   4.448   3.635   2.093
    2PC     H2B13600   4.323   3.517   2.084
    2PC     N3113601   4.389   3.582   1.900
    2PC     C3313602   4.259   3.553   1.831
    2PC     H3A13603   4.269   3.526   1.726
    2PC     H3B13604   4.208   3.471   1.883
    2PC     H3C13605   4.203   3.645   1.818
    2PC     C3413606   4.460   3.698   1.837
    2PC     H4A13607   4.565   3.683   1.863
    2PC     H4B13608   4.444   3.686   1.730
    2PC     H4C13609   4.414   3.791   1.872
    2PC     C3513610   4.475   3.459   1.899
    2PC     H5A13611   4.562   3.483   1.960
    2PC     H5B13612   4.495   3.414   1.802
    2PC     H5C13613   4.433   3.383   1.966
    2PC     O3313614   4.391   3.986   2.183
    2PC     O3413615   4.520   3.795   2.237
    2PC     O2113616   4.351   3.874   2.717
    2PC     C2113617   4.462   3.833   2.781
    2PC     O2213618   4.574   3.870   2.753
    3OL     C1213619   4.445   3.738   2.896
    3OL     H2R13620   4.546   3.706   2.924
    3OL     H2S13621   4.394   3.650   2.856
    3OL     C1313622   4.364   3.795   3.014
    3OL     H3R13623   4.265   3.823   2.977
    3OL     H3S13624   4.425   3.882   3.040
    3OL     C1413625   4.351   3.689   3.124
    3OL     H4R13626   4.446   3.642   3.147
    3OL     H4S13627   4.280   3.615   3.084
    3OL     C1513628   4.293   3.754   3.250
    3OL     H5R13629   4.203   3.811   3.225
    3OL     H5S13630   4.366   3.823   3.292
    3OL     C1613631   4.265   3.648   3.357
    3OL     H6R13632   4.359   3.600   3.385
    3OL     H6S13633   4.205   3.569   3.311
    3OL     C1713634   4.191   3.690   3.484
    3OL     H7R13635   4.085   3.701   3.460
    3OL     H7S13636   4.231   3.785   3.521
    3OL     C1813637   4.212   3.582   3.590
    3OL     H8R13638   4.317   3.555   3.604
    3OL     H8S13639   4.166   3.488   3.560
    3OL     C1913640   4.168   3.627   3.727
    3OL     H9R13641   4.134   3.730   3.737
    3OL    C11013642   4.167   3.546   3.832
    3OL    H10R13643   4.139   3.577   3.932
    3OL    C11113644   4.204   3.399   3.825
    3OL    H11R13645   4.284   3.372   3.894
    3OL    H11S13646   4.240   3.363   3.729
    3OL    C11213647   4.078   3.323   3.869
    3OL    H12R13648   4.101   3.217   3.872
    3OL    H12S13649   4.000   3.339   3.794
    3OL    C11313650   4.023   3.363   4.007
    3OL    H13R13651   3.933   3.302   4.021
    3OL    H13S13652   3.984   3.465   3.999
    3OL    C11413653   4.118   3.346   4.126
    3OL    H14R13654   4.205   3.407   4.100
    3OL    H14S13655   4.152   3.243   4.138
    3OL    C11513656   4.056   3.385   4.261
    3OL    H15R13657   3.954   3.348   4.272
    3OL    H15S13658   4.039   3.493   4.258
    3OL    C11613659   4.149   3.350   4.378
    3OL    H16R13660   4.238   3.411   4.363
    3OL    H16S13661   4.179   3.246   4.362
    3OL    C11713662   4.082   3.380   4.513
    3OL    H17R13663   3.986   3.329   4.520
    3OL    H17S13664   4.066   3.487   4.528
    3OL    C11813665   4.184   3.351   4.623
    3OL    H18R13666   4.273   3.413   4.609
    3OL    H18S13667   4.217   3.246   4.621
    3OL    H18T13668   4.139   3.378   4.719
    1PA    C11613669   5.976   3.958   4.281
    1PA    H16R13670   5.921   3.915   4.365
    1PA    H16S13671   6.042   4.030   4.329
    1PA    H16T13672   6.034   3.875   4.239
    1PA    C11513673   5.886   4.029   4.179
    1PA    H15R13674   5.789   3.979   4.188
    1PA    H15S13675   5.864   4.125   4.226
    1PA    C11413676   5.939   4.053   4.036
    1PA    H14R13677   6.031   4.110   4.028
    1PA    H14S13678   5.973   3.954   4.004
    1PA    C11313679   5.830   4.104   3.940
    1PA    H13R13680   5.870   4.118   3.839
    1PA    H13S13681   5.752   4.027   3.935
    1PA    C11213682   5.768   4.236   3.988
    1PA    H12R13683   5.709   4.225   4.079
    1PA    H12S13684   5.852   4.303   4.008
    1PA    C11113685   5.680   4.297   3.878
    1PA    H11R13686   5.632   4.382   3.926
    1PA    H11S13687   5.735   4.339   3.793
    1PA    C11013688   5.566   4.208   3.827
    1PA    H10R13689   5.612   4.133   3.763
    1PA    H10S13690   5.504   4.156   3.900
    1PA     C1913691   5.469   4.284   3.736
    1PA     H9R13692   5.386   4.311   3.802
    1PA     H9S13693   5.506   4.377   3.693
    1PA     C1813694   5.421   4.194   3.621
    1PA     H8R13695   5.499   4.153   3.558
    1PA     H8S13696   5.372   4.106   3.663
    1PA     C1713697   5.328   4.261   3.519
    1PA     H7R13698   5.235   4.296   3.566
    1PA     H7S13699   5.376   4.348   3.474
    1PA     C1613700   5.299   4.163   3.405
    1PA     H6R13701   5.394   4.123   3.369
    1PA     H6S13702   5.245   4.078   3.445
    1PA     C1513703   5.219   4.220   3.287
    1PA     H5R13704   5.254   4.321   3.268
    1PA     H5S13705   5.263   4.163   3.204
    1PA     C1413706   5.068   4.191   3.280
    1PA     H4R13707   5.047   4.085   3.299
    1PA     H4S13708   5.016   4.243   3.360
    1PA     C1313709   5.010   4.229   3.143
    1PA     H3R13710   5.026   4.335   3.124
    1PA     H3S13711   5.055   4.165   3.067
    1PA     C1213712   4.857   4.217   3.147
    1PA     H2R13713   4.822   4.118   3.177
    1PA     H2S13714   4.814   4.286   3.219
    2PC     C1113715   4.800   4.256   3.013
    2PC     O1213716   4.841   4.207   2.911
    2PC     O1113717   4.719   4.363   3.030
    2PC      C113718   4.647   4.404   2.913
    2PC      HR13719   4.590   4.491   2.945
    2PC      HS13720   4.718   4.435   2.836
    2PC      C213721   4.552   4.301   2.849
    2PC      HX13722   4.595   4.203   2.826
    2PC      C313723   4.507   4.347   2.710
    2PC      HA13724   4.408   4.318   2.675
    2PC      HB13725   4.511   4.456   2.700
    2PC     O3113726   4.610   4.294   2.625
    2PC     P3113727   4.587   4.316   2.468
    2PC     O3213728   4.663   4.456   2.459
    2PC     C3113729   4.675   4.511   2.326
    2PC     H1A13730   4.749   4.591   2.332
    2PC     H1B13731   4.708   4.437   2.253
    2PC     C3213732   4.544   4.578   2.281
    2PC     H2A13733   4.549   4.618   2.180
    2PC     H2B13734   4.464   4.504   2.283
    2PC     N3113735   4.505   4.697   2.363
    2PC     C3313736   4.612   4.800   2.385
    2PC     H3A13737   4.672   4.779   2.475
    2PC     H3B13738   4.684   4.787   2.304
    2PC     H3C13739   4.585   4.905   2.394
    2PC     C3413740   4.393   4.765   2.291
    2PC     H4A13741   4.420   4.775   2.186
    2PC     H4B13742   4.301   4.708   2.308
    2PC     H4C13743   4.373   4.863   2.334
    2PC     C3513744   4.450   4.664   2.499
    2PC     H5A13745   4.361   4.604   2.477
    2PC     H5B13746   4.416   4.758   2.540
    2PC     H5C13747   4.527   4.618   2.561
    2PC     O3313748   4.649   4.209   2.386
    2PC     O3413749   4.441   4.319   2.440
    2PC     O2113750   4.434   4.287   2.930
    2PC     C2113751   4.439   4.203   3.035
    2PC     O2213752   4.513   4.109   3.059
    3OL     C1213753   4.330   4.252   3.126
    3OL     H2R13754   4.249   4.181   3.112
    3OL     H2S13755   4.283   4.344   3.090
    3OL     C1313756   4.365   4.264   3.275
    3OL     H3R13757   4.386   4.160   3.299
    3OL     H3S13758   4.275   4.295   3.329
    3OL     C1413759   4.489   4.346   3.314
    3OL     H4R13760   4.575   4.320   3.253
    3OL     H4S13761   4.516   4.319   3.416
    3OL     C1513762   4.464   4.495   3.286
    3OL     H5R13763   4.436   4.528   3.186
    3OL     H5S13764   4.562   4.543   3.293
    3OL     C1613765   4.370   4.557   3.390
    3OL     H6R13766   4.407   4.556   3.493
    3OL     H6S13767   4.278   4.501   3.376
    3OL     C1713768   4.335   4.702   3.354
    3OL     H7R13769   4.265   4.714   3.272
    3OL     H7S13770   4.425   4.760   3.334
    3OL     C1813771   4.251   4.765   3.467
    3OL     H8R13772   4.157   4.715   3.494
    3OL     H8S13773   4.222   4.864   3.432
    3OL     C1913774   4.333   4.779   3.592
    3OL     H9R13775   4.420   4.844   3.587
    3OL    C11013776   4.312   4.711   3.704
    3OL    H10R13777   4.388   4.719   3.782
    3OL    C11113778   4.195   4.622   3.734
    3OL    H11R13779   4.151   4.572   3.647
    3OL    H11S13780   4.112   4.675   3.781
    3OL    C11213781   4.245   4.522   3.840
    3OL    H12R13782   4.155   4.465   3.865
    3OL    H12S13783   4.292   4.576   3.922
    3OL    C11313784   4.344   4.418   3.787
    3OL    H13R13785   4.388   4.368   3.873
    3OL    H13S13786   4.426   4.469   3.736
    3OL    C11413787   4.277   4.312   3.698
    3OL    H14R13788   4.362   4.264   3.651
    3OL    H14S13789   4.219   4.357   3.618
    3OL    C11513790   4.191   4.209   3.774
    3OL    H15R13791   4.129   4.149   3.707
    3OL    H15S13792   4.127   4.270   3.837
    3OL    C11613793   4.279   4.108   3.850
    3OL    H16R13794   4.351   4.164   3.911
    3OL    H16S13795   4.348   4.063   3.778
    3OL    C11713796   4.196   4.009   3.932
    3OL    H17R13797   4.131   3.950   3.868
    3OL    H17S13798   4.137   4.069   4.003
    3OL    C11813799   4.280   3.911   4.014
    3OL    H18R13800   4.227   3.862   4.096
    3OL    H18S13801   4.374   3.956   4.046
    3OL    H18T13802   4.310   3.826   3.952
    1PA    C11613803   4.938   0.400   3.965
    1PA    H16R13804   5.034   0.350   3.949
    1PA    H16S13805   4.930   0.441   4.066
    1PA    H16T13806   4.935   0.485   3.895
    1PA    C11513807   4.829   0.300   3.925
    1PA    H15R13808   4.824   0.222   4.002
    1PA    H15S13809   4.732   0.348   3.938
    1PA    C11413810   4.847   0.223   3.793
    1PA    H14R13811   4.947   0.179   3.789
    1PA    H14S13812   4.774   0.142   3.797
    1PA    C11313813   4.819   0.308   3.669
    1PA    H13R13814   4.738   0.379   3.690
    1PA    H13S13815   4.908   0.364   3.637
    1PA    C11213816   4.798   0.211   3.552
    1PA    H12R13817   4.886   0.146   3.555
    1PA    H12S13818   4.714   0.145   3.572
    1PA    C11113819   4.789   0.277   3.414
    1PA    H11R13820   4.695   0.332   3.411
    1PA    H11S13821   4.872   0.346   3.397
    1PA    C11013822   4.805   0.166   3.309
    1PA    H10R13823   4.902   0.115   3.305
    1PA    H10S13824   4.732   0.089   3.333
    1PA     C1913825   4.752   0.215   3.174
    1PA     H9R13826   4.676   0.292   3.184
    1PA     H9S13827   4.834   0.262   3.118
    1PA     C1813828   4.685   0.104   3.092
    1PA     H8R13829   4.764   0.029   3.076
    1PA     H8S13830   4.617   0.044   3.154
    1PA     C1713831   4.623   0.143   2.958
    1PA     H7R13832   4.685   0.223   2.916
    1PA     H7S13833   4.636   0.065   2.882
    1PA     C1613834   4.473   0.174   2.962
    1PA     H6R13835   4.413   0.094   3.006
    1PA     H6S13836   4.457   0.266   3.018
    1PA     C1513837   4.410   0.197   2.824
    1PA     H5R13838   4.303   0.216   2.839
    1PA     H5S13839   4.460   0.286   2.785
    1PA     C1413840   4.417   0.077   2.728
    1PA     H4R13841   4.411  -0.009   2.795
    1PA     H4S13842   4.336   0.071   2.655
    1PA     C1313843   4.539   0.093   2.636
    1PA     H3R13844   4.530   0.179   2.570
    1PA     H3S13845   4.638   0.107   2.678
    1PA     C1213846   4.555  -0.027   2.542
    1PA     H2R13847   4.600  -0.112   2.594
    1PA     H2S13848   4.462  -0.058   2.494
    2PC     C1113849   4.643  -0.001   2.421
    2PC     O1213850   4.709  -0.092   2.375
    2PC     O1113851   4.647   0.126   2.378
    2PC      C113852   4.706   0.161   2.251
    2PC      HR13853   4.732   0.267   2.255
    2PC      HS13854   4.802   0.110   2.238
    2PC      C213855   4.609   0.120   2.140
    2PC      HX13856   4.586   0.013   2.143
    2PC      C313857   4.678   0.151   2.007
    2PC      HA13858   4.682   0.260   1.996
    2PC      HB13859   4.780   0.113   2.000
    2PC     O3113860   4.599   0.085   1.907
    2PC     P3113861   4.648   0.087   1.755
    2PC     O3213862   4.753  -0.034   1.741
    2PC     C3113863   4.892  -0.012   1.709
    2PC     H1A13864   4.909   0.043   1.616
    2PC     H1B13865   4.935   0.048   1.790
    2PC     C3213866   4.970  -0.144   1.712
    2PC     H2A13867   5.073  -0.113   1.697
    2PC     H2B13868   4.964  -0.196   1.807
    2PC     N3113869   4.939  -0.246   1.606
    2PC     C3313870   4.802  -0.302   1.627
    2PC     H3A13871   4.727  -0.223   1.616
    2PC     H3B13872   4.782  -0.376   1.549
    2PC     H3C13873   4.784  -0.347   1.725
    2PC     C3413874   4.941  -0.175   1.473
    2PC     H4A13875   5.040  -0.132   1.455
    2PC     H4B13876   4.907  -0.248   1.400
    2PC     H4C13877   4.865  -0.098   1.485
    2PC     C3513878   5.052  -0.343   1.594
    2PC     H5A13879   5.057  -0.389   1.693
    2PC     H5B13880   5.146  -0.288   1.595
    2PC     H5C13881   5.044  -0.416   1.513
    2PC     O3313882   4.531   0.051   1.672
    2PC     O3413883   4.724   0.205   1.706
    2PC     O2113884   4.492   0.203   2.158
    2PC     C2113885   4.390   0.174   2.240
    2PC     O2213886   4.362   0.059   2.267
    3OL     C1213887   4.323   0.299   2.290
    3OL     H2R13888   4.240   0.322   2.223
    3OL     H2S13889   4.400   0.377   2.279
    3OL     C1313890   4.282   0.298   2.438
    3OL     H3R13891   4.370   0.320   2.499
    3OL     H3S13892   4.265   0.195   2.469
    3OL     C1413893   4.164   0.394   2.457
    3OL     H4R13894   4.082   0.332   2.420
    3OL     H4S13895   4.180   0.489   2.405
    3OL     C1513896   4.162   0.413   2.610
    3OL     H5R13897   4.258   0.442   2.653
    3OL     H5S13898   4.126   0.319   2.653
    3OL     C1613899   4.057   0.519   2.645
    3OL     H6R13900   3.956   0.480   2.633
    3OL     H6S13901   4.077   0.607   2.584
    3OL     C1713902   4.076   0.552   2.794
    3OL     H7R13903   4.157   0.624   2.808
    3OL     H7S13904   4.103   0.465   2.853
    3OL     C1813905   3.954   0.626   2.852
    3OL     H8R13906   3.860   0.578   2.823
    3OL     H8S13907   3.944   0.723   2.803
    3OL     C1913908   3.943   0.643   3.001
    3OL     H9R13909   3.976   0.736   3.046
    3OL    C11013910   3.896   0.553   3.087
    3OL    H10R13911   3.883   0.591   3.188
    3OL    C11113912   3.847   0.413   3.062
    3OL    H11R13913   3.861   0.401   2.955
    3OL    H11S13914   3.740   0.404   3.082
    3OL    C11213915   3.922   0.305   3.142
    3OL    H12R13916   3.867   0.211   3.144
    3OL    H12S13917   3.925   0.336   3.247
    3OL    C11313918   4.059   0.278   3.079
    3OL    H13R13919   4.107   0.371   3.050
    3OL    H13S13920   4.051   0.220   2.987
    3OL    C11413921   4.133   0.183   3.175
    3OL    H14R13922   4.218   0.140   3.122
    3OL    H14S13923   4.069   0.096   3.195
    3OL    C11513924   4.168   0.252   3.307
    3OL    H15R13925   4.080   0.295   3.353
    3OL    H15S13926   4.236   0.336   3.287
    3OL    C11613927   4.233   0.158   3.410
    3OL    H16R13928   4.181   0.062   3.422
    3OL    H16S13929   4.230   0.201   3.510
    3OL    C11713930   4.377   0.118   3.375
    3OL    H17R13931   4.443   0.204   3.365
    3OL    H17S13932   4.362   0.065   3.281
    3OL    C11813933   4.427   0.016   3.478
    3OL    H18R13934   4.364  -0.073   3.483
    3OL    H18S13935   4.429   0.062   3.577
    3OL    H18T13936   4.528  -0.012   3.448
    1PA    C11613937   4.230   5.101   4.715
    1PA    H16R13938   4.272   5.001   4.724
    1PA    H16S13939   4.123   5.101   4.696
    1PA    H16T13940   4.245   5.150   4.811
    1PA    C11513941   4.295   5.177   4.598
    1PA    H15R13942   4.243   5.273   4.598
    1PA    H15S13943   4.400   5.194   4.625
    1PA    C11413944   4.266   5.105   4.466
    1PA    H14R13945   4.314   5.008   4.476
    1PA    H14S13946   4.160   5.080   4.461
    1PA    C11313947   4.327   5.177   4.344
    1PA    H13R13948   4.275   5.270   4.326
    1PA    H13S13949   4.433   5.201   4.359
    1PA    C11213950   4.324   5.084   4.222
    1PA    H12R13951   4.393   5.000   4.233
    1PA    H12S13952   4.224   5.049   4.195
    1PA    C11113953   4.382   5.164   4.104
    1PA    H11R13954   4.323   5.250   4.071
    1PA    H11S13955   4.477   5.209   4.135
    1PA    C11013956   4.410   5.080   3.979
    1PA    H10R13957   4.484   5.005   4.011
    1PA    H10S13958   4.325   5.022   3.943
    1PA     C1913959   4.476   5.154   3.862
    1PA     H9R13960   4.430   5.250   3.837
    1PA     H9S13961   4.581   5.169   3.889
    1PA     C1813962   4.483   5.071   3.733
    1PA     H8R13963   4.537   4.979   3.755
    1PA     H8S13964   4.384   5.033   3.710
    1PA     C1713965   4.549   5.147   3.617
    1PA     H7R13966   4.495   5.240   3.604
    1PA     H7S13967   4.651   5.169   3.650
    1PA     C1613968   4.547   5.078   3.480
    1PA     H6R13969   4.595   4.980   3.478
    1PA     H6S13970   4.447   5.057   3.439
    1PA     C1513971   4.622   5.154   3.370
    1PA     H5R13972   4.560   5.242   3.351
    1PA     H5S13973   4.718   5.183   3.413
    1PA     C1413974   4.641   5.073   3.241
    1PA     H4R13975   4.709   5.117   3.169
    1PA     H4S13976   4.690   4.980   3.269
    1PA     C1313977   4.514   5.037   3.163
    1PA     H3R13978   4.535   4.953   3.096
    1PA     H3S13979   4.431   5.008   3.228
    1PA     C1213980   4.485   5.160   3.077
    1PA     H2R13981   4.449   5.243   3.138
    1PA     H2S13982   4.578   5.200   3.036
    2PC     C1113983   4.376   5.143   2.974
    2PC     O1213984   4.332   5.033   2.948
    2PC     O1113985   4.346   5.260   2.916
    2PC      C113986   4.251   5.258   2.808
    2PC      HR13987   4.261   5.355   2.758
    2PC      HS13988   4.290   5.190   2.731
    2PC      C213989   4.106   5.234   2.853
    2PC      HX13990   4.099   5.173   2.943
    2PC      C313991   4.034   5.158   2.740
    2PC      HA13992   4.084   5.065   2.713
    2PC      HB13993   3.930   5.149   2.771
    2PC     O3113994   4.026   5.233   2.617
    2PC     P3113995   3.925   5.174   2.508
    2PC     O3213996   3.863   5.312   2.455
    2PC     C3113997   3.940   5.433   2.446
    2PC     H1A13998   3.996   5.456   2.537
    2PC     H1B13999   4.025   5.420   2.378
    2PC     C3214000   3.865   5.555   2.391
    2PC     H2A14001   3.925   5.646   2.385
    2PC     H2B14002   3.840   5.545   2.285
    2PC     N3114003   3.743   5.601   2.466
    2PC     C3314004   3.689   5.714   2.384
    2PC     H3A14005   3.591   5.741   2.422
    2PC     H3B14006   3.760   5.797   2.396
    2PC     H3C14007   3.686   5.681   2.280
    2PC     C3414008   3.630   5.503   2.467
    2PC     H4A14009   3.608   5.464   2.367
    2PC     H4B14010   3.655   5.414   2.526
    2PC     H4C14011   3.535   5.540   2.507
    2PC     C3514012   3.779   5.646   2.604
    2PC     H5A14013   3.805   5.551   2.651
    2PC     H5B14014   3.691   5.700   2.640
    2PC     H5C14015   3.865   5.711   2.592
    2PC     O3314016   4.007   5.103   2.406
    2PC     O3414017   3.812   5.087   2.548
    2PC     O2114018   4.035   5.356   2.883
    2PC     C2114019   3.944   5.358   2.981
    2PC     O2214020   3.918   5.268   3.058
    3OL     C1214021   3.876   5.492   3.003
    3OL     H2R14022   3.851   5.521   2.901
    3OL     H2S14023   3.943   5.567   3.046
    3OL     C1314024   3.757   5.486   3.099
    3OL     H3R14025   3.685   5.406   3.078
    3OL     H3S14026   3.696   5.576   3.094
    3OL     C1414027   3.800   5.484   3.246
    3OL     H4R14028   3.878   5.559   3.261
    3OL     H4S14029   3.844   5.387   3.270
    3OL     C1514030   3.682   5.509   3.340
    3OL     H5R14031   3.601   5.438   3.318
    3OL     H5S14032   3.650   5.612   3.323
    3OL     C1614033   3.730   5.495   3.485
    3OL     H6R14034   3.813   5.562   3.509
    3OL     H6S14035   3.768   5.394   3.499
    3OL     C1714036   3.613   5.534   3.578
    3OL     H7R14037   3.536   5.458   3.572
    3OL     H7S14038   3.589   5.635   3.543
    3OL     C1814039   3.659   5.542   3.724
    3OL     H8R14040   3.581   5.591   3.782
    3OL     H8S14041   3.741   5.615   3.725
    3OL     C1914042   3.688   5.406   3.781
    3OL     H9R14043   3.730   5.340   3.706
    3OL    C11014044   3.665   5.363   3.905
    3OL    H10R14045   3.688   5.260   3.928
    3OL    C11114046   3.600   5.453   4.007
    3OL    H11R14047   3.577   5.554   3.975
    3OL    H11S14048   3.672   5.465   4.089
    3OL    C11214049   3.478   5.388   4.075
    3OL    H12R14050   3.500   5.283   4.095
    3OL    H12S14051   3.392   5.388   4.007
    3OL    C11314052   3.440   5.458   4.206
    3OL    H13R14053   3.407   5.559   4.181
    3OL    H13S14054   3.526   5.473   4.270
    3OL    C11414055   3.336   5.376   4.285
    3OL    H14R14056   3.393   5.289   4.318
    3OL    H14S14057   3.258   5.342   4.216
    3OL    C11514058   3.277   5.448   4.407
    3OL    H15R14059   3.359   5.499   4.457
    3OL    H15S14060   3.244   5.367   4.472
    3OL    C11614061   3.161   5.537   4.360
    3OL    H16R14062   3.100   5.471   4.299
    3OL    H16S14063   3.194   5.615   4.292
    3OL    C11714064   3.076   5.608   4.467
    3OL    H17R14065   3.127   5.573   4.557
    3OL    H17S14066   2.974   5.570   4.459
    3OL    C11814067   3.073   5.761   4.470
    3OL    H18R14068   3.018   5.790   4.559
    3OL    H18S14069   3.032   5.798   4.376
    3OL    H18T14070   3.175   5.797   4.487
    1PA    C11614071   2.840   5.761   4.042
    1PA    H16R14072   2.907   5.833   3.995
    1PA    H16S14073   2.819   5.678   3.974
    1PA    H16T14074   2.890   5.724   4.132
    1PA    C11514075   2.707   5.831   4.070
    1PA    H15R14076   2.654   5.791   4.157
    1PA    H15S14077   2.738   5.931   4.102
    1PA    C11414078   2.619   5.836   3.944
    1PA    H14R14079   2.635   5.751   3.878
    1PA    H14S14080   2.512   5.835   3.967
    1PA    C11314081   2.662   5.954   3.856
    1PA    H13R14082   2.654   6.050   3.908
    1PA    H13S14083   2.763   5.948   3.816
    1PA    C11214084   2.568   5.968   3.736
    1PA    H12R14085   2.469   5.926   3.751
    1PA    H12S14086   2.565   6.073   3.704
    1PA    C11114087   2.616   5.878   3.621
    1PA    H11R14088   2.721   5.899   3.602
    1PA    H11S14089   2.600   5.773   3.647
    1PA    C11014090   2.554   5.908   3.484
    1PA    H10R14091   2.448   5.930   3.473
    1PA    H10S14092   2.609   5.994   3.444
    1PA     C1914093   2.583   5.792   3.387
    1PA     H9R14094   2.691   5.781   3.375
    1PA     H9S14095   2.538   5.700   3.425
    1PA     C1814096   2.526   5.837   3.252
    1PA     H8R14097   2.417   5.828   3.262
    1PA     H8S14098   2.553   5.939   3.223
    1PA     C1714099   2.564   5.739   3.140
    1PA     H7R14100   2.568   5.640   3.188
    1PA     H7S14101   2.487   5.735   3.064
    1PA     C1614102   2.703   5.764   3.081
    1PA     H6R14103   2.784   5.774   3.154
    1PA     H6S14104   2.723   5.672   3.025
    1PA     C1514105   2.700   5.882   2.983
    1PA     H5R14106   2.646   5.848   2.894
    1PA     H5S14107   2.636   5.957   3.029
    1PA     C1414108   2.838   5.935   2.941
    1PA     H4R14109   2.884   5.965   3.035
    1PA     H4S14110   2.908   5.860   2.905
    1PA     C1314111   2.819   6.052   2.844
    1PA     H3R14112   2.747   6.026   2.766
    1PA     H3S14113   2.784   6.136   2.904
    1PA     C1214114   2.944   6.104   2.770
    1PA     H2R14115   2.934   6.208   2.741
    1PA     H2S14116   3.037   6.085   2.825
    2PC     C1114117   2.965   6.030   2.640
    2PC     O1214118   3.037   6.064   2.549
    2PC     O1114119   2.909   5.909   2.649
    2PC      C114120   2.921   5.805   2.549
    2PC      HR14121   2.846   5.728   2.566
    2PC      HS14122   2.910   5.855   2.452
    2PC      C214123   3.064   5.750   2.558
    2PC      HX14124   3.130   5.831   2.589
    2PC      C314125   3.123   5.694   2.428
    2PC      HA14126   3.143   5.774   2.357
    2PC      HB14127   3.223   5.654   2.451
    2PC     O3114128   3.040   5.589   2.376
    2PC     P3114129   3.086   5.527   2.236
    2PC     O3214130   2.957   5.439   2.202
    2PC     C3114131   2.850   5.491   2.120
    2PC     H1A14132   2.795   5.568   2.174
    2PC     H1B14133   2.887   5.538   2.029
    2PC     C3214134   2.742   5.387   2.091
    2PC     H2A14135   2.698   5.333   2.175
    2PC     H2B14136   2.658   5.434   2.039
    2PC     N3114137   2.788   5.273   2.006
    2PC     C3314138   2.828   5.312   1.867
    2PC     H3A14139   2.922   5.368   1.876
    2PC     H3B14140   2.854   5.218   1.818
    2PC     H3C14141   2.751   5.372   1.818
    2PC     C3414142   2.912   5.210   2.062
    2PC     H4A14143   2.893   5.190   2.168
    2PC     H4B14144   2.928   5.116   2.010
    2PC     H4C14145   2.990   5.282   2.039
    2PC     C3514146   2.678   5.172   1.989
    2PC     H5A14147   2.664   5.117   2.082
    2PC     H5B14148   2.718   5.101   1.915
    2PC     H5C14149   2.593   5.224   1.946
    2PC     O3314150   3.109   5.629   2.132
    2PC     O3414151   3.205   5.439   2.244
    2PC     O2114152   3.077   5.652   2.663
    2PC     C2114153   3.106   5.687   2.789
    2PC     O2214154   3.142   5.798   2.823
    3OL     C1214155   3.118   5.571   2.884
    3OL     H2R14156   3.183   5.611   2.962
    3OL     H2S14157   3.152   5.482   2.830
    3OL     C1314158   2.988   5.552   2.964
    3OL     H3R14159   2.910   5.521   2.894
    3OL     H3S14160   2.968   5.641   3.024
    3OL     C1414161   3.011   5.433   3.058
    3OL     H4R14162   3.113   5.416   3.093
    3OL     H4S14163   2.992   5.346   2.995
    3OL     C1514164   2.900   5.421   3.164
    3OL     H5R14165   2.899   5.316   3.195
    3OL     H5S14166   2.801   5.447   3.124
    3OL     C1614167   2.929   5.503   3.290
    3OL     H6R14168   2.938   5.606   3.255
    3OL     H6S14169   3.026   5.486   3.338
    3OL     C1714170   2.823   5.492   3.401
    3OL     H7R14171   2.727   5.488   3.350
    3OL     H7S14172   2.828   5.587   3.455
    3OL     C1814173   2.826   5.371   3.496
    3OL     H8R14174   2.786   5.282   3.447
    3OL     H8S14175   2.770   5.397   3.586
    3OL     C1914176   2.963   5.346   3.552
    3OL     H9R14177   3.011   5.420   3.617
    3OL    C11014178   3.044   5.252   3.507
    3OL    H10R14179   3.149   5.252   3.534
    3OL    C11114180   3.008   5.139   3.413
    3OL    H11R14181   3.082   5.150   3.334
    3OL    H11S14182   2.906   5.138   3.374
    3OL    C11214183   3.036   4.998   3.467
    3OL    H12R14184   3.140   4.992   3.499
    3OL    H12S14185   3.035   4.940   3.374
    3OL    C11314186   2.936   4.942   3.569
    3OL    H13R14187   2.952   4.834   3.571
    3OL    H13S14188   2.831   4.946   3.540
    3OL    C11414189   2.955   5.010   3.705
    3OL    H14R14190   2.915   5.111   3.699
    3OL    H14S14191   3.058   5.012   3.742
    3OL    C11514192   2.859   4.956   3.813
    3OL    H15R14193   2.763   4.947   3.763
    3OL    H15S14194   2.856   5.031   3.893
    3OL    C11614195   2.915   4.827   3.874
    3OL    H16R14196   2.989   4.853   3.950
    3OL    H16S14197   2.962   4.761   3.801
    3OL    C11714198   2.807   4.742   3.943
    3OL    H17R14199   2.836   4.643   3.979
    3OL    H17S14200   2.731   4.730   3.866
    3OL    C11814201   2.736   4.821   4.055
    3OL    H18R14202   2.650   4.758   4.079
    3OL    H18S14203   2.690   4.913   4.019
    3OL    H18T14204   2.790   4.834   4.148
    1PA    C11614205   3.044   0.566   4.169
    1PA    H16R14206   3.014   0.525   4.265
    1PA    H16S14207   2.967   0.614   4.107
    1PA    H16T14208   3.126   0.634   4.192
    1PA    C11514209   3.105   0.447   4.093
    1PA    H15R14210   3.196   0.433   4.153
    1PA    H15S14211   3.043   0.358   4.097
    1PA    C11414212   3.140   0.479   3.947
    1PA    H14R14213   3.055   0.484   3.880
    1PA    H14S14214   3.186   0.578   3.942
    1PA    C11314215   3.238   0.372   3.898
    1PA    H13R14216   3.334   0.380   3.950
    1PA    H13S14217   3.198   0.280   3.941
    1PA    C11214218   3.254   0.374   3.745
    1PA    H12R14219   3.154   0.351   3.708
    1PA    H12S14220   3.278   0.477   3.715
    1PA    C11114221   3.367   0.275   3.714
    1PA    H11R14222   3.462   0.308   3.756
    1PA    H11S14223   3.347   0.186   3.774
    1PA    C11014224   3.384   0.245   3.564
    1PA    H10R14225   3.350   0.329   3.503
    1PA    H10S14226   3.492   0.236   3.557
    1PA     C1914227   3.323   0.112   3.519
    1PA     H9R14228   3.371   0.030   3.573
    1PA     H9S14229   3.214   0.112   3.529
    1PA     C1814230   3.353   0.085   3.371
    1PA     H8R14231   3.330   0.169   3.305
    1PA     H8S14232   3.462   0.078   3.366
    1PA     C1714233   3.307  -0.052   3.319
    1PA     H7R14234   3.358  -0.128   3.379
    1PA     H7S14235   3.199  -0.062   3.334
    1PA     C1614236   3.346  -0.078   3.173
    1PA     H6R14237   3.313   0.002   3.106
    1PA     H6S14238   3.455  -0.078   3.162
    1PA     C1514239   3.302  -0.216   3.122
    1PA     H5R14240   3.305  -0.285   3.206
    1PA     H5S14241   3.195  -0.220   3.099
    1PA     C1414242   3.378  -0.273   3.002
    1PA     H4R14243   3.482  -0.293   3.029
    1PA     H4S14244   3.338  -0.373   2.981
    1PA     C1314245   3.367  -0.183   2.878
    1PA     H3R14246   3.263  -0.154   2.861
    1PA     H3S14247   3.421  -0.090   2.895
    1PA     C1214248   3.425  -0.260   2.758
    1PA     H2R14249   3.523  -0.297   2.789
    1PA     H2S14250   3.372  -0.353   2.736
    2PC     C1114251   3.448  -0.174   2.637
    2PC     O1214252   3.557  -0.161   2.585
    2PC     O1114253   3.338  -0.119   2.584
    2PC      C114254   3.353  -0.037   2.466
    2PC      HR14255   3.425   0.042   2.489
    2PC      HS14256   3.390  -0.094   2.381
    2PC      C214257   3.216   0.012   2.418
    2PC      HX14258   3.138  -0.063   2.400
    2PC      C314259   3.227   0.103   2.295
    2PC      HA14260   3.287   0.189   2.325
    2PC      HB14261   3.284   0.049   2.219
    2PC     O3114262   3.096   0.140   2.249
    2PC     P3114263   3.087   0.241   2.125
    2PC     O3214264   3.022   0.143   2.016
    2PC     C3114265   2.896   0.082   2.048
    2PC     H1A14266   2.899   0.040   2.149
    2PC     H1B14267   2.818   0.158   2.047
    2PC     C3214268   2.855  -0.019   1.940
    2PC     H2A14269   2.760  -0.053   1.980
    2PC     H2B14270   2.834   0.029   1.844
    2PC     N3114271   2.954  -0.128   1.912
    2PC     C3314272   2.887  -0.241   1.841
    2PC     H3A14273   2.816  -0.291   1.908
    2PC     H3B14274   2.837  -0.197   1.755
    2PC     H3C14275   2.958  -0.317   1.808
    2PC     C3414276   3.056  -0.075   1.816
    2PC     H4A14277   3.146  -0.137   1.807
    2PC     H4B14278   3.007  -0.068   1.719
    2PC     H4C14279   3.083   0.028   1.840
    2PC     C3514280   3.032  -0.174   2.032
    2PC     H5A14281   2.960  -0.215   2.103
    2PC     H5B14282   3.086  -0.091   2.078
    2PC     H5C14283   3.085  -0.260   1.992
    2PC     O3314284   2.990   0.348   2.155
    2PC     O3414285   3.219   0.297   2.085
    2PC     O2114286   3.168   0.090   2.529
    2PC     C2114287   3.039   0.108   2.561
    2PC     O2214288   2.947   0.063   2.495
    3OL     C1214289   3.020   0.159   2.701
    3OL     H2R14290   2.965   0.253   2.701
    3OL     H2S14291   3.118   0.190   2.736
    3OL     C1314292   2.957   0.052   2.792
    3OL     H3R14293   3.035  -0.017   2.824
    3OL     H3S14294   2.877   0.000   2.738
    3OL     C1414295   2.888   0.117   2.912
    3OL     H4R14296   2.820   0.193   2.875
    3OL     H4S14297   2.962   0.167   2.975
    3OL     C1514298   2.811   0.024   3.006
    3OL     H5R14299   2.735  -0.031   2.949
    3OL     H5S14300   2.748   0.082   3.074
    3OL     C1614301   2.907  -0.058   3.094
    3OL     H6R14302   2.982   0.007   3.139
    3OL     H6S14303   2.968  -0.124   3.032
    3OL     C1714304   2.839  -0.147   3.199
    3OL     H7R14305   2.911  -0.206   3.257
    3OL     H7S14306   2.779  -0.225   3.151
    3OL     C1814307   2.754  -0.078   3.306
    3OL     H8R14308   2.666  -0.027   3.265
    3OL     H8S14309   2.811   0.007   3.343
    3OL     C1914310   2.714  -0.171   3.417
    3OL     H9R14311   2.610  -0.204   3.415
    3OL    C11014312   2.793  -0.191   3.522
    3OL    H10R14313   2.757  -0.258   3.600
    3OL    C11114314   2.938  -0.159   3.546
    3OL    H11R14315   2.970  -0.061   3.511
    3OL    H11S14316   3.000  -0.228   3.488
    3OL    C11214317   2.978  -0.183   3.692
    3OL    H12R14318   2.950  -0.283   3.725
    3OL    H12S14319   2.923  -0.119   3.761
    3OL    C11314320   3.126  -0.164   3.726
    3OL    H13R14321   3.136  -0.145   3.833
    3OL    H13S14322   3.166  -0.077   3.672
    3OL    C11414323   3.203  -0.293   3.697
    3OL    H14R14324   3.199  -0.318   3.591
    3OL    H14S14325   3.158  -0.375   3.754
    3OL    C11514326   3.350  -0.275   3.738
    3OL    H15R14327   3.352  -0.228   3.837
    3OL    H15S14328   3.379  -0.190   3.677
    3OL    C11614329   3.445  -0.394   3.718
    3OL    H16R14330   3.427  -0.483   3.779
    3OL    H16S14331   3.546  -0.362   3.745
    3OL    C11714332   3.455  -0.424   3.568
    3OL    H17R14333   3.493  -0.333   3.522
    3OL    H17S14334   3.359  -0.445   3.522
    3OL    C11814335   3.545  -0.540   3.523
    3OL    H18R14336   3.502  -0.629   3.570
    3OL    H18S14337   3.647  -0.534   3.561
    3OL    H18T14338   3.538  -0.552   3.415
    1PA    C11614339   3.925   4.333   4.105
    1PA    H16R14340   3.905   4.438   4.128
    1PA    H16S14341   4.024   4.332   4.059
    1PA    H16T14342   3.943   4.280   4.198
    1PA    C11514343   3.819   4.254   4.027
    1PA    H15R14344   3.853   4.151   4.021
    1PA    H15S14345   3.722   4.256   4.077
    1PA    C11414346   3.807   4.303   3.882
    1PA    H14R14347   3.795   4.411   3.884
    1PA    H14S14348   3.894   4.277   3.821
    1PA    C11314349   3.683   4.240   3.817
    1PA    H13R14350   3.686   4.132   3.834
    1PA    H13S14351   3.588   4.273   3.859
    1PA    C11214352   3.658   4.259   3.667
    1PA    H12R14353   3.564   4.211   3.638
    1PA    H12S14354   3.649   4.365   3.644
    1PA    C11114355   3.757   4.188   3.574
    1PA    H11R14356   3.860   4.216   3.599
    1PA    H11S14357   3.747   4.082   3.602
    1PA    C11014358   3.723   4.202   3.425
    1PA    H10R14359   3.636   4.141   3.400
    1PA    H10S14360   3.702   4.308   3.410
    1PA     C1914361   3.823   4.134   3.332
    1PA     H9R14362   3.823   4.181   3.233
    1PA     H9S14363   3.922   4.152   3.374
    1PA     C1814364   3.791   3.984   3.324
    1PA     H8R14365   3.810   3.951   3.426
    1PA     H8S14366   3.687   3.963   3.300
    1PA     C1714367   3.889   3.906   3.234
    1PA     H7R14368   3.971   3.976   3.220
    1PA     H7S14369   3.937   3.827   3.293
    1PA     C1614370   3.825   3.852   3.105
    1PA     H6R14371   3.758   3.771   3.135
    1PA     H6S14372   3.761   3.928   3.062
    1PA     C1514373   3.926   3.821   2.994
    1PA     H5R14374   3.990   3.907   2.975
    1PA     H5S14375   3.995   3.742   3.024
    1PA     C1414376   3.859   3.782   2.861
    1PA     H4R14377   3.810   3.685   2.877
    1PA     H4S14378   3.798   3.865   2.824
    1PA     C1314379   3.974   3.762   2.762
    1PA     H3R14380   4.041   3.848   2.768
    1PA     H3S14381   4.032   3.673   2.788
    1PA     C1214382   3.909   3.741   2.624
    1PA     H2R14383   3.837   3.659   2.622
    1PA     H2S14384   3.865   3.833   2.585
    2PC     C1114385   4.008   3.692   2.522
    2PC     O1214386   4.066   3.766   2.445
    2PC     O1114387   4.022   3.558   2.527
    2PC      C114388   4.119   3.494   2.443
    2PC      HR14389   4.108   3.386   2.431
    2PC      HS14390   4.102   3.535   2.343
    2PC      C214391   4.254   3.535   2.504
    2PC      HX14392   4.251   3.639   2.538
    2PC      C314393   4.354   3.514   2.388
    2PC      HA14394   4.305   3.539   2.294
    2PC      HB14395   4.441   3.578   2.405
    2PC     O3114396   4.400   3.378   2.389
    2PC     P3114397   4.453   3.302   2.259
    2PC     O3214398   4.515   3.169   2.323
    2PC     C3114399   4.621   3.179   2.419
    2PC     H1A14400   4.596   3.258   2.490
    2PC     H1B14401   4.626   3.082   2.470
    2PC     C3214402   4.762   3.189   2.360
    2PC     H2A14403   4.763   3.287   2.312
    2PC     H2B14404   4.840   3.190   2.437
    2PC     N3114405   4.807   3.084   2.263
    2PC     C3314406   4.725   3.073   2.138
    2PC     H3A14407   4.779   3.004   2.074
    2PC     H3B14408   4.630   3.031   2.175
    2PC     H3C14409   4.706   3.166   2.086
    2PC     C3414410   4.950   3.114   2.227
    2PC     H4A14411   5.019   3.130   2.310
    2PC     H4B14412   4.985   3.021   2.182
    2PC     H4C14413   4.952   3.203   2.163
    2PC     C3514414   4.806   2.954   2.336
    2PC     H5A14415   4.890   2.949   2.405
    2PC     H5B14416   4.817   2.876   2.260
    2PC     H5C14417   4.708   2.933   2.379
    2PC     O3314418   4.341   3.278   2.165
    2PC     O3414419   4.565   3.371   2.189
    2PC     O2114420   4.279   3.446   2.614
    2PC     C2114421   4.400   3.455   2.671
    2PC     O2214422   4.484   3.539   2.651
    3OL     C1214423   4.434   3.339   2.762
    3OL     H2R14424   4.472   3.264   2.692
    3OL     H2S14425   4.333   3.304   2.785
    3OL     C1314426   4.519   3.385   2.881
    3OL     H3R14427   4.457   3.443   2.950
    3OL     H3S14428   4.606   3.444   2.852
    3OL     C1414429   4.557   3.263   2.965
    3OL     H4R14430   4.635   3.295   3.035
    3OL     H4S14431   4.613   3.187   2.911
    3OL     C1514432   4.456   3.202   3.063
    3OL     H5R14433   4.499   3.112   3.108
    3OL     H5S14434   4.371   3.167   3.005
    3OL     C1614435   4.415   3.297   3.176
    3OL     H6R14436   4.354   3.381   3.142
    3OL     H6S14437   4.507   3.340   3.217
    3OL     C1714438   4.323   3.236   3.283
    3OL     H7R14439   4.288   3.139   3.246
    3OL     H7S14440   4.243   3.300   3.319
    3OL     C1814441   4.412   3.196   3.402
    3OL     H8R14442   4.436   3.285   3.461
    3OL     H8S14443   4.509   3.155   3.370
    3OL     C1914444   4.333   3.105   3.493
    3OL     H9R14445   4.257   3.151   3.555
    3OL    C11014446   4.342   2.973   3.496
    3OL    H10R14447   4.278   2.930   3.572
    3OL    C11114448   4.413   2.888   3.394
    3OL    H11R14449   4.473   2.820   3.455
    3OL    H11S14450   4.480   2.953   3.337
    3OL    C11214451   4.312   2.797   3.322
    3OL    H12R14452   4.250   2.761   3.405
    3OL    H12S14453   4.362   2.712   3.276
    3OL    C11314454   4.215   2.871   3.230
    3OL    H13R14455   4.281   2.923   3.160
    3OL    H13S14456   4.165   2.947   3.291
    3OL    C11414457   4.126   2.765   3.163
    3OL    H14R14458   4.053   2.723   3.234
    3OL    H14S14459   4.191   2.682   3.135
    3OL    C11514460   4.063   2.823   3.036
    3OL    H15R14461   4.018   2.750   2.968
    3OL    H15S14462   4.137   2.877   2.977
    3OL    C11614463   3.961   2.932   3.070
    3OL    H16R14464   3.957   3.002   2.985
    3OL    H16S14465   3.980   2.990   3.160
    3OL    C11714466   3.821   2.876   3.099
    3OL    H17R14467   3.816   2.819   3.192
    3OL    H17S14468   3.803   2.813   3.013
    3OL    C11814469   3.712   2.984   3.100
    3OL    H18R14470   3.713   3.046   3.010
    3OL    H18S14471   3.738   3.045   3.186
    3OL    H18T14472   3.621   2.928   3.122
    1PA    C11614473   4.847   2.011   2.558
    1PA    H16R14474   4.946   2.057   2.560
    1PA    H16S14475   4.783   2.098   2.541
    1PA    H16T14476   4.844   1.936   2.478
    1PA    C11514477   4.830   1.953   2.699
    1PA    H15R14478   4.725   1.927   2.717
    1PA    H15S14479   4.899   1.869   2.707
    1PA    C11414480   4.862   2.061   2.803
    1PA    H14R14481   4.963   2.099   2.789
    1PA    H14S14482   4.791   2.142   2.786
    1PA    C11314483   4.858   1.993   2.941
    1PA    H13R14484   4.759   1.947   2.947
    1PA    H13S14485   4.942   1.924   2.947
    1PA    C11214486   4.872   2.100   3.050
    1PA    H12R14487   4.910   2.050   3.139
    1PA    H12S14488   4.945   2.177   3.022
    1PA    C11114489   4.739   2.167   3.085
    1PA    H11R14490   4.702   2.197   2.987
    1PA    H11S14491   4.666   2.097   3.126
    1PA    C11014492   4.761   2.289   3.175
    1PA    H10R14493   4.816   2.262   3.265
    1PA    H10S14494   4.831   2.358   3.128
    1PA     C1914495   4.627   2.353   3.217
    1PA     H9R14496   4.571   2.382   3.128
    1PA     H9S14497   4.572   2.276   3.273
    1PA     C1814498   4.630   2.477   3.307
    1PA     H8R14499   4.536   2.531   3.321
    1PA     H8S14500   4.658   2.454   3.410
    1PA     C1714501   4.726   2.587   3.257
    1PA     H7R14502   4.712   2.680   3.313
    1PA     H7S14503   4.832   2.567   3.275
    1PA     C1614504   4.711   2.620   3.108
    1PA     H6R14505   4.806   2.657   3.070
    1PA     H6S14506   4.695   2.528   3.052
    1PA     C1514507   4.602   2.723   3.073
    1PA     H5R14508   4.514   2.673   3.113
    1PA     H5S14509   4.623   2.813   3.130
    1PA     C1414510   4.592   2.754   2.923
    1PA     H4R14511   4.686   2.794   2.885
    1PA     H4S14512   4.590   2.655   2.877
    1PA     C1314513   4.468   2.837   2.887
    1PA     H3R14514   4.375   2.784   2.910
    1PA     H3S14515   4.458   2.918   2.959
    1PA     C1214516   4.479   2.898   2.746
    1PA     H2R14517   4.558   2.973   2.748
    1PA     H2S14518   4.507   2.824   2.671
    2PC     C1114519   4.349   2.960   2.701
    2PC     O1214520   4.245   2.948   2.762
    2PC     O1114521   4.360   3.020   2.581
    2PC      C114522   4.241   3.082   2.530
    2PC      HR14523   4.160   3.103   2.601
    2PC      HS14524   4.270   3.181   2.493
    2PC      C214525   4.182   2.994   2.418
    2PC      HX14526   4.260   2.949   2.356
    2PC      C314527   4.081   3.072   2.335
    2PC      HA14528   3.991   3.084   2.396
    2PC      HB14529   4.112   3.168   2.292
    2PC     O3114530   4.043   2.986   2.225
    2PC     P3114531   3.945   3.047   2.114
    2PC     O3214532   3.807   3.014   2.187
    2PC     C3114533   3.709   3.118   2.173
    2PC     H1A14534   3.753   3.213   2.205
    2PC     H1B14535   3.669   3.123   2.071
    2PC     C3214536   3.592   3.075   2.262
    2PC     H2A14537   3.543   2.984   2.228
    2PC     H2B14538   3.625   3.058   2.365
    2PC     N3114539   3.481   3.169   2.298
    2PC     C3314540   3.389   3.088   2.385
    2PC     H3A14541   3.435   3.084   2.484
    2PC     H3B14542   3.290   3.132   2.393
    2PC     H3C14543   3.372   2.986   2.351
    2PC     C3414544   3.526   3.300   2.356
    2PC     H4A14545   3.559   3.377   2.286
    2PC     H4B14546   3.433   3.338   2.399
    2PC     H4C14547   3.594   3.284   2.440
    2PC     C3514548   3.395   3.202   2.179
    2PC     H5A14549   3.384   3.107   2.126
    2PC     H5B14550   3.440   3.281   2.119
    2PC     H5C14551   3.295   3.236   2.208
    2PC     O3314552   3.980   3.186   2.077
    2PC     O3414553   3.967   2.982   1.983
    2PC     O2114554   4.110   2.891   2.488
    2PC     C2114555   4.167   2.773   2.518
    2PC     O2214556   4.284   2.745   2.501
    3OL     C1214557   4.070   2.684   2.591
    3OL     H2R14558   3.991   2.659   2.521
    3OL     H2S14559   4.019   2.732   2.675
    3OL     C1314560   4.120   2.547   2.639
    3OL     H3R14561   4.175   2.488   2.565
    3OL     H3S14562   4.033   2.488   2.667
    3OL     C1414563   4.205   2.560   2.766
    3OL     H4R14564   4.132   2.575   2.846
    3OL     H4S14565   4.269   2.646   2.747
    3OL     C1514566   4.284   2.434   2.804
    3OL     H5R14567   4.379   2.424   2.753
    3OL     H5S14568   4.217   2.349   2.787
    3OL     C1614569   4.325   2.442   2.952
    3OL     H6R14570   4.369   2.535   2.988
    3OL     H6S14571   4.408   2.372   2.964
    3OL     C1714572   4.216   2.392   3.048
    3OL     H7R14573   4.161   2.315   2.992
    3OL     H7S14574   4.134   2.462   3.069
    3OL     C1814575   4.259   2.342   3.187
    3OL     H8R14576   4.310   2.423   3.240
    3OL     H8S14577   4.324   2.256   3.175
    3OL     C1914578   4.138   2.296   3.264
    3OL     H9R14579   4.088   2.217   3.209
    3OL    C11014580   4.099   2.330   3.385
    3OL    H10R14581   4.004   2.295   3.425
    3OL    C11114582   4.172   2.427   3.475
    3OL    H11R14583   4.097   2.490   3.524
    3OL    H11S14584   4.244   2.488   3.422
    3OL    C11214585   4.250   2.358   3.588
    3OL    H12R14586   4.177   2.292   3.635
    3OL    H12S14587   4.280   2.436   3.658
    3OL    C11314588   4.362   2.267   3.535
    3OL    H13R14589   4.431   2.327   3.475
    3OL    H13S14590   4.320   2.188   3.472
    3OL    C11414591   4.441   2.216   3.656
    3OL    H14R14592   4.370   2.157   3.715
    3OL    H14S14593   4.468   2.299   3.722
    3OL    C11514594   4.563   2.134   3.615
    3OL    H15R14595   4.606   2.088   3.705
    3OL    H15S14596   4.646   2.191   3.573
    3OL    C11614597   4.534   2.028   3.508
    3OL    H16R14598   4.483   2.066   3.419
    3OL    H16S14599   4.472   1.950   3.552
    3OL    C11714600   4.666   1.966   3.460
    3OL    H17R14601   4.708   1.913   3.546
    3OL    H17S14602   4.734   2.045   3.428
    3OL    C11814603   4.636   1.858   3.355
    3OL    H18R14604   4.602   1.896   3.259
    3OL    H18S14605   4.576   1.779   3.401
    3OL    H18T14606   4.728   1.807   3.325
    1PA    C11614607   2.261   1.806   4.171
    1PA    H16R14608   2.203   1.833   4.259
    1PA    H16S14609   2.306   1.895   4.127
    1PA    H16T14610   2.343   1.745   4.210
    1PA    C11514611   2.176   1.732   4.067
    1PA    H15R14612   2.242   1.681   3.997
    1PA    H15S14613   2.123   1.653   4.121
    1PA    C11414614   2.071   1.822   4.000
    1PA    H14R14615   2.006   1.868   4.075
    1PA    H14S14616   2.114   1.915   3.962
    1PA    C11314617   1.986   1.752   3.894
    1PA    H13R14618   2.060   1.694   3.837
    1PA    H13S14619   1.928   1.675   3.946
    1PA    C11214620   1.901   1.844   3.806
    1PA    H12R14621   1.839   1.907   3.870
    1PA    H12S14622   1.966   1.912   3.751
    1PA    C11114623   1.807   1.756   3.722
    1PA    H11R14624   1.861   1.677   3.670
    1PA    H11S14625   1.733   1.709   3.787
    1PA    C11014626   1.730   1.856   3.634
    1PA    H10R14627   1.639   1.806   3.599
    1PA    H10S14628   1.705   1.947   3.690
    1PA     C1914629   1.811   1.888   3.508
    1PA     H9R14630   1.906   1.939   3.530
    1PA     H9S14631   1.840   1.801   3.450
    1PA     C1814632   1.734   1.985   3.417
    1PA     H8R14633   1.633   1.945   3.419
    1PA     H8S14634   1.729   2.084   3.463
    1PA     C1714635   1.796   1.999   3.277
    1PA     H7R14636   1.887   2.059   3.287
    1PA     H7S14637   1.822   1.905   3.228
    1PA     C1614638   1.708   2.086   3.186
    1PA     H6R14639   1.606   2.055   3.206
    1PA     H6S14640   1.717   2.193   3.206
    1PA     C1514641   1.752   2.073   3.039
    1PA     H5R14642   1.859   2.094   3.035
    1PA     H5S14643   1.746   1.969   3.006
    1PA     C1414644   1.679   2.166   2.942
    1PA     H4R14645   1.573   2.142   2.945
    1PA     H4S14646   1.689   2.270   2.973
    1PA     C1314647   1.718   2.153   2.794
    1PA     H3R14648   1.827   2.154   2.792
    1PA     H3S14649   1.691   2.055   2.754
    1PA     C1214650   1.661   2.271   2.712
    1PA     H2R14651   1.554   2.262   2.728
    1PA     H2S14652   1.695   2.372   2.736
    2PC     C1114653   1.695   2.251   2.567
    2PC     O1214654   1.807   2.269   2.523
    2PC     O1114655   1.590   2.208   2.494
    2PC      C114656   1.607   2.164   2.358
    2PC      HR14657   1.504   2.144   2.326
    2PC      HS14658   1.643   2.239   2.288
    2PC      C214659   1.682   2.030   2.350
    2PC      HX14660   1.785   2.053   2.380
    2PC      C314661   1.692   1.987   2.203
    2PC      HA14662   1.751   2.058   2.145
    2PC      HB14663   1.738   1.889   2.200
    2PC     O3114664   1.567   1.974   2.134
    2PC     P3114665   1.545   1.915   1.986
    2PC     O3214666   1.397   1.856   2.003
    2PC     C3114667   1.388   1.720   2.048
    2PC     H1A14668   1.485   1.673   2.066
    2PC     H1B14669   1.332   1.718   2.142
    2PC     C3214670   1.304   1.620   1.967
    2PC     H2A14671   1.283   1.527   2.019
    2PC     H2B14672   1.210   1.673   1.949
    2PC     N3114673   1.364   1.571   1.839
    2PC     C3314674   1.267   1.494   1.755
    2PC     H3A14675   1.332   1.437   1.688
    2PC     H3B14676   1.193   1.437   1.811
    2PC     H3C14677   1.207   1.564   1.697
    2PC     C3414678   1.401   1.684   1.748
    2PC     H4A14679   1.485   1.648   1.688
    2PC     H4B14680   1.321   1.713   1.679
    2PC     H4C14681   1.438   1.768   1.807
    2PC     C3514682   1.482   1.483   1.870
    2PC     H5A14683   1.545   1.535   1.942
    2PC     H5B14684   1.541   1.484   1.778
    2PC     H5C14685   1.444   1.389   1.908
    2PC     O3314686   1.534   2.017   1.880
    2PC     O3414687   1.647   1.812   1.956
    2PC     O2114688   1.626   1.933   2.441
    2PC     C2114689   1.691   1.818   2.460
    2PC     O2214690   1.805   1.799   2.422
    3OL     C1214691   1.631   1.726   2.563
    3OL     H2R14692   1.692   1.635   2.560
    3OL     H2S14693   1.531   1.696   2.532
    3OL     C1314694   1.630   1.782   2.706
    3OL     H3R14695   1.562   1.867   2.704
    3OL     H3S14696   1.730   1.818   2.731
    3OL     C1414697   1.571   1.682   2.805
    3OL     H4R14698   1.637   1.596   2.817
    3OL     H4S14699   1.468   1.664   2.771
    3OL     C1514700   1.563   1.734   2.949
    3OL     H5R14701   1.498   1.822   2.952
    3OL     H5S14702   1.658   1.775   2.982
    3OL     C1614703   1.516   1.622   3.044
    3OL     H6R14704   1.586   1.539   3.035
    3OL     H6S14705   1.419   1.584   3.012
    3OL     C1714706   1.510   1.660   3.192
    3OL     H7R14707   1.457   1.754   3.205
    3OL     H7S14708   1.613   1.679   3.223
    3OL     C1814709   1.456   1.541   3.274
    3OL     H8R14710   1.454   1.567   3.380
    3OL     H8S14711   1.523   1.456   3.264
    3OL     C1914712   1.316   1.512   3.227
    3OL     H9R14713   1.236   1.583   3.246
    3OL    C11014714   1.274   1.392   3.191
    3OL    H10R14715   1.168   1.372   3.178
    3OL    C11114716   1.357   1.271   3.157
    3OL    H11R14717   1.465   1.288   3.164
    3OL    H11S14718   1.338   1.239   3.054
    3OL    C11214719   1.327   1.148   3.244
    3OL    H12R14720   1.384   1.061   3.210
    3OL    H12S14721   1.221   1.126   3.229
    3OL    C11314722   1.354   1.167   3.394
    3OL    H13R14723   1.304   1.254   3.436
    3OL    H13S14724   1.462   1.182   3.401
    3OL    C11414725   1.299   1.045   3.470
    3OL    H14R14726   1.329   0.952   3.422
    3OL    H14S14727   1.190   1.044   3.463
    3OL    C11514728   1.345   1.046   3.616
    3OL    H15R14729   1.301   1.141   3.649
    3OL    H15S14730   1.453   1.039   3.627
    3OL    C11614731   1.277   0.939   3.702
    3OL    H16R14732   1.307   0.845   3.655
    3OL    H16S14733   1.168   0.944   3.698
    3OL    C11714734   1.326   0.934   3.848
    3OL    H17R14735   1.311   1.038   3.879
    3OL    H17S14736   1.432   0.924   3.872
    3OL    C11814737   1.233   0.844   3.930
    3OL    H18R14738   1.220   0.746   3.883
    3OL    H18S14739   1.131   0.882   3.943
    3OL    H18T14740   1.276   0.837   4.029
    1PA    C11614741   3.417   2.337   3.659
    1PA    H16R14742   3.382   2.241   3.620
    1PA    H16S14743   3.399   2.411   3.582
    1PA    H16T14744   3.358   2.369   3.745
    1PA    C11514745   3.567   2.331   3.693
    1PA    H15R14746   3.606   2.335   3.592
    1PA    H15S14747   3.588   2.423   3.747
    1PA    C11414748   3.601   2.199   3.764
    1PA    H14R14749   3.535   2.180   3.849
    1PA    H14S14750   3.602   2.116   3.694
    1PA    C11314751   3.743   2.214   3.822
    1PA    H13R14752   3.734   2.301   3.888
    1PA    H13S14753   3.752   2.137   3.899
    1PA    C11214754   3.861   2.207   3.725
    1PA    H12R14755   3.841   2.272   3.640
    1PA    H12S14756   3.940   2.246   3.789
    1PA    C11114757   3.899   2.061   3.696
    1PA    H11R14758   3.929   2.021   3.793
    1PA    H11S14759   3.814   2.006   3.653
    1PA    C11014760   4.013   2.049   3.594
    1PA    H10R14761   3.985   2.091   3.498
    1PA    H10S14762   4.099   2.109   3.625
    1PA     C1914763   4.059   1.902   3.590
    1PA     H9R14764   4.098   1.884   3.690
    1PA     H9S14765   3.973   1.838   3.570
    1PA     C1814766   4.170   1.880   3.486
    1PA     H8R14767   4.263   1.933   3.510
    1PA     H8S14768   4.205   1.777   3.485
    1PA     C1714769   4.130   1.912   3.342
    1PA     H7R14770   4.047   1.856   3.299
    1PA     H7S14771   4.108   2.019   3.333
    1PA     C1614772   4.251   1.903   3.247
    1PA     H6R14773   4.338   1.958   3.281
    1PA     H6S14774   4.284   1.800   3.233
    1PA     C1514775   4.219   1.954   3.106
    1PA     H5R14776   4.147   1.886   3.061
    1PA     H5S14777   4.167   2.051   3.101
    1PA     C1414778   4.348   1.957   3.024
    1PA     H4R14779   4.421   2.026   3.067
    1PA     H4S14780   4.396   1.859   3.023
    1PA     C1314781   4.328   1.980   2.874
    1PA     H3R14782   4.252   1.912   2.833
    1PA     H3S14783   4.288   2.081   2.865
    1PA     C1214784   4.458   1.961   2.796
    1PA     H2R14785   4.528   2.041   2.820
    1PA     H2S14786   4.500   1.864   2.823
    2PC     C1114787   4.435   1.969   2.647
    2PC     O1214788   4.442   1.875   2.571
    2PC     O1114789   4.411   2.093   2.600
    2PC      C114790   4.361   2.121   2.468
    2PC      HR14791   4.309   2.037   2.421
    2PC      HS14792   4.288   2.202   2.475
    2PC      C214793   4.475   2.170   2.378
    2PC      HX14794   4.445   2.238   2.298
    2PC      C314795   4.555   2.055   2.314
    2PC      HA14796   4.626   2.023   2.391
    2PC      HB14797   4.492   1.972   2.282
    2PC     O3114798   4.611   2.109   2.193
    2PC     P3114799   4.727   2.025   2.122
    2PC     O3214800   4.862   2.072   2.195
    2PC     C3114801   4.988   2.046   2.130
    2PC     H1A14802   4.982   1.951   2.077
    2PC     H1B14803   5.001   2.124   2.054
    2PC     C3214804   5.100   2.049   2.235
    2PC     H2A14805   5.084   1.988   2.324
    2PC     H2B14806   5.187   2.010   2.182
    2PC     N3114807   5.142   2.184   2.285
    2PC     C3314808   5.182   2.278   2.176
    2PC     H3A14809   5.271   2.241   2.123
    2PC     H3B14810   5.095   2.285   2.111
    2PC     H3C14811   5.203   2.372   2.226
    2PC     C3414812   5.035   2.251   2.366
    2PC     H4A14813   4.939   2.233   2.318
    2PC     H4B14814   5.037   2.207   2.466
    2PC     H4C14815   5.054   2.358   2.363
    2PC     C3514816   5.261   2.167   2.375
    2PC     H5A14817   5.341   2.138   2.306
    2PC     H5B14818   5.237   2.093   2.451
    2PC     H5C14819   5.283   2.259   2.429
    2PC     O3314820   4.697   1.880   2.122
    2PC     O3414821   4.734   2.078   1.984
    2PC     O2114822   4.566   2.248   2.457
    2PC     C2114823   4.535   2.374   2.491
    2PC     O2214824   4.426   2.421   2.466
    3OL     C1214825   4.643   2.446   2.567
    3OL     H2R14826   4.603   2.546   2.584
    3OL     H2S14827   4.732   2.454   2.503
    3OL     C1314828   4.682   2.378   2.699
    3OL     H3R14829   4.736   2.285   2.678
    3OL     H3S14830   4.599   2.372   2.769
    3OL     C1414831   4.796   2.452   2.772
    3OL     H4R14832   4.792   2.420   2.876
    3OL     H4S14833   4.773   2.559   2.778
    3OL     C1514834   4.938   2.454   2.715
    3OL     H5R14835   4.926   2.503   2.618
    3OL     H5S14836   4.973   2.353   2.696
    3OL     C1614837   5.033   2.537   2.802
    3OL     H6R14838   5.009   2.644   2.810
    3OL     H6S14839   5.134   2.530   2.760
    3OL     C1714840   5.047   2.485   2.946
    3OL     H7R14841   5.061   2.377   2.938
    3OL     H7S14842   4.950   2.497   2.995
    3OL     C1814843   5.160   2.548   3.029
    3OL     H8R14844   5.147   2.656   3.039
    3OL     H8S14845   5.251   2.529   2.971
    3OL     C1914846   5.177   2.488   3.166
    3OL     H9R14847   5.226   2.391   3.171
    3OL    C11014848   5.162   2.551   3.282
    3OL    H10R14849   5.187   2.498   3.373
    3OL    C11114850   5.089   2.681   3.308
    3OL    H11R14851   5.009   2.687   3.234
    3OL    H11S14852   5.151   2.770   3.293
    3OL    C11214853   5.026   2.676   3.447
    3OL    H12R14854   5.104   2.668   3.522
    3OL    H12S14855   4.960   2.590   3.454
    3OL    C11314856   4.954   2.808   3.481
    3OL    H13R14857   4.899   2.844   3.394
    3OL    H13S14858   5.022   2.889   3.509
    3OL    C11414859   4.864   2.794   3.604
    3OL    H14R14860   4.848   2.894   3.645
    3OL    H14S14861   4.913   2.742   3.687
    3OL    C11514862   4.723   2.732   3.597
    3OL    H15R14863   4.732   2.632   3.554
    3OL    H15S14864   4.654   2.793   3.539
    3OL    C11614865   4.664   2.710   3.737
    3OL    H16R14866   4.653   2.807   3.784
    3OL    H16S14867   4.736   2.656   3.799
    3OL    C11714868   4.533   2.629   3.735
    3OL    H17R14869   4.538   2.539   3.674
    3OL    H17S14870   4.461   2.683   3.673
    3OL    C11814871   4.497   2.585   3.877
    3OL    H18R14872   4.498   2.673   3.941
    3OL    H18S14873   4.572   2.515   3.916
    3OL    H18T14874   4.401   2.533   3.874
    1PA    C11614875   3.041   0.804   3.699
    1PA    H16R14876   3.009   0.796   3.803
    1PA    H16S14877   3.141   0.760   3.695
    1PA    H16T14878   2.963   0.756   3.640
    1PA    C11514879   3.055   0.953   3.664
    1PA    H15R14880   2.954   0.992   3.658
    1PA    H15S14881   3.099   1.003   3.751
    1PA    C11414882   3.119   0.980   3.527
    1PA    H14R14883   3.214   0.927   3.519
    1PA    H14S14884   3.049   0.937   3.455
    1PA    C11314885   3.145   1.129   3.497
    1PA    H13R14886   3.198   1.133   3.402
    1PA    H13S14887   3.052   1.184   3.480
    1PA    C11214888   3.227   1.197   3.607
    1PA    H12R14889   3.185   1.202   3.707
    1PA    H12S14890   3.318   1.138   3.622
    1PA    C11114891   3.264   1.340   3.563
    1PA    H11R14892   3.174   1.397   3.585
    1PA    H11S14893   3.335   1.375   3.638
    1PA    C11014894   3.328   1.357   3.425
    1PA    H10R14895   3.394   1.272   3.410
    1PA    H10S14896   3.247   1.343   3.353
    1PA     C1914897   3.404   1.488   3.399
    1PA     H9R14898   3.492   1.508   3.462
    1PA     H9S14899   3.336   1.572   3.411
    1PA     C1814900   3.462   1.489   3.257
    1PA     H8R14901   3.506   1.588   3.240
    1PA     H8S14902   3.545   1.421   3.243
    1PA     C1714903   3.365   1.456   3.142
    1PA     H7R14904   3.264   1.488   3.166
    1PA     H7S14905   3.396   1.519   3.059
    1PA     C1614906   3.389   1.314   3.089
    1PA     H6R14907   3.493   1.307   3.056
    1PA     H6S14908   3.369   1.235   3.162
    1PA     C1514909   3.292   1.289   2.973
    1PA     H5R14910   3.191   1.287   3.014
    1PA     H5S14911   3.294   1.380   2.913
    1PA     C1414912   3.312   1.154   2.902
    1PA     H4R14913   3.416   1.151   2.867
    1PA     H4S14914   3.310   1.070   2.973
    1PA     C1314915   3.197   1.128   2.804
    1PA     H3R14916   3.206   1.020   2.787
    1PA     H3S14917   3.103   1.160   2.850
    1PA     C1214918   3.201   1.203   2.671
    1PA     H2R14919   3.168   1.306   2.682
    1PA     H2S14920   3.302   1.205   2.630
    2PC     C1114921   3.102   1.146   2.572
    2PC     O1214922   3.044   1.040   2.575
    2PC     O1114923   3.110   1.222   2.461
    2PC      C114924   3.051   1.185   2.335
    2PC      HR14925   3.091   1.249   2.256
    2PC      HS14926   3.071   1.078   2.324
    2PC      C214927   2.900   1.211   2.340
    2PC      HX14928   2.854   1.127   2.392
    2PC      C314929   2.842   1.237   2.200
    2PC      HA14930   2.856   1.150   2.135
    2PC      HB14931   2.733   1.246   2.208
    2PC     O3114932   2.902   1.356   2.147
    2PC     P3114933   2.854   1.425   2.010
    2PC     O3214934   2.917   1.320   1.907
    2PC     C3114935   3.058   1.342   1.888
    2PC     H1A14936   3.067   1.424   1.817
    2PC     H1B14937   3.105   1.366   1.983
    2PC     C3214938   3.120   1.218   1.821
    2PC     H2A14939   3.043   1.162   1.769
    2PC     H2B14940   3.186   1.244   1.738
    2PC     N3114941   3.183   1.109   1.902
    2PC     C3314942   3.286   1.159   1.999
    2PC     H3A14943   3.372   1.207   1.952
    2PC     H3B14944   3.234   1.216   2.076
    2PC     H3C14945   3.338   1.073   2.042
    2PC     C3414946   3.071   1.034   1.968
    2PC     H4A14947   3.003   0.982   1.900
    2PC     H4B14948   3.125   0.955   2.019
    2PC     H4C14949   3.036   1.102   2.046
    2PC     C3514950   3.242   1.010   1.806
    2PC     H5A14951   3.334   1.057   1.774
    2PC     H5B14952   3.174   0.981   1.726
    2PC     H5C14953   3.268   0.924   1.868
    2PC     O3314954   2.706   1.419   2.014
    2PC     O3414955   2.900   1.561   1.972
    2PC     O2114956   2.870   1.333   2.411
    2PC     C2114957   2.752   1.379   2.457
    2PC     O2214958   2.660   1.304   2.479
    3OL     C1214959   2.746   1.524   2.496
    3OL     H2R14960   2.645   1.554   2.528
    3OL     H2S14961   2.760   1.585   2.407
    3OL     C1314962   2.841   1.568   2.609
    3OL     H3R14963   2.847   1.677   2.611
    3OL     H3S14964   2.944   1.538   2.589
    3OL     C1414965   2.794   1.509   2.742
    3OL     H4R14966   2.784   1.400   2.734
    3OL     H4S14967   2.696   1.545   2.772
    3OL     C1514968   2.896   1.527   2.856
    3OL     H5R14969   2.911   1.635   2.864
    3OL     H5S14970   2.990   1.481   2.826
    3OL     C1614971   2.874   1.464   2.994
    3OL     H6R14972   2.875   1.355   2.985
    3OL     H6S14973   2.779   1.505   3.028
    3OL     C1714974   2.991   1.499   3.088
    3OL     H7R14975   2.986   1.608   3.092
    3OL     H7S14976   3.083   1.475   3.034
    3OL     C1814977   2.971   1.443   3.229
    3OL     H8R14978   3.053   1.371   3.230
    3OL     H8S14979   2.879   1.385   3.235
    3OL     C1914980   2.989   1.540   3.344
    3OL     H9R14981   3.088   1.584   3.349
    3OL    C11014982   2.895   1.577   3.430
    3OL    H10R14983   2.929   1.650   3.502
    3OL    C11114984   2.752   1.531   3.445
    3OL    H11R14985   2.719   1.463   3.366
    3OL    H11S14986   2.685   1.616   3.458
    3OL    C11214987   2.739   1.464   3.582
    3OL    H12R14988   2.730   1.547   3.653
    3OL    H12S14989   2.833   1.416   3.610
    3OL    C11314990   2.627   1.360   3.593
    3OL    H13R14991   2.642   1.274   3.528
    3OL    H13S14992   2.528   1.399   3.568
    3OL    C11414993   2.610   1.312   3.738
    3OL    H14R14994   2.523   1.247   3.747
    3OL    H14S14995   2.591   1.397   3.804
    3OL    C11514996   2.737   1.247   3.794
    3OL    H15R14997   2.830   1.302   3.807
    3OL    H15S14998   2.777   1.181   3.717
    3OL    C11614999   2.706   1.176   3.927
    3OL    H16R15000   2.624   1.104   3.918
    3OL    H16S15001   2.693   1.256   4.000
    3OL    C11715002   2.827   1.087   3.959
    3OL    H17R15003   2.914   1.152   3.967
    3OL    H17S15004   2.851   1.005   3.890
    3OL    C11815005   2.811   1.022   4.097
    3OL    H18R15006   2.887   0.945   4.113
    3OL    H18S15007   2.711   0.979   4.098
    3OL    H18T15008   2.810   1.101   4.172
    1PA    C11615009   2.230   0.720   3.924
    1PA    H16R15010   2.165   0.695   4.008
    1PA    H16S15011   2.304   0.778   3.980
    1PA    H16T15012   2.274   0.627   3.887
    1PA    C11515013   2.156   0.797   3.814
    1PA    H15R15014   2.119   0.891   3.856
    1PA    H15S15015   2.217   0.820   3.726
    1PA    C11415016   2.040   0.715   3.757
    1PA    H14R15017   2.087   0.626   3.715
    1PA    H14S15018   1.974   0.683   3.838
    1PA    C11315019   1.965   0.779   3.640
    1PA    H13R15020   1.932   0.875   3.680
    1PA    H13S15021   2.030   0.800   3.554
    1PA    C11215022   1.837   0.703   3.602
    1PA    H12R15023   1.862   0.597   3.593
    1PA    H12S15024   1.762   0.710   3.681
    1PA    C11115025   1.787   0.759   3.468
    1PA    H11R15026   1.871   0.775   3.401
    1PA    H11S15027   1.726   0.679   3.424
    1PA    C11015028   1.710   0.891   3.483
    1PA    H10R15029   1.628   0.878   3.553
    1PA    H10S15030   1.780   0.956   3.536
    1PA     C1915031   1.640   0.948   3.358
    1PA     H9R15032   1.558   0.889   3.317
    1PA     H9S15033   1.615   1.053   3.373
    1PA     C1815034   1.745   0.950   3.246
    1PA     H8R15035   1.839   0.999   3.272
    1PA     H8S15036   1.774   0.851   3.210
    1PA     C1715037   1.690   1.023   3.123
    1PA     H7R15038   1.586   0.992   3.108
    1PA     H7S15039   1.682   1.129   3.148
    1PA     C1615040   1.769   0.986   2.997
    1PA     H6R15041   1.875   1.008   3.013
    1PA     H6S15042   1.752   0.881   2.973
    1PA     C1515043   1.726   1.082   2.885
    1PA     H5R15044   1.620   1.068   2.862
    1PA     H5S15045   1.741   1.185   2.916
    1PA     C1415046   1.804   1.044   2.758
    1PA     H4R15047   1.912   1.042   2.776
    1PA     H4S15048   1.777   0.942   2.733
    1PA     C1315049   1.756   1.136   2.645
    1PA     H3R15050   1.769   1.078   2.553
    1PA     H3S15051   1.650   1.157   2.664
    1PA     C1215052   1.850   1.257   2.643
    1PA     H2R15053   1.850   1.312   2.737
    1PA     H2S15054   1.941   1.201   2.617
    2PC     C1115055   1.824   1.353   2.530
    2PC     O1215056   1.715   1.389   2.491
    2PC     O1115057   1.938   1.390   2.468
    2PC      C115058   1.932   1.485   2.360
    2PC      HR15059   1.837   1.472   2.307
    2PC      HS15060   1.940   1.585   2.403
    2PC      C215061   2.055   1.459   2.271
    2PC      HX15062   2.055   1.541   2.199
    2PC      C315063   2.039   1.322   2.203
    2PC      HA15064   2.118   1.313   2.129
    2PC      HB15065   2.043   1.247   2.283
    2PC     O3115066   1.913   1.297   2.137
    2PC     P3115067   1.891   1.357   1.990
    2PC     O3215068   1.868   1.224   1.904
    2PC     C3115069   1.980   1.133   1.899
    2PC     H1A15070   2.065   1.188   1.859
    2PC     H1B15071   1.992   1.099   2.002
    2PC     C3215072   1.942   1.008   1.817
    2PC     H2A15073   2.031   0.945   1.816
    2PC     H2B15074   1.867   0.954   1.874
    2PC     N3115075   1.897   1.018   1.674
    2PC     C3315076   1.759   1.075   1.664
    2PC     H3A15077   1.714   1.070   1.763
    2PC     H3B15078   1.783   1.177   1.633
    2PC     H3C15079   1.698   1.012   1.600
    2PC     C3415080   1.999   1.091   1.592
    2PC     H4A15081   2.094   1.048   1.624
    2PC     H4B15082   1.980   1.065   1.488
    2PC     H4C15083   2.004   1.197   1.618
    2PC     C3515084   1.870   0.878   1.627
    2PC     H5A15085   1.828   0.881   1.527
    2PC     H5B15086   1.804   0.830   1.699
    2PC     H5C15087   1.970   0.833   1.632
    2PC     O3315088   1.772   1.445   1.987
    2PC     O3415089   2.000   1.445   1.940
    2PC     O2115090   2.172   1.456   2.354
    2PC     C2115091   2.214   1.558   2.432
    2PC     O2215092   2.153   1.663   2.433
    3OL     C1215093   2.341   1.525   2.506
    3OL     H2R15094   2.379   1.616   2.553
    3OL     H2S15095   2.408   1.509   2.422
    3OL     C1315096   2.329   1.406   2.603
    3OL     H3R15097   2.424   1.401   2.657
    3OL     H3S15098   2.314   1.307   2.560
    3OL     C1415099   2.229   1.441   2.714
    3OL     H4R15100   2.135   1.443   2.657
    3OL     H4S15101   2.252   1.536   2.763
    3OL     C1515102   2.220   1.324   2.812
    3OL     H5R15103   2.196   1.233   2.757
    3OL     H5S15104   2.129   1.337   2.871
    3OL     C1615105   2.332   1.311   2.917
    3OL     H6R15106   2.324   1.389   2.993
    3OL     H6S15107   2.424   1.338   2.865
    3OL     C1715108   2.355   1.171   2.976
    3OL     H7R15109   2.448   1.177   3.033
    3OL     H7S15110   2.360   1.101   2.893
    3OL     C1815111   2.241   1.118   3.064
    3OL     H8R15112   2.260   1.014   3.092
    3OL     H8S15113   2.144   1.116   3.015
    3OL     C1915114   2.212   1.200   3.187
    3OL     H9R15115   2.223   1.306   3.165
    3OL    C11015116   2.169   1.169   3.309
    3OL    H10R15117   2.159   1.242   3.389
    3OL    C11115118   2.155   1.031   3.368
    3OL    H11R15119   2.178   0.947   3.302
    3OL    H11S15120   2.051   1.025   3.401
    3OL    C11215121   2.247   1.016   3.490
    3OL    H12R15122   2.240   0.915   3.529
    3OL    H12S15123   2.218   1.095   3.560
    3OL    C11315124   2.395   1.025   3.447
    3OL    H13R15125   2.426   1.119   3.403
    3OL    H13S15126   2.412   0.956   3.364
    3OL    C11415127   2.482   0.995   3.570
    3OL    H14R15128   2.422   1.031   3.655
    3OL    H14S15129   2.570   1.059   3.572
    3OL    C11515130   2.516   0.846   3.580
    3OL    H15R15131   2.570   0.820   3.489
    3OL    H15S15132   2.424   0.786   3.578
    3OL    C11615133   2.586   0.805   3.710
    3OL    H16R15134   2.525   0.833   3.796
    3OL    H16S15135   2.673   0.871   3.717
    3OL    C11715136   2.631   0.658   3.705
    3OL    H17R15137   2.694   0.659   3.615
    3OL    H17S15138   2.547   0.591   3.690
    3OL    C11815139   2.705   0.624   3.835
    3OL    H18R15140   2.717   0.515   3.838
    3OL    H18S15141   2.645   0.660   3.919
    3OL    H18T15142   2.802   0.674   3.835
    1PA    C11615143   4.720   5.187   4.564
    1PA    H16R15144   4.646   5.107   4.570
    1PA    H16S15145   4.661   5.277   4.546
    1PA    H16T15146   4.759   5.188   4.666
    1PA    C11515147   4.825   5.140   4.462
    1PA    H15R15148   4.904   5.214   4.445
    1PA    H15S15149   4.870   5.048   4.498
    1PA    C11415150   4.760   5.121   4.324
    1PA    H14R15151   4.692   5.036   4.331
    1PA    H14S15152   4.705   5.211   4.296
    1PA    C11315153   4.872   5.086   4.225
    1PA    H13R15154   4.941   5.169   4.212
    1PA    H13S15155   4.931   5.001   4.262
    1PA    C11215156   4.809   5.056   4.088
    1PA    H12R15157   4.729   4.985   4.110
    1PA    H12S15158   4.775   5.152   4.048
    1PA    C11115159   4.912   4.991   3.994
    1PA    H11R15160   5.001   5.054   3.985
    1PA    H11S15161   4.947   4.905   4.050
    1PA    C11015162   4.853   4.968   3.854
    1PA    H10R15163   4.774   4.893   3.864
    1PA    H10S15164   4.802   5.056   3.814
    1PA     C1915165   4.952   4.922   3.746
    1PA     H9R15166   5.023   5.002   3.725
    1PA     H9S15167   5.009   4.837   3.784
    1PA     C1815168   4.878   4.881   3.618
    1PA     H8R15169   4.794   4.948   3.597
    1PA     H8S15170   4.957   4.891   3.543
    1PA     C1715171   4.812   4.743   3.622
    1PA     H7R15172   4.888   4.678   3.667
    1PA     H7S15173   4.730   4.750   3.694
    1PA     C1615174   4.772   4.696   3.482
    1PA     H6R15175   4.692   4.623   3.495
    1PA     H6S15176   4.715   4.781   3.443
    1PA     C1515177   4.889   4.641   3.398
    1PA     H5R15178   4.971   4.713   3.394
    1PA     H5S15179   4.936   4.556   3.448
    1PA     C1415180   4.845   4.588   3.261
    1PA     H4R15181   4.929   4.543   3.208
    1PA     H4S15182   4.771   4.511   3.285
    1PA     C1315183   4.781   4.691   3.167
    1PA     H3R15184   4.752   4.645   3.072
    1PA     H3S15185   4.698   4.745   3.214
    1PA     C1215186   4.892   4.787   3.122
    1PA     H2R15187   4.925   4.858   3.198
    1PA     H2S15188   4.983   4.735   3.094
    2PC     C1115189   4.861   4.862   2.995
    2PC     O1215190   4.750   4.888   2.953
    2PC     O1115191   4.976   4.897   2.935
    2PC      C115192   4.957   4.994   2.830
    2PC      HR15193   4.907   4.922   2.765
    2PC      HS15194   4.886   5.072   2.860
    2PC      C215195   5.091   5.048   2.778
    2PC      HX15196   5.071   5.126   2.705
    2PC      C315197   5.171   4.939   2.704
    2PC      HA15198   5.243   4.890   2.769
    2PC      HB15199   5.111   4.861   2.656
    2PC     O3115200   5.250   5.007   2.605
    2PC     P3115201   5.315   4.922   2.485
    2PC     O3215202   5.367   5.034   2.383
    2PC     C3115203   5.292   5.056   2.262
    2PC     H1A15204   5.263   4.962   2.216
    2PC     H1B15205   5.204   5.115   2.290
    2PC     C3215206   5.367   5.142   2.160
    2PC     H2A15207   5.299   5.164   2.078
    2PC     H2B15208   5.403   5.230   2.215
    2PC     N3115209   5.480   5.068   2.095
    2PC     C3315210   5.560   5.162   2.010
    2PC     H3A15211   5.492   5.206   1.936
    2PC     H3B15212   5.610   5.237   2.072
    2PC     H3C15213   5.634   5.103   1.956
    2PC     C3415214   5.580   5.008   2.189
    2PC     H4A15215   5.531   4.923   2.237
    2PC     H4B15216   5.659   4.977   2.121
    2PC     H4C15217   5.608   5.082   2.264
    2PC     C3515218   5.437   4.951   2.012
    2PC     H5A15219   5.392   4.999   1.924
    2PC     H5B15220   5.371   4.891   2.074
    2PC     H5C15221   5.518   4.885   1.981
    2PC     O3315222   5.423   4.838   2.543
    2PC     O3415223   5.217   4.831   2.422
    2PC     O2115224   5.173   5.104   2.882
    2PC     C2115225   5.123   5.209   2.949
    2PC     O2215226   5.034   5.282   2.911
    3OL     C1215227   5.194   5.219   3.081
    3OL     H2R15228   5.186   5.323   3.114
    3OL     H2S15229   5.302   5.203   3.075
    3OL     C1315230   5.140   5.117   3.182
    3OL     H3R15231   5.155   5.011   3.161
    3OL     H3S15232   5.033   5.137   3.185
    3OL     C1415233   5.191   5.149   3.324
    3OL     H4R15234   5.163   5.252   3.346
    3OL     H4S15235   5.300   5.143   3.322
    3OL     C1515236   5.122   5.049   3.417
    3OL     H5R15237   5.022   5.029   3.378
    3OL     H5S15238   5.113   5.097   3.515
    3OL     C1615239   5.191   4.912   3.423
    3OL     H6R15240   5.149   4.848   3.345
    3OL     H6S15241   5.156   4.862   3.513
    3OL     C1715242   5.344   4.895   3.433
    3OL     H7R15243   5.382   4.946   3.521
    3OL     H7S15244   5.388   4.936   3.343
    3OL     C1815245   5.385   4.747   3.433
    3OL     H8R15246   5.489   4.728   3.457
    3OL     H8S15247   5.383   4.709   3.330
    3OL     C1915248   5.315   4.651   3.526
    3OL     H9R15249   5.251   4.583   3.470
    3OL    C11015250   5.318   4.645   3.658
    3OL    H10R15251   5.241   4.591   3.712
    3OL    C11115252   5.401   4.740   3.741
    3OL    H11R15253   5.468   4.795   3.675
    3OL    H11S15254   5.457   4.679   3.812
    3OL    C11215255   5.315   4.845   3.814
    3OL    H12R15256   5.256   4.798   3.893
    3OL    H12S15257   5.252   4.880   3.732
    3OL    C11315258   5.409   4.943   3.884
    3OL    H13R15259   5.477   4.985   3.810
    3OL    H13S15260   5.474   4.886   3.951
    3OL    C11415261   5.342   5.060   3.958
    3OL    H14R15262   5.423   5.094   4.022
    3OL    H14S15263   5.259   5.019   4.016
    3OL    C11515264   5.289   5.170   3.864
    3OL    H15R15265   5.221   5.139   3.785
    3OL    H15S15266   5.376   5.221   3.822
    3OL    C11615267   5.214   5.271   3.953
    3OL    H16R15268   5.283   5.299   4.033
    3OL    H16S15269   5.137   5.223   4.014
    3OL    C11715270   5.150   5.376   3.862
    3OL    H17R15271   5.225   5.429   3.803
    3OL    H17S15272   5.108   5.448   3.932
    3OL    C11815273   5.029   5.340   3.774
    3OL    H18R15274   5.013   5.426   3.708
    3OL    H18S15275   4.931   5.349   3.822
    3OL    H18T15276   5.041   5.245   3.722
    1PA    C11615277   4.400   0.964   4.347
    1PA    H16R15278   4.476   0.908   4.292
    1PA    H16S15279   4.374   0.888   4.422
    1PA    H16T15280   4.448   1.053   4.388
    1PA    C11515281   4.289   1.012   4.252
    1PA    H15R15282   4.237   0.931   4.202
    1PA    H15S15283   4.216   1.067   4.311
    1PA    C11415284   4.330   1.104   4.136
    1PA    H14R15285   4.254   1.181   4.121
    1PA    H14S15286   4.425   1.153   4.158
    1PA    C11315287   4.378   1.019   4.018
    1PA    H13R15288   4.473   0.971   4.044
    1PA    H13S15289   4.305   0.942   3.994
    1PA    C11215290   4.404   1.110   3.897
    1PA    H12R15291   4.312   1.152   3.858
    1PA    H12S15292   4.473   1.189   3.929
    1PA    C11115293   4.465   1.030   3.781
    1PA    H11R15294   4.559   0.987   3.818
    1PA    H11S15295   4.395   0.952   3.750
    1PA    C11015296   4.509   1.116   3.662
    1PA    H10R15297   4.419   1.172   3.636
    1PA    H10S15298   4.592   1.180   3.696
    1PA     C1915299   4.563   1.029   3.548
    1PA     H9R15300   4.632   0.956   3.590
    1PA     H9S15301   4.485   0.967   3.503
    1PA     C1815302   4.619   1.122   3.439
    1PA     H8R15303   4.536   1.177   3.395
    1PA     H8S15304   4.693   1.181   3.493
    1PA     C1715305   4.684   1.036   3.329
    1PA     H7R15306   4.758   0.965   3.366
    1PA     H7S15307   4.614   0.972   3.275
    1PA     C1615308   4.751   1.138   3.235
    1PA     H6R15309   4.674   1.198   3.186
    1PA     H6S15310   4.815   1.199   3.300
    1PA     C1515311   4.825   1.062   3.125
    1PA     H5R15312   4.908   1.001   3.161
    1PA     H5S15313   4.757   0.998   3.068
    1PA     C1415314   4.886   1.170   3.034
    1PA     H4R15315   4.811   1.242   3.002
    1PA     H4S15316   4.961   1.240   3.072
    1PA     C1315317   4.942   1.107   2.905
    1PA     H3R15318   4.991   1.013   2.931
    1PA     H3S15319   4.866   1.080   2.831
    1PA     C1215320   5.040   1.203   2.837
    1PA     H2R15321   5.002   1.304   2.856
    1PA     H2S15322   5.143   1.200   2.873
    2PC     C1115323   5.043   1.192   2.687
    2PC     O1215324   5.065   1.098   2.613
    2PC     O1115325   5.005   1.303   2.621
    2PC      C115326   4.972   1.307   2.481
    2PC      HR15327   5.000   1.408   2.449
    2PC      HS15328   5.025   1.228   2.427
    2PC      C215329   4.822   1.275   2.485
    2PC      HX15330   4.794   1.188   2.544
    2PC      C315331   4.780   1.254   2.339
    2PC      HA15332   4.773   1.349   2.284
    2PC      HB15333   4.857   1.195   2.290
    2PC     O3115334   4.657   1.180   2.339
    2PC     P3115335   4.599   1.141   2.195
    2PC     O3215336   4.501   1.017   2.221
    2PC     C3115337   4.362   1.052   2.231
    2PC     H1A15338   4.353   1.143   2.290
    2PC     H1B15339   4.326   1.067   2.129
    2PC     C3215340   4.300   0.930   2.301
    2PC     H2A15341   4.301   0.840   2.239
    2PC     H2B15342   4.351   0.916   2.397
    2PC     N3115343   4.155   0.945   2.337
    2PC     C3315344   4.120   0.820   2.413
    2PC     H3A15345   4.172   0.811   2.508
    2PC     H3B15346   4.011   0.817   2.419
    2PC     H3C15347   4.149   0.731   2.356
    2PC     C3415348   4.135   1.056   2.436
    2PC     H4A15349   4.208   1.049   2.517
    2PC     H4B15350   4.146   1.155   2.392
    2PC     H4C15351   4.033   1.058   2.473
    2PC     C3515352   4.065   0.947   2.217
    2PC     H5A15353   4.096   1.030   2.154
    2PC     H5B15354   3.962   0.960   2.251
    2PC     H5C15355   4.072   0.851   2.166
    2PC     O3315356   4.534   1.255   2.126
    2PC     O3415357   4.706   1.101   2.100
    2PC     O2115358   4.755   1.393   2.534
    2PC     C2115359   4.717   1.401   2.663
    2PC     O2215360   4.753   1.321   2.747
    3OL     C1215361   4.628   1.521   2.680
    3OL     H2R15362   4.577   1.534   2.584
    3OL     H2S15363   4.695   1.605   2.698
    3OL     C1315364   4.521   1.504   2.788
    3OL     H3R15365   4.471   1.407   2.784
    3OL     H3S15366   4.450   1.585   2.774
    3OL     C1415367   4.572   1.525   2.932
    3OL     H4R15368   4.610   1.626   2.945
    3OL     H4S15369   4.651   1.453   2.953
    3OL     C1515370   4.462   1.496   3.035
    3OL     H5R15371   4.411   1.400   3.020
    3OL     H5S15372   4.382   1.567   3.016
    3OL     C1615373   4.527   1.486   3.174
    3OL     H6R15374   4.591   1.574   3.187
    3OL     H6S15375   4.593   1.400   3.187
    3OL     C1715376   4.417   1.498   3.280
    3OL     H7R15377   4.350   1.412   3.274
    3OL     H7S15378   4.352   1.584   3.260
    3OL     C1815379   4.476   1.494   3.421
    3OL     H8R15380   4.564   1.558   3.428
    3OL     H8S15381   4.511   1.392   3.439
    3OL     C1915382   4.381   1.536   3.531
    3OL     H9R15383   4.274   1.539   3.514
    3OL    C11015384   4.421   1.561   3.655
    3OL    H10R15385   4.349   1.603   3.724
    3OL    C11115386   4.564   1.562   3.704
    3OL    H11R15387   4.598   1.664   3.719
    3OL    H11S15388   4.628   1.519   3.627
    3OL    C11215389   4.573   1.495   3.843
    3OL    H12R15390   4.509   1.408   3.856
    3OL    H12S15391   4.542   1.573   3.913
    3OL    C11315392   4.720   1.459   3.864
    3OL    H13R15393   4.789   1.540   3.839
    3OL    H13S15394   4.752   1.374   3.804
    3OL    C11415395   4.744   1.430   4.013
    3OL    H14R15396   4.674   1.349   4.033
    3OL    H14S15397   4.717   1.519   4.071
    3OL    C11515398   4.894   1.405   4.037
    3OL    H15R15399   4.965   1.479   4.001
    3OL    H15S15400   4.921   1.322   3.973
    3OL    C11615401   4.937   1.377   4.182
    3OL    H16R15402   4.875   1.442   4.244
    3OL    H16S15403   5.039   1.416   4.186
    3OL    C11715404   4.921   1.231   4.227
    3OL    H17R15405   4.961   1.215   4.327
    3OL    H17S15406   4.979   1.168   4.160
    3OL    C11815407   4.776   1.183   4.241
    3OL    H18R15408   4.767   1.098   4.309
    3OL    H18S15409   4.728   1.162   4.144
    3OL    H18T15410   4.726   1.267   4.290
    1PA    C11615411   5.804   2.825   4.377
    1PA    H16R15412   5.884   2.805   4.449
    1PA    H16S15413   5.755   2.730   4.353
    1PA    H16T15414   5.720   2.879   4.422
    1PA    C11515415   5.852   2.899   4.252
    1PA    H15R15416   5.768   2.935   4.192
    1PA    H15S15417   5.907   2.985   4.291
    1PA    C11415418   5.935   2.812   4.156
    1PA    H14R15419   6.030   2.797   4.207
    1PA    H14S15420   5.905   2.708   4.141
    1PA    C11315421   5.968   2.877   4.021
    1PA    H13R15422   6.020   2.802   3.960
    1PA    H13S15423   5.876   2.908   3.971
    1PA    C11215424   6.063   2.997   4.033
    1PA    H12R15425   6.057   3.054   3.940
    1PA    H12S15426   6.027   3.062   4.113
    1PA    C11115427   6.212   2.970   4.057
    1PA    H11R15428   6.262   3.064   4.080
    1PA    H11S15429   6.224   2.915   4.151
    1PA    C11015430   6.283   2.906   3.937
    1PA    H10R15431   6.228   2.812   3.927
    1PA    H10S15432   6.277   2.968   3.847
    1PA     C1915433   6.433   2.886   3.961
    1PA     H9R15434   6.477   2.968   4.019
    1PA     H9S15435   6.448   2.803   4.030
    1PA     C1815436   6.523   2.869   3.838
    1PA     H8R15437   6.497   2.946   3.764
    1PA     H8S15438   6.627   2.888   3.863
    1PA     C1715439   6.513   2.725   3.784
    1PA     H7R15440   6.546   2.649   3.854
    1PA     H7S15441   6.413   2.688   3.760
    1PA     C1615442   6.606   2.703   3.664
    1PA     H6R15443   6.705   2.735   3.696
    1PA     H6S15444   6.593   2.595   3.653
    1PA     C1515445   6.552   2.771   3.538
    1PA     H5R15446   6.463   2.717   3.506
    1PA     H5S15447   6.509   2.870   3.552
    1PA     C1415448   6.646   2.749   3.418
    1PA     H4R15449   6.749   2.777   3.439
    1PA     H4S15450   6.660   2.643   3.395
    1PA     C1315451   6.595   2.840   3.305
    1PA     H3R15452   6.486   2.838   3.297
    1PA     H3S15453   6.628   2.940   3.334
    1PA     C1215454   6.667   2.811   3.172
    1PA     H2R15455   6.742   2.888   3.154
    1PA     H2S15456   6.725   2.719   3.173
    2PC     C1115457   6.579   2.801   3.050
    2PC     O1215458   6.496   2.886   3.028
    2PC     O1115459   6.588   2.686   2.981
    2PC      C115460   6.494   2.657   2.877
    2PC      HR15461   6.392   2.671   2.913
    2PC      HS15462   6.514   2.722   2.791
    2PC      C215463   6.519   2.512   2.835
    2PC      HX15464   6.612   2.473   2.878
    2PC      C315465   6.532   2.504   2.682
    2PC      HA15466   6.616   2.566   2.652
    2PC      HB15467   6.556   2.401   2.655
    2PC     O3115468   6.414   2.549   2.613
    2PC     P3115469   6.397   2.496   2.463
    2PC     O3215470   6.311   2.367   2.504
    2PC     C3115471   6.199   2.320   2.426
    2PC     H1A15472   6.146   2.238   2.475
    2PC     H1B15473   6.125   2.398   2.410
    2PC     C3215474   6.259   2.265   2.295
    2PC     H2A15475   6.309   2.341   2.234
    2PC     H2B15476   6.335   2.198   2.334
    2PC     N3115477   6.175   2.196   2.192
    2PC     C3315478   6.099   2.300   2.114
    2PC     H3A15479   6.044   2.370   2.176
    2PC     H3B15480   6.166   2.358   2.050
    2PC     H3C15481   6.026   2.243   2.056
    2PC     C3415482   6.268   2.114   2.108
    2PC     H4A15483   6.220   2.086   2.013
    2PC     H4B15484   6.358   2.174   2.100
    2PC     H4C15485   6.291   2.029   2.173
    2PC     C3515486   6.080   2.096   2.250
    2PC     H5A15487   6.136   2.012   2.291
    2PC     H5B15488   6.020   2.067   2.163
    2PC     H5C15489   6.017   2.141   2.326
    2PC     O3315490   6.324   2.600   2.387
    2PC     O3415491   6.519   2.460   2.387
    2PC     O2115492   6.402   2.442   2.881
    2PC     C2115493   6.393   2.308   2.886
    2PC     O2215494   6.487   2.235   2.858
    3OL     C1215495   6.258   2.264   2.936
    3OL     H2R15496   6.189   2.291   2.856
    3OL     H2S15497   6.239   2.328   3.022
    3OL     C1315498   6.252   2.119   2.988
    3OL     H3R15499   6.345   2.097   3.041
    3OL     H3S15500   6.258   2.059   2.897
    3OL     C1415501   6.120   2.081   3.057
    3OL     H4R15502   6.038   2.106   2.989
    3OL     H4S15503   6.094   2.140   3.145
    3OL     C1515504   6.108   1.939   3.115
    3OL     H5R15505   6.190   1.924   3.185
    3OL     H5S15506   6.121   1.870   3.031
    3OL     C1615507   5.971   1.919   3.181
    3OL     H6R15508   5.960   1.816   3.216
    3OL     H6S15509   5.900   1.921   3.097
    3OL     C1715510   5.932   2.013   3.295
    3OL     H7R15511   5.838   1.972   3.332
    3OL     H7S15512   5.900   2.114   3.268
    3OL     C1815513   6.035   2.021   3.408
    3OL     H8R15514   6.002   2.097   3.480
    3OL     H8S15515   6.132   2.047   3.366
    3OL     C1915516   6.044   1.888   3.479
    3OL     H9R15517   5.965   1.815   3.458
    3OL    C11015518   6.142   1.846   3.557
    3OL    H10R15519   6.147   1.746   3.597
    3OL    C11115520   6.263   1.924   3.604
    3OL    H11R15521   6.311   1.988   3.530
    3OL    H11S15522   6.340   1.864   3.653
    3OL    C11215523   6.210   2.016   3.715
    3OL    H12R15524   6.129   1.966   3.768
    3OL    H12S15525   6.179   2.114   3.678
    3OL    C11315526   6.314   2.054   3.822
    3OL    H13R15527   6.278   2.145   3.870
    3OL    H13S15528   6.408   2.085   3.776
    3OL    C11415529   6.346   1.934   3.913
    3OL    H14R15530   6.387   1.855   3.850
    3OL    H14S15531   6.251   1.891   3.945
    3OL    C11515532   6.437   1.972   4.031
    3OL    H15R15533   6.528   2.018   3.991
    3OL    H15S15534   6.458   1.875   4.077
    3OL    C11615535   6.378   2.075   4.127
    3OL    H16R15536   6.384   2.174   4.082
    3OL    H16S15537   6.441   2.073   4.217
    3OL    C11715538   6.236   2.042   4.173
    3OL    H17R15539   6.234   2.085   4.274
    3OL    H17S15540   6.208   1.936   4.177
    3OL    C11815541   6.122   2.109   4.095
    3OL    H18R15542   6.098   2.042   4.012
    3OL    H18S15543   6.150   2.204   4.051
    3OL    H18T15544   6.027   2.121   4.149
    1PA    C11615545   5.335   6.672   3.834
    1PA    H16R15546   5.297   6.612   3.750
    1PA    H16S15547   5.413   6.740   3.799
    1PA    H16T15548   5.252   6.735   3.867
    1PA    C11515549   5.386   6.577   3.943
    1PA    H15R15550   5.417   6.632   4.032
    1PA    H15S15551   5.314   6.499   3.968
    1PA    C11415552   5.512   6.507   3.888
    1PA    H14R15553   5.483   6.462   3.793
    1PA    H14S15554   5.593   6.575   3.861
    1PA    C11315555   5.567   6.398   3.981
    1PA    H13R15556   5.676   6.401   3.983
    1PA    H13S15557   5.531   6.418   4.082
    1PA    C11215558   5.506   6.259   3.955
    1PA    H12R15559   5.405   6.257   3.996
    1PA    H12S15560   5.489   6.236   3.850
    1PA    C11115561   5.589   6.148   4.020
    1PA    H11R15562   5.685   6.138   3.970
    1PA    H11S15563   5.590   6.167   4.128
    1PA    C11015564   5.519   6.013   3.995
    1PA    H10R15565   5.553   5.946   4.073
    1PA    H10S15566   5.411   6.025   4.006
    1PA     C1915567   5.543   5.951   3.857
    1PA     H9R15568   5.513   6.021   3.779
    1PA     H9S15569   5.648   5.921   3.851
    1PA     C1815570   5.447   5.833   3.838
    1PA     H8R15571   5.452   5.760   3.919
    1PA     H8S15572   5.348   5.880   3.829
    1PA     C1715573   5.483   5.767   3.704
    1PA     H7R15574   5.396   5.730   3.649
    1PA     H7S15575   5.533   5.844   3.645
    1PA     C1615576   5.581   5.653   3.732
    1PA     H6R15577   5.684   5.684   3.754
    1PA     H6S15578   5.549   5.587   3.813
    1PA     C1515579   5.586   5.576   3.598
    1PA     H5R15580   5.485   5.553   3.566
    1PA     H5S15581   5.629   5.630   3.513
    1PA     C1415582   5.671   5.449   3.607
    1PA     H4R15583   5.769   5.480   3.644
    1PA     H4S15584   5.623   5.387   3.683
    1PA     C1315585   5.691   5.376   3.474
    1PA     H3R15586   5.592   5.362   3.429
    1PA     H3S15587   5.740   5.447   3.407
    1PA     C1215588   5.781   5.255   3.499
    1PA     H2R15589   5.876   5.286   3.544
    1PA     H2S15590   5.750   5.197   3.587
    2PC     C1115591   5.783   5.161   3.381
    2PC     O1215592   5.683   5.111   3.335
    2PC     O1115593   5.894   5.151   3.306
    2PC      C115594   5.883   5.090   3.176
    2PC      HR15595   5.979   5.043   3.155
    2PC      HS15596   5.814   5.006   3.184
    2PC      C215597   5.834   5.190   3.071
    2PC      HX15598   5.731   5.214   3.098
    2PC      C315599   5.839   5.138   2.927
    2PC      HA15600   5.781   5.047   2.909
    2PC      HB15601   5.791   5.211   2.861
    2PC     O3115602   5.975   5.110   2.888
    2PC     P3115603   6.008   5.087   2.733
    2PC     O3215604   5.959   4.935   2.728
    2PC     C3115605   6.019   4.847   2.631
    2PC     H1A15606   6.020   4.894   2.532
    2PC     H1B15607   6.124   4.830   2.655
    2PC     C3215608   5.946   4.712   2.636
    2PC     H2A15609   5.968   4.677   2.535
    2PC     H2B15610   5.986   4.644   2.711
    2PC     N3115611   5.796   4.710   2.642
    2PC     C3315612   5.727   4.812   2.557
    2PC     H3A15613   5.772   4.809   2.458
    2PC     H3B15614   5.622   4.785   2.546
    2PC     H3C15615   5.735   4.908   2.610
    2PC     C3415616   5.765   4.576   2.582
    2PC     H4A15617   5.786   4.594   2.476
    2PC     H4B15618   5.839   4.502   2.614
    2PC     H4C15619   5.661   4.555   2.608
    2PC     C3515620   5.735   4.708   2.779
    2PC     H5A15621   5.761   4.618   2.834
    2PC     H5B15622   5.626   4.708   2.780
    2PC     H5C15623   5.780   4.793   2.831
    2PC     O3315624   5.941   5.183   2.643
    2PC     O3415625   6.153   5.114   2.745
    2PC     O2115626   5.910   5.312   3.081
    2PC     C2115627   5.860   5.428   3.036
    2PC     O2215628   5.759   5.439   2.970
    3OL     C1215629   5.948   5.542   3.081
    3OL     H2R15630   5.945   5.624   3.008
    3OL     H2S15631   6.054   5.514   3.077
    3OL     C1315632   5.888   5.597   3.211
    3OL     H3R15633   5.909   5.524   3.289
    3OL     H3S15634   5.780   5.608   3.201
    3OL     C1415635   5.946   5.733   3.253
    3OL     H4R15636   5.937   5.804   3.170
    3OL     H4S15637   6.049   5.714   3.283
    3OL     C1515638   5.859   5.794   3.363
    3OL     H5R15639   5.872   5.727   3.448
    3OL     H5S15640   5.754   5.788   3.332
    3OL     C1615641   5.913   5.934   3.396
    3OL     H6R15642   5.921   5.996   3.306
    3OL     H6S15643   6.014   5.927   3.436
    3OL     C1715644   5.819   5.996   3.501
    3OL     H7R15645   5.829   5.930   3.588
    3OL     H7S15646   5.722   6.007   3.454
    3OL     C1815647   5.871   6.134   3.544
    3OL     H8R15648   5.866   6.197   3.455
    3OL     H8S15649   5.977   6.132   3.571
    3OL     C1915650   5.800   6.189   3.665
    3OL     H9R15651   5.814   6.131   3.755
    3OL    C11015652   5.749   6.311   3.671
    3OL    H10R15653   5.720   6.353   3.767
    3OL    C11115654   5.735   6.412   3.560
    3OL    H11R15655   5.635   6.430   3.521
    3OL    H11S15656   5.786   6.382   3.468
    3OL    C11215657   5.785   6.550   3.605
    3OL    H12R15658   5.893   6.552   3.623
    3OL    H12S15659   5.730   6.577   3.696
    3OL    C11315660   5.777   6.654   3.493
    3OL    H13R15661   5.775   6.600   3.398
    3OL    H13S15662   5.867   6.715   3.494
    3OL    C11415663   5.652   6.742   3.508
    3OL    H14R15664   5.652   6.775   3.612
    3OL    H14S15665   5.557   6.690   3.499
    3OL    C11515666   5.661   6.862   3.413
    3OL    H15R15667   5.661   6.818   3.313
    3OL    H15S15668   5.757   6.912   3.427
    3OL    C11615669   5.542   6.960   3.418
    3OL    H16R15670   5.534   7.011   3.321
    3OL    H16S15671   5.560   7.037   3.493
    3OL    C11715672   5.405   6.892   3.423
    3OL    H17R15673   5.397   6.823   3.508
    3OL    H17S15674   5.399   6.831   3.333
    3OL    C11815675   5.290   6.992   3.444
    3OL    H18R15676   5.312   7.078   3.379
    3OL    H18S15677   5.289   7.022   3.549
    3OL    H18T15678   5.197   6.947   3.409
    1PA    C11615679   1.852   1.328   3.851
    1PA    H16R15680   1.795   1.412   3.892
    1PA    H16S15681   1.918   1.363   3.772
    1PA    H16T15682   1.908   1.280   3.931
    1PA    C11515683   1.751   1.235   3.782
    1PA    H15R15684   1.806   1.166   3.718
    1PA    H15S15685   1.691   1.186   3.859
    1PA    C11415686   1.652   1.320   3.700
    1PA    H14R15687   1.578   1.252   3.658
    1PA    H14S15688   1.598   1.382   3.772
    1PA    C11315689   1.709   1.416   3.595
    1PA    H13R15690   1.643   1.500   3.571
    1PA    H13S15691   1.801   1.465   3.630
    1PA    C11215692   1.760   1.342   3.471
    1PA    H12R15693   1.834   1.271   3.510
    1PA    H12S15694   1.675   1.290   3.428
    1PA    C11115695   1.832   1.437   3.374
    1PA    H11R15696   1.771   1.526   3.353
    1PA    H11S15697   1.926   1.468   3.420
    1PA    C11015698   1.854   1.358   3.245
    1PA    H10R15699   1.907   1.264   3.265
    1PA    H10S15700   1.761   1.333   3.194
    1PA     C1915701   1.950   1.426   3.145
    1PA     H9R15702   2.052   1.405   3.178
    1PA     H9S15703   1.937   1.380   3.047
    1PA     C1815704   1.930   1.578   3.137
    1PA     H8R15705   1.824   1.592   3.114
    1PA     H8S15706   1.947   1.626   3.233
    1PA     C1715707   2.027   1.638   3.034
    1PA     H7R15708   2.126   1.602   3.064
    1PA     H7S15709   2.009   1.610   2.930
    1PA     C1615710   2.017   1.792   3.035
    1PA     H6R15711   1.914   1.820   3.015
    1PA     H6S15712   2.041   1.827   3.135
    1PA     C1515713   2.098   1.863   2.925
    1PA     H5R15714   2.101   1.969   2.948
    1PA     H5S15715   2.204   1.834   2.927
    1PA     C1415716   2.030   1.865   2.788
    1PA     H4R15717   2.022   1.762   2.750
    1PA     H4S15718   1.940   1.924   2.806
    1PA     C1315719   2.119   1.947   2.694
    1PA     H3R15720   2.146   2.042   2.742
    1PA     H3S15721   2.212   1.892   2.678
    1PA     C1215722   2.066   1.974   2.553
    1PA     H2R15723   2.062   1.875   2.507
    1PA     H2S15724   1.962   2.006   2.553
    2PC     C1115725   2.164   2.061   2.478
    2PC     O1215726   2.140   2.160   2.412
    2PC     O1115727   2.291   2.018   2.489
    2PC      C115728   2.388   2.066   2.394
    2PC      HR15729   2.470   1.996   2.377
    2PC      HS15730   2.339   2.060   2.296
    2PC      C215731   2.451   2.202   2.426
    2PC      HX15732   2.367   2.265   2.457
    2PC      C315733   2.528   2.262   2.307
    2PC      HA15734   2.458   2.289   2.228
    2PC      HB15735   2.581   2.354   2.329
    2PC     O3115736   2.625   2.167   2.259
    2PC     P3115737   2.710   2.211   2.130
    2PC     O3215738   2.609   2.182   2.010
    2PC     C3115739   2.587   2.046   1.968
    2PC     H1A15740   2.682   1.996   1.950
    2PC     H1B15741   2.538   1.989   2.047
    2PC     C3215742   2.504   2.051   1.839
    2PC     H2A15743   2.539   2.119   1.761
    2PC     H2B15744   2.513   1.955   1.788
    2PC     N3115745   2.355   2.069   1.845
    2PC     C3315746   2.319   2.202   1.905
    2PC     H3A15747   2.211   2.210   1.913
    2PC     H3B15748   2.346   2.205   2.010
    2PC     H3C15749   2.354   2.280   1.836
    2PC     C3415750   2.311   2.064   1.702
    2PC     H4A15751   2.207   2.097   1.702
    2PC     H4B15752   2.386   2.118   1.643
    2PC     H4C15753   2.314   1.960   1.670
    2PC     C3515754   2.291   1.953   1.914
    2PC     H5A15755   2.186   1.943   1.886
    2PC     H5B15756   2.310   1.951   2.022
    2PC     H5C15757   2.340   1.866   1.872
    2PC     O3315758   2.751   2.353   2.138
    2PC     O3415759   2.834   2.132   2.112
    2PC     O2115760   2.532   2.181   2.543
    2PC     C2115761   2.483   2.204   2.666
    2PC     O2215762   2.386   2.272   2.693
    3OL     C1215763   2.557   2.125   2.771
    3OL     H2R15764   2.515   2.153   2.868
    3OL     H2S15765   2.660   2.159   2.763
    3OL     C1315766   2.540   1.972   2.764
    3OL     H3R15767   2.540   1.933   2.662
    3OL     H3S15768   2.436   1.956   2.795
    3OL     C1415769   2.640   1.906   2.860
    3OL     H4R15770   2.636   1.963   2.953
    3OL     H4S15771   2.743   1.915   2.825
    3OL     C1515772   2.613   1.759   2.894
    3OL     H5R15773   2.701   1.718   2.943
    3OL     H5S15774   2.589   1.703   2.803
    3OL     C1615775   2.498   1.729   2.991
    3OL     H6R15776   2.490   1.620   3.003
    3OL     H6S15777   2.408   1.763   2.941
    3OL     C1715778   2.524   1.789   3.130
    3OL     H7R15779   2.535   1.895   3.110
    3OL     H7S15780   2.615   1.745   3.171
    3OL     C1815781   2.398   1.760   3.214
    3OL     H8R15782   2.379   1.653   3.203
    3OL     H8S15783   2.315   1.810   3.165
    3OL     C1915784   2.421   1.791   3.360
    3OL     H9R15785   2.520   1.823   3.394
    3OL    C11015786   2.324   1.802   3.450
    3OL    H10R15787   2.345   1.841   3.549
    3OL    C11115788   2.180   1.764   3.427
    3OL    H11R15789   2.171   1.737   3.321
    3OL    H11S15790   2.113   1.848   3.446
    3OL    C11215791   2.141   1.645   3.516
    3OL    H12R15792   2.047   1.618   3.468
    3OL    H12S15793   2.128   1.683   3.618
    3OL    C11315794   2.235   1.525   3.503
    3OL    H13R15795   2.339   1.550   3.525
    3OL    H13S15796   2.236   1.490   3.400
    3OL    C11415797   2.186   1.417   3.601
    3OL    H14R15798   2.251   1.331   3.582
    3OL    H14S15799   2.090   1.383   3.562
    3OL    C11515800   2.191   1.446   3.751
    3OL    H15R15801   2.098   1.491   3.786
    3OL    H15S15802   2.272   1.514   3.778
    3OL    C11615803   2.202   1.317   3.833
    3OL    H16R15804   2.297   1.270   3.809
    3OL    H16S15805   2.128   1.241   3.806
    3OL    C11715806   2.198   1.356   3.982
    3OL    H17R15807   2.105   1.412   3.993
    3OL    H17S15808   2.278   1.427   4.004
    3OL    C11815809   2.220   1.235   4.074
    3OL    H18R15810   2.182   1.261   4.173
    3OL    H18S15811   2.328   1.221   4.080
    3OL    H18T15812   2.167   1.148   4.034
    1PA    C11615813   3.576   6.463   3.872
    1PA    H16R15814   3.480   6.456   3.820
    1PA    H16S15815   3.660   6.471   3.804
    1PA    H16T15816   3.566   6.551   3.937
    1PA    C11515817   3.587   6.340   3.962
    1PA    H15R15818   3.491   6.312   4.006
    1PA    H15S15819   3.613   6.248   3.909
    1PA    C11415820   3.692   6.352   4.073
    1PA    H14R15821   3.712   6.452   4.113
    1PA    H14S15822   3.662   6.290   4.158
    1PA    C11315823   3.824   6.299   4.017
    1PA    H13R15824   3.883   6.281   4.107
    1PA    H13S15825   3.813   6.197   3.979
    1PA    C11215826   3.903   6.390   3.921
    1PA    H12R15827   3.856   6.394   3.823
    1PA    H12S15828   3.903   6.489   3.968
    1PA    C11115829   4.047   6.348   3.889
    1PA    H11R15830   4.118   6.430   3.890
    1PA    H11S15831   4.085   6.292   3.975
    1PA    C11015832   4.072   6.274   3.757
    1PA    H10R15833   4.032   6.326   3.669
    1PA    H10S15834   4.179   6.259   3.747
    1PA     C1915835   4.004   6.136   3.757
    1PA     H9R15836   4.021   6.084   3.851
    1PA     H9S15837   3.896   6.137   3.744
    1PA     C1815838   4.047   6.035   3.649
    1PA     H8R15839   4.154   6.015   3.643
    1PA     H8S15840   4.005   5.936   3.668
    1PA     C1715841   4.001   6.067   3.506
    1PA     H7R15842   4.008   5.967   3.463
    1PA     H7S15843   3.898   6.100   3.496
    1PA     C1615844   4.094   6.161   3.428
    1PA     H6R15845   4.041   6.226   3.358
    1PA     H6S15846   4.148   6.221   3.502
    1PA     C1515847   4.207   6.091   3.350
    1PA     H5R15848   4.266   6.030   3.418
    1PA     H5S15849   4.165   6.021   3.277
    1PA     C1415850   4.300   6.195   3.287
    1PA     H4R15851   4.236   6.267   3.235
    1PA     H4S15852   4.351   6.246   3.369
    1PA     C1315853   4.409   6.135   3.197
    1PA     H3R15854   4.499   6.197   3.198
    1PA     H3S15855   4.437   6.041   3.245
    1PA     C1215856   4.362   6.121   3.052
    1PA     H2R15857   4.301   6.031   3.041
    1PA     H2S15858   4.301   6.205   3.019
    2PC     C1115859   4.476   6.099   2.955
    2PC     O1215860   4.595   6.109   2.974
    2PC     O1115861   4.437   6.072   2.829
    2PC      C115862   4.533   6.069   2.721
    2PC      HR15863   4.586   6.165   2.720
    2PC      HS15864   4.598   5.984   2.743
    2PC      C215865   4.457   6.061   2.589
    2PC      HX15866   4.400   5.967   2.583
    2PC      C315867   4.564   6.069   2.480
    2PC      HA15868   4.585   6.171   2.447
    2PC      HB15869   4.661   6.024   2.504
    2PC     O3115870   4.515   6.002   2.362
    2PC     P3115871   4.612   5.966   2.240
    2PC     O3215872   4.590   6.110   2.172
    2PC     C3115873   4.584   6.126   2.029
    2PC     H1A15874   4.682   6.149   1.988
    2PC     H1B15875   4.536   6.044   1.974
    2PC     C3215876   4.484   6.240   2.006
    2PC     H2A15877   4.519   6.326   2.064
    2PC     H2B15878   4.477   6.277   1.904
    2PC     N3115879   4.340   6.223   2.044
    2PC     C3315880   4.321   6.189   2.189
    2PC     H3A15881   4.370   6.094   2.208
    2PC     H3B15882   4.360   6.264   2.258
    2PC     H3C15883   4.213   6.184   2.203
    2PC     C3415884   4.278   6.355   2.011
    2PC     H4A15885   4.172   6.331   2.020
    2PC     H4B15886   4.306   6.434   2.082
    2PC     H4C15887   4.306   6.384   1.910
    2PC     C3515888   4.277   6.124   1.951
    2PC     H5A15889   4.291   6.173   1.855
    2PC     H5B15890   4.173   6.113   1.983
    2PC     H5C15891   4.331   6.029   1.958
    2PC     O3315892   4.754   5.951   2.279
    2PC     O3415893   4.577   5.852   2.153
    2PC     O2115894   4.376   6.179   2.578
    2PC     C2115895   4.251   6.171   2.530
    2PC     O2215896   4.198   6.077   2.474
    3OL     C1215897   4.181   6.300   2.565
    3OL     H2R15898   4.128   6.330   2.475
    3OL     H2S15899   4.252   6.382   2.581
    3OL     C1315900   4.087   6.277   2.684
    3OL     H3R15901   4.157   6.296   2.766
    3OL     H3S15902   4.053   6.174   2.683
    3OL     C1415903   3.972   6.379   2.672
    3OL     H4R15904   3.933   6.386   2.571
    3OL     H4S15905   4.024   6.474   2.691
    3OL     C1515906   3.851   6.355   2.763
    3OL     H5R15907   3.807   6.258   2.740
    3OL     H5S15908   3.786   6.443   2.754
    3OL     C1615909   3.892   6.360   2.911
    3OL     H6R15910   3.916   6.465   2.930
    3OL     H6S15911   3.987   6.318   2.942
    3OL     C1715912   3.784   6.315   3.011
    3OL     H7R15913   3.749   6.213   2.998
    3OL     H7S15914   3.698   6.380   2.993
    3OL     C1815915   3.827   6.332   3.157
    3OL     H8R15916   3.857   6.436   3.173
    3OL     H8S15917   3.914   6.268   3.172
    3OL     C1915918   3.729   6.287   3.263
    3OL     H9R15919   3.657   6.210   3.236
    3OL    C11015920   3.731   6.328   3.388
    3OL    H10R15921   3.663   6.285   3.461
    3OL    C11115922   3.834   6.426   3.439
    3OL    H11R15923   3.900   6.467   3.362
    3OL    H11S15924   3.902   6.375   3.507
    3OL    C11215925   3.774   6.549   3.509
    3OL    H12R15926   3.697   6.510   3.576
    3OL    H12S15927   3.719   6.620   3.447
    3OL    C11315928   3.881   6.627   3.587
    3OL    H13R15929   3.965   6.658   3.525
    3OL    H13S15930   3.916   6.554   3.660
    3OL    C11415931   3.836   6.758   3.652
    3OL    H14R15932   3.903   6.786   3.733
    3OL    H14S15933   3.732   6.743   3.683
    3OL    C11515934   3.846   6.880   3.558
    3OL    H15R15935   3.812   6.856   3.457
    3OL    H15S15936   3.952   6.902   3.548
    3OL    C11615937   3.772   7.001   3.618
    3OL    H16R15938   3.818   7.028   3.712
    3OL    H16S15939   3.671   6.966   3.643
    3OL    C11715940   3.749   7.127   3.534
    3OL    H17R15941   3.851   7.161   3.514
    3OL    H17S15942   3.703   7.208   3.590
    3OL    C11815943   3.677   7.112   3.399
    3OL    H18R15944   3.674   7.209   3.348
    3OL    H18S15945   3.578   7.069   3.414
    3OL    H18T15946   3.739   7.050   3.334
    1PA    C11615947   5.872   1.466   3.282
    1PA    H16R15948   5.971   1.503   3.258
    1PA    H16S15949   5.803   1.550   3.276
    1PA    H16T15950   5.842   1.393   3.207
    1PA    C11515951   5.848   1.402   3.420
    1PA    H15R15952   5.903   1.307   3.426
    1PA    H15S15953   5.884   1.477   3.490
    1PA    C11415954   5.699   1.369   3.432
    1PA    H14R15955   5.666   1.328   3.336
    1PA    H14S15956   5.701   1.284   3.501
    1PA    C11315957   5.615   1.483   3.491
    1PA    H13R15958   5.640   1.492   3.597
    1PA    H13S15959   5.635   1.578   3.443
    1PA    C11215960   5.464   1.452   3.481
    1PA    H12R15961   5.436   1.421   3.380
    1PA    H12S15962   5.452   1.363   3.542
    1PA    C11115963   5.380   1.569   3.534
    1PA    H11R15964   5.406   1.587   3.638
    1PA    H11S15965   5.407   1.656   3.474
    1PA    C11015966   5.229   1.539   3.530
    1PA    H10R15967   5.209   1.444   3.579
    1PA    H10S15968   5.180   1.622   3.581
    1PA     C1915969   5.170   1.530   3.388
    1PA     H9R15970   5.186   1.621   3.330
    1PA     H9S15971   5.217   1.445   3.339
    1PA     C1815972   5.018   1.507   3.390
    1PA     H8R15973   5.002   1.419   3.453
    1PA     H8S15974   4.967   1.595   3.430
    1PA     C1715975   4.975   1.472   3.247
    1PA     H7R15976   5.056   1.423   3.192
    1PA     H7S15977   4.898   1.395   3.254
    1PA     C1615978   4.924   1.593   3.169
    1PA     H6R15979   4.824   1.621   3.206
    1PA     H6S15980   4.986   1.682   3.183
    1PA     C1515981   4.923   1.572   3.018
    1PA     H5R15982   4.885   1.472   2.991
    1PA     H5S15983   4.876   1.653   2.963
    1PA     C1415984   5.068   1.574   2.966
    1PA     H4R15985   5.124   1.664   2.993
    1PA     H4S15986   5.124   1.488   3.002
    1PA     C1315987   5.068   1.578   2.813
    1PA     H3R15988   4.999   1.502   2.774
    1PA     H3S15989   5.034   1.673   2.773
    1PA     C1215990   5.212   1.552   2.765
    1PA     H2R15991   5.285   1.625   2.801
    1PA     H2S15992   5.253   1.458   2.802
    2PC     C1115993   5.226   1.551   2.615
    2PC     O1215994   5.151   1.609   2.539
    2PC     O1115995   5.336   1.484   2.577
    2PC      C115996   5.357   1.464   2.436
    2PC      HR15997   5.441   1.396   2.424
    2PC      HS15998   5.268   1.412   2.400
    2PC      C215999   5.371   1.589   2.347
    2PC      HX16000   5.309   1.667   2.392
    2PC      C316001   5.326   1.572   2.201
    2PC      HA16002   5.395   1.512   2.141
    2PC      HB16003   5.226   1.530   2.187
    2PC     O3116004   5.309   1.705   2.150
    2PC     P3116005   5.314   1.756   1.998
    2PC     O3216006   5.276   1.622   1.919
    2PC     C3116007   5.146   1.622   1.857
    2PC     H1A16008   5.066   1.645   1.928
    2PC     H1B16009   5.144   1.704   1.786
    2PC     C3216010   5.129   1.484   1.792
    2PC     H2A16011   5.139   1.400   1.861
    2PC     H2B16012   5.028   1.479   1.750
    2PC     N3116013   5.222   1.447   1.680
    2PC     C3316014   5.253   1.563   1.590
    2PC     H3A16015   5.305   1.640   1.647
    2PC     H3B16016   5.318   1.518   1.514
    2PC     H3C16017   5.163   1.606   1.546
    2PC     C3416018   5.350   1.402   1.744
    2PC     H4A16019   5.391   1.494   1.784
    2PC     H4B16020   5.344   1.320   1.816
    2PC     H4C16021   5.422   1.380   1.664
    2PC     C3516022   5.155   1.342   1.597
    2PC     H5A16023   5.194   1.347   1.495
    2PC     H5B16024   5.048   1.359   1.590
    2PC     H5C16025   5.168   1.243   1.641
    2PC     O3316026   5.229   1.878   1.992
    2PC     O3416027   5.444   1.810   1.953
    2PC     O2116028   5.504   1.643   2.354
    2PC     C2116029   5.539   1.715   2.462
    2PC     O2216030   5.461   1.728   2.555
    3OL     C1216031   5.679   1.769   2.457
    3OL     H2R16032   5.672   1.875   2.435
    3OL     H2S16033   5.734   1.709   2.384
    3OL     C1316034   5.759   1.757   2.587
    3OL     H3R16035   5.690   1.800   2.660
    3OL     H3S16036   5.849   1.819   2.585
    3OL     C1416037   5.784   1.611   2.630
    3OL     H4R16038   5.814   1.561   2.538
    3OL     H4S16039   5.691   1.568   2.667
    3OL     C1516040   5.899   1.602   2.731
    3OL     H5R16041   5.872   1.671   2.811
    3OL     H5S16042   5.985   1.628   2.668
    3OL     C1616043   5.885   1.458   2.784
    3OL     H6R16044   5.910   1.393   2.700
    3OL     H6S16045   5.785   1.430   2.817
    3OL     C1716046   5.981   1.438   2.902
    3OL     H7R16047   5.933   1.479   2.991
    3OL     H7S16048   6.074   1.491   2.878
    3OL     C1816049   6.013   1.289   2.925
    3OL     H8R16050   6.054   1.246   2.834
    3OL     H8S16051   5.915   1.240   2.932
    3OL     C1916052   6.093   1.279   3.052
    3OL     H9R16053   6.138   1.370   3.091
    3OL    C11016054   6.081   1.176   3.134
    3OL    H10R16055   6.128   1.185   3.231
    3OL    C11116056   6.013   1.042   3.118
    3OL    H11R16057   6.070   0.968   3.175
    3OL    H11S16058   6.025   1.022   3.011
    3OL    C11216059   5.862   1.041   3.148
    3OL    H12R16060   5.820   0.956   3.094
    3OL    H12S16061   5.807   1.127   3.110
    3OL    C11316062   5.844   1.025   3.300
    3OL    H13R16063   5.877   1.109   3.362
    3OL    H13S16064   5.908   0.945   3.339
    3OL    C11416065   5.699   1.001   3.344
    3OL    H14R16066   5.649   0.926   3.283
    3OL    H14S16067   5.643   1.089   3.312
    3OL    C11516068   5.663   0.990   3.493
    3OL    H15R16069   5.708   1.074   3.547
    3OL    H15S16070   5.706   0.895   3.525
    3OL    C11616071   5.511   0.985   3.518
    3OL    H16R16072   5.463   0.904   3.464
    3OL    H16S16073   5.462   1.078   3.489
    3OL    C11716074   5.488   0.969   3.669
    3OL    H17R16075   5.527   0.872   3.699
    3OL    H17S16076   5.380   0.965   3.684
    3OL    C11816077   5.556   1.079   3.752
    3OL    H18R16078   5.514   1.178   3.730
    3OL    H18S16079   5.665   1.077   3.741
    3OL    H18T16080   5.546   1.062   3.859
    1PA    C11616081   3.045   3.128   3.865
    1PA    H16R16082   3.115   3.208   3.891
    1PA    H16S16083   3.095   3.038   3.828
    1PA    H16T16084   2.980   3.090   3.943
    1PA    C11516085   2.950   3.190   3.762
    1PA    H15R16086   2.900   3.263   3.826
    1PA    H15S16087   3.005   3.245   3.685
    1PA    C11416088   2.857   3.090   3.693
    1PA    H14R16089   2.913   3.021   3.630
    1PA    H14S16090   2.813   3.019   3.764
    1PA    C11316091   2.743   3.155   3.614
    1PA    H13R16092   2.790   3.217   3.537
    1PA    H13S16093   2.687   3.077   3.560
    1PA    C11216094   2.659   3.254   3.696
    1PA    H12R16095   2.630   3.217   3.795
    1PA    H12S16096   2.719   3.345   3.700
    1PA    C11116097   2.528   3.299   3.631
    1PA    H11R16098   2.548   3.348   3.535
    1PA    H11S16099   2.463   3.212   3.624
    1PA    C11016100   2.454   3.398   3.722
    1PA    H10R16101   2.347   3.383   3.710
    1PA    H10S16102   2.488   3.382   3.825
    1PA     C1916103   2.469   3.545   3.680
    1PA     H9R16104   2.443   3.614   3.760
    1PA     H9S16105   2.573   3.551   3.648
    1PA     C1816106   2.362   3.582   3.576
    1PA     H8R16107   2.378   3.535   3.479
    1PA     H8S16108   2.263   3.550   3.609
    1PA     C1716109   2.353   3.732   3.545
    1PA     H7R16110   2.328   3.788   3.635
    1PA     H7S16111   2.452   3.766   3.513
    1PA     C1616112   2.250   3.743   3.431
    1PA     H6R16113   2.263   3.672   3.349
    1PA     H6S16114   2.151   3.719   3.471
    1PA     C1516115   2.251   3.882   3.367
    1PA     H5R16116   2.149   3.896   3.331
    1PA     H5S16117   2.265   3.962   3.440
    1PA     C1416118   2.345   3.895   3.246
    1PA     H4R16119   2.449   3.880   3.275
    1PA     H4S16120   2.315   3.807   3.189
    1PA     C1316121   2.320   4.026   3.171
    1PA     H3R16122   2.219   4.021   3.129
    1PA     H3S16123   2.324   4.115   3.234
    1PA     C1216124   2.409   4.037   3.046
    1PA     H2R16125   2.400   4.136   3.002
    1PA     H2S16126   2.513   4.018   3.073
    2PC     C1116127   2.379   3.934   2.940
    2PC     O1216128   2.267   3.894   2.914
    2PC     O1116129   2.493   3.893   2.881
    2PC      C116130   2.487   3.810   2.763
    2PC      HR16131   2.479   3.703   2.780
    2PC      HS16132   2.410   3.842   2.693
    2PC      C216133   2.623   3.832   2.696
    2PC      HX16134   2.648   3.938   2.707
    2PC      C316135   2.617   3.799   2.546
    2PC      HA16136   2.562   3.868   2.481
    2PC      HB16137   2.718   3.810   2.506
    2PC     O3116138   2.563   3.667   2.532
    2PC     P3116139   2.541   3.598   2.389
    2PC     O3216140   2.461   3.462   2.419
    2PC     C3116141   2.449   3.369   2.310
    2PC     H1A16142   2.455   3.410   2.210
    2PC     H1B16143   2.538   3.305   2.306
    2PC     C3216144   2.325   3.281   2.333
    2PC     H2A16145   2.328   3.192   2.270
    2PC     H2B16146   2.323   3.255   2.439
    2PC     N3116147   2.200   3.351   2.289
    2PC     C3316148   2.210   3.387   2.144
    2PC     H3A16149   2.285   3.462   2.119
    2PC     H3B16150   2.233   3.296   2.088
    2PC     H3C16151   2.114   3.427   2.110
    2PC     C3416152   2.084   3.256   2.301
    2PC     H4A16153   2.005   3.301   2.240
    2PC     H4B16154   2.117   3.161   2.257
    2PC     H4C16155   2.068   3.247   2.408
    2PC     C3516156   2.166   3.470   2.373
    2PC     H5A16157   2.071   3.514   2.341
    2PC     H5B16158   2.243   3.544   2.352
    2PC     H5C16159   2.170   3.434   2.476
    2PC     O3316160   2.448   3.674   2.302
    2PC     O3416161   2.668   3.572   2.316
    2PC     O2116162   2.711   3.752   2.778
    2PC     C2116163   2.845   3.747   2.767
    2PC     O2216164   2.909   3.820   2.694
    3OL     C1216165   2.905   3.650   2.865
    3OL     H2R16166   2.905   3.550   2.821
    3OL     H2S16167   2.850   3.655   2.959
    3OL     C1316168   3.051   3.693   2.886
    3OL     H3R16169   3.050   3.800   2.907
    3OL     H3S16170   3.103   3.684   2.790
    3OL     C1416171   3.119   3.603   2.990
    3OL     H4R16172   3.120   3.498   2.958
    3OL     H4S16173   3.077   3.597   3.090
    3OL     C1516174   3.264   3.652   3.004
    3OL     H5R16175   3.265   3.754   3.043
    3OL     H5S16176   3.308   3.657   2.904
    3OL     C1616177   3.354   3.562   3.090
    3OL     H6R16178   3.321   3.460   3.066
    3OL     H6S16179   3.334   3.594   3.193
    3OL     C1716180   3.503   3.576   3.057
    3OL     H7R16181   3.527   3.681   3.076
    3OL     H7S16182   3.512   3.574   2.948
    3OL     C1816183   3.602   3.483   3.127
    3OL     H8R16184   3.697   3.509   3.081
    3OL     H8S16185   3.576   3.383   3.091
    3OL     C1916186   3.584   3.482   3.277
    3OL     H9R16187   3.641   3.559   3.327
    3OL    C11016188   3.512   3.397   3.349
    3OL    H10R16189   3.508   3.411   3.457
    3OL    C11116190   3.429   3.278   3.307
    3OL    H11R16191   3.473   3.183   3.339
    3OL    H11S16192   3.409   3.262   3.201
    3OL    C11216193   3.290   3.289   3.370
    3OL    H12R16194   3.222   3.354   3.314
    3OL    H12S16195   3.287   3.331   3.471
    3OL    C11316196   3.212   3.158   3.348
    3OL    H13R16197   3.214   3.132   3.242
    3OL    H13S16198   3.110   3.187   3.371
    3OL    C11416199   3.243   3.034   3.433
    3OL    H14R16200   3.245   3.063   3.538
    3OL    H14S16201   3.343   2.995   3.413
    3OL    C11516202   3.140   2.926   3.399
    3OL    H15R16203   3.144   2.900   3.293
    3OL    H15S16204   3.046   2.979   3.413
    3OL    C11616205   3.152   2.799   3.486
    3OL    H16R16206   3.069   2.732   3.462
    3OL    H16S16207   3.134   2.817   3.592
    3OL    C11716208   3.287   2.728   3.473
    3OL    H17R16209   3.336   2.738   3.376
    3OL    H17S16210   3.270   2.622   3.494
    3OL    C11816211   3.389   2.779   3.576
    3OL    H18R16212   3.344   2.845   3.650
    3OL    H18S16213   3.468   2.833   3.524
    3OL    H18T16214   3.438   2.696   3.627
    1PA    C11616215   3.862   0.714   4.286
    1PA    H16R16216   3.921   0.782   4.348
    1PA    H16S16217   3.866   0.615   4.332
    1PA    H16T16218   3.757   0.741   4.283
    1PA    C11516219   3.906   0.710   4.139
    1PA    H15R16220   3.990   0.640   4.140
    1PA    H15S16221   3.831   0.658   4.079
    1PA    C11416222   3.942   0.846   4.078
    1PA    H14R16223   3.850   0.902   4.098
    1PA    H14S16224   4.017   0.901   4.135
    1PA    C11316225   3.981   0.839   3.930
    1PA    H13R16226   4.070   0.777   3.919
    1PA    H13S16227   3.900   0.794   3.872
    1PA    C11216228   4.017   0.971   3.860
    1PA    H12R16229   3.930   1.036   3.862
    1PA    H12S16230   4.104   1.020   3.904
    1PA    C11116231   4.044   0.938   3.713
    1PA    H11R16232   4.125   0.866   3.712
    1PA    H11S16233   3.952   0.890   3.679
    1PA    C11016234   4.076   1.062   3.629
    1PA    H10R16235   3.991   1.130   3.631
    1PA    H10S16236   4.156   1.108   3.686
    1PA     C1916237   4.130   1.014   3.493
    1PA     H9R16238   4.207   0.938   3.501
    1PA     H9S16239   4.045   0.971   3.441
    1PA     C1816240   4.173   1.129   3.401
    1PA     H8R16241   4.083   1.181   3.366
    1PA     H8S16242   4.242   1.205   3.439
    1PA     C1716243   4.240   1.072   3.275
    1PA     H7R16244   4.335   1.029   3.307
    1PA     H7S16245   4.172   0.995   3.238
    1PA     C1616246   4.267   1.169   3.158
    1PA     H6R16247   4.176   1.225   3.137
    1PA     H6S16248   4.353   1.232   3.182
    1PA     C1516249   4.306   1.095   3.029
    1PA     H5R16250   4.221   1.028   3.009
    1PA     H5S16251   4.306   1.168   2.948
    1PA     C1416252   4.443   1.026   3.027
    1PA     H4R16253   4.520   1.100   3.049
    1PA     H4S16254   4.443   0.951   3.107
    1PA     C1316255   4.469   0.954   2.894
    1PA     H3R16256   4.560   0.894   2.901
    1PA     H3S16257   4.387   0.889   2.863
    1PA     C1216258   4.500   1.049   2.778
    1PA     H2R16259   4.424   1.127   2.769
    1PA     H2S16260   4.605   1.078   2.792
    2PC     C1116261   4.522   0.974   2.649
    2PC     O1216262   4.447   0.887   2.609
    2PC     O1116263   4.637   1.003   2.586
    2PC      C116264   4.680   0.910   2.486
    2PC      HR16265   4.597   0.870   2.427
    2PC      HS16266   4.748   0.963   2.419
    2PC      C216267   4.755   0.799   2.560
    2PC      HX16268   4.816   0.843   2.639
    2PC      C316269   4.839   0.719   2.458
    2PC      HA16270   4.922   0.783   2.427
    2PC      HB16271   4.891   0.634   2.503
    2PC     O3116272   4.752   0.678   2.351
    2PC     P3116273   4.823   0.618   2.221
    2PC     O3216274   4.688   0.588   2.140
    2PC     C3116275   4.612   0.706   2.109
    2PC     H1A16276   4.548   0.740   2.192
    2PC     H1B16277   4.675   0.795   2.102
    2PC     C3216278   4.522   0.683   1.987
    2PC     H2A16279   4.476   0.779   1.964
    2PC     H2B16280   4.594   0.658   1.909
    2PC     N3116281   4.416   0.576   1.991
    2PC     C3316282   4.481   0.441   1.989
    2PC     H3A16283   4.556   0.430   1.911
    2PC     H3B16284   4.521   0.432   2.091
    2PC     H3C16285   4.410   0.359   1.980
    2PC     C3416286   4.331   0.590   2.113
    2PC     H4A16287   4.384   0.550   2.200
    2PC     H4B16288   4.309   0.695   2.132
    2PC     H4C16289   4.240   0.530   2.103
    2PC     C3516290   4.333   0.587   1.867
    2PC     H5A16291   4.402   0.603   1.783
    2PC     H5B16292   4.257   0.665   1.875
    2PC     H5C16293   4.277   0.494   1.854
    2PC     O3316294   4.914   0.714   2.154
    2PC     O3416295   4.896   0.490   2.239
    2PC     O2116296   4.660   0.705   2.612
    2PC     C2116297   4.710   0.620   2.704
    2PC     O2216298   4.827   0.612   2.736
    3OL     C1216299   4.604   0.525   2.754
    3OL     H2R16300   4.652   0.428   2.769
    3OL     H2S16301   4.529   0.511   2.676
    3OL     C1316302   4.532   0.571   2.881
    3OL     H3R16303   4.454   0.500   2.908
    3OL     H3S16304   4.475   0.659   2.850
    3OL     C1416305   4.610   0.601   3.010
    3OL     H4R16306   4.665   0.695   3.006
    3OL     H4S16307   4.682   0.524   3.040
    3OL     C1516308   4.515   0.615   3.129
    3OL     H5R16309   4.460   0.521   3.139
    3OL     H5S16310   4.439   0.689   3.101
    3OL     C1616311   4.586   0.641   3.263
    3OL     H6R16312   4.659   0.716   3.230
    3OL     H6S16313   4.640   0.553   3.296
    3OL     C1716314   4.495   0.700   3.372
    3OL     H7R16315   4.462   0.795   3.329
    3OL     H7S16316   4.556   0.728   3.458
    3OL     C1816317   4.373   0.618   3.416
    3OL     H8R16318   4.405   0.517   3.440
    3OL     H8S16319   4.297   0.614   3.337
    3OL     C1916320   4.317   0.691   3.535
    3OL     H9R16321   4.316   0.799   3.525
    3OL    C11016322   4.278   0.622   3.642
    3OL    H10R16323   4.229   0.678   3.721
    3OL    C11116324   4.270   0.473   3.662
    3OL    H11R16325   4.372   0.440   3.685
    3OL    H11S16326   4.242   0.417   3.573
    3OL    C11216327   4.178   0.436   3.779
    3OL    H12R16328   4.078   0.465   3.749
    3OL    H12S16329   4.202   0.494   3.869
    3OL    C11316330   4.168   0.284   3.800
    3OL    H13R16331   4.157   0.232   3.705
    3OL    H13S16332   4.085   0.254   3.865
    3OL    C11416333   4.299   0.230   3.859
    3OL    H14R16334   4.391   0.285   3.839
    3OL    H14S16335   4.313   0.130   3.818
    3OL    C11516336   4.292   0.196   4.008
    3OL    H15R16337   4.203   0.140   4.035
    3OL    H15S16338   4.292   0.286   4.070
    3OL    C11616339   4.409   0.104   4.048
    3OL    H16R16340   4.507   0.140   4.017
    3OL    H16S16341   4.394   0.009   3.997
    3OL    C11716342   4.409   0.076   4.199
    3OL    H17R16343   4.310   0.043   4.230
    3OL    H17S16344   4.432   0.167   4.255
    3OL    C11816345   4.514  -0.030   4.235
    3OL    H18R16346   4.480  -0.126   4.197
    3OL    H18S16347   4.537  -0.030   4.342
    3OL    H18T16348   4.607  -0.010   4.180
    1PA    C11616349   2.530   0.013   3.761
    1PA    H16R16350   2.461   0.025   3.845
    1PA    H16S16351   2.581  -0.083   3.760
    1PA    H16T16352   2.472   0.003   3.668
    1PA    C11516353   2.619   0.137   3.745
    1PA    H15R16354   2.556   0.225   3.742
    1PA    H15S16355   2.686   0.139   3.831
    1PA    C11416356   2.704   0.139   3.616
    1PA    H14R16357   2.770   0.053   3.612
    1PA    H14S16358   2.650   0.123   3.523
    1PA    C11316359   2.798   0.260   3.620
    1PA    H13R16360   2.748   0.338   3.679
    1PA    H13S16361   2.883   0.245   3.686
    1PA    C11216362   2.841   0.324   3.487
    1PA    H12R16363   2.891   0.250   3.425
    1PA    H12S16364   2.750   0.355   3.436
    1PA    C11116365   2.933   0.446   3.505
    1PA    H11R16366   2.883   0.533   3.549
    1PA    H11S16367   3.018   0.414   3.566
    1PA    C11016368   2.983   0.488   3.366
    1PA    H10R16369   3.046   0.407   3.330
    1PA    H10S16370   2.895   0.504   3.302
    1PA     C1916371   3.070   0.614   3.373
    1PA     H9R16372   3.002   0.691   3.408
    1PA     H9S16373   3.159   0.598   3.435
    1PA     C1816374   3.122   0.657   3.235
    1PA     H8R16375   3.169   0.568   3.192
    1PA     H8S16376   3.037   0.673   3.168
    1PA     C1716377   3.213   0.779   3.254
    1PA     H7R16378   3.156   0.853   3.312
    1PA     H7S16379   3.305   0.761   3.310
    1PA     C1616380   3.267   0.847   3.128
    1PA     H6R16381   3.186   0.851   3.055
    1PA     H6S16382   3.298   0.946   3.163
    1PA     C1516383   3.392   0.775   3.076
    1PA     H5R16384   3.471   0.792   3.149
    1PA     H5S16385   3.378   0.667   3.073
    1PA     C1416386   3.441   0.833   2.943
    1PA     H4R16387   3.365   0.833   2.864
    1PA     H4S16388   3.473   0.936   2.959
    1PA     C1316389   3.568   0.750   2.917
    1PA     H3R16390   3.621   0.770   3.010
    1PA     H3S16391   3.534   0.646   2.909
    1PA     C1216392   3.654   0.801   2.800
    1PA     H2R16393   3.686   0.905   2.796
    1PA     H2S16394   3.751   0.751   2.809
    2PC     C1116395   3.594   0.784   2.663
    2PC     O1216396   3.597   0.866   2.574
    2PC     O1116397   3.550   0.659   2.642
    2PC      C116398   3.457   0.625   2.538
    2PC      HR16399   3.417   0.525   2.558
    2PC      HS16400   3.371   0.692   2.531
    2PC      C216401   3.532   0.616   2.404
    2PC      HX16402   3.606   0.697   2.401
    2PC      C316403   3.438   0.629   2.284
    2PC      HA16404   3.380   0.537   2.271
    2PC      HB16405   3.378   0.720   2.301
    2PC     O3116406   3.518   0.659   2.168
    2PC     P3116407   3.448   0.721   2.038
    2PC     O3216408   3.572   0.705   1.939
    2PC     C3116409   3.548   0.699   1.797
    2PC     H1A16410   3.521   0.594   1.782
    2PC     H1B16411   3.468   0.771   1.779
    2PC     C3216412   3.673   0.741   1.717
    2PC     H2A16413   3.753   0.675   1.749
    2PC     H2B16414   3.659   0.731   1.609
    2PC     N3116415   3.738   0.875   1.734
    2PC     C3316416   3.665   0.985   1.662
    2PC     H3A16417   3.654   0.962   1.555
    2PC     H3B16418   3.563   0.999   1.698
    2PC     H3C16419   3.724   1.075   1.674
    2PC     C3416420   3.766   0.916   1.876
    2PC     H4A16421   3.852   0.865   1.919
    2PC     H4B16422   3.782   1.023   1.881
    2PC     H4C16423   3.674   0.885   1.928
    2PC     C3516424   3.866   0.854   1.661
    2PC     H5A16425   3.902   0.759   1.700
    2PC     H5B16426   3.939   0.931   1.686
    2PC     H5C16427   3.846   0.852   1.553
    2PC     O3316428   3.328   0.646   1.992
    2PC     O3416429   3.414   0.864   2.055
    2PC     O2116430   3.592   0.486   2.404
    2PC     C2116431   3.714   0.472   2.460
    2PC     O2216432   3.795   0.559   2.484
    3OL     C1216433   3.749   0.326   2.465
    3OL     H2R16434   3.851   0.314   2.501
    3OL     H2S16435   3.750   0.288   2.363
    3OL     C1316436   3.651   0.241   2.548
    3OL     H3R16437   3.658   0.139   2.509
    3OL     H3S16438   3.554   0.283   2.521
    3OL     C1416439   3.668   0.264   2.699
    3OL     H4R16440   3.694   0.366   2.726
    3OL     H4S16441   3.756   0.205   2.723
    3OL     C1516442   3.545   0.220   2.781
    3OL     H5R16443   3.538   0.111   2.779
    3OL     H5S16444   3.457   0.249   2.723
    3OL     C1616445   3.536   0.269   2.926
    3OL     H6R16446   3.555   0.377   2.926
    3OL     H6S16447   3.603   0.213   2.991
    3OL     C1716448   3.392   0.266   2.978
    3OL     H7R16449   3.385   0.276   3.087
    3OL     H7S16450   3.357   0.163   2.963
    3OL     C1816451   3.293   0.368   2.920
    3OL     H8R16452   3.293   0.362   2.811
    3OL     H8S16453   3.336   0.467   2.937
    3OL     C1916454   3.152   0.356   2.972
    3OL     H9R16455   3.139   0.292   3.059
    3OL    C11016456   3.057   0.436   2.926
    3OL    H10R16457   2.959   0.436   2.974
    3OL    C11116458   3.057   0.506   2.792
    3OL    H11R16459   2.971   0.469   2.735
    3OL    H11S16460   3.148   0.473   2.741
    3OL    C11216461   3.051   0.658   2.809
    3OL    H12R16462   3.050   0.691   2.705
    3OL    H12S16463   3.146   0.685   2.857
    3OL    C11316464   2.936   0.710   2.895
    3OL    H13R16465   2.957   0.694   3.001
    3OL    H13S16466   2.846   0.651   2.874
    3OL    C11416467   2.909   0.859   2.870
    3OL    H14R16468   2.866   0.862   2.769
    3OL    H14S16469   3.002   0.915   2.872
    3OL    C11516470   2.806   0.923   2.964
    3OL    H15R16471   2.730   0.848   2.986
    3OL    H15S16472   2.752   1.004   2.914
    3OL    C11616473   2.866   0.977   3.095
    3OL    H16R16474   2.950   1.041   3.067
    3OL    H16S16475   2.903   0.897   3.160
    3OL    C11716476   2.759   1.051   3.177
    3OL    H17R16477   2.681   0.979   3.204
    3OL    H17S16478   2.716   1.130   3.116
    3OL    C11816479   2.794   1.125   3.306
    3OL    H18R16480   2.882   1.181   3.276
    3OL    H18S16481   2.809   1.055   3.389
    3OL    H18T16482   2.713   1.193   3.333
    1PA    C11616483   3.470   2.099   4.349
    1PA    H16R16484   3.485   2.025   4.428
    1PA    H16S16485   3.380   2.152   4.380
    1PA    H16T16486   3.557   2.164   4.361
    1PA    C11516487   3.462   2.056   4.202
    1PA    H15R16488   3.367   2.004   4.188
    1PA    H15S16489   3.471   2.146   4.140
    1PA    C11416490   3.572   1.963   4.151
    1PA    H14R16491   3.661   2.025   4.144
    1PA    H14S16492   3.585   1.879   4.220
    1PA    C11316493   3.535   1.899   4.016
    1PA    H13R16494   3.447   1.835   4.031
    1PA    H13S16495   3.502   1.972   3.942
    1PA    C11216496   3.645   1.814   3.952
    1PA    H12R16497   3.742   1.864   3.958
    1PA    H12S16498   3.676   1.733   4.018
    1PA    C11116499   3.616   1.758   3.812
    1PA    H11R16500   3.524   1.699   3.816
    1PA    H11S16501   3.603   1.845   3.748
    1PA    C11016502   3.733   1.672   3.761
    1PA    H10R16503   3.826   1.729   3.769
    1PA    H10S16504   3.740   1.582   3.823
    1PA     C1916505   3.710   1.636   3.614
    1PA     H9R16506   3.607   1.602   3.600
    1PA     H9S16507   3.718   1.733   3.564
    1PA     C1816508   3.810   1.534   3.556
    1PA     H8R16509   3.910   1.569   3.580
    1PA     H8S16510   3.804   1.436   3.604
    1PA     C1716511   3.807   1.514   3.404
    1PA     H7R16512   3.835   1.408   3.396
    1PA     H7S16513   3.707   1.528   3.363
    1PA     C1616514   3.911   1.597   3.329
    1PA     H6R16515   3.914   1.692   3.383
    1PA     H6S16516   4.016   1.568   3.331
    1PA     C1516517   3.877   1.625   3.182
    1PA     H5R16518   3.774   1.662   3.177
    1PA     H5S16519   3.942   1.706   3.149
    1PA     C1416520   3.900   1.503   3.091
    1PA     H4R16521   4.000   1.462   3.110
    1PA     H4S16522   3.836   1.425   3.132
    1PA     C1316523   3.876   1.531   2.943
    1PA     H3R16524   3.851   1.437   2.894
    1PA     H3S16525   3.786   1.593   2.933
    1PA     C1216526   3.997   1.595   2.872
    1PA     H2R16527   4.010   1.699   2.902
    1PA     H2S16528   4.098   1.555   2.883
    2PC     C1116529   3.988   1.604   2.722
    2PC     O1216530   3.909   1.542   2.653
    2PC     O1116531   4.073   1.696   2.674
    2PC      C116532   4.087   1.731   2.535
    2PC      HR16533   4.176   1.794   2.529
    2PC      HS16534   4.104   1.643   2.472
    2PC      C216535   3.969   1.818   2.488
    2PC      HX16536   3.877   1.760   2.492
    2PC      C316537   3.982   1.849   2.338
    2PC      HA16538   3.955   1.760   2.281
    2PC      HB16539   3.914   1.931   2.313
    2PC     O3116540   4.114   1.897   2.309
    2PC     P3116541   4.163   1.954   2.167
    2PC     O3216542   4.176   1.820   2.080
    2PC     C3116543   4.298   1.745   2.098
    2PC     H1A16544   4.384   1.812   2.103
    2PC     H1B16545   4.285   1.690   2.192
    2PC     C3216546   4.295   1.656   1.973
    2PC     H2A16547   4.358   1.568   1.985
    2PC     H2B16548   4.191   1.626   1.964
    2PC     N3116549   4.348   1.727   1.852
    2PC     C3316550   4.357   1.629   1.739
    2PC     H3A16551   4.450   1.571   1.746
    2PC     H3B16552   4.268   1.567   1.746
    2PC     H3C16553   4.350   1.685   1.646
    2PC     C3416554   4.272   1.849   1.809
    2PC     H4A16555   4.336   1.907   1.742
    2PC     H4B16556   4.172   1.830   1.772
    2PC     H4C16557   4.260   1.911   1.898
    2PC     C3516558   4.489   1.769   1.878
    2PC     H5A16559   4.551   1.691   1.921
    2PC     H5B16560   4.490   1.857   1.943
    2PC     H5C16561   4.529   1.797   1.780
    2PC     O3316562   4.059   2.044   2.113
    2PC     O3416563   4.285   2.038   2.164
    2PC     O2116564   3.958   1.937   2.569
    2PC     C2116565   3.842   2.005   2.571
    2PC     O2216566   3.739   1.961   2.524
    3OL     C1216567   3.861   2.142   2.632
    3OL     H2R16568   3.769   2.163   2.686
    3OL     H2S16569   3.875   2.220   2.557
    3OL     C1316570   3.969   2.150   2.741
    3OL     H3R16571   3.975   2.248   2.790
    3OL     H3S16572   4.061   2.134   2.685
    3OL     C1416573   3.942   2.056   2.858
    3OL     H4R16574   4.040   2.043   2.905
    3OL     H4S16575   3.894   1.963   2.825
    3OL     C1516576   3.850   2.128   2.958
    3OL     H5R16577   3.756   2.156   2.910
    3OL     H5S16578   3.884   2.223   2.998
    3OL     C1616579   3.813   2.037   3.077
    3OL     H6R16580   3.905   2.008   3.127
    3OL     H6S16581   3.772   1.943   3.040
    3OL     C1716582   3.722   2.107   3.178
    3OL     H7R16583   3.625   2.094   3.129
    3OL     H7S16584   3.740   2.215   3.180
    3OL     C1816585   3.719   2.049   3.320
    3OL     H8R16586   3.657   2.117   3.378
    3OL     H8S16587   3.817   2.060   3.369
    3OL     C1916588   3.684   1.903   3.333
    3OL     H9R16589   3.766   1.840   3.298
    3OL    C11016590   3.570   1.853   3.379
    3OL    H10R16591   3.549   1.747   3.375
    3OL    C11116592   3.457   1.934   3.438
    3OL    H11R16593   3.390   1.967   3.358
    3OL    H11S16594   3.492   2.013   3.504
    3OL    C11216595   3.370   1.838   3.521
    3OL    H12R16596   3.430   1.778   3.589
    3OL    H12S16597   3.312   1.773   3.455
    3OL    C11316598   3.262   1.914   3.600
    3OL    H13R16599   3.204   1.973   3.528
    3OL    H13S16600   3.309   1.989   3.664
    3OL    C11416601   3.155   1.831   3.673
    3OL    H14R16602   3.107   1.750   3.620
    3OL    H14S16603   3.079   1.898   3.715
    3OL    C11516604   3.221   1.762   3.793
    3OL    H15R16605   3.272   1.830   3.862
    3OL    H15S16606   3.298   1.692   3.758
    3OL    C11616607   3.126   1.675   3.878
    3OL    H16R16608   3.024   1.710   3.868
    3OL    H16S16609   3.156   1.691   3.981
    3OL    C11716610   3.120   1.524   3.849
    3OL    H17R16611   3.215   1.477   3.823
    3OL    H17S16612   3.074   1.510   3.750
    3OL    C11816613   3.030   1.458   3.954
    3OL    H18R16614   3.078   1.433   4.049
    3OL    H18S16615   2.983   1.369   3.913
    3OL    H18T16616   2.949   1.523   3.987
    1PA    C11616617   3.464   1.614   4.510
    1PA    H16R16618   3.547   1.547   4.531
    1PA    H16S16619   3.429   1.638   4.610
    1PA    H16T16620   3.497   1.704   4.457
    1PA    C11516621   3.352   1.528   4.451
    1PA    H15R16622   3.387   1.425   4.439
    1PA    H15S16623   3.265   1.518   4.516
    1PA    C11416624   3.296   1.592   4.323
    1PA    H14R16625   3.211   1.530   4.294
    1PA    H14S16626   3.262   1.696   4.324
    1PA    C11316627   3.386   1.589   4.199
    1PA    H13R16628   3.324   1.653   4.135
    1PA    H13S16629   3.482   1.636   4.218
    1PA    C11216630   3.398   1.447   4.143
    1PA    H12R16631   3.455   1.395   4.220
    1PA    H12S16632   3.297   1.405   4.141
    1PA    C11116633   3.470   1.450   4.008
    1PA    H11R16634   3.428   1.507   3.925
    1PA    H11S16635   3.565   1.501   4.024
    1PA    C11016636   3.495   1.306   3.960
    1PA    H10R16637   3.558   1.251   4.030
    1PA    H10S16638   3.401   1.254   3.945
    1PA     C1916639   3.581   1.300   3.833
    1PA     H9R16640   3.524   1.353   3.757
    1PA     H9S16641   3.671   1.355   3.863
    1PA     C1816642   3.606   1.158   3.779
    1PA     H8R16643   3.650   1.094   3.856
    1PA     H8S16644   3.507   1.116   3.758
    1PA     C1716645   3.684   1.165   3.647
    1PA     H7R16646   3.650   1.246   3.582
    1PA     H7S16647   3.787   1.196   3.663
    1PA     C1616648   3.659   1.037   3.567
    1PA     H6R16649   3.699   0.950   3.621
    1PA     H6S16650   3.553   1.011   3.562
    1PA     C1516651   3.726   1.043   3.429
    1PA     H5R16652   3.816   1.104   3.440
    1PA     H5S16653   3.753   0.939   3.410
    1PA     C1416654   3.624   1.087   3.323
    1PA     H4R16655   3.535   1.025   3.336
    1PA     H4S16656   3.589   1.190   3.336
    1PA     C1316657   3.666   1.064   3.177
    1PA     H3R16658   3.731   0.977   3.166
    1PA     H3S16659   3.585   1.027   3.114
    1PA     C1216660   3.746   1.173   3.104
    1PA     H2R16661   3.698   1.269   3.125
    1PA     H2S16662   3.846   1.186   3.145
    2PC     C1116663   3.764   1.147   2.957
    2PC     O1216664   3.844   1.071   2.907
    2PC     O1116665   3.673   1.225   2.896
    2PC      C116666   3.696   1.255   2.757
    2PC      HR16667   3.791   1.307   2.743
    2PC      HS16668   3.700   1.160   2.703
    2PC      C216669   3.573   1.337   2.716
    2PC      HX16670   3.476   1.290   2.736
    2PC      C316671   3.583   1.367   2.566
    2PC      HA16672   3.530   1.460   2.542
    2PC      HB16673   3.689   1.391   2.549
    2PC     O3116674   3.544   1.249   2.494
    2PC     P3116675   3.521   1.273   2.337
    2PC     O3216676   3.402   1.380   2.336
    2PC     C3116677   3.407   1.499   2.255
    2PC     H1A16678   3.486   1.567   2.287
    2PC     H1B16679   3.432   1.473   2.152
    2PC     C3216680   3.266   1.559   2.249
    2PC     H2A16681   3.275   1.643   2.180
    2PC     H2B16682   3.195   1.485   2.213
    2PC     N3116683   3.202   1.621   2.369
    2PC     C3316684   3.196   1.528   2.486
    2PC     H3A16685   3.152   1.438   2.441
    2PC     H3B16686   3.296   1.511   2.527
    2PC     H3C16687   3.130   1.572   2.561
    2PC     C3416688   3.290   1.736   2.410
    2PC     H4A16689   3.254   1.781   2.503
    2PC     H4B16690   3.388   1.690   2.422
    2PC     H4C16691   3.295   1.810   2.331
    2PC     C3516692   3.064   1.672   2.337
    2PC     H5A16693   3.025   1.720   2.427
    2PC     H5B16694   3.010   1.579   2.324
    2PC     H5C16695   3.061   1.734   2.247
    2PC     O3316696   3.640   1.341   2.280
    2PC     O3416697   3.492   1.150   2.261
    2PC     O2116698   3.586   1.465   2.781
    2PC     C2116699   3.478   1.544   2.790
    2PC     O2216700   3.368   1.521   2.746
    3OL     C1216701   3.511   1.675   2.859
    3OL     H2R16702   3.580   1.729   2.794
    3OL     H2S16703   3.567   1.646   2.948
    3OL     C1316704   3.393   1.761   2.906
    3OL     H3R16705   3.325   1.699   2.964
    3OL     H3S16706   3.329   1.797   2.825
    3OL     C1416707   3.424   1.876   3.002
    3OL     H4R16708   3.487   1.943   2.944
    3OL     H4S16709   3.480   1.838   3.088
    3OL     C1516710   3.307   1.963   3.049
    3OL     H5R16711   3.253   1.994   2.959
    3OL     H5S16712   3.348   2.055   3.091
    3OL     C1616713   3.209   1.894   3.145
    3OL     H6R16714   3.259   1.846   3.230
    3OL     H6S16715   3.173   1.810   3.087
    3OL     C1716716   3.097   1.991   3.185
    3OL     H7R16717   3.058   2.036   3.094
    3OL     H7S16718   3.132   2.076   3.244
    3OL     C1816719   2.983   1.914   3.252
    3OL     H8R16720   3.015   1.879   3.350
    3OL     H8S16721   2.955   1.831   3.186
    3OL     C1916722   2.864   2.004   3.271
    3OL     H9R16723   2.827   2.047   3.178
    3OL    C11016724   2.806   2.041   3.385
    3OL    H10R16725   2.725   2.114   3.386
    3OL    C11116726   2.831   1.986   3.523
    3OL    H11R16727   2.892   2.054   3.584
    3OL    H11S16728   2.886   1.892   3.517
    3OL    C11216729   2.702   1.947   3.595
    3OL    H12R16730   2.660   1.857   3.548
    3OL    H12S16731   2.617   2.015   3.588
    3OL    C11316732   2.725   1.898   3.739
    3OL    H13R16733   2.774   1.978   3.795
    3OL    H13S16734   2.805   1.825   3.749
    3OL    C11416735   2.597   1.836   3.798
    3OL    H14R16736   2.625   1.789   3.893
    3OL    H14S16737   2.562   1.756   3.733
    3OL    C11516738   2.485   1.938   3.819
    3OL    H15R16739   2.395   1.891   3.860
    3OL    H15S16740   2.454   1.979   3.722
    3OL    C11616741   2.517   2.043   3.926
    3OL    H16R16742   2.616   2.085   3.909
    3OL    H16S16743   2.512   1.989   4.020
    3OL    C11716744   2.404   2.146   3.946
    3OL    H17R16745   2.306   2.101   3.965
    3OL    H17S16746   2.389   2.207   3.857
    3OL    C11816747   2.433   2.233   4.069
    3OL    H18R16748   2.386   2.195   4.160
    3OL    H18S16749   2.393   2.333   4.057
    3OL    H18T16750   2.541   2.245   4.079
    1PA    C11616751   1.808   2.799   3.741
    1PA    H16R16752   1.728   2.838   3.803
    1PA    H16S16753   1.778   2.708   3.689
    1PA    H16T16754   1.837   2.872   3.665
    1PA    C11516755   1.927   2.777   3.835
    1PA    H15R16756   1.966   2.872   3.873
    1PA    H15S16757   1.895   2.710   3.916
    1PA    C11416758   2.028   2.689   3.760
    1PA    H14R16759   2.094   2.648   3.836
    1PA    H14S16760   1.988   2.604   3.705
    1PA    C11316761   2.116   2.772   3.665
    1PA    H13R16762   2.070   2.831   3.586
    1PA    H13S16763   2.172   2.850   3.717
    1PA    C11216764   2.210   2.676   3.591
    1PA    H12R16765   2.265   2.609   3.658
    1PA    H12S16766   2.140   2.610   3.540
    1PA    C11116767   2.297   2.757   3.493
    1PA    H11R16768   2.224   2.794   3.421
    1PA    H11S16769   2.345   2.844   3.539
    1PA    C11016770   2.399   2.670   3.418
    1PA    H10R16771   2.353   2.572   3.407
    1PA    H10S16772   2.422   2.714   3.320
    1PA     C1916773   2.533   2.664   3.491
    1PA     H9R16774   2.528   2.622   3.592
    1PA     H9S16775   2.597   2.586   3.449
    1PA     C1816776   2.609   2.797   3.490
    1PA     H8R16777   2.552   2.886   3.517
    1PA     H8S16778   2.695   2.787   3.557
    1PA     C1716779   2.668   2.812   3.349
    1PA     H7R16780   2.734   2.731   3.318
    1PA     H7S16781   2.585   2.811   3.277
    1PA     C1616782   2.745   2.944   3.329
    1PA     H6R16783   2.666   3.018   3.338
    1PA     H6S16784   2.828   2.952   3.400
    1PA     C1516785   2.802   2.944   3.187
    1PA     H5R16786   2.885   2.873   3.184
    1PA     H5S16787   2.721   2.915   3.120
    1PA     C1416788   2.849   3.083   3.143
    1PA     H4R16789   2.754   3.135   3.136
    1PA     H4S16790   2.909   3.131   3.221
    1PA     C1316791   2.912   3.073   3.003
    1PA     H3R16792   2.987   2.994   3.003
    1PA     H3S16793   2.832   3.051   2.932
    1PA     C1216794   2.974   3.198   2.940
    1PA     H2R16795   2.907   3.282   2.961
    1PA     H2S16796   3.068   3.226   2.989
    2PC     C1116797   2.980   3.183   2.790
    2PC     O1216798   3.004   3.083   2.727
    2PC     O1116799   2.955   3.303   2.735
    2PC      C116800   2.958   3.317   2.592
    2PC      HR16801   2.967   3.424   2.569
    2PC      HS16802   3.046   3.267   2.549
    2PC      C216803   2.828   3.263   2.530
    2PC      HX16804   2.810   3.162   2.566
    2PC      C316805   2.833   3.262   2.377
    2PC      HA16806   2.735   3.240   2.333
    2PC      HB16807   2.859   3.364   2.347
    2PC     O3116808   2.935   3.177   2.323
    2PC     P3116809   2.911   3.031   2.261
    2PC     O3216810   3.040   3.034   2.166
    2PC     C3116811   3.090   2.904   2.131
    2PC     H1A16812   3.137   2.863   2.220
    2PC     H1B16813   3.013   2.830   2.106
    2PC     C3216814   3.202   2.913   2.026
    2PC     H2A16815   3.282   2.977   2.063
    2PC     H2B16816   3.233   2.809   2.020
    2PC     N3116817   3.176   2.976   1.893
    2PC     C3316818   3.093   2.880   1.812
    2PC     H3A16819   3.121   2.882   1.707
    2PC     H3B16820   3.111   2.780   1.852
    2PC     H3C16821   2.990   2.917   1.815
    2PC     C3416822   3.116   3.113   1.898
    2PC     H4A16823   3.120   3.149   1.795
    2PC     H4B16824   3.012   3.110   1.931
    2PC     H4C16825   3.172   3.166   1.975
    2PC     C3516826   3.303   2.992   1.816
    2PC     H5A16827   3.373   3.052   1.874
    2PC     H5B16828   3.291   3.048   1.723
    2PC     H5C16829   3.347   2.894   1.795
    2PC     O3316830   2.909   2.928   2.368
    2PC     O3416831   2.782   3.028   2.189
    2PC     O2116832   2.711   3.340   2.564
    2PC     C2116833   2.665   3.311   2.687
    2PC     O2216834   2.691   3.214   2.756
    3OL     C1216835   2.566   3.415   2.731
    3OL     H2R16836   2.504   3.454   2.650
    3OL     H2S16837   2.622   3.502   2.767
    3OL     C1316838   2.470   3.371   2.842
    3OL     H3R16839   2.527   3.316   2.918
    3OL     H3S16840   2.411   3.287   2.807
    3OL     C1416841   2.375   3.472   2.908
    3OL     H4R16842   2.272   3.434   2.905
    3OL     H4S16843   2.382   3.563   2.847
    3OL     C1516844   2.401   3.512   3.054
    3OL     H5R16845   2.384   3.422   3.112
    3OL     H5S16846   2.326   3.586   3.084
    3OL     C1616847   2.542   3.570   3.066
    3OL     H6R16848   2.548   3.670   3.022
    3OL     H6S16849   2.611   3.503   3.013
    3OL     C1716850   2.591   3.583   3.211
    3OL     H7R16851   2.507   3.605   3.277
    3OL     H7S16852   2.670   3.657   3.218
    3OL     C1816853   2.630   3.446   3.267
    3OL     H8R16854   2.552   3.373   3.244
    3OL     H8S16855   2.638   3.451   3.376
    3OL     C1916856   2.764   3.399   3.217
    3OL     H9R16857   2.762   3.363   3.115
    3OL    C11016858   2.881   3.405   3.279
    3OL    H10R16859   2.976   3.379   3.232
    3OL    C11116860   2.904   3.442   3.423
    3OL    H11R16861   2.968   3.362   3.459
    3OL    H11S16862   2.811   3.439   3.480
    3OL    C11216863   2.954   3.584   3.455
    3OL    H12R16864   2.879   3.662   3.445
    3OL    H12S16865   3.040   3.598   3.389
    3OL    C11316866   3.001   3.593   3.601
    3OL    H13R16867   2.939   3.534   3.670
    3OL    H13S16868   3.004   3.699   3.628
    3OL    C11416869   3.139   3.531   3.625
    3OL    H14R16870   3.206   3.598   3.571
    3OL    H14S16871   3.135   3.431   3.582
    3OL    C11516872   3.171   3.529   3.775
    3OL    H15R16873   3.090   3.479   3.829
    3OL    H15S16874   3.160   3.631   3.812
    3OL    C11616875   3.313   3.482   3.809
    3OL    H16R16876   3.391   3.543   3.763
    3OL    H16S16877   3.337   3.390   3.757
    3OL    C11716878   3.338   3.471   3.960
    3OL    H17R16879   3.274   3.395   4.005
    3OL    H17S16880   3.312   3.561   4.016
    3OL    C11816881   3.487   3.449   3.990
    3OL    H18R16882   3.558   3.514   3.938
    3OL    H18S16883   3.508   3.343   3.972
    3OL    H18T16884   3.498   3.465   4.098
    1PA    C11616885   4.979   0.945   3.973
    1PA    H16R16886   5.046   0.884   4.033
    1PA    H16S16887   4.915   0.871   3.925
    1PA    H16T16888   4.911   0.997   4.041
    1PA    C11516889   5.041   1.044   3.874
    1PA    H15R16890   5.073   1.128   3.936
    1PA    H15S16891   5.122   0.994   3.820
    1PA    C11416892   4.944   1.081   3.761
    1PA    H14R16893   4.896   0.991   3.722
    1PA    H14S16894   4.859   1.129   3.811
    1PA    C11316895   4.990   1.176   3.649
    1PA    H13R16896   4.906   1.241   3.623
    1PA    H13S16897   5.076   1.237   3.677
    1PA    C11216898   5.033   1.105   3.520
    1PA    H12R16899   5.075   1.009   3.551
    1PA    H12S16900   4.942   1.079   3.465
    1PA    C11116901   5.121   1.182   3.420
    1PA    H11R16902   5.062   1.242   3.352
    1PA    H11S16903   5.198   1.239   3.473
    1PA    C11016904   5.180   1.084   3.318
    1PA    H10R16905   5.248   1.020   3.373
    1PA    H10S16906   5.104   1.012   3.289
    1PA     C1916907   5.246   1.138   3.190
    1PA     H9R16908   5.177   1.211   3.148
    1PA     H9S16909   5.334   1.192   3.226
    1PA     C1816910   5.291   1.031   3.090
    1PA     H8R16911   5.210   0.959   3.076
    1PA     H8S16912   5.325   1.071   2.994
    1PA     C1716913   5.408   0.947   3.144
    1PA     H7R16914   5.485   1.024   3.158
    1PA     H7S16915   5.392   0.894   3.238
    1PA     C1616916   5.459   0.856   3.031
    1PA     H6R16917   5.384   0.791   2.986
    1PA     H6S16918   5.487   0.920   2.947
    1PA     C1516919   5.573   0.759   3.064
    1PA     H5R16920   5.666   0.791   3.112
    1PA     H5S16921   5.532   0.688   3.137
    1PA     C1416922   5.613   0.671   2.945
    1PA     H4R16923   5.702   0.618   2.979
    1PA     H4S16924   5.541   0.589   2.937
    1PA     C1316925   5.644   0.738   2.810
    1PA     H3R16926   5.681   0.668   2.735
    1PA     H3S16927   5.553   0.786   2.774
    1PA     C1216928   5.746   0.854   2.813
    1PA     H2R16929   5.695   0.917   2.886
    1PA     H2S16930   5.840   0.820   2.856
    2PC     C1116931   5.765   0.927   2.683
    2PC     O1216932   5.734   0.881   2.575
    2PC     O1116933   5.829   1.045   2.695
    2PC      C116934   5.848   1.119   2.573
    2PC      HR16935   5.907   1.207   2.596
    2PC      HS16936   5.896   1.061   2.493
    2PC      C216937   5.717   1.172   2.514
    2PC      HX16938   5.652   1.091   2.478
    2PC      C316939   5.733   1.268   2.395
    2PC      HA16940   5.767   1.369   2.422
    2PC      HB16941   5.811   1.233   2.327
    2PC     O3116942   5.613   1.264   2.316
    2PC     P3116943   5.615   1.269   2.156
    2PC     O3216944   5.625   1.426   2.122
    2PC     C3116945   5.744   1.506   2.132
    2PC     H1A16946   5.719   1.612   2.125
    2PC     H1B16947   5.791   1.493   2.230
    2PC     C3216948   5.842   1.456   2.025
    2PC     H2A16949   5.936   1.508   2.044
    2PC     H2B16950   5.861   1.351   2.047
    2PC     N3116951   5.809   1.470   1.879
    2PC     C3316952   5.684   1.394   1.844
    2PC     H3A16953   5.657   1.406   1.739
    2PC     H3B16954   5.713   1.289   1.840
    2PC     H3C16955   5.603   1.395   1.916
    2PC     C3416956   5.784   1.613   1.841
    2PC     H4A16957   5.755   1.627   1.737
    2PC     H4B16958   5.700   1.641   1.905
    2PC     H4C16959   5.877   1.666   1.862
    2PC     C3516960   5.919   1.411   1.796
    2PC     H5A16961   5.946   1.313   1.837
    2PC     H5B16962   6.006   1.475   1.807
    2PC     H5C16963   5.892   1.405   1.691
    2PC     O3316964   5.711   1.185   2.082
    2PC     O3416965   5.493   1.205   2.100
    2PC     O2116966   5.651   1.254   2.612
    2PC     C2116967   5.564   1.202   2.701
    2PC     O2216968   5.529   1.086   2.707
    3OL     C1216969   5.508   1.305   2.796
    3OL     H2R16970   5.400   1.303   2.788
    3OL     H2S16971   5.536   1.406   2.764
    3OL     C1316972   5.561   1.296   2.940
    3OL     H3R16973   5.670   1.310   2.938
    3OL     H3S16974   5.539   1.197   2.980
    3OL     C1416975   5.498   1.401   3.031
    3OL     H4R16976   5.510   1.370   3.135
    3OL     H4S16977   5.391   1.404   3.007
    3OL     C1516978   5.556   1.543   3.017
    3OL     H5R16979   5.557   1.574   2.912
    3OL     H5S16980   5.656   1.541   3.060
    3OL     C1616981   5.468   1.641   3.095
    3OL     H6R16982   5.456   1.605   3.197
    3OL     H6S16983   5.371   1.633   3.046
    3OL     C1716984   5.515   1.787   3.080
    3OL     H7R16985   5.522   1.816   2.975
    3OL     H7S16986   5.618   1.797   3.114
    3OL     C1816987   5.426   1.881   3.163
    3OL     H8R16988   5.463   1.981   3.140
    3OL     H8S16989   5.446   1.863   3.269
    3OL     C1916990   5.280   1.870   3.126
    3OL     H9R16991   5.254   1.810   3.040
    3OL    C11016992   5.182   1.905   3.208
    3OL    H10R16993   5.081   1.881   3.173
    3OL    C11116994   5.197   1.989   3.332
    3OL    H11R16995   5.224   2.089   3.297
    3OL    H11S16996   5.279   1.941   3.385
    3OL    C11216997   5.072   1.987   3.421
    3OL    H12R16998   5.045   1.886   3.454
    3OL    H12S16999   4.990   2.021   3.357
    3OL    C11317000   5.088   2.069   3.549
    3OL    H13R17001   5.180   2.056   3.606
    3OL    H13S17002   4.998   2.055   3.609
    3OL    C11417003   5.078   2.215   3.501
    3OL    H14R17004   5.000   2.234   3.427
    3OL    H14S17005   5.162   2.257   3.446
    3OL    C11517006   5.057   2.301   3.627
    3OL    H15R17007   5.085   2.405   3.607
    3OL    H15S17008   5.110   2.256   3.711
    3OL    C11617009   4.906   2.309   3.655
    3OL    H16R17010   4.877   2.207   3.683
    3OL    H16S17011   4.858   2.342   3.563
    3OL    C11717012   4.874   2.420   3.756
    3OL    H17R17013   4.766   2.435   3.746
    3OL    H17S17014   4.916   2.517   3.733
    3OL    C11817015   4.924   2.389   3.898
    3OL    H18R17016   4.892   2.460   3.975
    3OL    H18S17017   5.032   2.375   3.906
    3OL    H18T17018   4.872   2.297   3.925
    1PA    C11617019   4.473   3.109   3.808
    1PA    H16R17020   4.448   3.206   3.763
    1PA    H16S17021   4.515   3.041   3.734
    1PA    H16T17022   4.548   3.118   3.888
    1PA    C11517023   4.344   3.057   3.873
    1PA    H15R17024   4.323   3.113   3.964
    1PA    H15S17025   4.264   3.067   3.799
    1PA    C11417026   4.367   2.910   3.908
    1PA    H14R17027   4.411   2.861   3.820
    1PA    H14S17028   4.442   2.894   3.986
    1PA    C11317029   4.240   2.838   3.955
    1PA    H13R17030   4.271   2.737   3.985
    1PA    H13S17031   4.201   2.872   4.051
    1PA    C11217032   4.113   2.835   3.869
    1PA    H12R17033   4.023   2.806   3.925
    1PA    H12S17034   4.099   2.938   3.835
    1PA    C11117035   4.129   2.751   3.742
    1PA    H11R17036   4.211   2.788   3.680
    1PA    H11S17037   4.146   2.647   3.772
    1PA    C11017038   4.003   2.757   3.655
    1PA    H10R17039   3.971   2.860   3.636
    1PA    H10S17040   4.030   2.708   3.561
    1PA     C1917041   3.888   2.686   3.728
    1PA     H9R17042   3.923   2.592   3.772
    1PA     H9S17043   3.857   2.746   3.814
    1PA     C1817044   3.759   2.659   3.648
    1PA     H8R17045   3.696   2.600   3.714
    1PA     H8S17046   3.719   2.756   3.619
    1PA     C1717047   3.788   2.596   3.511
    1PA     H7R17048   3.853   2.659   3.450
    1PA     H7S17049   3.845   2.506   3.532
    1PA     C1617050   3.656   2.568   3.437
    1PA     H6R17051   3.575   2.525   3.496
    1PA     H6S17052   3.614   2.664   3.405
    1PA     C1517053   3.676   2.489   3.307
    1PA     H5R17054   3.739   2.554   3.245
    1PA     H5S17055   3.715   2.393   3.341
    1PA     C1417056   3.538   2.459   3.249
    1PA     H4R17057   3.483   2.383   3.307
    1PA     H4S17058   3.472   2.546   3.247
    1PA     C1317059   3.547   2.423   3.100
    1PA     H3R17060   3.604   2.330   3.093
    1PA     H3S17061   3.444   2.410   3.067
    1PA     C1217062   3.606   2.525   3.002
    1PA     H2R17063   3.561   2.624   3.017
    1PA     H2S17064   3.713   2.531   3.023
    2PC     C1117065   3.589   2.482   2.858
    2PC     O1217066   3.490   2.428   2.813
    2PC     O1117067   3.702   2.498   2.788
    2PC      C117068   3.701   2.471   2.647
    2PC      HR17069   3.799   2.454   2.602
    2PC      HS17070   3.650   2.379   2.617
    2PC      C217071   3.638   2.590   2.573
    2PC      HX17072   3.538   2.617   2.607
    2PC      C317073   3.636   2.576   2.420
    2PC      HA17074   3.583   2.483   2.397
    2PC      HB17075   3.572   2.649   2.370
    2PC     O3117076   3.775   2.584   2.386
    2PC     P3117077   3.828   2.565   2.236
    2PC     O3217078   3.987   2.556   2.252
    2PC     C3117079   4.071   2.648   2.179
    2PC     H1A17080   4.046   2.664   2.073
    2PC     H1B17081   4.062   2.743   2.232
    2PC     C3217082   4.219   2.608   2.182
    2PC     H2A17083   4.278   2.682   2.127
    2PC     H2B17084   4.236   2.622   2.288
    2PC     N3117085   4.259   2.473   2.129
    2PC     C3317086   4.408   2.462   2.118
    2PC     H3A17087   4.462   2.538   2.062
    2PC     H3B17088   4.440   2.455   2.222
    2PC     H3C17089   4.428   2.370   2.061
    2PC     C3417090   4.204   2.367   2.219
    2PC     H4A17091   4.231   2.271   2.173
    2PC     H4B17092   4.257   2.378   2.314
    2PC     H4C17093   4.095   2.377   2.220
    2PC     C3517094   4.198   2.458   1.993
    2PC     H5A17095   4.217   2.360   1.947
    2PC     H5B17096   4.246   2.526   1.922
    2PC     H5C17097   4.092   2.472   2.012
    2PC     O3317098   3.792   2.431   2.183
    2PC     O3417099   3.781   2.654   2.128
    2PC     O2117100   3.721   2.704   2.601
    2PC     C2117101   3.683   2.830   2.573
    2PC     O2217102   3.575   2.878   2.545
    3OL     C1217103   3.802   2.922   2.585
    3OL     H2R17104   3.838   2.955   2.487
    3OL     H2S17105   3.884   2.871   2.635
    3OL     C1317106   3.770   3.051   2.662
    3OL     H3R17107   3.727   3.023   2.759
    3OL     H3S17108   3.691   3.102   2.607
    3OL     C1417109   3.895   3.138   2.675
    3OL     H4R17110   3.930   3.195   2.588
    3OL     H4S17111   3.980   3.076   2.702
    3OL     C1517112   3.868   3.241   2.786
    3OL     H5R17113   3.833   3.186   2.873
    3OL     H5S17114   3.794   3.312   2.749
    3OL     C1617115   3.992   3.324   2.822
    3OL     H6R17116   4.036   3.374   2.735
    3OL     H6S17117   4.074   3.258   2.853
    3OL     C1717118   3.961   3.420   2.937
    3OL     H7R17119   3.854   3.418   2.959
    3OL     H7S17120   4.003   3.518   2.917
    3OL     C1817121   4.037   3.365   3.059
    3OL     H8R17122   4.142   3.359   3.028
    3OL     H8S17123   4.011   3.260   3.073
    3OL     C1917124   4.016   3.462   3.172
    3OL     H9R17125   4.024   3.568   3.146
    3OL    C11017126   3.979   3.422   3.292
    3OL    H10R17127   3.962   3.487   3.378
    3OL    C11117128   3.944   3.285   3.343
    3OL    H11R17129   3.996   3.206   3.288
    3OL    H11S17130   3.836   3.275   3.336
    3OL    C11217131   3.986   3.256   3.488
    3OL    H12R17132   3.941   3.330   3.556
    3OL    H12S17133   4.093   3.261   3.506
    3OL    C11317134   3.931   3.121   3.536
    3OL    H13R17135   3.972   3.101   3.635
    3OL    H13S17136   3.965   3.037   3.474
    3OL    C11417137   3.781   3.094   3.544
    3OL    H14R17138   3.773   3.010   3.614
    3OL    H14S17139   3.739   3.053   3.451
    3OL    C11517140   3.699   3.211   3.601
    3OL    H15R17141   3.702   3.292   3.528
    3OL    H15S17142   3.752   3.240   3.692
    3OL    C11617143   3.553   3.173   3.629
    3OL    H16R17144   3.510   3.112   3.549
    3OL    H16S17145   3.490   3.262   3.634
    3OL    C11717146   3.535   3.085   3.753
    3OL    H17R17147   3.600   3.127   3.831
    3OL    H17S17148   3.563   2.984   3.723
    3OL    C11817149   3.391   3.088   3.804
    3OL    H18R17150   3.376   3.005   3.874
    3OL    H18S17151   3.325   3.060   3.721
    3OL    H18T17152   3.357   3.186   3.838
    4SOL     OW17153   5.824   1.282   7.430
    4SOL    HW117154   5.891   1.328   7.379
    4SOL    HW217155   5.753   1.266   7.368
    5SOL     OW17156   4.340   0.444   0.366
    5SOL    HW117157   4.269   0.499   0.400
    5SOL    HW217158   4.332   0.362   0.414
    6SOL     OW17159   1.673   3.586   7.528
    6SOL    HW117160   1.665   3.498   7.491
    6SOL    HW217161   1.643   3.576   7.619
    7SOL     OW17162   4.866   2.589   7.332
    7SOL    HW117163   4.951   2.544   7.334
    7SOL    HW217164   4.879   2.661   7.270
    8SOL     OW17165   2.042   2.035   2.087
    8SOL    HW117166   2.027   1.976   2.160
    8SOL    HW217167   1.977   2.010   2.022
    9SOL     OW17168   0.014   1.210   0.400
    9SOL    HW117169  -0.034   1.267   0.460
    9SOL    HW217170   0.077   1.268   0.358
   10SOL     OW17171   5.092   5.433   7.252
   10SOL    HW117172   5.096   5.347   7.293
   10SOL    HW217173   5.163   5.433   7.188
   11SOL     OW17174   4.600   2.504   7.350
   11SOL    HW117175   4.594   2.412   7.325
   11SOL    HW217176   4.694   2.521   7.357
   12SOL     OW17177   1.712   6.210   0.737
   12SOL    HW117178   1.733   6.268   0.663
   12SOL    HW217179   1.619   6.189   0.726
   13SOL     OW17180   1.109   5.453   6.594
   13SOL    HW117181   1.046   5.518   6.562
   13SOL    HW217182   1.084   5.372   6.551
   14SOL     OW17183   5.529   0.212   7.367
   14SOL    HW117184   5.574   0.296   7.364
   14SOL    HW217185   5.594   0.151   7.401
   15SOL     OW17186   2.648   3.560   6.831
   15SOL    HW117187   2.657   3.512   6.748
   15SOL    HW217188   2.684   3.647   6.812
   16SOL     OW17189   2.228   1.143   7.283
   16SOL    HW117190   2.193   1.232   7.279
   16SOL    HW217191   2.197   1.109   7.367
   17SOL     OW17192   6.306   0.122   1.665
   17SOL    HW117193   6.218   0.142   1.695
   17SOL    HW217194   6.296   0.041   1.615
   18SOL     OW17195   5.743   5.956   7.733
   18SOL    HW117196   5.736   6.050   7.714
   18SOL    HW217197   5.735   5.914   7.647
   19SOL     OW17198   5.091   4.342   1.362
   19SOL    HW117199   5.046   4.390   1.293
   19SOL    HW217200   5.040   4.262   1.373
   20SOL     OW17201   1.822   0.725   0.381
   20SOL    HW117202   1.837   0.771   0.463
   20SOL    HW217203   1.907   0.722   0.338
   21SOL     OW17204   6.372   2.439   0.055
   21SOL    HW117205   6.468   2.441   0.062
   21SOL    HW217206   6.346   2.531   0.064
   22SOL     OW17207   4.278   4.212   2.267
   22SOL    HW117208   4.299   4.120   2.253
   22SOL    HW217209   4.351   4.246   2.319
   23SOL     OW17210   6.139   6.358   0.220
   23SOL    HW117211   6.204   6.373   0.289
   23SOL    HW217212   6.082   6.435   0.224
   24SOL     OW17213   5.675   6.022   1.410
   24SOL    HW117214   5.683   6.116   1.431
   24SOL    HW217215   5.651   6.020   1.317
   25SOL     OW17216   5.377   2.750   7.233
   25SOL    HW117217   5.383   2.840   7.266
   25SOL    HW217218   5.361   2.761   7.139
   26SOL     OW17219   3.338   6.053   1.687
   26SOL    HW117220   3.311   6.139   1.654
   26SOL    HW217221   3.261   6.019   1.731
   27SOL     OW17222   2.187   1.824   0.853
   27SOL    HW117223   2.114   1.839   0.913
   27SOL    HW217224   2.264   1.854   0.901
   28SOL     OW17225   3.644   2.921   6.667
   28SOL    HW117226   3.578   2.989   6.658
   28SOL    HW217227   3.631   2.887   6.756
   29SOL     OW17228   5.686   1.440   1.352
   29SOL    HW117229   5.629   1.398   1.417
   29SOL    HW217230   5.627   1.464   1.280
   30SOL     OW17231   5.535   2.992   7.580
   30SOL    HW117232   5.480   3.030   7.512
   30SOL    HW217233   5.480   2.994   7.659
   31SOL     OW17234   4.074   1.668   0.017
   31SOL    HW117235   4.140   1.626  -0.039
   31SOL    HW217236   4.077   1.761  -0.007
   32SOL     OW17237   1.164   4.526   0.811
   32SOL    HW117238   1.171   4.437   0.775
   32SOL    HW217239   1.184   4.515   0.904
   33SOL     OW17240   1.464   3.387   2.114
   33SOL    HW117241   1.445   3.402   2.021
   33SOL    HW217242   1.411   3.311   2.138
   34SOL     OW17243   5.220   0.840   7.615
   34SOL    HW117244   5.142   0.873   7.658
   34SOL    HW217245   5.272   0.802   7.686
   35SOL     OW17246   6.195   2.679   6.403
   35SOL    HW117247   6.204   2.635   6.318
   35SOL    HW217248   6.245   2.760   6.393
   36SOL     OW17249   5.079   3.787   6.212
   36SOL    HW117250   5.040   3.762   6.295
   36SOL    HW217251   5.010   3.835   6.166
   37SOL     OW17252   4.790   2.339   2.168
   37SOL    HW117253   4.726   2.268   2.172
   37SOL    HW217254   4.751   2.409   2.220
   38SOL     OW17255   5.694   1.356   6.284
   38SOL    HW117256   5.768   1.403   6.323
   38SOL    HW217257   5.647   1.423   6.234
   39SOL     OW17258   4.913   1.216   1.993
   39SOL    HW117259   4.841   1.163   2.027
   39SOL    HW217260   4.951   1.163   1.923
   40SOL     OW17261   2.812   0.579   7.192
   40SOL    HW117262   2.870   0.559   7.118
   40SOL    HW217263   2.739   0.519   7.181
   41SOL     OW17264   6.138   3.064   2.252
   41SOL    HW117265   6.074   3.102   2.311
   41SOL    HW217266   6.222   3.099   2.282
   42SOL     OW17267   2.829   1.525   6.417
   42SOL    HW117268   2.918   1.513   6.386
   42SOL    HW217269   2.785   1.443   6.397
   43SOL     OW17270   5.850   1.651   7.214
   43SOL    HW117271   5.764   1.643   7.172
   43SOL    HW217272   5.840   1.722   7.276
   44SOL     OW17273   4.652   0.457   1.693
   44SOL    HW117274   4.712   0.515   1.740
   44SOL    HW217275   4.694   0.371   1.696
   45SOL     OW17276   2.639   0.731   6.290
   45SOL    HW117277   2.641   0.715   6.384
   45SOL    HW217278   2.573   0.800   6.279
   46SOL     OW17279   0.500   6.418   5.924
   46SOL    HW117280   0.468   6.476   5.855
   46SOL    HW217281   0.437   6.345   5.925
   47SOL     OW17282   3.524   2.192   1.378
   47SOL    HW117283   3.604   2.189   1.430
   47SOL    HW217284   3.495   2.283   1.382
   48SOL     OW17285   5.404   4.206   7.718
   48SOL    HW117286   5.369   4.295   7.708
   48SOL    HW217287   5.466   4.214   7.791
   49SOL     OW17288   0.848   5.850   1.791
   49SOL    HW117289   0.767   5.805   1.768
   49SOL    HW217290   0.913   5.780   1.800
   50SOL     OW17291   5.217   3.354   2.133
   50SOL    HW117292   5.247   3.423   2.074
   50SOL    HW217293   5.251   3.273   2.095
   51SOL     OW17294   3.398   4.962   6.835
   51SOL    HW117295   3.431   5.021   6.903
   51SOL    HW217296   3.329   4.912   6.878
   52SOL     OW17297   3.089   0.078   7.393
   52SOL    HW117298   3.052   0.133   7.324
   52SOL    HW217299   3.019   0.070   7.458
   53SOL     OW17300   4.362   3.294   6.958
   53SOL    HW117301   4.399   3.223   7.009
   53SOL    HW217302   4.342   3.362   7.022
   54SOL     OW17303   5.412   0.622   6.141
   54SOL    HW117304   5.389   0.705   6.098
   54SOL    HW217305   5.502   0.605   6.112
   55SOL     OW17306   6.248   2.068   7.274
   55SOL    HW117307   6.268   1.977   7.292
   55SOL    HW217308   6.154   2.070   7.255
   56SOL     OW17309   0.640   4.177   1.169
   56SOL    HW117310   0.699   4.191   1.243
   56SOL    HW217311   0.634   4.262   1.126
   57SOL     OW17312   0.128   4.874   1.875
   57SOL    HW117313   0.122   4.844   1.965
   57SOL    HW217314   0.210   4.836   1.842
   58SOL     OW17315   1.231   1.690   0.303
   58SOL    HW117316   1.241   1.774   0.347
   58SOL    HW217317   1.140   1.690   0.272
   59SOL     OW17318   0.144   0.402   0.513
   59SOL    HW117319   0.240   0.398   0.506
   59SOL    HW217320   0.113   0.356   0.435
   60SOL     OW17321   2.544   3.943   6.200
   60SOL    HW117322   2.586   3.910   6.279
   60SOL    HW217323   2.615   3.985   6.151
   61SOL     OW17324   1.817   5.404   2.043
   61SOL    HW117325   1.829   5.313   2.016
   61SOL    HW217326   1.801   5.399   2.137
   62SOL     OW17327   6.331   3.542   6.096
   62SOL    HW117328   6.286   3.468   6.055
   62SOL    HW217329   6.354   3.599   6.023
   63SOL     OW17330   4.532   4.341   6.585
   63SOL    HW117331   4.586   4.415   6.614
   63SOL    HW217332   4.537   4.278   6.656
   64SOL     OW17333   1.439   0.574   6.247
   64SOL    HW117334   1.476   0.489   6.224
   64SOL    HW217335   1.363   0.554   6.302
   65SOL     OW17336   2.777   5.289   6.200
   65SOL    HW117337   2.790   5.367   6.255
   65SOL    HW217338   2.803   5.216   6.256
   66SOL     OW17339   5.936   3.201   7.068
   66SOL    HW117340   5.969   3.202   7.158
   66SOL    HW217341   5.912   3.110   7.052
   67SOL     OW17342   1.993   5.930   1.106
   67SOL    HW117343   2.066   5.907   1.048
   67SOL    HW217344   1.930   5.972   1.047
   68SOL     OW17345   2.641   2.735   0.301
   68SOL    HW117346   2.686   2.816   0.323
   68SOL    HW217347   2.707   2.682   0.257
   69SOL     OW17348   6.360   2.388   0.395
   69SOL    HW117349   6.419   2.443   0.344
   69SOL    HW217350   6.414   2.313   0.422
   70SOL     OW17351   2.313   2.090   0.039
   70SOL    HW117352   2.256   2.017   0.018
   70SOL    HW217353   2.257   2.167   0.032
   71SOL     OW17354   4.656   2.666   6.771
   71SOL    HW117355   4.622   2.648   6.683
   71SOL    HW217356   4.725   2.602   6.783
   72SOL     OW17357   1.529   2.261   1.522
   72SOL    HW117358   1.549   2.355   1.526
   72SOL    HW217359   1.494   2.240   1.608
   73SOL     OW17360   1.221   1.634   1.474
   73SOL    HW117361   1.250   1.553   1.430
   73SOL    HW217362   1.238   1.703   1.410
   74SOL     OW17363   5.573   0.720   5.867
   74SOL    HW117364   5.629   0.667   5.923
   74SOL    HW217365   5.503   0.750   5.924
   75SOL     OW17366   4.271   4.901   6.174
   75SOL    HW117367   4.324   4.973   6.140
   75SOL    HW217368   4.298   4.824   6.124
   76SOL     OW17369   5.033   4.992   0.552
   76SOL    HW117370   5.029   5.083   0.581
   76SOL    HW217371   5.052   4.943   0.632
   77SOL     OW17372   0.945   0.918   0.353
   77SOL    HW117373   1.034   0.925   0.318
   77SOL    HW217374   0.939   0.991   0.415
   78SOL     OW17375   5.851   4.477   7.113
   78SOL    HW117376   5.923   4.468   7.051
   78SOL    HW217377   5.797   4.399   7.100
   79SOL     OW17378   4.276   1.320   1.501
   79SOL    HW117379   4.270   1.261   1.576
   79SOL    HW217380   4.361   1.300   1.462
   80SOL     OW17381   0.254   2.230   7.524
   80SOL    HW117382   0.235   2.322   7.504
   80SOL    HW217383   0.300   2.232   7.608
   81SOL     OW17384   4.633   5.402   7.464
   81SOL    HW117385   4.544   5.433   7.444
   81SOL    HW217386   4.683   5.421   7.385
   82SOL     OW17387   1.755   1.721   0.817
   82SOL    HW117388   1.686   1.753   0.875
   82SOL    HW217389   1.757   1.785   0.746
   83SOL     OW17390   6.311   5.459   5.991
   83SOL    HW117391   6.294   5.379   5.942
   83SOL    HW217392   6.251   5.524   5.955
   84SOL     OW17393   2.242   5.450   1.656
   84SOL    HW117394   2.190   5.489   1.727
   84SOL    HW217395   2.323   5.423   1.698
   85SOL     OW17396   0.573   4.315   0.932
   85SOL    HW117397   0.538   4.331   0.844
   85SOL    HW217398   0.581   4.220   0.938
   86SOL     OW17399   0.963   1.841   0.287
   86SOL    HW117400   0.898   1.826   0.356
   86SOL    HW217401   1.003   1.925   0.309
   87SOL     OW17402   6.403   2.844   1.878
   87SOL    HW117403   6.337   2.902   1.915
   87SOL    HW217404   6.467   2.903   1.838
   88SOL     OW17405   0.590   4.194   6.394
   88SOL    HW117406   0.629   4.136   6.329
   88SOL    HW217407   0.558   4.269   6.344
   89SOL     OW17408   0.467   3.714   7.417
   89SOL    HW117409   0.501   3.742   7.332
   89SOL    HW217410   0.418   3.634   7.399
   90SOL     OW17411   3.505   0.132   0.605
   90SOL    HW117412   3.415   0.130   0.640
   90SOL    HW217413   3.561   0.118   0.681
   91SOL     OW17414   0.779   3.495   7.702
   91SOL    HW117415   0.807   3.406   7.679
   91SOL    HW217416   0.840   3.522   7.771
   92SOL     OW17417   5.519   3.521   0.502
   92SOL    HW117418   5.539   3.476   0.584
   92SOL    HW217419   5.497   3.610   0.528
   93SOL     OW17420   3.164   1.478   0.286
   93SOL    HW117421   3.126   1.497   0.200
   93SOL    HW217422   3.146   1.556   0.338
   94SOL     OW17423   5.478   2.094   0.019
   94SOL    HW117424   5.401   2.115  -0.034
   94SOL    HW217425   5.473   1.999   0.031
   95SOL     OW17426   6.225   4.442   6.924
   95SOL    HW117427   6.308   4.405   6.953
   95SOL    HW217428   6.159   4.397   6.977
   96SOL     OW17429   0.323   0.078   1.154
   96SOL    HW117430   0.272   0.012   1.200
   96SOL    HW217431   0.267   0.156   1.153
   97SOL     OW17432   1.867   5.054   7.209
   97SOL    HW117433   1.878   5.014   7.295
   97SOL    HW217434   1.944   5.108   7.198
   98SOL     OW17435   0.216   6.085   1.731
   98SOL    HW117436   0.222   6.128   1.816
   98SOL    HW217437   0.123   6.063   1.722
   99SOL     OW17438   1.045   2.176   1.052
   99SOL    HW117439   1.016   2.185   1.143
   99SOL    HW217440   1.104   2.251   1.038
  100SOL     OW17441   2.272   5.451   7.665
  100SOL    HW117442   2.205   5.389   7.691
  100SOL    HW217443   2.224   5.520   7.619
  101SOL     OW17444   0.275   3.763   6.642
  101SOL    HW117445   0.296   3.765   6.735
  101SOL    HW217446   0.280   3.670   6.618
  102SOL     OW17447   4.510   0.009   6.502
  102SOL    HW117448   4.479  -0.071   6.459
  102SOL    HW217449   4.455   0.017   6.580
  103SOL     OW17450   3.735   2.162   7.209
  103SOL    HW117451   3.817   2.209   7.191
  103SOL    HW217452   3.680   2.181   7.133
  104SOL     OW17453   4.009   1.191   7.090
  104SOL    HW117454   4.046   1.221   7.173
  104SOL    HW217455   4.026   1.096   7.090
  105SOL     OW17456   5.061   1.430   7.374
  105SOL    HW117457   5.145   1.465   7.343
  105SOL    HW217458   4.999   1.500   7.354
  106SOL     OW17459   5.858   3.318   1.757
  106SOL    HW117460   5.866   3.399   1.706
  106SOL    HW217461   5.811   3.258   1.699
  107SOL     OW17462   0.109   3.782   0.556
  107SOL    HW117463   0.033   3.774   0.613
  107SOL    HW217464   0.111   3.699   0.507
  108SOL     OW17465   1.896   3.603   0.040
  108SOL    HW117466   1.809   3.643   0.043
  108SOL    HW217467   1.941   3.639   0.117
  109SOL     OW17468   2.855   5.057   6.679
  109SOL    HW117469   2.819   4.989   6.737
  109SOL    HW217470   2.823   5.139   6.716
  110SOL     OW17471   3.745   1.786   1.797
  110SOL    HW117472   3.763   1.878   1.814
  110SOL    HW217473   3.817   1.757   1.740
  111SOL     OW17474   1.839   0.449   0.779
  111SOL    HW117475   1.822   0.491   0.863
  111SOL    HW217476   1.756   0.451   0.733
  112SOL     OW17477   5.332   1.875   0.524
  112SOL    HW117478   5.253   1.823   0.513
  112SOL    HW217479   5.311   1.960   0.485
  113SOL     OW17480   2.704   0.924   1.191
  113SOL    HW117481   2.730   0.903   1.102
  113SOL    HW217482   2.673   0.840   1.227
  114SOL     OW17483   5.657   6.046   0.520
  114SOL    HW117484   5.663   5.964   0.472
  114SOL    HW217485   5.726   6.101   0.483
  115SOL     OW17486   2.394   0.490   7.339
  115SOL    HW117487   2.451   0.444   7.277
  115SOL    HW217488   2.363   0.422   7.398
  116SOL     OW17489   3.131   6.260   7.588
  116SOL    HW117490   3.205   6.206   7.563
  116SOL    HW217491   3.102   6.225   7.672
  117SOL     OW17492   2.806   4.126   6.809
  117SOL    HW117493   2.869   4.148   6.877
  117SOL    HW217494   2.748   4.202   6.805
  118SOL     OW17495   6.427   2.603   0.873
  118SOL    HW117496   6.479   2.684   0.864
  118SOL    HW217497   6.491   2.537   0.900
  119SOL     OW17498   6.156   1.580   5.802
  119SOL    HW117499   6.196   1.499   5.835
  119SOL    HW217500   6.230   1.640   5.792
  120SOL     OW17501   5.383   4.384   1.917
  120SOL    HW117502   5.477   4.383   1.929
  120SOL    HW217503   5.350   4.315   1.975
  121SOL     OW17504   2.440   2.959   6.516
  121SOL    HW117505   2.454   2.939   6.424
  121SOL    HW217506   2.399   2.880   6.552
  122SOL     OW17507   5.980   1.504   1.060
  122SOL    HW117508   5.996   1.420   1.016
  122SOL    HW217509   5.986   1.483   1.154
  123SOL     OW17510   6.346   4.533   6.540
  123SOL    HW117511   6.302   4.547   6.456
  123SOL    HW217512   6.354   4.438   6.547
  124SOL     OW17513   5.953   6.095   1.733
  124SOL    HW117514   5.996   6.077   1.817
  124SOL    HW217515   5.864   6.120   1.756
  125SOL     OW17516   1.062   0.620   0.263
  125SOL    HW117517   1.058   0.606   0.168
  125SOL    HW217518   1.036   0.711   0.275
  126SOL     OW17519   4.662   2.562   2.232
  126SOL    HW117520   4.599   2.615   2.281
  126SOL    HW217521   4.666   2.602   2.146
  127SOL     OW17522   2.432   5.221   2.786
  127SOL    HW117523   2.383   5.276   2.847
  127SOL    HW217524   2.384   5.138   2.784
  128SOL     OW17525   2.924   5.050   0.255
  128SOL    HW117526   2.962   5.094   0.332
  128SOL    HW217527   2.837   5.023   0.284
  129SOL     OW17528   0.715   3.585   1.304
  129SOL    HW117529   0.772   3.593   1.228
  129SOL    HW217530   0.642   3.644   1.286
  130SOL     OW17531   5.825   0.157   1.666
  130SOL    HW117532   5.917   0.152   1.689
  130SOL    HW217533   5.784   0.206   1.738
  131SOL     OW17534   2.136   4.500   7.542
  131SOL    HW117535   2.050   4.459   7.551
  131SOL    HW217536   2.118   4.593   7.531
  132SOL     OW17537   4.388   4.949   0.454
  132SOL    HW117538   4.314   4.889   0.442
  132SOL    HW217539   4.463   4.891   0.466
  133SOL     OW17540   3.099   6.455   1.427
  133SOL    HW117541   3.086   6.384   1.364
  133SOL    HW217542   3.153   6.416   1.496
  134SOL     OW17543   4.322   5.379   1.634
  134SOL    HW117544   4.378   5.354   1.707
  134SOL    HW217545   4.328   5.474   1.630
  135SOL     OW17546   0.175   2.485   7.492
  135SOL    HW117547   0.143   2.542   7.422
  135SOL    HW217548   0.166   2.537   7.571
  136SOL     OW17549   2.824   2.782   1.301
  136SOL    HW117550   2.883   2.760   1.373
  136SOL    HW217551   2.826   2.705   1.244
  137SOL     OW17552   0.691   3.395   7.095
  137SOL    HW117553   0.723   3.373   7.183
  137SOL    HW217554   0.676   3.310   7.053
  138SOL     OW17555   5.826   5.241   1.891
  138SOL    HW117556   5.751   5.252   1.832
  138SOL    HW217557   5.902   5.262   1.836
  139SOL     OW17558   4.805   3.919   2.919
  139SOL    HW117559   4.837   4.003   2.888
  139SOL    HW217560   4.719   3.910   2.878
  140SOL     OW17561   4.056   1.501   2.204
  140SOL    HW117562   4.010   1.515   2.121
  140SOL    HW217563   3.987   1.484   2.268
  141SOL     OW17564   0.777   1.896   5.990
  141SOL    HW117565   0.835   1.956   5.942
  141SOL    HW217566   0.716   1.863   5.924
  142SOL     OW17567   3.217   2.616   2.313
  142SOL    HW117568   3.268   2.673   2.371
  142SOL    HW217569   3.126   2.631   2.338
  143SOL     OW17570   3.371   6.071   0.577
  143SOL    HW117571   3.335   6.158   0.560
  143SOL    HW217572   3.359   6.023   0.495
  144SOL     OW17573   4.928   4.151   1.450
  144SOL    HW117574   4.934   4.190   1.537
  144SOL    HW217575   4.961   4.062   1.462
  145SOL     OW17576   2.247   3.068   6.264
  145SOL    HW117577   2.170   3.014   6.249
  145SOL    HW217578   2.319   3.005   6.271
  146SOL     OW17579   4.935   0.389   5.876
  146SOL    HW117580   5.030   0.379   5.885
  146SOL    HW217581   4.923   0.425   5.789
  147SOL     OW17582   6.326   6.387   0.437
  147SOL    HW117583   6.337   6.351   0.525
  147SOL    HW217584   6.316   6.482   0.451
  148SOL     OW17585   3.363   4.358   6.722
  148SOL    HW117586   3.322   4.319   6.800
  148SOL    HW217587   3.295   4.415   6.686
  149SOL     OW17588   2.455   1.805   6.641
  149SOL    HW117589   2.378   1.751   6.623
  149SOL    HW217590   2.459   1.810   6.737
  150SOL     OW17591   5.963   4.231   1.277
  150SOL    HW117592   6.051   4.196   1.273
  150SOL    HW217593   5.970   4.309   1.332
  151SOL     OW17594   5.811   5.660   1.986
  151SOL    HW117595   5.743   5.723   1.964
  151SOL    HW217596   5.885   5.713   2.016
  152SOL     OW17597   5.114   1.149   6.778
  152SOL    HW117598   5.184   1.085   6.770
  152SOL    HW217599   5.038   1.107   6.737
  153SOL     OW17600   4.420   0.464   0.106
  153SOL    HW117601   4.381   0.469   0.194
  153SOL    HW217602   4.355   0.502   0.048
  154SOL     OW17603   0.598   2.307   0.773
  154SOL    HW117604   0.660   2.247   0.815
  154SOL    HW217605   0.537   2.250   0.727
  155SOL     OW17606   1.645   5.462   0.579
  155SOL    HW117607   1.698   5.479   0.656
  155SOL    HW217608   1.605   5.377   0.595
  156SOL     OW17609   3.393   5.578   2.649
  156SOL    HW117610   3.364   5.526   2.575
  156SOL    HW217611   3.420   5.513   2.714
  157SOL     OW17612   0.683   5.427   0.893
  157SOL    HW117613   0.725   5.346   0.864
  157SOL    HW217614   0.756   5.483   0.918
  158SOL     OW17615   1.356   5.365   1.382
  158SOL    HW117616   1.309   5.418   1.317
  158SOL    HW217617   1.393   5.429   1.442
  159SOL     OW17618   3.756   5.459   1.687
  159SOL    HW117619   3.828   5.516   1.659
  159SOL    HW217620   3.684   5.518   1.705
  160SOL     OW17621   0.691   4.105   5.654
  160SOL    HW117622   0.735   4.021   5.666
  160SOL    HW217623   0.622   4.105   5.720
  161SOL     OW17624   1.585   5.131   0.212
  161SOL    HW117625   1.620   5.218   0.229
  161SOL    HW217626   1.502   5.147   0.165
  162SOL     OW17627   5.942   3.837   0.387
  162SOL    HW117628   5.960   3.755   0.340
  162SOL    HW217629   5.864   3.818   0.439
  163SOL     OW17630   5.609   3.512   6.452
  163SOL    HW117631   5.650   3.554   6.528
  163SOL    HW217632   5.522   3.551   6.448
  164SOL     OW17633   6.144   1.222   1.957
  164SOL    HW117634   6.099   1.181   1.883
  164SOL    HW217635   6.236   1.201   1.945
  165SOL     OW17636   0.761   3.930   0.844
  165SOL    HW117637   0.732   3.879   0.768
  165SOL    HW217638   0.717   3.889   0.919
  166SOL     OW17639   5.695   1.938   1.684
  166SOL    HW117640   5.712   2.012   1.626
  166SOL    HW217641   5.782   1.907   1.710
  167SOL     OW17642   5.062   4.427   7.624
  167SOL    HW117643   5.000   4.483   7.670
  167SOL    HW217644   5.109   4.381   7.694
  168SOL     OW17645   2.417   1.227   6.824
  168SOL    HW117646   2.330   1.216   6.862
  168SOL    HW217647   2.416   1.315   6.786
  169SOL     OW17648   2.594   5.228   2.576
  169SOL    HW117649   2.540   5.240   2.654
  169SOL    HW217650   2.631   5.315   2.559
  170SOL     OW17651   3.370   4.037   2.423
  170SOL    HW117652   3.380   3.995   2.337
  170SOL    HW217653   3.292   3.995   2.461
  171SOL     OW17654   3.580   1.573   0.015
  171SOL    HW117655   3.526   1.507  -0.029
  171SOL    HW217656   3.554   1.568   0.107
  172SOL     OW17657   4.836   4.314   1.918
  172SOL    HW117658   4.838   4.379   1.847
  172SOL    HW217659   4.749   4.275   1.913
  173SOL     OW17660   5.271   5.320   1.261
  173SOL    HW117661   5.347   5.378   1.268
  173SOL    HW217662   5.309   5.232   1.257
  174SOL     OW17663   0.903   3.649   1.570
  174SOL    HW117664   0.911   3.555   1.554
  174SOL    HW217665   0.809   3.664   1.581
  175SOL     OW17666   1.595   2.841   0.390
  175SOL    HW117667   1.684   2.871   0.403
  175SOL    HW217668   1.540   2.913   0.422
  176SOL     OW17669   5.528   4.210   1.534
  176SOL    HW117670   5.540   4.137   1.595
  176SOL    HW217671   5.434   4.228   1.536
  177SOL     OW17672   3.063   4.706   7.142
  177SOL    HW117673   3.076   4.694   7.236
  177SOL    HW217674   3.006   4.634   7.116
  178SOL     OW17675   0.242   1.469   6.910
  178SOL    HW117676   0.224   1.563   6.912
  178SOL    HW217677   0.211   1.441   6.824
  179SOL     OW17678   1.276   3.937   2.703
  179SOL    HW117679   1.281   3.972   2.614
  179SOL    HW217680   1.361   3.957   2.742
  180SOL     OW17681   3.322   6.070   0.858
  180SOL    HW117682   3.322   6.080   0.763
  180SOL    HW217683   3.370   6.146   0.891
  181SOL     OW17684   2.875   2.633   0.197
  181SOL    HW117685   2.835   2.553   0.232
  181SOL    HW217686   2.969   2.617   0.207
  182SOL     OW17687   4.443   1.908   1.521
  182SOL    HW117688   4.355   1.933   1.494
  182SOL    HW217689   4.462   1.963   1.597
  183SOL     OW17690   3.472   1.434   6.319
  183SOL    HW117691   3.436   1.401   6.236
  183SOL    HW217692   3.413   1.399   6.386
  184SOL     OW17693   4.336   3.700   0.126
  184SOL    HW117694   4.363   3.615   0.090
  184SOL    HW217695   4.286   3.741   0.056
  185SOL     OW17696   4.646   5.458   1.375
  185SOL    HW117697   4.553   5.468   1.391
  185SOL    HW217698   4.658   5.365   1.359
  186SOL     OW17699   5.584   2.331   2.531
  186SOL    HW117700   5.492   2.357   2.543
  186SOL    HW217701   5.620   2.399   2.474
  187SOL     OW17702   3.967   1.152   2.002
  187SOL    HW117703   4.062   1.166   2.005
  187SOL    HW217704   3.934   1.194   2.081
  188SOL     OW17705   3.409   6.243   1.137
  188SOL    HW117706   3.474   6.294   1.186
  188SOL    HW217707   3.347   6.308   1.105
  189SOL     OW17708   5.913   0.847   0.743
  189SOL    HW117709   5.871   0.761   0.736
  189SOL    HW217710   5.993   0.831   0.793
  190SOL     OW17711   5.179   3.145   6.285
  190SOL    HW117712   5.250   3.082   6.274
  190SOL    HW217713   5.180   3.196   6.204
  191SOL     OW17714   3.538   2.201   0.584
  191SOL    HW117715   3.541   2.135   0.515
  191SOL    HW217716   3.482   2.270   0.549
  192SOL     OW17717   4.421   1.664   2.421
  192SOL    HW117718   4.514   1.656   2.402
  192SOL    HW217719   4.413   1.744   2.472
  193SOL     OW17720   2.392   4.593   1.877
  193SOL    HW117721   2.335   4.521   1.904
  193SOL    HW217722   2.331   4.664   1.855
  194SOL     OW17723   0.641   2.185   6.561
  194SOL    HW117724   0.698   2.140   6.499
  194SOL    HW217725   0.613   2.116   6.622
  195SOL     OW17726   2.412   4.379   0.196
  195SOL    HW117727   2.414   4.459   0.248
  195SOL    HW217728   2.504   4.359   0.179
  196SOL     OW17729   1.913   3.578   1.264
  196SOL    HW117730   1.986   3.559   1.205
  196SOL    HW217731   1.953   3.629   1.335
  197SOL     OW17732   5.098   5.369   6.221
  197SOL    HW117733   5.179   5.411   6.250
  197SOL    HW217734   5.050   5.438   6.176
  198SOL     OW17735   0.036   0.740   1.214
  198SOL    HW117736  -0.056   0.755   1.236
  198SOL    HW217737   0.060   0.813   1.156
  199SOL     OW17738   4.238   3.151   6.313
  199SOL    HW117739   4.145   3.128   6.314
  199SOL    HW217740   4.255   3.176   6.223
  200SOL     OW17741   5.159   2.213   5.974
  200SOL    HW117742   5.254   2.201   5.977
  200SOL    HW217743   5.141   2.281   6.039
  201SOL     OW17744   2.663   5.142   2.319
  201SOL    HW117745   2.626   5.121   2.405
  201SOL    HW217746   2.736   5.080   2.309
  202SOL     OW17747   6.348   2.446   7.174
  202SOL    HW117748   6.312   2.473   7.090
  202SOL    HW217749   6.408   2.374   7.153
  203SOL     OW17750   3.970   2.565   0.838
  203SOL    HW117751   3.989   2.474   0.813
  203SOL    HW217752   4.049   2.613   0.815
  204SOL     OW17753   4.211   4.438   2.491
  204SOL    HW117754   4.200   4.432   2.586
  204SOL    HW217755   4.285   4.380   2.472
  205SOL     OW17756   2.133   0.066   0.907
  205SOL    HW117757   2.135   0.019   0.824
  205SOL    HW217758   2.130  -0.004   0.973
  206SOL     OW17759   3.665   1.477   7.301
  206SOL    HW117760   3.733   1.452   7.364
  206SOL    HW217761   3.676   1.417   7.228
  207SOL     OW17762   3.392   5.855   6.501
  207SOL    HW117763   3.301   5.832   6.521
  207SOL    HW217764   3.395   5.950   6.508
  208SOL     OW17765   4.848   5.057   0.936
  208SOL    HW117766   4.801   5.133   0.971
  208SOL    HW217767   4.815   5.047   0.847
  209SOL     OW17768   0.091   2.836   0.973
  209SOL    HW117769   0.028   2.894   1.016
  209SOL    HW217770   0.176   2.874   0.996
  210SOL     OW17771   1.884   4.140   7.467
  210SOL    HW117772   1.876   4.221   7.517
  210SOL    HW217773   1.906   4.169   7.378
  211SOL     OW17774   4.206   3.111   0.922
  211SOL    HW117775   4.149   3.157   0.860
  211SOL    HW217776   4.294   3.136   0.897
  212SOL     OW17777   4.642   6.139   5.952
  212SOL    HW117778   4.634   6.213   5.891
  212SOL    HW217779   4.734   6.139   5.977
  213SOL     OW17780   2.895   6.237   6.990
  213SOL    HW117781   2.799   6.229   6.983
  213SOL    HW217782   2.927   6.210   6.904
  214SOL     OW17783   2.051   3.099   2.603
  214SOL    HW117784   2.137   3.061   2.585
  214SOL    HW217785   2.070   3.179   2.652
  215SOL     OW17786   4.966   4.073   0.988
  215SOL    HW117787   4.986   4.167   0.980
  215SOL    HW217788   5.036   4.038   1.043
  216SOL     OW17789   3.381   4.184   1.737
  216SOL    HW117790   3.429   4.102   1.741
  216SOL    HW217791   3.391   4.212   1.646
  217SOL     OW17792   5.583   1.600   7.431
  217SOL    HW117793   5.507   1.631   7.383
  217SOL    HW217794   5.605   1.516   7.391
  218SOL     OW17795   6.164   5.189   0.507
  218SOL    HW117796   6.238   5.200   0.447
  218SOL    HW217797   6.103   5.132   0.459
  219SOL     OW17798   2.496   2.326   7.604
  219SOL    HW117799   2.525   2.400   7.550
  219SOL    HW217800   2.458   2.264   7.541
  220SOL     OW17801   4.104   6.254   1.417
  220SOL    HW117802   4.182   6.254   1.472
  220SOL    HW217803   4.098   6.343   1.383
  221SOL     OW17804   2.150   5.566   6.172
  221SOL    HW117805   2.148   5.478   6.133
  221SOL    HW217806   2.188   5.621   6.104
  222SOL     OW17807   6.099   6.211   0.530
  222SOL    HW117808   6.183   6.233   0.570
  222SOL    HW217809   6.081   6.285   0.471
  223SOL     OW17810   5.586   4.378   1.326
  223SOL    HW117811   5.601   4.320   1.252
  223SOL    HW217812   5.550   4.321   1.394
  224SOL     OW17813   0.380   2.673   1.111
  224SOL    HW117814   0.392   2.610   1.040
  224SOL    HW217815   0.389   2.758   1.069
  225SOL     OW17816   5.351   3.878   7.247
  225SOL    HW117817   5.324   3.787   7.230
  225SOL    HW217818   5.325   3.925   7.168
  226SOL     OW17819   1.902   4.904   0.647
  226SOL    HW117820   1.841   4.859   0.589
  226SOL    HW217821   1.984   4.854   0.638
  227SOL     OW17822   2.223   2.186   0.473
  227SOL    HW117823   2.276   2.214   0.548
  227SOL    HW217824   2.288   2.159   0.407
  228SOL     OW17825   0.036   3.987   7.711
  228SOL    HW117826   0.077   3.911   7.671
  228SOL    HW217827   0.109   4.036   7.750
  229SOL     OW17828   5.514   4.461   0.226
  229SOL    HW117829   5.475   4.481   0.142
  229SOL    HW217830   5.601   4.501   0.222
  230SOL     OW17831   3.222   2.400   6.117
  230SOL    HW117832   3.134   2.366   6.099
  230SOL    HW217833   3.279   2.324   6.117
  231SOL     OW17834   2.963   4.184   2.454
  231SOL    HW117835   2.923   4.220   2.375
  231SOL    HW217836   2.988   4.260   2.506
  232SOL     OW17837   0.376   4.763   1.811
  232SOL    HW117838   0.460   4.745   1.853
  232SOL    HW217839   0.393   4.754   1.717
  233SOL     OW17840   1.497   6.365   6.293
  233SOL    HW117841   1.553   6.302   6.248
  233SOL    HW217842   1.533   6.450   6.269
  234SOL     OW17843   4.042   0.022   7.408
  234SOL    HW117844   4.062  -0.051   7.467
  234SOL    HW217845   4.027  -0.020   7.323
  235SOL     OW17846   5.042   1.389   2.173
  235SOL    HW117847   5.105   1.318   2.171
  235SOL    HW217848   4.967   1.357   2.124
  236SOL     OW17849   4.898   0.081   7.708
  236SOL    HW117850   4.840   0.130   7.649
  236SOL    HW217851   4.886  -0.011   7.682
  237SOL     OW17852   1.943   5.633   2.004
  237SOL    HW117853   1.875   5.680   2.051
  237SOL    HW217854   1.920   5.540   2.014
  238SOL     OW17855   6.032   1.483   6.819
  238SOL    HW117856   6.014   1.546   6.749
  238SOL    HW217857   6.044   1.536   6.897
  239SOL     OW17858   3.787   3.949   0.039
  239SOL    HW117859   3.791   3.864  -0.005
  239SOL    HW217860   3.699   3.981   0.021
  240SOL     OW17861   2.823   2.257   1.710
  240SOL    HW117862   2.839   2.272   1.617
  240SOL    HW217863   2.738   2.298   1.727
  241SOL     OW17864   4.872   5.790   6.381
  241SOL    HW117865   4.824   5.851   6.437
  241SOL    HW217866   4.907   5.845   6.310
  242SOL     OW17867   0.459   6.282   0.778
  242SOL    HW117868   0.401   6.323   0.713
  242SOL    HW217869   0.483   6.198   0.739
  243SOL     OW17870   5.938   0.065   5.694
  243SOL    HW117871   6.015   0.095   5.742
  243SOL    HW217872   5.883   0.143   5.685
  244SOL     OW17873   1.844   4.414   0.874
  244SOL    HW117874   1.937   4.426   0.852
  244SOL    HW217875   1.819   4.495   0.918
  245SOL     OW17876   5.140   3.757   2.615
  245SOL    HW117877   5.055   3.716   2.630
  245SOL    HW217878   5.176   3.712   2.539
  246SOL     OW17879   2.540   4.629   7.280
  246SOL    HW117880   2.577   4.606   7.365
  246SOL    HW217881   2.606   4.686   7.240
  247SOL     OW17882   0.493   2.978   0.401
  247SOL    HW117883   0.413   2.924   0.408
  247SOL    HW217884   0.466   3.064   0.434
  248SOL     OW17885   3.213   0.659   0.840
  248SOL    HW117886   3.216   0.684   0.932
  248SOL    HW217887   3.120   0.655   0.818
  249SOL     OW17888   2.287   5.671   1.078
  249SOL    HW117889   2.256   5.742   1.021
  249SOL    HW217890   2.338   5.716   1.146
  250SOL     OW17891   3.369   1.786   0.622
  250SOL    HW117892   3.346   1.784   0.715
  250SOL    HW217893   3.465   1.790   0.622
  251SOL     OW17894   4.810   0.581   7.056
  251SOL    HW117895   4.878   0.618   7.113
  251SOL    HW217896   4.759   0.657   7.027
  252SOL     OW17897   2.637   1.715   0.923
  252SOL    HW117898   2.680   1.668   0.852
  252SOL    HW217899   2.601   1.793   0.882
  253SOL     OW17900   3.976   6.264   2.274
  253SOL    HW117901   3.893   6.268   2.321
  253SOL    HW217902   3.986   6.172   2.249
  254SOL     OW17903   1.673   2.653   5.559
  254SOL    HW117904   1.593   2.687   5.519
  254SOL    HW217905   1.736   2.725   5.553
  255SOL     OW17906   2.832   0.865   2.439
  255SOL    HW117907   2.888   0.909   2.504
  255SOL    HW217908   2.892   0.837   2.370
  256SOL     OW17909   5.794   0.909   1.561
  256SOL    HW117910   5.745   0.980   1.604
  256SOL    HW217911   5.843   0.953   1.492
  257SOL     OW17912   5.668   0.945   0.925
  257SOL    HW117913   5.752   0.926   0.884
  257SOL    HW217914   5.603   0.907   0.866
  258SOL     OW17915   5.198   0.383   2.054
  258SOL    HW117916   5.247   0.350   2.129
  258SOL    HW217917   5.109   0.349   2.067
  259SOL     OW17918   5.782   5.785   2.408
  259SOL    HW117919   5.816   5.751   2.325
  259SOL    HW217920   5.688   5.796   2.392
  260SOL     OW17921   5.016   4.870   0.811
  260SOL    HW117922   4.943   4.813   0.786
  260SOL    HW217923   4.979   4.931   0.875
  261SOL     OW17924   2.697   5.554   0.018
  261SOL    HW117925   2.769   5.608   0.050
  261SOL    HW217926   2.656   5.606  -0.051
  262SOL     OW17927   5.973   5.814   0.753
  262SOL    HW117928   5.930   5.896   0.726
  262SOL    HW217929   6.067   5.833   0.742
  263SOL     OW17930   3.791   1.921   5.523
  263SOL    HW117931   3.714   1.975   5.506
  263SOL    HW217932   3.865   1.982   5.513
  264SOL     OW17933   5.372   5.415   2.028
  264SOL    HW117934   5.308   5.420   2.099
  264SOL    HW217935   5.422   5.497   2.036
  265SOL     OW17936   0.640   4.399   0.349
  265SOL    HW117937   0.675   4.397   0.439
  265SOL    HW217938   0.655   4.310   0.316
  266SOL     OW17939   2.579   3.827   0.059
  266SOL    HW117940   2.591   3.905   0.113
  266SOL    HW217941   2.495   3.839   0.016
  267SOL     OW17942   1.047   5.440   1.509
  267SOL    HW117943   1.083   5.448   1.421
  267SOL    HW217944   0.960   5.402   1.497
  268SOL     OW17945   6.353   4.831   1.754
  268SOL    HW117946   6.435   4.863   1.789
  268SOL    HW217947   6.326   4.762   1.815
  269SOL     OW17948   3.015   5.151   5.919
  269SOL    HW117949   3.098   5.198   5.908
  269SOL    HW217950   3.023   5.108   6.004
  270SOL     OW17951   1.368   6.359   0.097
  270SOL    HW117952   1.301   6.428   0.099
  270SOL    HW217953   1.406   6.365   0.009
  271SOL     OW17954   4.200   2.403   7.744
  271SOL    HW117955   4.199   2.388   7.839
  271SOL    HW217956   4.108   2.417   7.721
  272SOL     OW17957   1.687   6.260   6.608
  272SOL    HW117958   1.692   6.168   6.632
  272SOL    HW217959   1.732   6.266   6.524
  273SOL     OW17960   1.244   0.635   1.834
  273SOL    HW117961   1.153   0.604   1.834
  273SOL    HW217962   1.241   0.717   1.784
  274SOL     OW17963   2.192   3.765   7.488
  274SOL    HW117964   2.196   3.732   7.398
  274SOL    HW217965   2.102   3.795   7.499
  275SOL     OW17966   4.268   4.986   1.221
  275SOL    HW117967   4.252   5.074   1.185
  275SOL    HW217968   4.357   4.991   1.256
  276SOL     OW17969   0.092   3.264   1.684
  276SOL    HW117970   0.087   3.350   1.643
  276SOL    HW217971   0.163   3.271   1.748
  277SOL     OW17972   4.549   1.273   5.956
  277SOL    HW117973   4.639   1.267   5.924
  277SOL    HW217974   4.498   1.299   5.879
  278SOL     OW17975   0.681   3.280   6.454
  278SOL    HW117976   0.706   3.266   6.362
  278SOL    HW217977   0.638   3.365   6.454
  279SOL     OW17978   5.507   5.539   6.489
  279SOL    HW117979   5.534   5.584   6.569
  279SOL    HW217980   5.588   5.530   6.439
  280SOL     OW17981   6.007   1.067   1.781
  280SOL    HW117982   5.917   1.052   1.812
  280SOL    HW217983   5.996   1.116   1.700
  281SOL     OW17984   2.473   2.515   0.097
  281SOL    HW117985   2.439   2.459   0.027
  281SOL    HW217986   2.510   2.453   0.160
  282SOL     OW17987   3.422   2.085   6.529
  282SOL    HW117988   3.465   2.074   6.614
  282SOL    HW217989   3.329   2.087   6.550
  283SOL     OW17990   0.887   5.001   0.012
  283SOL    HW117991   0.807   5.023  -0.035
  283SOL    HW217992   0.881   4.907   0.027
  284SOL     OW17993   2.120   5.208   7.570
  284SOL    HW117994   2.074   5.132   7.605
  284SOL    HW217995   2.055   5.278   7.570
  285SOL     OW17996   1.650   5.319   5.878
  285SOL    HW117997   1.713   5.334   5.807
  285SOL    HW217998   1.660   5.395   5.934
  286SOL     OW17999   0.829   2.185   7.289
  286SOL    HW118000   0.909   2.236   7.302
  286SOL    HW218001   0.761   2.236   7.334
  287SOL     OW18002   5.911   0.460   6.826
  287SOL    HW118003   5.986   0.479   6.770
  287SOL    HW218004   5.948   0.407   6.897
  288SOL     OW18005   5.804   0.095   7.074
  288SOL    HW118006   5.783   0.124   6.986
  288SOL    HW218007   5.859   0.165   7.110
  289SOL     OW18008   0.109   0.300   0.263
  289SOL    HW118009   0.171   0.331   0.197
  289SOL    HW218010   0.028   0.286   0.215
  290SOL     OW18011   3.559   0.130   1.170
  290SOL    HW118012   3.512   0.195   1.222
  290SOL    HW218013   3.557   0.164   1.081
  291SOL     OW18014   2.875   0.615   6.579
  291SOL    HW118015   2.872   0.545   6.644
  291SOL    HW218016   2.946   0.590   6.519
  292SOL     OW18017   4.396   4.429   0.055
  292SOL    HW118018   4.448   4.359   0.095
  292SOL    HW218019   4.459   4.501   0.042
  293SOL     OW18020   0.374   1.067   0.212
  293SOL    HW118021   0.281   1.067   0.188
  293SOL    HW218022   0.420   1.086   0.130
  294SOL     OW18023   6.324   4.134   0.531
  294SOL    HW118024   6.333   4.176   0.616
  294SOL    HW218025   6.412   4.103   0.510
  295SOL     OW18026   3.287   5.206   6.748
  295SOL    HW118027   3.318   5.122   6.781
  295SOL    HW218028   3.355   5.268   6.772
  296SOL     OW18029   4.920   3.053   6.332
  296SOL    HW118030   5.013   3.066   6.310
  296SOL    HW218031   4.918   3.051   6.428
  297SOL     OW18032   0.911   3.962   7.594
  297SOL    HW118033   0.926   3.993   7.504
  297SOL    HW218034   0.872   3.875   7.583
  298SOL     OW18035   0.558   0.363   1.175
  298SOL    HW118036   0.521   0.449   1.195
  298SOL    HW218037   0.576   0.324   1.260
  299SOL     OW18038   5.486   5.300   5.399
  299SOL    HW118039   5.579   5.314   5.381
  299SOL    HW218040   5.473   5.207   5.386
  300SOL     OW18041   3.503   2.712   6.128
  300SOL    HW118042   3.579   2.753   6.169
  300SOL    HW218043   3.540   2.646   6.069
  301SOL     OW18044   0.198   4.541   6.552
  301SOL    HW118045   0.109   4.533   6.587
  301SOL    HW218046   0.244   4.464   6.585
  302SOL     OW18047   1.499   6.362   2.723
  302SOL    HW118048   1.474   6.372   2.631
  302SOL    HW218049   1.555   6.438   2.740
  303SOL     OW18050   0.575   2.050   1.943
  303SOL    HW118051   0.537   2.130   1.906
  303SOL    HW218052   0.538   2.044   2.031
  304SOL     OW18053   4.578   0.447   2.440
  304SOL    HW118054   4.595   0.391   2.515
  304SOL    HW218055   4.665   0.471   2.407
  305SOL     OW18056   5.013   0.551   0.923
  305SOL    HW118057   5.051   0.536   1.010
  305SOL    HW218058   4.948   0.620   0.937
  306SOL     OW18059   3.600   1.595   0.761
  306SOL    HW118060   3.521   1.567   0.809
  306SOL    HW218061   3.626   1.518   0.711
  307SOL     OW18062   1.523   1.182   6.572
  307SOL    HW118063   1.560   1.210   6.489
  307SOL    HW218064   1.447   1.129   6.549
  308SOL     OW18065   3.582   2.953   1.929
  308SOL    HW118066   3.666   2.912   1.910
  308SOL    HW218067   3.597   3.046   1.913
  309SOL     OW18068   4.825   5.165   0.006
  309SOL    HW118069   4.900   5.134   0.057
  309SOL    HW218070   4.802   5.249   0.046
  310SOL     OW18071   5.168   5.327   7.624
  310SOL    HW118072   5.258   5.354   7.641
  310SOL    HW218073   5.115   5.375   7.687
  311SOL     OW18074   2.568   4.018   0.274
  311SOL    HW118075   2.479   4.030   0.241
  311SOL    HW218076   2.556   3.980   0.361
  312SOL     OW18077   3.208   6.442   5.777
  312SOL    HW118078   3.224   6.451   5.871
  312SOL    HW218079   3.195   6.532   5.746
  313SOL     OW18080   6.000   4.919   0.692
  313SOL    HW118081   6.068   4.871   0.740
  313SOL    HW218082   6.023   4.908   0.600
  314SOL     OW18083   2.811   4.747   1.688
  314SOL    HW118084   2.764   4.707   1.761
  314SOL    HW218085   2.795   4.841   1.696
  315SOL     OW18086   4.629   1.544   7.285
  315SOL    HW118087   4.590   1.474   7.338
  315SOL    HW218088   4.687   1.499   7.224
  316SOL     OW18089   0.072   4.939   6.672
  316SOL    HW118090   0.067   5.019   6.725
  316SOL    HW218091   0.113   4.875   6.728
  317SOL     OW18092   2.626   1.079   6.420
  317SOL    HW118093   2.587   1.017   6.358
  317SOL    HW218094   2.592   1.052   6.505
  318SOL     OW18095   2.034   4.394   1.538
  318SOL    HW118096   2.084   4.471   1.512
  318SOL    HW218097   1.951   4.402   1.490
  319SOL     OW18098   4.688   5.572   7.049
  319SOL    HW118099   4.743   5.631   7.100
  319SOL    HW218100   4.708   5.485   7.083
  320SOL     OW18101   5.642   0.356   5.928
  320SOL    HW118102   5.644   0.427   5.991
  320SOL    HW218103   5.559   0.311   5.945
  321SOL     OW18104   5.328   2.166   2.957
  321SOL    HW118105   5.365   2.103   2.895
  321SOL    HW218106   5.334   2.123   3.042
  322SOL     OW18107   2.118   1.978   7.039
  322SOL    HW118108   2.092   1.974   7.131
  322SOL    HW218109   2.036   1.990   6.991
  323SOL     OW18110   4.700   1.448   6.496
  323SOL    HW118111   4.702   1.358   6.464
  323SOL    HW218112   4.610   1.477   6.479
  324SOL     OW18113   2.819   6.301   7.448
  324SOL    HW118114   2.870   6.300   7.367
  324SOL    HW218115   2.882   6.284   7.517
  325SOL     OW18116   2.165   0.526   6.462
  325SOL    HW118117   2.218   0.604   6.480
  325SOL    HW218118   2.127   0.542   6.375
  326SOL     OW18119   1.733   1.356   5.790
  326SOL    HW118120   1.655   1.322   5.833
  326SOL    HW218121   1.701   1.424   5.730
  327SOL     OW18122   0.828   2.135   6.824
  327SOL    HW118123   0.871   2.089   6.895
  327SOL    HW218124   0.899   2.159   6.764
  328SOL     OW18125   1.956   2.251   0.393
  328SOL    HW118126   2.048   2.235   0.416
  328SOL    HW218127   1.906   2.194   0.451
  329SOL     OW18128   2.124   3.530   7.660
  329SOL    HW118129   2.136   3.614   7.614
  329SOL    HW218130   2.038   3.538   7.702
  330SOL     OW18131   3.220   2.289   1.245
  330SOL    HW118132   3.268   2.228   1.188
  330SOL    HW218133   3.176   2.348   1.184
  331SOL     OW18134   6.223   5.256   5.343
  331SOL    HW118135   6.295   5.200   5.315
  331SOL    HW218136   6.265   5.330   5.386
  332SOL     OW18137   4.688   0.548   1.366
  332SOL    HW118138   4.771   0.505   1.384
  332SOL    HW218139   4.639   0.539   1.448
  333SOL     OW18140   3.646   6.301   1.371
  333SOL    HW118141   3.644   6.206   1.383
  333SOL    HW218142   3.721   6.316   1.314
  334SOL     OW18143   2.029   3.246   7.542
  334SOL    HW118144   2.010   3.283   7.628
  334SOL    HW218145   2.096   3.180   7.557
  335SOL     OW18146   1.239   0.721   6.951
  335SOL    HW118147   1.267   0.707   6.861
  335SOL    HW218148   1.193   0.641   6.975
  336SOL     OW18149   1.182   3.102   1.516
  336SOL    HW118150   1.103   3.078   1.566
  336SOL    HW218151   1.240   3.141   1.582
  337SOL     OW18152   4.720   4.359   1.284
  337SOL    HW118153   4.666   4.285   1.255
  337SOL    HW218154   4.772   4.323   1.356
  338SOL     OW18155   4.266   3.648   6.842
  338SOL    HW118156   4.273   3.742   6.825
  338SOL    HW218157   4.239   3.643   6.934
  339SOL     OW18158   0.708   1.818   7.044
  339SOL    HW118159   0.653   1.896   7.048
  339SOL    HW218160   0.783   1.844   6.990
  340SOL     OW18161   5.862   6.190   7.469
  340SOL    HW118162   5.921   6.250   7.516
  340SOL    HW218163   5.903   6.179   7.383
  341SOL     OW18164   0.562   4.243   6.669
  341SOL    HW118165   0.563   4.153   6.703
  341SOL    HW218166   0.583   4.234   6.576
  342SOL     OW18167   0.771   1.503   0.299
  342SOL    HW118168   0.701   1.552   0.255
  342SOL    HW218169   0.831   1.478   0.228
  343SOL     OW18170   1.070   2.563   6.045
  343SOL    HW118171   1.087   2.611   5.964
  343SOL    HW218172   0.998   2.504   6.022
  344SOL     OW18173   3.677   3.431   7.200
  344SOL    HW118174   3.762   3.475   7.196
  344SOL    HW218175   3.664   3.397   7.112
  345SOL     OW18176   0.359   3.712   6.933
  345SOL    HW118177   0.438   3.762   6.950
  345SOL    HW218178   0.369   3.631   6.984
  346SOL     OW18179   0.900   4.583   1.046
  346SOL    HW118180   0.927   4.664   1.089
  346SOL    HW218181   0.824   4.554   1.095
  347SOL     OW18182   2.210   2.770   7.016
  347SOL    HW118183   2.221   2.736   7.105
  347SOL    HW218184   2.260   2.851   7.016
  348SOL     OW18185   1.729   4.694   0.432
  348SOL    HW118186   1.692   4.607   0.415
  348SOL    HW218187   1.665   4.736   0.490
  349SOL     OW18188   3.540   0.440   7.030
  349SOL    HW118189   3.530   0.427   6.936
  349SOL    HW218190   3.524   0.533   7.043
  350SOL     OW18191   1.920   2.764   7.009
  350SOL    HW118192   1.900   2.855   7.034
  350SOL    HW218193   2.015   2.760   7.009
  351SOL     OW18194   1.500   3.090   0.448
  351SOL    HW118195   1.470   3.151   0.516
  351SOL    HW218196   1.553   3.144   0.390
  352SOL     OW18197   3.500   4.347   0.533
  352SOL    HW118198   3.568   4.364   0.468
  352SOL    HW218199   3.514   4.256   0.559
  353SOL     OW18200   3.850   3.422   0.949
  353SOL    HW118201   3.766   3.415   0.904
  353SOL    HW218202   3.899   3.345   0.919
  354SOL     OW18203   6.291   1.276   6.455
  354SOL    HW118204   6.336   1.234   6.381
  354SOL    HW218205   6.247   1.352   6.416
  355SOL     OW18206   0.270   0.864   7.444
  355SOL    HW118207   0.214   0.787   7.452
  355SOL    HW218208   0.257   0.913   7.525
  356SOL     OW18209   3.385   0.022   6.879
  356SOL    HW118210   3.374   0.043   6.972
  356SOL    HW218211   3.447  -0.051   6.879
  357SOL     OW18212   4.622   0.779   0.770
  357SOL    HW118213   4.620   0.704   0.710
  357SOL    HW218214   4.620   0.855   0.713
  358SOL     OW18215   0.390   3.533   1.964
  358SOL    HW118216   0.320   3.588   2.000
  358SOL    HW218217   0.390   3.455   2.019
  359SOL     OW18218   1.253   3.802   0.756
  359SOL    HW118219   1.199   3.862   0.807
  359SOL    HW218220   1.255   3.839   0.668
  360SOL     OW18221   0.558   2.922   1.980
  360SOL    HW118222   0.593   2.942   2.066
  360SOL    HW218223   0.588   2.833   1.962
  361SOL     OW18224   5.978   0.469   7.110
  361SOL    HW118225   6.026   0.463   7.192
  361SOL    HW218226   5.925   0.548   7.119
  362SOL     OW18227   3.431   5.648   1.931
  362SOL    HW118228   3.410   5.620   2.020
  362SOL    HW218229   3.468   5.735   1.941
  363SOL     OW18230   5.536   2.461   1.278
  363SOL    HW118231   5.501   2.499   1.198
  363SOL    HW218232   5.595   2.528   1.313
  364SOL     OW18233   3.512   3.941   1.748
  364SOL    HW118234   3.596   3.920   1.706
  364SOL    HW218235   3.515   3.895   1.832
  365SOL     OW18236   5.683   1.576   0.945
  365SOL    HW118237   5.764   1.578   0.894
  365SOL    HW218238   5.671   1.667   0.975
  366SOL     OW18239   2.226   4.598   1.580
  366SOL    HW118240   2.218   4.656   1.656
  366SOL    HW218241   2.255   4.514   1.616
  367SOL     OW18242   0.598   0.921   1.260
  367SOL    HW118243   0.614   0.910   1.354
  367SOL    HW218244   0.671   0.876   1.218
  368SOL     OW18245   3.095   5.334   7.113
  368SOL    HW118246   3.027   5.318   7.178
  368SOL    HW218247   3.153   5.258   7.121
  369SOL     OW18248   2.913   0.630   6.184
  369SOL    HW118249   2.833   0.672   6.216
  369SOL    HW218250   2.946   0.581   6.259
  370SOL     OW18251   5.823   3.230   0.248
  370SOL    HW118252   5.772   3.302   0.210
  370SOL    HW218253   5.799   3.231   0.341
  371SOL     OW18254   0.880   4.137   7.302
  371SOL    HW118255   0.840   4.206   7.356
  371SOL    HW218256   0.827   4.059   7.320
  372SOL     OW18257   5.381   2.770   6.936
  372SOL    HW118258   5.474   2.794   6.935
  372SOL    HW218259   5.352   2.784   6.846
  373SOL     OW18260   1.071   4.460   1.521
  373SOL    HW118261   1.127   4.407   1.577
  373SOL    HW218262   1.084   4.425   1.433
  374SOL     OW18263   4.848   1.941   0.719
  374SOL    HW118264   4.863   1.987   0.636
  374SOL    HW218265   4.774   1.882   0.701
  375SOL     OW18266   0.285   3.367   0.954
  375SOL    HW118267   0.264   3.361   1.047
  375SOL    HW218268   0.376   3.398   0.952
  376SOL     OW18269   5.017   0.089   2.526
  376SOL    HW118270   4.991  -0.001   2.545
  376SOL    HW218271   5.082   0.109   2.594
  377SOL     OW18272   4.388   3.936   6.083
  377SOL    HW118273   4.335   4.011   6.109
  377SOL    HW218274   4.477   3.970   6.078
  378SOL     OW18275   4.083   0.935   7.103
  378SOL    HW118276   4.092   0.874   7.177
  378SOL    HW218277   4.124   0.890   7.030
  379SOL     OW18278   6.090   4.483   7.615
  379SOL    HW118279   6.181   4.504   7.635
  379SOL    HW218280   6.048   4.567   7.599
  380SOL     OW18281   6.227   4.376   2.581
  380SOL    HW118282   6.224   4.298   2.525
  380SOL    HW218283   6.163   4.435   2.542
  381SOL     OW18284   5.444   3.199   7.156
  381SOL    HW118285   5.426   3.282   7.200
  381SOL    HW218286   5.490   3.223   7.076
  382SOL     OW18287   6.058   3.857   0.041
  382SOL    HW118288   6.015   3.805   0.109
  382SOL    HW218289   6.004   3.936   0.033
  383SOL     OW18290   6.460   2.526   2.149
  383SOL    HW118291   6.398   2.559   2.214
  383SOL    HW218292   6.519   2.470   2.199
  384SOL     OW18293   2.750   2.144   6.336
  384SOL    HW118294   2.672   2.193   6.310
  384SOL    HW218295   2.803   2.139   6.256
  385SOL     OW18296   3.287   1.142   0.340
  385SOL    HW118297   3.281   1.159   0.246
  385SOL    HW218298   3.296   1.229   0.379
  386SOL     OW18299   1.784   0.000   6.127
  386SOL    HW118300   1.736  -0.029   6.049
  386SOL    HW218301   1.720   0.053   6.176
  387SOL     OW18302   2.849   0.054   6.808
  387SOL    HW118303   2.918  -0.012   6.800
  387SOL    HW218304   2.803   0.050   6.724
  388SOL     OW18305   1.254   0.916   6.312
  388SOL    HW118306   1.276   0.849   6.248
  388SOL    HW218307   1.306   0.993   6.286
  389SOL     OW18308   3.474   4.780   0.271
  389SOL    HW118309   3.518   4.735   0.199
  389SOL    HW218310   3.532   4.768   0.346
  390SOL     OW18311   5.645   4.208   0.272
  390SOL    HW118312   5.732   4.187   0.307
  390SOL    HW218313   5.639   4.303   0.277
  391SOL     OW18314   4.815   1.112   0.338
  391SOL    HW118315   4.766   1.127   0.419
  391SOL    HW218316   4.903   1.090   0.367
  392SOL     OW18317   5.363   2.572   6.389
  392SOL    HW118318   5.369   2.563   6.294
  392SOL    HW218319   5.298   2.506   6.415
  393SOL     OW18320   0.929   2.142   0.686
  393SOL    HW118321   0.987   2.084   0.736
  393SOL    HW218322   0.842   2.125   0.721
  394SOL     OW18323   5.196   4.608   2.032
  394SOL    HW118324   5.200   4.591   2.126
  394SOL    HW218325   5.225   4.526   1.991
  395SOL     OW18326   3.859   1.746   0.330
  395SOL    HW118327   3.844   1.765   0.238
  395SOL    HW218328   3.944   1.702   0.333
  396SOL     OW18329   2.952   2.061   7.187
  396SOL    HW118330   2.869   2.026   7.221
  396SOL    HW218331   2.931   2.149   7.157
  397SOL     OW18332   4.553   4.170   7.093
  397SOL    HW118333   4.480   4.231   7.100
  397SOL    HW218334   4.554   4.124   7.177
  398SOL     OW18335   5.417   2.414   0.090
  398SOL    HW118336   5.385   2.461   0.014
  398SOL    HW218337   5.447   2.330   0.055
  399SOL     OW18338   0.526   1.018   2.227
  399SOL    HW118339   0.506   1.103   2.188
  399SOL    HW218340   0.441   0.985   2.257
  400SOL     OW18341   5.588   3.339   2.175
  400SOL    HW118342   5.564   3.262   2.122
  400SOL    HW218343   5.678   3.358   2.149
  401SOL     OW18344   5.635   1.053   0.342
  401SOL    HW118345   5.591   1.069   0.258
  401SOL    HW218346   5.630   1.138   0.388
  402SOL     OW18347   4.324   4.114   7.688
  402SOL    HW118348   4.310   4.176   7.759
  402SOL    HW218349   4.418   4.113   7.674
  403SOL     OW18350   6.199   0.686   6.918
  403SOL    HW118351   6.121   0.742   6.927
  403SOL    HW218352   6.192   0.649   6.831
  404SOL     OW18353   3.999   1.331   1.332
  404SOL    HW118354   4.065   1.300   1.394
  404SOL    HW218355   4.027   1.297   1.247
  405SOL     OW18356   3.603   0.715   6.971
  405SOL    HW118357   3.627   0.790   7.026
  405SOL    HW218358   3.522   0.742   6.928
  406SOL     OW18359   6.165   4.295   6.308
  406SOL    HW118360   6.120   4.268   6.388
  406SOL    HW218361   6.129   4.381   6.288
  407SOL     OW18362   2.871   6.011   6.714
  407SOL    HW118363   2.845   6.060   6.636
  407SOL    HW218364   2.863   5.919   6.689
  408SOL     OW18365   2.456   5.333   2.331
  408SOL    HW118366   2.526   5.283   2.371
  408SOL    HW218367   2.391   5.345   2.401
  409SOL     OW18368   2.483   2.119   7.284
  409SOL    HW118369   2.427   2.074   7.347
  409SOL    HW218370   2.422   2.153   7.218
  410SOL     OW18371   1.521   3.369   6.405
  410SOL    HW118372   1.431   3.337   6.399
  410SOL    HW218373   1.532   3.395   6.497
  411SOL     OW18374   6.414   2.194   7.104
  411SOL    HW118375   6.357   2.148   7.165
  411SOL    HW218376   6.499   2.151   7.113
  412SOL     OW18377   1.161   4.938   7.519
  412SOL    HW118378   1.246   4.929   7.563
  412SOL    HW218379   1.176   4.902   7.432
  413SOL     OW18380   1.902   5.961   7.424
  413SOL    HW118381   1.873   6.039   7.471
  413SOL    HW218382   1.888   5.982   7.332
  414SOL     OW18383   2.708   1.935   7.246
  414SOL    HW118384   2.716   1.887   7.163
  414SOL    HW218385   2.622   1.977   7.240
  415SOL     OW18386   2.789   3.945   7.580
  415SOL    HW118387   2.806   3.886   7.653
  415SOL    HW218388   2.694   3.944   7.569
  416SOL     OW18389   2.028   4.111   1.818
  416SOL    HW118390   2.122   4.124   1.833
  416SOL    HW218391   2.022   4.086   1.726
  417SOL     OW18392   4.639   1.738   1.479
  417SOL    HW118393   4.566   1.800   1.484
  417SOL    HW218394   4.716   1.792   1.461
  418SOL     OW18395   2.933   1.933   2.281
  418SOL    HW118396   2.892   1.850   2.256
  418SOL    HW218397   2.902   1.996   2.216
  419SOL     OW18398   3.547   6.055   1.845
  419SOL    HW118399   3.541   6.142   1.883
  419SOL    HW218400   3.490   6.058   1.768
  420SOL     OW18401   0.567   5.146   5.652
  420SOL    HW118402   0.531   5.203   5.720
  420SOL    HW218403   0.576   5.061   5.695
  421SOL     OW18404   2.211   5.907   0.954
  421SOL    HW118405   2.178   5.869   0.872
  421SOL    HW218406   2.295   5.947   0.930
  422SOL     OW18407   1.997   2.327   6.360
  422SOL    HW118408   2.015   2.341   6.453
  422SOL    HW218409   2.069   2.371   6.315
  423SOL     OW18410   0.121   5.573   2.449
  423SOL    HW118411   0.180   5.498   2.441
  423SOL    HW218412   0.096   5.573   2.541
  424SOL     OW18413   3.045   2.394   7.756
  424SOL    HW118414   3.003   2.371   7.840
  424SOL    HW218415   3.082   2.311   7.725
  425SOL     OW18416   3.720   0.134   6.230
  425SOL    HW118417   3.631   0.132   6.195
  425SOL    HW218418   3.766   0.197   6.174
  426SOL     OW18419   5.528   5.625   3.044
  426SOL    HW118420   5.589   5.698   3.030
  426SOL    HW218421   5.445   5.657   3.008
  427SOL     OW18422   0.611   0.391   6.562
  427SOL    HW118423   0.658   0.405   6.480
  427SOL    HW218424   0.518   0.396   6.538
  428SOL     OW18425   3.129   1.152   7.406
  428SOL    HW118426   3.074   1.117   7.336
  428SOL    HW218427   3.100   1.106   7.485
  429SOL     OW18428   5.453   4.680   0.916
  429SOL    HW118429   5.524   4.669   0.979
  429SOL    HW218430   5.452   4.773   0.896
  430SOL     OW18431   1.497   0.905   0.775
  430SOL    HW118432   1.482   0.999   0.759
  430SOL    HW218433   1.430   0.861   0.723
  431SOL     OW18434   5.679   1.839   6.270
  431SOL    HW118435   5.711   1.867   6.184
  431SOL    HW218436   5.603   1.785   6.250
  432SOL     OW18437   3.450   0.983   0.505
  432SOL    HW118438   3.396   1.033   0.444
  432SOL    HW218439   3.396   0.908   0.529
  433SOL     OW18440   4.733   0.567   6.254
  433SOL    HW118441   4.721   0.549   6.347
  433SOL    HW218442   4.823   0.539   6.236
  434SOL     OW18443   6.048   2.466   1.736
  434SOL    HW118444   6.090   2.512   1.808
  434SOL    HW218445   6.002   2.393   1.778
  435SOL     OW18446   6.121   4.547   2.387
  435SOL    HW118447   6.077   4.532   2.303
  435SOL    HW218448   6.214   4.535   2.369
  436SOL     OW18449   2.938   5.601   6.715
  436SOL    HW118450   2.886   5.623   6.792
  436SOL    HW218451   2.987   5.523   6.740
  437SOL     OW18452   3.160   2.590   1.975
  437SOL    HW118453   3.117   2.523   1.923
  437SOL    HW218454   3.109   2.596   2.055
  438SOL     OW18455   3.581   2.155   6.980
  438SOL    HW118456   3.508   2.117   6.930
  438SOL    HW218457   3.645   2.180   6.913
  439SOL     OW18458   3.662   4.232   6.876
  439SOL    HW118459   3.736   4.176   6.855
  439SOL    HW218460   3.664   4.242   6.971
  440SOL     OW18461   3.939   5.909   2.400
  440SOL    HW118462   4.032   5.893   2.419
  440SOL    HW218463   3.929   5.883   2.309
  441SOL     OW18464   4.950   0.304   1.795
  441SOL    HW118465   4.948   0.303   1.891
  441SOL    HW218466   4.863   0.275   1.769
  442SOL     OW18467   3.087   4.322   0.464
  442SOL    HW118468   3.110   4.236   0.501
  442SOL    HW218469   3.167   4.374   0.474
  443SOL     OW18470   3.389   1.796   0.875
  443SOL    HW118471   3.460   1.852   0.907
  443SOL    HW218472   3.325   1.795   0.946
  444SOL     OW18473   1.053   5.853   1.549
  444SOL    HW118474   1.132   5.820   1.505
  444SOL    HW218475   1.087   5.910   1.618
  445SOL     OW18476   2.629   1.539   0.456
  445SOL    HW118477   2.640   1.571   0.367
  445SOL    HW218478   2.660   1.449   0.454
  446SOL     OW18479   1.689   5.753   2.101
  446SOL    HW118480   1.755   5.782   2.164
  446SOL    HW218481   1.653   5.834   2.065
  447SOL     OW18482   1.118   0.505   7.049
  447SOL    HW118483   1.106   0.433   6.987
  447SOL    HW218484   1.175   0.470   7.117
  448SOL     OW18485   3.556   5.132   0.936
  448SOL    HW118486   3.518   5.087   1.012
  448SOL    HW218487   3.613   5.067   0.895
  449SOL     OW18488   5.697   2.592   1.759
  449SOL    HW118489   5.776   2.643   1.742
  449SOL    HW218490   5.647   2.598   1.678
  450SOL     OW18491   2.837   3.494   7.723
  450SOL    HW118492   2.777   3.531   7.787
  450SOL    HW218493   2.916   3.472   7.772
  451SOL     OW18494   3.390   1.834   0.172
  451SOL    HW118495   3.357   1.905   0.117
  451SOL    HW218496   3.370   1.755   0.123
  452SOL     OW18497   1.484   1.790   0.488
  452SOL    HW118498   1.423   1.859   0.515
  452SOL    HW218499   1.570   1.827   0.507
  453SOL     OW18500   6.430   1.973   0.573
  453SOL    HW118501   6.448   1.927   0.655
  453SOL    HW218502   6.367   2.041   0.598
  454SOL     OW18503   2.803   5.750   7.079
  454SOL    HW118504   2.770   5.664   7.055
  454SOL    HW218505   2.728   5.808   7.072
  455SOL     OW18506   0.961   3.646   0.088
  455SOL    HW118507   0.949   3.651   0.183
  455SOL    HW218508   0.943   3.735   0.057
  456SOL     OW18509   6.049   4.772   6.590
  456SOL    HW118510   6.080   4.829   6.660
  456SOL    HW218511   6.038   4.686   6.631
  457SOL     OW18512   1.024   3.152   0.395
  457SOL    HW118513   0.991   3.069   0.428
  457SOL    HW218514   1.031   3.208   0.473
  458SOL     OW18515   2.800   3.581   1.607
  458SOL    HW118516   2.823   3.515   1.672
  458SOL    HW218517   2.707   3.598   1.623
  459SOL     OW18518   1.179   3.935   7.052
  459SOL    HW118519   1.208   3.845   7.066
  459SOL    HW218520   1.257   3.981   7.023
  460SOL     OW18521   3.594   2.417   5.828
  460SOL    HW118522   3.623   2.430   5.918
  460SOL    HW218523   3.650   2.347   5.795
  461SOL     OW18524   0.281   4.667   7.679
  461SOL    HW118525   0.228   4.739   7.716
  461SOL    HW218526   0.243   4.588   7.717
  462SOL     OW18527   5.575   2.883   0.821
  462SOL    HW118528   5.552   2.891   0.729
  462SOL    HW218529   5.559   2.791   0.842
  463SOL     OW18530   1.947   1.304   5.649
  463SOL    HW118531   1.981   1.388   5.679
  463SOL    HW218532   1.863   1.295   5.694
  464SOL     OW18533   4.581   0.521   0.689
  464SOL    HW118534   4.553   0.436   0.653
  464SOL    HW218535   4.648   0.498   0.753
  465SOL     OW18536   0.654   3.652   1.740
  465SOL    HW118537   0.579   3.593   1.732
  465SOL    HW218538   0.688   3.634   1.828
  466SOL     OW18539   5.475   0.026   0.015
  466SOL    HW118540   5.471   0.013   0.110
  466SOL    HW218541   5.491   0.120   0.005
  467SOL     OW18542   3.959   4.785   0.852
  467SOL    HW118543   3.961   4.699   0.811
  467SOL    HW218544   4.043   4.791   0.898
  468SOL     OW18545   1.531   1.982   7.392
  468SOL    HW118546   1.531   1.889   7.414
  468SOL    HW218547   1.544   1.985   7.297
  469SOL     OW18548   6.321   1.200   1.192
  469SOL    HW118549   6.233   1.164   1.206
  469SOL    HW218550   6.377   1.148   1.249
  470SOL     OW18551   2.585   4.069   1.563
  470SOL    HW118552   2.662   4.016   1.584
  470SOL    HW218553   2.620   4.156   1.543
  471SOL     OW18554   0.652   4.504   1.098
  471SOL    HW118555   0.603   4.438   1.049
  471SOL    HW218556   0.598   4.583   1.093
  472SOL     OW18557   5.772   6.307   7.051
  472SOL    HW118558   5.800   6.294   6.961
  472SOL    HW218559   5.781   6.402   7.066
  473SOL     OW18560   1.919   1.298   6.952
  473SOL    HW118561   1.894   1.326   7.040
  473SOL    HW218562   1.863   1.349   6.893
  474SOL     OW18563   4.272   0.121   6.653
  474SOL    HW118564   4.267   0.175   6.731
  474SOL    HW218565   4.306   0.179   6.585
  475SOL     OW18566   4.390   3.359   5.871
  475SOL    HW118567   4.408   3.450   5.895
  475SOL    HW218568   4.461   3.335   5.812
  476SOL     OW18569   3.521   6.114   2.248
  476SOL    HW118570   3.586   6.101   2.317
  476SOL    HW218571   3.571   6.150   2.175
  477SOL     OW18572   5.348   2.221   0.977
  477SOL    HW118573   5.418   2.257   0.922
  477SOL    HW218574   5.297   2.166   0.917
  478SOL     OW18575   3.567   2.164   2.416
  478SOL    HW118576   3.596   2.074   2.432
  478SOL    HW218577   3.617   2.192   2.339
  479SOL     OW18578   4.413   5.966   5.966
  479SOL    HW118579   4.465   6.043   5.941
  479SOL    HW218580   4.477   5.903   5.998
  480SOL     OW18581   0.925   4.106   6.028
  480SOL    HW118582   0.958   4.196   6.021
  480SOL    HW218583   0.905   4.082   5.937
  481SOL     OW18584   4.761   4.220   0.834
  481SOL    HW118585   4.804   4.139   0.860
  481SOL    HW218586   4.733   4.204   0.743
  482SOL     OW18587   3.090   3.272   7.118
  482SOL    HW118588   3.131   3.229   7.042
  482SOL    HW218589   3.022   3.210   7.146
  483SOL     OW18590   3.042   2.077   2.813
  483SOL    HW118591   3.124   2.122   2.833
  483SOL    HW218592   2.974   2.133   2.851
  484SOL     OW18593   3.321   5.309   0.988
  484SOL    HW118594   3.369   5.255   0.925
  484SOL    HW218595   3.342   5.271   1.073
  485SOL     OW18596   5.672   3.261   7.615
  485SOL    HW118597   5.636   3.179   7.581
  485SOL    HW218598   5.614   3.283   7.688
  486SOL     OW18599   5.300   0.500   0.540
  486SOL    HW118600   5.244   0.544   0.475
  486SOL    HW218601   5.250   0.422   0.565
  487SOL     OW18602   3.064   3.628   0.444
  487SOL    HW118603   3.089   3.632   0.351
  487SOL    HW218604   3.064   3.719   0.473
  488SOL     OW18605   4.903   4.146   2.153
  488SOL    HW118606   4.817   4.131   2.114
  488SOL    HW218607   4.898   4.233   2.191
  489SOL     OW18608   0.138   5.872   0.208
  489SOL    HW118609   0.146   5.778   0.199
  489SOL    HW218610   0.067   5.884   0.272
  490SOL     OW18611   0.882   3.601   1.092
  490SOL    HW118612   0.817   3.607   1.022
  490SOL    HW218613   0.966   3.610   1.046
  491SOL     OW18614   3.883   3.898   0.374
  491SOL    HW118615   3.954   3.843   0.344
  491SOL    HW218616   3.910   3.926   0.462
  492SOL     OW18617   2.528   4.454   0.945
  492SOL    HW118618   2.476   4.533   0.933
  492SOL    HW218619   2.601   4.464   0.884
  493SOL     OW18620   5.115   4.983   6.900
  493SOL    HW118621   5.160   5.038   6.836
  493SOL    HW218622   5.112   5.036   6.980
  494SOL     OW18623   1.259   5.554   0.460
  494SOL    HW118624   1.277   5.589   0.373
  494SOL    HW218625   1.174   5.511   0.452
  495SOL     OW18626   0.732   3.678   6.680
  495SOL    HW118627   0.652   3.638   6.715
  495SOL    HW218628   0.774   3.609   6.629
  496SOL     OW18629   4.810   5.125   1.566
  496SOL    HW118630   4.853   5.208   1.585
  496SOL    HW218631   4.789   5.088   1.652
  497SOL     OW18632   5.101   5.794   1.742
  497SOL    HW118633   5.095   5.740   1.821
  497SOL    HW218634   5.185   5.839   1.750
  498SOL     OW18635   2.661   1.544   0.007
  498SOL    HW118636   2.629   1.469   0.058
  498SOL    HW218637   2.669   1.615   0.070
  499SOL     OW18638   1.925   5.057   1.104
  499SOL    HW118639   1.969   5.053   1.019
  499SOL    HW218640   1.832   5.060   1.084
  500SOL     OW18641   4.302   3.862   7.649
  500SOL    HW118642   4.310   3.951   7.683
  500SOL    HW218643   4.211   3.855   7.621
  501SOL     OW18644   4.400   4.834   7.681
  501SOL    HW118645   4.449   4.753   7.696
  501SOL    HW218646   4.426   4.892   7.752
  502SOL     OW18647   0.157   4.978   0.786
  502SOL    HW118648   0.157   4.958   0.880
  502SOL    HW218649   0.065   4.994   0.766
  503SOL     OW18650   1.892   3.358   7.749
  503SOL    HW118651   1.870   3.448   7.773
  503SOL    HW218652   1.886   3.310   7.831
  504SOL     OW18653   0.466   2.105   5.550
  504SOL    HW118654   0.505   2.123   5.464
  504SOL    HW218655   0.532   2.133   5.613
  505SOL     OW18656   4.059   3.231   7.422
  505SOL    HW118657   3.999   3.301   7.450
  505SOL    HW218658   4.080   3.253   7.332
  506SOL     OW18659   6.021   2.448   0.270
  506SOL    HW118660   6.098   2.435   0.215
  506SOL    HW218661   6.052   2.432   0.359
  507SOL     OW18662   0.901   2.061   7.504
  507SOL    HW118663   0.869   2.091   7.419
  507SOL    HW218664   0.986   2.022   7.486
  508SOL     OW18665   2.317   2.757   0.017
  508SOL    HW118666   2.386   2.815   0.048
  508SOL    HW218667   2.356   2.670   0.020
  509SOL     OW18668   3.619   0.264   0.924
  509SOL    HW118669   3.682   0.330   0.952
  509SOL    HW218670   3.537   0.311   0.913
  510SOL     OW18671   5.948   5.113   6.604
  510SOL    HW118672   5.978   5.183   6.663
  510SOL    HW218673   5.953   5.034   6.657
  511SOL     OW18674   3.647   1.056   7.442
  511SOL    HW118675   3.728   1.086   7.484
  511SOL    HW218676   3.586   1.041   7.515
  512SOL     OW18677   5.512   5.441   1.301
  512SOL    HW118678   5.518   5.383   1.377
  512SOL    HW218679   5.591   5.422   1.250
  513SOL     OW18680   4.462   0.062   5.375
  513SOL    HW118681   4.469   0.002   5.301
  513SOL    HW218682   4.523   0.029   5.439
  514SOL     OW18683   0.158   4.768   6.857
  514SOL    HW118684   0.190   4.680   6.878
  514SOL    HW218685   0.063   4.758   6.851
  515SOL     OW18686   5.824   5.403   2.098
  515SOL    HW118687   5.837   5.346   2.022
  515SOL    HW218688   5.816   5.491   2.060
  516SOL     OW18689   4.146   2.811   1.897
  516SOL    HW118690   4.094   2.884   1.930
  516SOL    HW218691   4.135   2.815   1.802
  517SOL     OW18692   0.146   1.424   6.626
  517SOL    HW118693   0.185   1.339   6.647
  517SOL    HW218694   0.136   1.423   6.531
  518SOL     OW18695   3.307   1.674   6.594
  518SOL    HW118696   3.239   1.691   6.660
  518SOL    HW218697   3.346   1.591   6.621
  519SOL     OW18698   0.151   2.140   2.544
  519SOL    HW118699   0.135   2.165   2.635
  519SOL    HW218700   0.074   2.088   2.520
  520SOL     OW18701   0.344   4.063   0.851
  520SOL    HW118702   0.276   3.995   0.850
  520SOL    HW218703   0.321   4.121   0.778
  521SOL     OW18704   1.996   3.664   2.109
  521SOL    HW118705   1.966   3.722   2.038
  521SOL    HW218706   2.073   3.707   2.144
  522SOL     OW18707   3.980   0.094   2.312
  522SOL    HW118708   3.964   0.001   2.294
  522SOL    HW218709   4.026   0.094   2.396
  523SOL     OW18710   2.977   0.016   7.684
  523SOL    HW118711   3.045  -0.043   7.649
  523SOL    HW218712   3.001   0.028   7.775
  524SOL     OW18713   0.655   1.432   1.398
  524SOL    HW118714   0.584   1.474   1.446
  524SOL    HW218715   0.614   1.357   1.356
  525SOL     OW18716   2.776   0.572   7.765
  525SOL    HW118717   2.804   0.517   7.692
  525SOL    HW218718   2.697   0.615   7.734
  526SOL     OW18719   3.386   0.399   0.877
  526SOL    HW118720   3.399   0.493   0.876
  526SOL    HW218721   3.307   0.386   0.929
  527SOL     OW18722   6.109   3.569   6.907
  527SOL    HW118723   6.115   3.576   7.002
  527SOL    HW218724   6.044   3.501   6.891
  528SOL     OW18725   3.991   0.936   6.272
  528SOL    HW118726   3.935   0.978   6.337
  528SOL    HW218727   3.932   0.878   6.224
  529SOL     OW18728   0.513   5.852   0.272
  529SOL    HW118729   0.455   5.842   0.196
  529SOL    HW218730   0.589   5.798   0.252
  530SOL     OW18731   2.025   2.857   1.599
  530SOL    HW118732   2.102   2.819   1.642
  530SOL    HW218733   1.951   2.823   1.649
  531SOL     OW18734   5.126   2.398   6.188
  531SOL    HW118735   5.213   2.437   6.178
  531SOL    HW218736   5.066   2.463   6.151
  532SOL     OW18737   5.656   3.703   0.119
  532SOL    HW118738   5.710   3.726   0.043
  532SOL    HW218739   5.601   3.780   0.133
  533SOL     OW18740   1.318   2.365   0.571
  533SOL    HW118741   1.358   2.443   0.534
  533SOL    HW218742   1.257   2.335   0.505
  534SOL     OW18743   1.545   3.415   2.826
  534SOL    HW118744   1.496   3.483   2.780
  534SOL    HW218745   1.607   3.463   2.880
  535SOL     OW18746   3.037   4.254   6.557
  535SOL    HW118747   2.951   4.243   6.518
  535SOL    HW218748   3.060   4.345   6.541
  536SOL     OW18749   5.279   2.468   7.580
  536SOL    HW118750   5.342   2.490   7.512
  536SOL    HW218751   5.195   2.464   7.535
  537SOL     OW18752   1.453   5.769   7.490
  537SOL    HW118753   1.481   5.773   7.581
  537SOL    HW218754   1.361   5.742   7.494
  538SOL     OW18755   6.185   5.819   1.225
  538SOL    HW118756   6.159   5.775   1.144
  538SOL    HW218757   6.274   5.851   1.207
  539SOL     OW18758   4.543   1.423   7.690
  539SOL    HW118759   4.549   1.350   7.751
  539SOL    HW218760   4.548   1.382   7.603
  540SOL     OW18761   2.533   3.650   1.653
  540SOL    HW118762   2.465   3.585   1.669
  540SOL    HW218763   2.505   3.696   1.574
  541SOL     OW18764   0.057   5.230   1.323
  541SOL    HW118765  -0.009   5.163   1.341
  541SOL    HW218766   0.047   5.249   1.229
  542SOL     OW18767   5.619   5.868   6.478
  542SOL    HW118768   5.532   5.879   6.440
  542SOL    HW218769   5.607   5.803   6.547
  543SOL     OW18770   0.976   5.094   1.146
  543SOL    HW118771   0.919   5.155   1.192
  543SOL    HW218772   1.045   5.148   1.108
  544SOL     OW18773   3.533   3.214   1.884
  544SOL    HW118774   3.551   3.294   1.933
  544SOL    HW218775   3.493   3.244   1.802
  545SOL     OW18776   3.229   3.832   1.768
  545SOL    HW118777   3.298   3.897   1.783
  545SOL    HW218778   3.272   3.748   1.784
  546SOL     OW18779   5.995   4.134   6.793
  546SOL    HW118780   6.076   4.112   6.747
  546SOL    HW218781   6.023   4.158   6.881
  547SOL     OW18782   0.228   1.256   7.338
  547SOL    HW118783   0.174   1.178   7.352
  547SOL    HW218784   0.202   1.287   7.251
  548SOL     OW18785   2.303   4.141   1.936
  548SOL    HW118786   2.261   4.216   1.980
  548SOL    HW218787   2.386   4.176   1.904
  549SOL     OW18788   5.492   5.407   7.197
  549SOL    HW118789   5.511   5.476   7.260
  549SOL    HW218790   5.577   5.371   7.174
  550SOL     OW18791   0.416   4.698   0.385
  550SOL    HW118792   0.462   4.660   0.309
  550SOL    HW218793   0.469   4.774   0.409
  551SOL     OW18794   0.298   0.857   0.000
  551SOL    HW118795   0.305   0.870   0.094
  551SOL    HW218796   0.227   0.914  -0.028
  552SOL     OW18797   2.432   0.742   7.239
  552SOL    HW118798   2.359   0.790   7.199
  552SOL    HW218799   2.395   0.657   7.261
  553SOL     OW18800   2.864   1.993   6.524
  553SOL    HW118801   2.798   2.032   6.467
  553SOL    HW218802   2.882   2.060   6.590
  554SOL     OW18803   4.601   2.332   0.987
  554SOL    HW118804   4.618   2.360   1.078
  554SOL    HW218805   4.680   2.283   0.963
  555SOL     OW18806   3.721   0.007   7.534
  555SOL    HW118807   3.656  -0.061   7.551
  555SOL    HW218808   3.789  -0.008   7.599
  556SOL     OW18809   0.773   1.177   1.109
  556SOL    HW118810   0.860   1.148   1.134
  556SOL    HW218811   0.741   1.110   1.049
  557SOL     OW18812   1.311   0.326   0.650
  557SOL    HW118813   1.234   0.380   0.633
  557SOL    HW218814   1.279   0.236   0.643
  558SOL     OW18815   0.408   0.859   0.823
  558SOL    HW118816   0.362   0.775   0.815
  558SOL    HW218817   0.342   0.924   0.797
  559SOL     OW18818   2.324   2.162   7.029
  559SOL    HW118819   2.267   2.086   7.038
  559SOL    HW218820   2.275   2.223   6.973
  560SOL     OW18821   1.548   3.201   1.433
  560SOL    HW118822   1.593   3.121   1.461
  560SOL    HW218823   1.616   3.254   1.393
  561SOL     OW18824   1.517   3.569   1.353
  561SOL    HW118825   1.474   3.633   1.297
  561SOL    HW218826   1.563   3.511   1.292
  562SOL     OW18827   3.836   1.412   5.775
  562SOL    HW118828   3.815   1.382   5.686
  562SOL    HW218829   3.920   1.372   5.795
  563SOL     OW18830   1.730   0.404   1.289
  563SOL    HW118831   1.672   0.400   1.365
  563SOL    HW218832   1.673   0.427   1.216
  564SOL     OW18833   6.417   1.780   7.706
  564SOL    HW118834   6.326   1.752   7.714
  564SOL    HW218835   6.414   1.875   7.711
  565SOL     OW18836   4.493   6.117   7.397
  565SOL    HW118837   4.469   6.201   7.358
  565SOL    HW218838   4.490   6.132   7.491
  566SOL     OW18839   1.693   5.330   1.692
  566SOL    HW118840   1.788   5.339   1.684
  566SOL    HW218841   1.669   5.272   1.620
  567SOL     OW18842   0.611   2.657   6.956
  567SOL    HW118843   0.707   2.651   6.951
  567SOL    HW218844   0.588   2.595   7.026
  568SOL     OW18845   4.576   0.453   7.569
  568SOL    HW118846   4.519   0.376   7.571
  568SOL    HW218847   4.515   0.527   7.566
  569SOL     OW18848   3.756   1.386   5.513
  569SOL    HW118849   3.673   1.380   5.561
  569SOL    HW218850   3.758   1.475   5.480
  570SOL     OW18851   2.912   5.981   1.567
  570SOL    HW118852   2.993   5.942   1.535
  570SOL    HW218853   2.910   6.068   1.527
  571SOL     OW18854   1.278   5.637   1.522
  571SOL    HW118855   1.224   5.558   1.535
  571SOL    HW218856   1.361   5.616   1.566
  572SOL     OW18857   0.624   4.496   5.670
  572SOL    HW118858   0.580   4.452   5.743
  572SOL    HW218859   0.576   4.578   5.659
  573SOL     OW18860   3.425   2.780   1.324
  573SOL    HW118861   3.400   2.750   1.412
  573SOL    HW218862   3.476   2.860   1.340
  574SOL     OW18863   0.189   3.101   7.069
  574SOL    HW118864   0.269   3.094   7.121
  574SOL    HW218865   0.133   3.159   7.119
  575SOL     OW18866   3.047   5.403   0.812
  575SOL    HW118867   2.964   5.374   0.775
  575SOL    HW218868   3.025   5.431   0.901
  576SOL     OW18869   3.270   0.778   6.335
  576SOL    HW118870   3.361   0.802   6.316
  576SOL    HW218871   3.223   0.794   6.253
  577SOL     OW18872   5.247   4.875   7.333
  577SOL    HW118873   5.245   4.807   7.265
  577SOL    HW218874   5.295   4.948   7.292
  578SOL     OW18875   4.339   1.114   5.710
  578SOL    HW118876   4.402   1.183   5.690
  578SOL    HW218877   4.363   1.041   5.653
  579SOL     OW18878   0.459   3.485   1.705
  579SOL    HW118879   0.441   3.396   1.676
  579SOL    HW218880   0.418   3.491   1.791
  580SOL     OW18881   3.052   1.432   6.257
  580SOL    HW118882   3.084   1.350   6.293
  580SOL    HW218883   2.984   1.406   6.194
  581SOL     OW18884   5.623   3.455   0.223
  581SOL    HW118885   5.607   3.490   0.311
  581SOL    HW218886   5.656   3.530   0.173
  582SOL     OW18887   3.558   0.966   0.746
  582SOL    HW118888   3.527   0.987   0.658
  582SOL    HW218889   3.598   0.880   0.738
  583SOL     OW18890   5.478   1.565   1.208
  583SOL    HW118891   5.414   1.545   1.140
  583SOL    HW218892   5.453   1.651   1.240
  584SOL     OW18893   0.201   2.404   0.145
  584SOL    HW118894   0.222   2.498   0.149
  584SOL    HW218895   0.286   2.362   0.129
  585SOL     OW18896   2.725   0.611   2.529
  585SOL    HW118897   2.764   0.562   2.457
  585SOL    HW218898   2.761   0.699   2.521
  586SOL     OW18899   5.324   5.490   6.792
  586SOL    HW118900   5.411   5.468   6.827
  586SOL    HW218901   5.337   5.490   6.697
  587SOL     OW18902   1.275   6.220   1.165
  587SOL    HW118903   1.290   6.239   1.073
  587SOL    HW218904   1.193   6.267   1.186
  588SOL     OW18905   6.137   3.452   0.086
  588SOL    HW118906   6.182   3.512   0.027
  588SOL    HW218907   6.125   3.373   0.034
  589SOL     OW18908   3.984   3.389   6.264
  589SOL    HW118909   4.018   3.365   6.351
  589SOL    HW218910   3.932   3.312   6.238
  590SOL     OW18911   1.586   1.238   7.435
  590SOL    HW118912   1.655   1.298   7.463
  590SOL    HW218913   1.606   1.156   7.479
  591SOL     OW18914   6.379   1.301   7.234
  591SOL    HW118915   6.459   1.344   7.206
  591SOL    HW218916   6.406   1.212   7.257
  592SOL     OW18917   1.268   2.044   7.642
  592SOL    HW118918   1.344   1.987   7.636
  592SOL    HW218919   1.230   2.043   7.554
  593SOL     OW18920   1.261   4.307   0.983
  593SOL    HW118921   1.169   4.294   1.006
  593SOL    HW218922   1.279   4.242   0.916
  594SOL     OW18923   5.872   2.087   7.606
  594SOL    HW118924   5.927   2.014   7.580
  594SOL    HW218925   5.806   2.049   7.664
  595SOL     OW18926   4.598   4.709   5.511
  595SOL    HW118927   4.644   4.657   5.445
  595SOL    HW218928   4.655   4.708   5.587
  596SOL     OW18929   1.690   2.544   5.830
  596SOL    HW118930   1.732   2.459   5.834
  596SOL    HW218931   1.690   2.567   5.737
  597SOL     OW18932   4.909   0.254   6.373
  597SOL    HW118933   4.814   0.264   6.380
  597SOL    HW218934   4.937   0.329   6.320
  598SOL     OW18935   5.139   3.879   6.515
  598SOL    HW118936   5.044   3.875   6.524
  598SOL    HW218937   5.153   3.917   6.428
  599SOL     OW18938   1.263   5.183   6.459
  599SOL    HW118939   1.168   5.196   6.449
  599SOL    HW218940   1.301   5.219   6.379
  600SOL     OW18941   2.191   5.302   6.069
  600SOL    HW118942   2.193   5.218   6.115
  600SOL    HW218943   2.262   5.296   6.005
  601SOL     OW18944   2.936   3.359   0.955
  601SOL    HW118945   2.866   3.321   0.901
  601SOL    HW218946   3.017   3.338   0.909
  602SOL     OW18947   3.368   5.022   6.263
  602SOL    HW118948   3.370   5.062   6.350
  602SOL    HW218949   3.453   5.044   6.225
  603SOL     OW18950   1.474   4.844   7.190
  603SOL    HW118951   1.516   4.907   7.131
  603SOL    HW218952   1.500   4.759   7.157
  604SOL     OW18953   1.097   3.148   6.469
  604SOL    HW118954   1.172   3.184   6.516
  604SOL    HW218955   1.074   3.217   6.406
  605SOL     OW18956   2.732   1.791   7.004
  605SOL    HW118957   2.656   1.745   6.967
  605SOL    HW218958   2.807   1.737   6.978
  606SOL     OW18959   4.798   3.107   1.143
  606SOL    HW118960   4.724   3.080   1.197
  606SOL    HW218961   4.791   3.055   1.063
  607SOL     OW18962   5.946   1.226   1.536
  607SOL    HW118963   6.018   1.262   1.588
  607SOL    HW218964   5.936   1.286   1.462
  608SOL     OW18965   4.740   4.892   6.659
  608SOL    HW118966   4.695   4.967   6.620
  608SOL    HW218967   4.799   4.862   6.589
  609SOL     OW18968   3.062   0.622   7.741
  609SOL    HW118969   2.967   0.633   7.751
  609SOL    HW218970   3.072   0.531   7.712
  610SOL     OW18971   1.055   2.418   0.791
  610SOL    HW118972   1.002   2.340   0.777
  610SOL    HW218973   1.144   2.393   0.765
  611SOL     OW18974   3.862   3.483   1.710
  611SOL    HW118975   3.878   3.440   1.626
  611SOL    HW218976   3.767   3.494   1.714
  612SOL     OW18977   4.269   0.726   5.812
  612SOL    HW118978   4.292   0.634   5.804
  612SOL    HW218979   4.290   0.764   5.727
  613SOL     OW18980   1.443   2.260   0.027
  613SOL    HW118981   1.364   2.207   0.029
  613SOL    HW218982   1.421   2.337   0.080
  614SOL     OW18983   0.127   2.673   0.043
  614SOL    HW118984   0.095   2.730  -0.027
  614SOL    HW218985   0.065   2.687   0.115
  615SOL     OW18986   1.964   4.122   0.954
  615SOL    HW118987   1.973   4.086   0.866
  615SOL    HW218988   1.870   4.120   0.971
  616SOL     OW18989   3.412   1.092   6.620
  616SOL    HW118990   3.430   1.079   6.713
  616SOL    HW218991   3.345   1.160   6.617
  617SOL     OW18992   6.280   5.530   1.220
  617SOL    HW118993   6.313   5.589   1.288
  617SOL    HW218994   6.192   5.562   1.202
  618SOL     OW18995   1.353   4.092   0.820
  618SOL    HW118996   1.364   3.998   0.830
  618SOL    HW218997   1.423   4.118   0.760
  619SOL     OW18998   0.839   0.637   0.593
  619SOL    HW118999   0.745   0.653   0.600
  619SOL    HW219000   0.877   0.723   0.578
  620SOL     OW19001   6.280   1.954   5.875
  620SOL    HW119002   6.283   1.897   5.798
  620SOL    HW219003   6.372   1.968   5.898
  621SOL     OW19004   2.435   3.279   6.482
  621SOL    HW119005   2.449   3.197   6.529
  621SOL    HW219006   2.363   3.260   6.422
  622SOL     OW19007   1.473   2.882   1.189
  622SOL    HW119008   1.422   2.954   1.153
  622SOL    HW219009   1.410   2.832   1.241
  623SOL     OW19010   1.349   3.992   1.146
  623SOL    HW119011   1.278   3.934   1.173
  623SOL    HW219012   1.408   3.938   1.095
  624SOL     OW19013   6.192   6.351   2.290
  624SOL    HW119014   6.234   6.300   2.220
  624SOL    HW219015   6.161   6.286   2.352
  625SOL     OW19016   2.430   3.274   1.906
  625SOL    HW119017   2.383   3.191   1.912
  625SOL    HW219018   2.512   3.259   1.952
  626SOL     OW19019   3.544   2.773   6.460
  626SOL    HW119020   3.589   2.834   6.518
  626SOL    HW219021   3.585   2.786   6.375
  627SOL     OW19022   5.997   5.681   7.005
  627SOL    HW119023   6.070   5.619   7.009
  627SOL    HW219024   5.965   5.687   7.095
  628SOL     OW19025   1.939   3.987   0.086
  628SOL    HW119026   2.022   3.966   0.128
  628SOL    HW219027   1.931   3.925   0.014
  629SOL     OW19028   6.225   4.440   5.339
  629SOL    HW119029   6.297   4.455   5.278
  629SOL    HW219030   6.223   4.519   5.393
  630SOL     OW19031   4.973   2.492   1.108
  630SOL    HW119032   5.054   2.455   1.141
  630SOL    HW219033   4.981   2.486   1.013
  631SOL     OW19034   2.309   4.934   0.191
  631SOL    HW119035   2.354   5.016   0.213
  631SOL    HW219036   2.353   4.904   0.111
  632SOL     OW19037   6.197   1.506   0.193
  632SOL    HW119038   6.157   1.466   0.116
  632SOL    HW219039   6.278   1.545   0.160
  633SOL     OW19040   4.678   3.702   5.835
  633SOL    HW119041   4.595   3.750   5.840
  633SOL    HW219042   4.664   3.624   5.889
  634SOL     OW19043   0.146   4.041   0.478
  634SOL    HW119044   0.183   4.031   0.391
  634SOL    HW219045   0.137   3.952   0.512
  635SOL     OW19046   4.105   5.249   1.509
  635SOL    HW119047   4.180   5.308   1.509
  635SOL    HW219048   4.055   5.276   1.432
  636SOL     OW19049   1.177   5.445   1.888
  636SOL    HW119050   1.104   5.471   1.832
  636SOL    HW219051   1.156   5.355   1.914
  637SOL     OW19052   1.453   2.035   6.355
  637SOL    HW119053   1.427   2.121   6.324
  637SOL    HW219054   1.400   2.021   6.434
  638SOL     OW19055   4.198   5.227   0.074
  638SOL    HW119056   4.135   5.298   0.061
  638SOL    HW219057   4.162   5.175   0.146
  639SOL     OW19058   0.912   3.882   0.225
  639SOL    HW119059   0.958   3.941   0.165
  639SOL    HW219060   0.982   3.836   0.272
  640SOL     OW19061   2.171   4.784   0.560
  640SOL    HW119062   2.218   4.704   0.585
  640SOL    HW219063   2.169   4.781   0.464
  641SOL     OW19064   3.911   5.010   3.034
  641SOL    HW119065   3.824   4.973   3.021
  641SOL    HW219066   3.895   5.102   3.056
  642SOL     OW19067   1.770   3.922   0.295
  642SOL    HW119068   1.833   3.903   0.364
  642SOL    HW219069   1.821   3.918   0.214
  643SOL     OW19070   2.528   4.503   2.222
  643SOL    HW119071   2.442   4.508   2.264
  643SOL    HW219072   2.541   4.410   2.204
  644SOL     OW19073   4.636   0.426   5.643
  644SOL    HW119074   4.628   0.406   5.737
  644SOL    HW219075   4.654   0.341   5.602
  645SOL     OW19076   2.174   4.705   1.068
  645SOL    HW119077   2.173   4.741   0.979
  645SOL    HW219078   2.193   4.780   1.124
  646SOL     OW19079   5.375   4.625   5.563
  646SOL    HW119080   5.302   4.683   5.587
  646SOL    HW219081   5.454   4.677   5.580
  647SOL     OW19082   6.245   1.980   0.811
  647SOL    HW119083   6.232   1.916   0.741
  647SOL    HW219084   6.238   1.929   0.892
  648SOL     OW19085   5.504   2.752   1.147
  648SOL    HW119086   5.426   2.806   1.159
  648SOL    HW219087   5.484   2.697   1.071
  649SOL     OW19088   0.901   4.859   6.963
  649SOL    HW119089   0.988   4.898   6.947
  649SOL    HW219090   0.839   4.928   6.939
  650SOL     OW19091   6.327   5.992   7.294
  650SOL    HW119092   6.278   5.912   7.276
  650SOL    HW219093   6.341   5.992   7.388
  651SOL     OW19094   4.326   0.780   5.563
  651SOL    HW119095   4.234   0.793   5.542
  651SOL    HW219096   4.349   0.697   5.522
  652SOL     OW19097   2.556   2.252   6.976
  652SOL    HW119098   2.475   2.213   7.007
  652SOL    HW219099   2.619   2.180   6.973
  653SOL     OW19100   3.936   4.657   7.462
  653SOL    HW119101   3.929   4.732   7.403
  653SOL    HW219102   3.985   4.689   7.537
  654SOL     OW19103   1.937   0.861   7.649
  654SOL    HW119104   1.961   0.836   7.738
  654SOL    HW219105   2.015   0.903   7.613
  655SOL     OW19106   4.465   3.880   0.267
  655SOL    HW119107   4.550   3.897   0.227
  655SOL    HW219108   4.433   3.801   0.224
  656SOL     OW19109   1.196   4.921   0.976
  656SOL    HW119110   1.191   4.946   1.068
  656SOL    HW219111   1.107   4.933   0.943
  657SOL     OW19112   1.108   0.606   0.869
  657SOL    HW119113   1.084   0.660   0.944
  657SOL    HW219114   1.086   0.516   0.896
  658SOL     OW19115   1.354   4.374   0.519
  658SOL    HW119116   1.317   4.333   0.596
  658SOL    HW219117   1.445   4.392   0.542
  659SOL     OW19118   3.050   3.984   7.535
  659SOL    HW119119   3.078   3.897   7.506
  659SOL    HW219120   2.955   3.976   7.548
  660SOL     OW19121   5.051   5.850   6.901
  660SOL    HW119122   5.095   5.930   6.932
  660SOL    HW219123   5.092   5.779   6.951
  661SOL     OW19124   4.719   4.716   1.597
  661SOL    HW119125   4.712   4.757   1.511
  661SOL    HW219126   4.773   4.776   1.648
  662SOL     OW19127   3.390   0.140   1.977
  662SOL    HW119128   3.462   0.157   2.038
  662SOL    HW219129   3.315   0.186   2.015
  663SOL     OW19130   5.070   5.861   2.294
  663SOL    HW119131   5.073   5.845   2.200
  663SOL    HW219132   5.146   5.814   2.329
  664SOL     OW19133   4.456   5.526   6.926
  664SOL    HW119134   4.469   5.433   6.910
  664SOL    HW219135   4.521   5.549   6.992
  665SOL     OW19136   1.558   1.513   2.330
  665SOL    HW119137   1.613   1.472   2.397
  665SOL    HW219138   1.621   1.548   2.266
  666SOL     OW19139   3.147   3.117   6.881
  666SOL    HW119140   3.099   3.192   6.846
  666SOL    HW219141   3.098   3.040   6.850
  667SOL     OW19142   3.150   0.594   2.194
  667SOL    HW119143   3.228   0.606   2.139
  667SOL    HW219144   3.097   0.529   2.148
  668SOL     OW19145   0.415   1.646   6.294
  668SOL    HW119146   0.410   1.742   6.296
  668SOL    HW219147   0.498   1.627   6.250
  669SOL     OW19148   2.728   2.868   2.533
  669SOL    HW119149   2.748   2.776   2.550
  669SOL    HW219150   2.796   2.895   2.471
  670SOL     OW19151   1.473   6.233   6.823
  670SOL    HW119152   1.383   6.258   6.847
  670SOL    HW219153   1.488   6.275   6.738
  671SOL     OW19154   1.983   5.168   6.591
  671SOL    HW119155   1.976   5.152   6.497
  671SOL    HW219156   1.942   5.092   6.632
  672SOL     OW19157   4.375   1.974   7.667
  672SOL    HW119158   4.384   1.967   7.572
  672SOL    HW219159   4.290   1.934   7.686
  673SOL     OW19160   4.724   6.425   0.159
  673SOL    HW119161   4.703   6.503   0.108
  673SOL    HW219162   4.814   6.403   0.134
  674SOL     OW19163   2.685   0.838   1.556
  674SOL    HW119164   2.776   0.863   1.543
  674SOL    HW219165   2.689   0.746   1.581
  675SOL     OW19166   4.703   5.801   7.284
  675SOL    HW119167   4.707   5.873   7.221
  675SOL    HW219168   4.610   5.780   7.290
  676SOL     OW19169   4.889   3.375   2.564
  676SOL    HW119170   4.952   3.408   2.500
  676SOL    HW219171   4.845   3.454   2.597
  677SOL     OW19172   0.757   6.013   0.896
  677SOL    HW119173   0.715   5.990   0.812
  677SOL    HW219174   0.851   6.008   0.878
  678SOL     OW19175   3.564   6.290   6.226
  678SOL    HW119176   3.525   6.298   6.313
  678SOL    HW219177   3.574   6.380   6.196
  679SOL     OW19178   1.669   0.654   1.673
  679SOL    HW119179   1.592   0.600   1.688
  679SOL    HW219180   1.671   0.716   1.746
  680SOL     OW19181   0.286   6.302   7.266
  680SOL    HW119182   0.312   6.374   7.323
  680SOL    HW219183   0.368   6.274   7.224
  681SOL     OW19184   2.250   5.291   1.458
  681SOL    HW119185   2.255   5.342   1.539
  681SOL    HW219186   2.202   5.348   1.397
  682SOL     OW19187   1.783   0.389   7.197
  682SOL    HW119188   1.772   0.442   7.276
  682SOL    HW219189   1.707   0.412   7.142
  683SOL     OW19190   5.883   4.758   1.896
  683SOL    HW119191   5.926   4.806   1.825
  683SOL    HW219192   5.799   4.732   1.860
  684SOL     OW19193   4.433   5.826   0.831
  684SOL    HW119194   4.388   5.759   0.882
  684SOL    HW219195   4.447   5.898   0.893
  685SOL     OW19196   3.420   0.210   6.643
  685SOL    HW119197   3.451   0.171   6.725
  685SOL    HW219198   3.442   0.303   6.650
  686SOL     OW19199   1.352   4.134   6.970
  686SOL    HW119200   1.437   4.143   6.927
  686SOL    HW219201   1.294   4.100   6.902
  687SOL     OW19202   0.492   4.097   2.173
  687SOL    HW119203   0.437   4.168   2.141
  687SOL    HW219204   0.509   4.120   2.265
  688SOL     OW19205   3.133   5.896   5.619
  688SOL    HW119206   3.227   5.879   5.620
  688SOL    HW219207   3.125   5.991   5.623
  689SOL     OW19208   5.998   5.823   1.673
  689SOL    HW119209   6.073   5.821   1.613
  689SOL    HW219210   5.982   5.917   1.688
  690SOL     OW19211   2.908   2.353   7.104
  690SOL    HW119212   2.878   2.375   7.016
  690SOL    HW219213   2.828   2.338   7.154
  691SOL     OW19214   1.466   0.931   1.050
  691SOL    HW119215   1.453   0.934   0.955
  691SOL    HW219216   1.552   0.970   1.064
  692SOL     OW19217   3.260   2.580   0.025
  692SOL    HW119218   3.188   2.522   0.000
  692SOL    HW219219   3.251   2.590   0.120
  693SOL     OW19220   4.791   3.794   0.618
  693SOL    HW119221   4.721   3.858   0.614
  693SOL    HW219222   4.758   3.718   0.569
  694SOL     OW19223   0.352   4.088   7.379
  694SOL    HW119224   0.345   4.156   7.312
  694SOL    HW219225   0.267   4.045   7.378
  695SOL     OW19226   4.257   5.650   6.498
  695SOL    HW119227   4.220   5.737   6.484
  695SOL    HW219228   4.296   5.654   6.585
  696SOL     OW19229   4.413   1.939   0.691
  696SOL    HW119230   4.325   1.905   0.675
  696SOL    HW219231   4.399   2.018   0.744
  697SOL     OW19232   2.151   0.226   0.382
  697SOL    HW119233   2.193   0.192   0.461
  697SOL    HW219234   2.147   0.321   0.397
  698SOL     OW19235   4.910   0.530   5.636
  698SOL    HW119236   4.965   0.472   5.584
  698SOL    HW219237   4.821   0.508   5.610
  699SOL     OW19238   0.830   2.371   1.155
  699SOL    HW119239   0.869   2.434   1.094
  699SOL    HW219240   0.737   2.370   1.133
  700SOL     OW19241   4.796   4.738   0.958
  700SOL    HW119242   4.719   4.784   0.924
  700SOL    HW219243   4.761   4.656   0.992
  701SOL     OW19244   5.045   5.644   7.087
  701SOL    HW119245   5.069   5.726   7.131
  701SOL    HW219246   5.066   5.576   7.152
  702SOL     OW19247   4.239   0.846   0.981
  702SOL    HW119248   4.154   0.802   0.976
  702SOL    HW219249   4.274   0.841   0.892
  703SOL     OW19250   3.385   2.969   5.549
  703SOL    HW119251   3.291   2.967   5.534
  703SOL    HW219252   3.406   2.882   5.582
  704SOL     OW19253   0.748   4.396   0.601
  704SOL    HW119254   0.655   4.401   0.625
  704SOL    HW219255   0.776   4.310   0.632
  705SOL     OW19256   1.070   2.572   1.798
  705SOL    HW119257   1.141   2.555   1.859
  705SOL    HW219258   1.031   2.654   1.829
  706SOL     OW19259   2.753   3.251   0.805
  706SOL    HW119260   2.678   3.205   0.842
  706SOL    HW219261   2.769   3.208   0.721
  707SOL     OW19262   1.670   4.494   6.880
  707SOL    HW119263   1.736   4.467   6.944
  707SOL    HW219264   1.716   4.488   6.796
  708SOL     OW19265   4.014   3.943   5.864
  708SOL    HW119266   4.058   4.024   5.836
  708SOL    HW219267   4.083   3.877   5.863
  709SOL     OW19268   6.258   3.066   1.999
  709SOL    HW119269   6.217   3.056   2.085
  709SOL    HW219270   6.197   3.121   1.950
  710SOL     OW19271   1.409   6.332   6.006
  710SOL    HW119272   1.493   6.369   5.979
  710SOL    HW219273   1.403   6.350   6.100
  711SOL     OW19274   4.159   2.719   1.166
  711SOL    HW119275   4.111   2.637   1.178
  711SOL    HW219276   4.133   2.750   1.079
  712SOL     OW19277   3.915   0.029   0.606
  712SOL    HW119278   3.898  -0.003   0.518
  712SOL    HW219279   4.010   0.030   0.614
  713SOL     OW19280   3.378   0.489   6.235
  713SOL    HW119281   3.448   0.425   6.223
  713SOL    HW219282   3.391   0.552   6.165
  714SOL     OW19283   4.284   5.295   6.637
  714SOL    HW119284   4.250   5.289   6.548
  714SOL    HW219285   4.379   5.294   6.627
  715SOL     OW19286   2.015   1.400   7.717
  715SOL    HW119287   1.981   1.464   7.654
  715SOL    HW219288   2.081   1.351   7.669
  716SOL     OW19289   4.808   2.318   0.583
  716SOL    HW119290   4.735   2.264   0.550
  716SOL    HW219291   4.765   2.386   0.635
  717SOL     OW19292   4.092   6.218   0.412
  717SOL    HW119293   4.006   6.258   0.405
  717SOL    HW219294   4.134   6.239   0.328
  718SOL     OW19295   0.172   4.306   0.270
  718SOL    HW119296   0.148   4.278   0.182
  718SOL    HW219297   0.218   4.231   0.307
  719SOL     OW19298   0.111   1.880   0.806
  719SOL    HW119299   0.062   1.865   0.887
  719SOL    HW219300   0.181   1.939   0.832
  720SOL     OW19301   2.096   1.864   0.583
  720SOL    HW119302   2.122   1.954   0.562
  720SOL    HW219303   2.157   1.837   0.652
  721SOL     OW19304   4.849   4.504   1.719
  721SOL    HW119305   4.925   4.524   1.665
  721SOL    HW219306   4.780   4.560   1.684
  722SOL     OW19307   6.256   4.000   6.694
  722SOL    HW119308   6.341   3.958   6.703
  722SOL    HW219309   6.265   4.057   6.617
  723SOL     OW19310   3.162   1.532   5.864
  723SOL    HW119311   3.193   1.444   5.885
  723SOL    HW219312   3.237   1.589   5.882
  724SOL     OW19313   6.178   2.511   0.789
  724SOL    HW119314   6.260   2.559   0.775
  724SOL    HW219315   6.187   2.472   0.876
  725SOL     OW19316   0.834   3.380   1.641
  725SOL    HW119317   0.825   3.391   1.736
  725SOL    HW219318   0.915   3.330   1.630
  726SOL     OW19319   2.696   5.743   1.298
  726SOL    HW119320   2.608   5.781   1.303
  726SOL    HW219321   2.754   5.819   1.290
  727SOL     OW19322   1.961   2.969   2.380
  727SOL    HW119323   1.975   3.029   2.454
  727SOL    HW219324   2.041   2.918   2.375
  728SOL     OW19325   5.766   1.183   1.044
  728SOL    HW119326   5.742   1.106   0.992
  728SOL    HW219327   5.705   1.251   1.016
  729SOL     OW19328   1.622   3.767   6.465
  729SOL    HW119329   1.607   3.739   6.375
  729SOL    HW219330   1.655   3.857   6.457
  730SOL     OW19331   6.334   2.766   0.461
  730SOL    HW119332   6.246   2.752   0.496
  730SOL    HW219333   6.392   2.745   0.534
  731SOL     OW19334   2.628   3.483   0.378
  731SOL    HW119335   2.708   3.512   0.422
  731SOL    HW219336   2.558   3.532   0.419
  732SOL     OW19337   2.104   1.842   1.494
  732SOL    HW119338   2.025   1.859   1.546
  732SOL    HW219339   2.158   1.786   1.550
  733SOL     OW19340   4.089   6.244   7.549
  733SOL    HW119341   4.091   6.189   7.471
  733SOL    HW219342   4.095   6.183   7.622
  734SOL     OW19343   0.432   4.811   6.220
  734SOL    HW119344   0.507   4.767   6.181
  734SOL    HW219345   0.371   4.740   6.241
  735SOL     OW19346   3.365   3.945   1.239
  735SOL    HW119347   3.391   3.870   1.293
  735SOL    HW219348   3.274   3.961   1.263
  736SOL     OW19349   5.540   4.640   6.464
  736SOL    HW119350   5.493   4.578   6.520
  736SOL    HW219351   5.613   4.590   6.429
  737SOL     OW19352   5.581   2.288   7.207
  737SOL    HW119353   5.593   2.360   7.145
  737SOL    HW219354   5.529   2.325   7.278
  738SOL     OW19355   5.402   5.923   6.093
  738SOL    HW119356   5.355   5.959   6.018
  738SOL    HW219357   5.341   5.933   6.166
  739SOL     OW19358   3.622   2.516   1.945
  739SOL    HW119359   3.592   2.436   1.988
  739SOL    HW219360   3.686   2.553   2.005
  740SOL     OW19361   0.518   5.793   1.997
  740SOL    HW119362   0.503   5.879   1.957
  740SOL    HW219363   0.537   5.811   2.089
  741SOL     OW19364   4.456   4.277   1.186
  741SOL    HW119365   4.474   4.267   1.093
  741SOL    HW219366   4.362   4.295   1.190
  742SOL     OW19367   4.294   1.440   2.344
  742SOL    HW119368   4.200   1.455   2.333
  742SOL    HW219369   4.331   1.527   2.356
  743SOL     OW19370   4.123   1.334   1.076
  743SOL    HW119371   4.198   1.386   1.046
  743SOL    HW219372   4.047   1.389   1.057
  744SOL     OW19373   3.616   2.552   7.081
  744SOL    HW119374   3.623   2.526   7.173
  744SOL    HW219375   3.522   2.567   7.067
  745SOL     OW19376   3.569   5.158   6.138
  745SOL    HW119377   3.641   5.097   6.124
  745SOL    HW219378   3.558   5.201   6.053
  746SOL     OW19379   5.338   3.968   0.280
  746SOL    HW119380   5.394   3.966   0.358
  746SOL    HW219381   5.261   3.918   0.305
  747SOL     OW19382   3.188   0.751   0.225
  747SOL    HW119383   3.120   0.776   0.288
  747SOL    HW219384   3.140   0.723   0.147
  748SOL     OW19385   2.901   1.919   0.756
  748SOL    HW119386   2.842   1.848   0.729
  748SOL    HW219387   2.899   1.916   0.852
  749SOL     OW19388   6.452   4.263   0.765
  749SOL    HW119389   6.545   4.245   0.768
  749SOL    HW219390   6.436   4.324   0.837
  750SOL     OW19391   6.308   6.470   7.535
  750SOL    HW119392   6.353   6.400   7.582
  750SOL    HW219393   6.261   6.425   7.464
  751SOL     OW19394   4.174   0.246   7.285
  751SOL    HW119395   4.197   0.326   7.333
  751SOL    HW219396   4.102   0.208   7.335
  752SOL     OW19397   3.958   3.503   0.094
  752SOL    HW119398   3.869   3.488   0.126
  752SOL    HW219399   4.013   3.497   0.172
  753SOL     OW19400   4.915   3.178   0.474
  753SOL    HW119401   4.860   3.118   0.423
  753SOL    HW219402   5.004   3.142   0.465
  754SOL     OW19403   6.027   2.208   0.037
  754SOL    HW119404   6.025   2.112   0.035
  754SOL    HW219405   5.939   2.234   0.009
  755SOL     OW19406   1.474   4.492   1.839
  755SOL    HW119407   1.437   4.495   1.927
  755SOL    HW219408   1.561   4.531   1.848
  756SOL     OW19409   4.984   5.575   7.487
  756SOL    HW119410   5.045   5.644   7.515
  756SOL    HW219411   5.021   5.543   7.404
  757SOL     OW19412   2.011   3.922   1.185
  757SOL    HW119413   1.984   3.986   1.118
  757SOL    HW219414   2.020   3.974   1.265
  758SOL     OW19415   3.508   1.295   0.216
  758SOL    HW119416   3.476   1.357   0.282
  758SOL    HW219417   3.453   1.311   0.140
  759SOL     OW19418   3.579   4.200   2.497
  759SOL    HW119419   3.555   4.223   2.587
  759SOL    HW219420   3.508   4.143   2.467
  760SOL     OW19421   3.760   4.983   7.327
  760SOL    HW119422   3.734   5.072   7.303
  760SOL    HW219423   3.846   4.993   7.367
  761SOL     OW19424   0.575   6.264   7.613
  761SOL    HW119425   0.517   6.300   7.680
  761SOL    HW219426   0.660   6.305   7.630
  762SOL     OW19427   5.915   5.003   5.418
  762SOL    HW119428   5.983   4.954   5.463
  762SOL    HW219429   5.834   4.981   5.465
  763SOL     OW19430   2.606   5.943   7.068
  763SOL    HW119431   2.590   6.014   7.130
  763SOL    HW219432   2.563   5.972   6.987
  764SOL     OW19433   1.063   5.190   2.594
  764SOL    HW119434   1.157   5.188   2.579
  764SOL    HW219435   1.038   5.282   2.585
  765SOL     OW19436   4.415   3.563   0.353
  765SOL    HW119437   4.399   3.473   0.323
  765SOL    HW219438   4.359   3.617   0.296
  766SOL     OW19439   0.862   2.413   5.947
  766SOL    HW119440   0.851   2.320   5.931
  766SOL    HW219441   0.776   2.442   5.980
  767SOL     OW19442   5.160   1.164   1.087
  767SOL    HW119443   5.115   1.217   1.021
  767SOL    HW219444   5.103   1.168   1.164
  768SOL     OW19445   1.914   5.361   6.234
  768SOL    HW119446   1.981   5.293   6.233
  768SOL    HW219447   1.909   5.389   6.325
  769SOL     OW19448   6.238   1.482   1.216
  769SOL    HW119449   6.278   1.533   1.287
  769SOL    HW219450   6.284   1.398   1.219
  770SOL     OW19451   2.967   1.257   1.159
  770SOL    HW119452   2.897   1.322   1.158
  770SOL    HW219453   3.039   1.300   1.206
  771SOL     OW19454   4.613   1.666   7.560
  771SOL    HW119455   4.562   1.636   7.485
  771SOL    HW219456   4.563   1.638   7.637
  772SOL     OW19457   1.558   4.165   6.581
  772SOL    HW119458   1.575   4.250   6.540
  772SOL    HW219459   1.614   4.103   6.534
  773SOL     OW19460   3.540   1.138   7.193
  773SOL    HW119461   3.486   1.074   7.147
  773SOL    HW219462   3.587   1.087   7.259
  774SOL     OW19463   6.058   6.409   1.708
  774SOL    HW119464   6.071   6.451   1.793
  774SOL    HW219465   5.998   6.336   1.727
  775SOL     OW19466   3.237   2.469   6.403
  775SOL    HW119467   3.228   2.455   6.309
  775SOL    HW219468   3.210   2.386   6.443
  776SOL     OW19469   5.842   5.035   6.142
  776SOL    HW119470   5.807   4.948   6.123
  776SOL    HW219471   5.911   5.048   6.076
  777SOL     OW19472   3.746   1.938   6.684
  777SOL    HW119473   3.830   1.920   6.643
  777SOL    HW219474   3.688   1.869   6.651
  778SOL     OW19475   4.854   1.437   0.290
  778SOL    HW119476   4.821   1.523   0.316
  778SOL    HW219477   4.776   1.381   0.288
  779SOL     OW19478   2.229   1.671   1.668
  779SOL    HW119479   2.320   1.680   1.642
  779SOL    HW219480   2.233   1.652   1.762
  780SOL     OW19481   3.996   0.454   5.754
  780SOL    HW119482   4.042   0.396   5.815
  780SOL    HW219483   4.022   0.542   5.780
  781SOL     OW19484   0.024   6.254   6.044
  781SOL    HW119485   0.068   6.304   6.114
  781SOL    HW219486   0.093   6.237   5.980
  782SOL     OW19487   2.731   0.195   2.392
  782SOL    HW119488   2.652   0.141   2.391
  782SOL    HW219489   2.800   0.136   2.424
  783SOL     OW19490   5.465   5.644   6.103
  783SOL    HW119491   5.504   5.636   6.016
  783SOL    HW219492   5.455   5.739   6.116
  784SOL     OW19493   0.768   6.172   0.252
  784SOL    HW119494   0.841   6.233   0.242
  784SOL    HW219495   0.798   6.110   0.318
  785SOL     OW19496   2.433   3.093   1.346
  785SOL    HW119497   2.456   3.075   1.255
  785SOL    HW219498   2.389   3.178   1.343
  786SOL     OW19499   3.308   4.523   0.488
  786SOL    HW119500   3.295   4.570   0.571
  786SOL    HW219501   3.380   4.462   0.507
  787SOL     OW19502   5.203   3.986   7.492
  787SOL    HW119503   5.263   3.990   7.418
  787SOL    HW219504   5.125   3.942   7.458
  788SOL     OW19505   0.842   5.922   6.679
  788SOL    HW119506   0.761   5.959   6.644
  788SOL    HW219507   0.840   5.944   6.772
  789SOL     OW19508   1.640   3.012   7.366
  789SOL    HW119509   1.672   3.018   7.456
  789SOL    HW219510   1.664   3.096   7.327
  790SOL     OW19511   6.332   4.662   7.202
  790SOL    HW119512   6.258   4.687   7.148
  790SOL    HW219513   6.392   4.616   7.143
  791SOL     OW19514   3.226   1.405   7.379
  791SOL    HW119515   3.164   1.454   7.434
  791SOL    HW219516   3.200   1.314   7.390
  792SOL     OW19517   4.964   2.922   0.143
  792SOL    HW119518   4.994   2.869   0.070
  792SOL    HW219519   4.969   3.012   0.111
  793SOL     OW19520   4.036   1.030   1.242
  793SOL    HW119521   4.021   0.942   1.276
  793SOL    HW219522   3.951   1.057   1.206
  794SOL     OW19523   3.350   1.484   0.828
  794SOL    HW119524   3.317   1.394   0.822
  794SOL    HW219525   3.272   1.538   0.833
  795SOL     OW19526   2.564   5.413   7.130
  795SOL    HW119527   2.542   5.499   7.094
  795SOL    HW219528   2.658   5.418   7.148
  796SOL     OW19529   0.976   6.438   6.610
  796SOL    HW119530   0.955   6.436   6.704
  796SOL    HW219531   1.012   6.351   6.592
  797SOL     OW19532   5.736   6.383   2.641
  797SOL    HW119533   5.750   6.464   2.593
  797SOL    HW219534   5.670   6.405   2.707
  798SOL     OW19535   1.640   2.989   0.747
  798SOL    HW119536   1.705   2.992   0.678
  798SOL    HW219537   1.594   3.073   0.742
  799SOL     OW19538   6.425   1.181   6.235
  799SOL    HW119539   6.515   1.208   6.252
  799SOL    HW219540   6.424   1.158   6.143
  800SOL     OW19541   3.845   3.703   7.694
  800SOL    HW119542   3.872   3.624   7.741
  800SOL    HW219543   3.776   3.673   7.635
  801SOL     OW19544   0.071   2.834   0.685
  801SOL    HW119545   0.079   2.858   0.777
  801SOL    HW219546   0.067   2.918   0.638
  802SOL     OW19547   3.566   1.881   6.398
  802SOL    HW119548   3.591   1.816   6.464
  802SOL    HW219549   3.510   1.943   6.445
  803SOL     OW19550   5.598   1.881   7.203
  803SOL    HW119551   5.642   1.965   7.195
  803SOL    HW219552   5.514   1.902   7.243
  804SOL     OW19553   4.915   4.496   0.089
  804SOL    HW119554   4.839   4.553   0.095
  804SOL    HW219555   4.963   4.511   0.170
  805SOL     OW19556   4.462   4.941   7.215
  805SOL    HW119557   4.497   5.021   7.255
  805SOL    HW219558   4.534   4.878   7.220
  806SOL     OW19559   5.572   3.568   1.751
  806SOL    HW119560   5.644   3.622   1.719
  806SOL    HW219561   5.508   3.567   1.680
  807SOL     OW19562   3.916   3.645   6.574
  807SOL    HW119563   3.822   3.630   6.562
  807SOL    HW219564   3.957   3.565   6.540
  808SOL     OW19565   3.876   0.409   1.469
  808SOL    HW119566   3.949   0.404   1.407
  808SOL    HW219567   3.880   0.327   1.517
  809SOL     OW19568   6.451   3.455   7.415
  809SOL    HW119569   6.480   3.518   7.350
  809SOL    HW219570   6.503   3.377   7.398
  810SOL     OW19571   2.902   4.105   0.794
  810SOL    HW119572   2.894   4.010   0.798
  810SOL    HW219573   2.949   4.122   0.713
  811SOL     OW19574   4.170   4.227   1.284
  811SOL    HW119575   4.166   4.215   1.379
  811SOL    HW219576   4.132   4.147   1.248
  812SOL     OW19577   5.812   3.410   2.034
  812SOL    HW119578   5.907   3.408   2.047
  812SOL    HW219579   5.800   3.421   1.940
  813SOL     OW19580   2.647   6.145   2.565
  813SOL    HW119581   2.594   6.198   2.625
  813SOL    HW219582   2.729   6.194   2.557
  814SOL     OW19583   1.059   6.169   6.528
  814SOL    HW119584   1.132   6.182   6.468
  814SOL    HW219585   1.054   6.074   6.540
  815SOL     OW19586   3.147   5.963   1.847
  815SOL    HW119587   3.068   5.917   1.818
  815SOL    HW219588   3.166   5.926   1.933
  816SOL     OW19589   0.996   5.240   6.472
  816SOL    HW119590   0.954   5.169   6.520
  816SOL    HW219591   0.935   5.259   6.400
  817SOL     OW19592   4.360   1.469   1.062
  817SOL    HW119593   4.385   1.532   1.131
  817SOL    HW219594   4.413   1.392   1.081
  818SOL     OW19595   3.612   1.501   1.161
  818SOL    HW119596   3.656   1.434   1.213
  818SOL    HW219597   3.682   1.542   1.110
  819SOL     OW19598   4.398   2.923   0.691
  819SOL    HW119599   4.456   2.943   0.617
  819SOL    HW219600   4.310   2.944   0.659
  820SOL     OW19601   4.560   1.263   7.485
  820SOL    HW119602   4.633   1.254   7.423
  820SOL    HW219603   4.555   1.179   7.529
  821SOL     OW19604   3.021   4.433   7.384
  821SOL    HW119605   2.933   4.413   7.351
  821SOL    HW219606   3.016   4.524   7.413
  822SOL     OW19607   2.304   3.032   2.592
  822SOL    HW119608   2.305   2.961   2.528
  822SOL    HW219609   2.393   3.032   2.628
  823SOL     OW19610   3.321   6.254   2.154
  823SOL    HW119611   3.244   6.214   2.193
  823SOL    HW219612   3.394   6.201   2.186
  824SOL     OW19613   3.249   0.389   7.259
  824SOL    HW119614   3.237   0.482   7.244
  824SOL    HW219615   3.200   0.371   7.339
  825SOL     OW19616   4.472   2.372   6.662
  825SOL    HW119617   4.391   2.323   6.647
  825SOL    HW219618   4.492   2.413   6.578
  826SOL     OW19619   4.868   5.281   0.320
  826SOL    HW119620   4.850   5.368   0.285
  826SOL    HW219621   4.839   5.285   0.411
  827SOL     OW19622   5.547   3.681   1.306
  827SOL    HW119623   5.496   3.693   1.386
  827SOL    HW219624   5.539   3.587   1.286
  828SOL     OW19625   4.269   4.770   1.734
  828SOL    HW119626   4.205   4.706   1.764
  828SOL    HW219627   4.222   4.854   1.737
  829SOL     OW19628   0.769   3.268   6.832
  829SOL    HW119629   0.757   3.181   6.795
  829SOL    HW219630   0.864   3.276   6.844
  830SOL     OW19631   0.866   2.538   0.920
  830SOL    HW119632   0.911   2.595   0.983
  830SOL    HW219633   0.935   2.503   0.865
  831SOL     OW19634   1.567   1.266   0.169
  831SOL    HW119635   1.516   1.198   0.212
  831SOL    HW219636   1.503   1.333   0.144
  832SOL     OW19637   3.054   0.784   6.806
  832SOL    HW119638   2.991   0.784   6.734
  832SOL    HW219639   3.126   0.838   6.775
  833SOL     OW19640   2.826   4.405   0.933
  833SOL    HW119641   2.879   4.335   0.971
  833SOL    HW219642   2.807   4.463   1.006
  834SOL     OW19643   1.012   5.372   0.681
  834SOL    HW119644   1.011   5.467   0.698
  834SOL    HW219645   1.005   5.364   0.586
  835SOL     OW19646   1.836   4.218   0.248
  835SOL    HW119647   1.916   4.228   0.197
  835SOL    HW219648   1.823   4.123   0.254
  836SOL     OW19649   4.263   0.437   6.084
  836SOL    HW119650   4.208   0.375   6.036
  836SOL    HW219651   4.202   0.504   6.115
  837SOL     OW19652   3.515   5.705   6.776
  837SOL    HW119653   3.598   5.693   6.729
  837SOL    HW219654   3.473   5.779   6.733
  838SOL     OW19655   2.067   0.455   1.657
  838SOL    HW119656   1.991   0.473   1.602
  838SOL    HW219657   2.088   0.363   1.640
  839SOL     OW19658   0.478   0.617   1.260
  839SOL    HW119659   0.561   0.665   1.258
  839SOL    HW219660   0.419   0.673   1.309
  840SOL     OW19661   6.390   2.541   1.588
  840SOL    HW119662   6.440   2.608   1.540
  840SOL    HW219663   6.415   2.553   1.679
  841SOL     OW19664   3.315   1.444   1.127
  841SOL    HW119665   3.407   1.471   1.128
  841SOL    HW219666   3.318   1.351   1.105
  842SOL     OW19667   0.217   1.800   6.798
  842SOL    HW119668   0.196   1.788   6.890
  842SOL    HW219669   0.141   1.847   6.762
  843SOL     OW19670   2.233   1.288   1.282
  843SOL    HW119671   2.186   1.271   1.200
  843SOL    HW219672   2.191   1.366   1.318
  844SOL     OW19673   2.380   2.706   1.036
  844SOL    HW119674   2.356   2.715   0.943
  844SOL    HW219675   2.304   2.739   1.084
  845SOL     OW19676   1.873   2.570   0.440
  845SOL    HW119677   1.853   2.480   0.466
  845SOL    HW219678   1.839   2.577   0.350
  846SOL     OW19679   4.372   5.786   0.465
  846SOL    HW119680   4.445   5.840   0.496
  846SOL    HW219681   4.320   5.768   0.544
  847SOL     OW19682   0.047   5.694   6.410
  847SOL    HW119683   0.106   5.763   6.380
  847SOL    HW219684   0.076   5.615   6.363
  848SOL     OW19685   0.901   4.068   2.035
  848SOL    HW119686   0.828   4.033   2.086
  848SOL    HW219687   0.965   3.996   2.031
  849SOL     OW19688   5.767   3.567   6.663
  849SOL    HW119689   5.850   3.609   6.640
  849SOL    HW219690   5.790   3.508   6.735
  850SOL     OW19691   1.713   2.597   6.887
  850SOL    HW119692   1.638   2.649   6.916
  850SOL    HW219693   1.788   2.654   6.902
  851SOL     OW19694   1.363   3.743   7.093
  851SOL    HW119695   1.405   3.703   7.170
  851SOL    HW219696   1.403   3.698   7.018
  852SOL     OW19697   3.595   3.370   0.824
  852SOL    HW119698   3.545   3.452   0.817
  852SOL    HW219699   3.528   3.302   0.829
  853SOL     OW19700   4.997   2.054   7.423
  853SOL    HW119701   4.947   2.047   7.341
  853SOL    HW219702   4.975   1.974   7.471
  854SOL     OW19703   0.757   4.620   2.471
  854SOL    HW119704   0.843   4.643   2.435
  854SOL    HW219705   0.737   4.692   2.532
  855SOL     OW19706   6.009   4.038   1.927
  855SOL    HW119707   6.080   3.986   1.965
  855SOL    HW219708   6.011   4.120   1.976
  856SOL     OW19709   3.039   1.420   0.053
  856SOL    HW119710   3.028   1.326   0.064
  856SOL    HW219711   2.974   1.445  -0.012
  857SOL     OW19712   6.048   4.548   1.696
  857SOL    HW119713   6.046   4.616   1.764
  857SOL    HW219714   6.097   4.476   1.736
  858SOL     OW19715   3.654   5.129   2.767
  858SOL    HW119716   3.600   5.050   2.767
  858SOL    HW219717   3.722   5.111   2.701
  859SOL     OW19718   0.474   2.426   0.491
  859SOL    HW119719   0.449   2.463   0.576
  859SOL    HW219720   0.452   2.495   0.428
  860SOL     OW19721   3.168   2.327   0.769
  860SOL    HW119722   3.190   2.240   0.735
  860SOL    HW219723   3.233   2.342   0.838
  861SOL     OW19724   4.761   4.883   0.351
  861SOL    HW119725   4.726   4.972   0.348
  861SOL    HW219726   4.854   4.894   0.368
  862SOL     OW19727   0.926   2.987   6.648
  862SOL    HW119728   0.933   3.061   6.588
  862SOL    HW219729   0.834   2.987   6.676
  863SOL     OW19730   5.000   5.817   6.094
  863SOL    HW119731   4.934   5.748   6.103
  863SOL    HW219732   5.081   5.770   6.074
  864SOL     OW19733   4.887   0.327   6.918
  864SOL    HW119734   4.861   0.320   6.826
  864SOL    HW219735   4.844   0.406   6.949
  865SOL     OW19736   1.631   3.150   1.913
  865SOL    HW119737   1.573   3.114   1.980
  865SOL    HW219738   1.703   3.087   1.909
  866SOL     OW19739   5.248   4.465   6.256
  866SOL    HW119740   5.233   4.423   6.340
  866SOL    HW219741   5.335   4.433   6.229
  867SOL     OW19742   1.823   0.162   0.748
  867SOL    HW119743   1.853   0.131   0.834
  867SOL    HW219744   1.849   0.254   0.746
  868SOL     OW19745   5.470   3.794   6.598
  868SOL    HW119746   5.430   3.764   6.516
  868SOL    HW219747   5.414   3.758   6.667
  869SOL     OW19748   2.027   6.228   6.682
  869SOL    HW119749   1.979   6.293   6.734
  869SOL    HW219750   2.076   6.281   6.618
  870SOL     OW19751   2.249   0.039   2.259
  870SOL    HW119752   2.311  -0.015   2.210
  870SOL    HW219753   2.301   0.115   2.288
  871SOL     OW19754   2.081   5.992   6.864
  871SOL    HW119755   2.171   6.020   6.881
  871SOL    HW219756   2.036   6.071   6.834
  872SOL     OW19757   5.332   4.927   7.593
  872SOL    HW119758   5.243   4.922   7.628
  872SOL    HW219759   5.325   4.894   7.504
  873SOL     OW19760   5.413   5.307   6.539
  873SOL    HW119761   5.439   5.397   6.520
  873SOL    HW219762   5.495   5.260   6.551
  874SOL     OW19763   3.608   6.037   6.720
  874SOL    HW119764   3.640   5.978   6.788
  874SOL    HW219765   3.518   6.009   6.704
  875SOL     OW19766   1.940   4.386   7.670
  875SOL    HW119767   2.017   4.385   7.728
  875SOL    HW219768   1.875   4.437   7.717
  876SOL     OW19769   0.517   1.457   0.108
  876SOL    HW119770   0.593   1.420   0.063
  876SOL    HW219771   0.471   1.380   0.143
  877SOL     OW19772   0.784   6.148   6.042
  877SOL    HW119773   0.723   6.082   6.009
  877SOL    HW219774   0.808   6.200   5.965
  878SOL     OW19775   2.224   1.298   7.553
  878SOL    HW119776   2.313   1.279   7.583
  878SOL    HW219777   2.235   1.375   7.496
  879SOL     OW19778   1.148   5.902   5.546
  879SOL    HW119779   1.236   5.872   5.568
  879SOL    HW219780   1.090   5.834   5.580
  880SOL     OW19781   2.895   2.051   0.183
  880SOL    HW119782   2.869   2.049   0.090
  880SOL    HW219783   2.909   1.959   0.206
  881SOL     OW19784   1.571   4.745   0.086
  881SOL    HW119785   1.516   4.690   0.142
  881SOL    HW219786   1.626   4.795   0.146
  882SOL     OW19787   4.302   4.932   7.460
  882SOL    HW119788   4.358   4.939   7.383
  882SOL    HW219789   4.358   4.891   7.526
  883SOL     OW19790   1.708   4.508   2.312
  883SOL    HW119791   1.772   4.531   2.245
  883SOL    HW219792   1.636   4.571   2.300
  884SOL     OW19793   3.304   4.854   0.663
  884SOL    HW119794   3.309   4.762   0.688
  884SOL    HW219795   3.260   4.897   0.736
  885SOL     OW19796   2.975   4.238   7.035
  885SOL    HW119797   2.954   4.332   7.030
  885SOL    HW219798   2.977   4.220   7.129
  886SOL     OW19799   0.011   1.024   1.344
  886SOL    HW119800   0.009   1.085   1.418
  886SOL    HW219801   0.014   0.937   1.385
  887SOL     OW19802   4.078   0.318   1.885
  887SOL    HW119803   4.159   0.288   1.843
  887SOL    HW219804   4.033   0.237   1.910
  888SOL     OW19805   0.949   2.445   5.438
  888SOL    HW119806   0.971   2.531   5.402
  888SOL    HW219807   0.923   2.463   5.528
  889SOL     OW19808   5.496   0.335   1.100
  889SOL    HW119809   5.504   0.430   1.105
  889SOL    HW219810   5.574   0.302   1.145
  890SOL     OW19811   2.999   3.674   1.006
  890SOL    HW119812   2.953   3.691   1.088
  890SOL    HW219813   2.933   3.635   0.948
  891SOL     OW19814   4.166   0.578   0.012
  891SOL    HW119815   4.099   0.587   0.080
  891SOL    HW219816   4.162   0.661  -0.036
  892SOL     OW19817   6.106   0.077   0.823
  892SOL    HW119818   6.176   0.126   0.865
  892SOL    HW219819   6.096   0.119   0.737
  893SOL     OW19820   2.446   5.119   1.332
  893SOL    HW119821   2.427   5.068   1.412
  893SOL    HW219822   2.414   5.207   1.353
  894SOL     OW19823   0.818   4.177   0.746
  894SOL    HW119824   0.821   4.087   0.778
  894SOL    HW219825   0.762   4.222   0.810
  895SOL     OW19826   0.345   1.926   1.501
  895SOL    HW119827   0.336   1.930   1.405
  895SOL    HW219828   0.310   1.840   1.524
  896SOL     OW19829   1.011   5.237   2.126
  896SOL    HW119830   1.039   5.206   2.040
  896SOL    HW219831   0.943   5.175   2.152
  897SOL     OW19832   5.683   6.143   7.268
  897SOL    HW119833   5.728   6.182   7.342
  897SOL    HW219834   5.720   6.187   7.191
  898SOL     OW19835   0.408   6.326   2.022
  898SOL    HW119836   0.479   6.301   1.963
  898SOL    HW219837   0.333   6.273   1.993
  899SOL     OW19838   2.378   1.669   7.456
  899SOL    HW119839   2.288   1.676   7.425
  899SOL    HW219840   2.375   1.696   7.547
  900SOL     OW19841   5.801   3.709   2.641
  900SOL    HW119842   5.748   3.753   2.708
  900SOL    HW219843   5.820   3.623   2.678
  901SOL     OW19844   5.294   4.902   0.693
  901SOL    HW119845   5.227   4.879   0.757
  901SOL    HW219846   5.278   4.844   0.619
  902SOL     OW19847   3.394   3.024   1.021
  902SOL    HW119848   3.394   3.071   1.104
  902SOL    HW219849   3.307   2.984   1.016
  903SOL     OW19850   3.006   3.415   0.170
  903SOL    HW119851   3.086   3.367   0.146
  903SOL    HW219852   2.985   3.383   0.258
  904SOL     OW19853   6.059   2.450   1.448
  904SOL    HW119854   6.104   2.530   1.423
  904SOL    HW219855   6.063   2.449   1.543
  905SOL     OW19856   5.934   2.742   1.738
  905SOL    HW119857   5.996   2.671   1.751
  905SOL    HW219858   5.987   2.813   1.699
  906SOL     OW19859   2.959   1.934   1.030
  906SOL    HW119860   3.050   1.906   1.039
  906SOL    HW219861   2.961   2.028   1.048
  907SOL     OW19862   4.262   3.185   6.050
  907SOL    HW119863   4.286   3.258   5.993
  907SOL    HW219864   4.294   3.107   6.004
  908SOL     OW19865   5.347   5.490   5.289
  908SOL    HW119866   5.408   5.424   5.321
  908SOL    HW219867   5.401   5.548   5.235
  909SOL     OW19868   1.868   1.831   1.662
  909SOL    HW119869   1.783   1.874   1.655
  909SOL    HW219870   1.849   1.738   1.652
  910SOL     OW19871   4.128   0.210   1.577
  910SOL    HW119872   4.107   0.278   1.513
  910SOL    HW219873   4.045   0.188   1.617
  911SOL     OW19874   2.878   2.661   1.013
  911SOL    HW119875   2.792   2.674   0.973
  911SOL    HW219876   2.862   2.599   1.084
  912SOL     OW19877   4.692   0.969   1.881
  912SOL    HW119878   4.687   1.025   1.958
  912SOL    HW219879   4.779   0.985   1.844
  913SOL     OW19880   5.927   3.551   1.620
  913SOL    HW119881   5.866   3.624   1.632
  913SOL    HW219882   6.002   3.573   1.676
  914SOL     OW19883   3.173   0.250   1.336
  914SOL    HW119884   3.139   0.162   1.354
  914SOL    HW219885   3.126   0.307   1.397
  915SOL     OW19886   2.815   1.887   1.400
  915SOL    HW119887   2.897   1.906   1.446
  915SOL    HW219888   2.842   1.836   1.323
  916SOL     OW19889   4.856   6.088   2.843
  916SOL    HW119890   4.825   6.000   2.820
  916SOL    HW219891   4.783   6.128   2.889
  917SOL     OW19892   4.621   3.346   0.794
  917SOL    HW119893   4.557   3.401   0.748
  917SOL    HW219894   4.688   3.407   0.824
  918SOL     OW19895   0.511   4.393   6.240
  918SOL    HW119896   0.460   4.474   6.244
  918SOL    HW219897   0.514   4.371   6.147
  919SOL     OW19898   1.125   1.995   0.846
  919SOL    HW119899   1.115   2.031   0.934
  919SOL    HW219900   1.149   1.903   0.860
  920SOL     OW19901   1.482   5.496   1.593
  920SOL    HW119902   1.537   5.566   1.557
  920SOL    HW219903   1.543   5.442   1.643
  921SOL     OW19904   3.831   2.756   0.703
  921SOL    HW119905   3.849   2.841   0.743
  921SOL    HW219906   3.853   2.692   0.771
  922SOL     OW19907   1.856   2.146   6.231
  922SOL    HW119908   1.921   2.194   6.283
  922SOL    HW219909   1.876   2.054   6.247
  923SOL     OW19910   4.710   3.542   6.956
  923SOL    HW119911   4.668   3.603   7.017
  923SOL    HW219912   4.740   3.598   6.884
  924SOL     OW19913   1.357   0.568   0.154
  924SOL    HW119914   1.330   0.624   0.082
  924SOL    HW219915   1.355   0.479   0.118
  925SOL     OW19916   2.425   3.658   0.467
  925SOL    HW119917   2.339   3.691   0.439
  925SOL    HW219918   2.407   3.613   0.550
  926SOL     OW19919   6.002   1.141   0.775
  926SOL    HW119920   6.021   1.067   0.834
  926SOL    HW219921   5.940   1.106   0.712
  927SOL     OW19922   4.086   4.286   0.238
  927SOL    HW119923   4.143   4.209   0.239
  927SOL    HW219924   4.146   4.360   0.228
  928SOL     OW19925   3.316   0.769   0.604
  928SOL    HW119926   3.350   0.697   0.551
  928SOL    HW219927   3.295   0.729   0.688
  929SOL     OW19928   3.847   0.947   2.522
  929SOL    HW119929   3.828   0.987   2.437
  929SOL    HW219930   3.762   0.919   2.555
  930SOL     OW19931   6.134   3.951   1.634
  930SOL    HW119932   6.092   3.897   1.701
  930SOL    HW219933   6.135   3.896   1.556
  931SOL     OW19934   6.297   0.911   1.946
  931SOL    HW119935   6.338   0.825   1.942
  931SOL    HW219936   6.356   0.968   1.896
  932SOL     OW19937   5.794   0.701   7.221
  932SOL    HW119938   5.710   0.682   7.178
  932SOL    HW219939   5.799   0.796   7.224
  933SOL     OW19940   0.613   0.167   7.239
  933SOL    HW119941   0.652   0.162   7.326
  933SOL    HW219942   0.527   0.127   7.250
  934SOL     OW19943   1.770   6.408   7.676
  934SOL    HW119944   1.835   6.473   7.705
  934SOL    HW219945   1.783   6.334   7.736
  935SOL     OW19946   3.789   5.952   1.726
  935SOL    HW119947   3.785   5.872   1.779
  935SOL    HW219948   3.700   5.988   1.730
  936SOL     OW19949   5.777   0.075   1.416
  936SOL    HW119950   5.812   0.126   1.489
  936SOL    HW219951   5.788   0.132   1.339
  937SOL     OW19952   2.257   1.640   6.585
  937SOL    HW119953   2.242   1.578   6.514
  937SOL    HW219954   2.185   1.703   6.576
  938SOL     OW19955   1.830   3.546   2.274
  938SOL    HW119956   1.856   3.587   2.356
  938SOL    HW219957   1.884   3.591   2.208
  939SOL     OW19958   6.421   4.208   6.560
  939SOL    HW119959   6.373   4.146   6.505
  939SOL    HW219960   6.482   4.251   6.500
  940SOL     OW19961   0.958   2.989   1.591
  940SOL    HW119962   0.923   3.034   1.667
  940SOL    HW219963   0.881   2.964   1.540
  941SOL     OW19964   2.055   3.143   6.536
  941SOL    HW119965   2.085   3.102   6.617
  941SOL    HW219966   2.114   3.110   6.468
  942SOL     OW19967   1.263   2.469   1.631
  942SOL    HW119968   1.286   2.427   1.714
  942SOL    HW219969   1.195   2.532   1.655
  943SOL     OW19970   2.464   5.410   6.153
  943SOL    HW119971   2.490   5.399   6.245
  943SOL    HW219972   2.378   5.368   6.148
  944SOL     OW19973   3.357   3.522   2.081
  944SOL    HW119974   3.441   3.558   2.110
  944SOL    HW219975   3.294   3.553   2.146
  945SOL     OW19976   1.956   5.505   1.494
  945SOL    HW119977   2.052   5.511   1.488
  945SOL    HW219978   1.932   5.563   1.566
  946SOL     OW19979   0.694   2.151   6.101
  946SOL    HW119980   0.674   2.062   6.069
  946SOL    HW219981   0.643   2.208   6.044
  947SOL     OW19982   0.695   3.014   6.768
  947SOL    HW119983   0.613   3.020   6.719
  947SOL    HW219984   0.673   2.963   6.846
  948SOL     OW19985   1.909   3.670   7.096
  948SOL    HW119986   1.912   3.655   7.002
  948SOL    HW219987   1.822   3.709   7.111
  949SOL     OW19988   4.517   5.724   1.197
  949SOL    HW119989   4.612   5.722   1.198
  949SOL    HW219990   4.496   5.816   1.180
  950SOL     OW19991   0.441   3.839   0.203
  950SOL    HW119992   0.478   3.823   0.116
  950SOL    HW219993   0.347   3.828   0.192
  951SOL     OW19994   4.743   4.429   7.258
  951SOL    HW119995   4.822   4.474   7.229
  951SOL    HW219996   4.744   4.345   7.211
  952SOL     OW19997   1.445   0.725   5.991
  952SOL    HW119998   1.430   0.674   6.071
  952SOL    HW219999   1.393   0.682   5.924
  953SOL     OW20000   0.596   5.277   7.017
  953SOL    HW120001   0.580   5.370   7.033
  953SOL    HW220002   0.552   5.232   7.089
  954SOL     OW20003   2.950   2.779   1.549
  954SOL    HW120004   3.017   2.718   1.579
  954SOL    HW220005   2.870   2.749   1.592
  955SOL     OW20006   4.880   0.267   0.148
  955SOL    HW120007   4.804   0.315   0.115
  955SOL    HW220008   4.910   0.216   0.073
  956SOL     OW20009   0.604   5.409   7.486
  956SOL    HW120010   0.674   5.427   7.423
  956SOL    HW220011   0.574   5.496   7.514
  957SOL     OW20012   0.532   0.917   7.493
  957SOL    HW120013   0.445   0.891   7.462
  957SOL    HW220014   0.535   1.011   7.479
  958SOL     OW20015   0.787   3.668   7.257
  958SOL    HW120016   0.742   3.602   7.203
  958SOL    HW220017   0.818   3.733   7.194
  959SOL     OW20018   0.357   0.366   1.448
  959SOL    HW120019   0.378   0.430   1.515
  959SOL    HW220020   0.282   0.403   1.402
  960SOL     OW20021   1.535   2.467   1.170
  960SOL    HW120022   1.616   2.481   1.220
  960SOL    HW220023   1.478   2.538   1.197
  961SOL     OW20024   2.807   4.548   1.155
  961SOL    HW120025   2.795   4.632   1.111
  961SOL    HW220026   2.788   4.566   1.247
  962SOL     OW20027   2.683   2.305   7.275
  962SOL    HW120028   2.648   2.382   7.320
  962SOL    HW220029   2.607   2.249   7.262
  963SOL     OW20030   0.465   2.300   1.887
  963SOL    HW120031   0.422   2.362   1.828
  963SOL    HW220032   0.478   2.348   1.968
  964SOL     OW20033   6.181   0.082   6.185
  964SOL    HW120034   6.199  -0.007   6.156
  964SOL    HW220035   6.218   0.086   6.274
  965SOL     OW20036   1.957   3.737   6.805
  965SOL    HW120037   1.912   3.822   6.809
  965SOL    HW220038   1.906   3.685   6.743
  966SOL     OW20039   2.060   2.612   1.264
  966SOL    HW120040   2.056   2.581   1.355
  966SOL    HW220041   2.087   2.704   1.271
  967SOL     OW20042   1.824   0.088   1.009
  967SOL    HW120043   1.777   0.021   1.059
  967SOL    HW220044   1.866   0.142   1.076
  968SOL     OW20045   0.626   1.204   1.724
  968SOL    HW120046   0.555   1.262   1.748
  968SOL    HW220047   0.705   1.248   1.755
  969SOL     OW20048   3.956   2.497   7.681
  969SOL    HW120049   3.915   2.491   7.767
  969SOL    HW220050   3.884   2.517   7.621
  970SOL     OW20051   2.225   4.872   5.902
  970SOL    HW120052   2.137   4.898   5.931
  970SOL    HW220053   2.221   4.776   5.900
  971SOL     OW20054   5.903   2.091   2.626
  971SOL    HW120055   5.915   2.167   2.683
  971SOL    HW220056   5.878   2.129   2.541
  972SOL     OW20057   3.701   4.946   2.352
  972SOL    HW120058   3.619   4.940   2.400
  972SOL    HW220059   3.763   4.983   2.415
  973SOL     OW20060   6.304   1.812   7.293
  973SOL    HW120061   6.331   1.755   7.221
  973SOL    HW220062   6.321   1.760   7.372
  974SOL     OW20063   2.433   0.542   6.888
  974SOL    HW120064   2.401   0.627   6.857
  974SOL    HW220065   2.419   0.483   6.813
  975SOL     OW20066   1.310   5.067   1.410
  975SOL    HW120067   1.383   5.019   1.449
  975SOL    HW220068   1.327   5.159   1.431
  976SOL     OW20069   0.925   1.345   1.536
  976SOL    HW120070   0.917   1.362   1.630
  976SOL    HW220071   0.836   1.325   1.508
  977SOL     OW20072   6.234   5.157   7.519
  977SOL    HW120073   6.228   5.191   7.608
  977SOL    HW220074   6.323   5.123   7.512
  978SOL     OW20075   1.345   5.147   1.133
  978SOL    HW120076   1.348   5.114   1.223
  978SOL    HW220077   1.436   5.144   1.104
  979SOL     OW20078   2.697   3.752   6.385
  979SOL    HW120079   2.744   3.668   6.376
  979SOL    HW220080   2.711   3.778   6.476
  980SOL     OW20081   1.324   0.962   7.017
  980SOL    HW120082   1.325   0.959   7.113
  980SOL    HW220083   1.271   0.887   6.991
  981SOL     OW20084   1.435   5.893   6.860
  981SOL    HW120085   1.514   5.928   6.818
  981SOL    HW220086   1.467   5.850   6.939
  982SOL     OW20087   4.872   1.400   7.735
  982SOL    HW120088   4.898   1.330   7.675
  982SOL    HW220089   4.801   1.363   7.786
  983SOL     OW20090   0.911   2.071   0.041
  983SOL    HW120091   0.921   2.081  -0.054
  983SOL    HW220092   0.878   1.982   0.053
  984SOL     OW20093   5.697   0.662   6.879
  984SOL    HW120094   5.664   0.680   6.791
  984SOL    HW220095   5.757   0.589   6.868
  985SOL     OW20096   3.173   5.020   0.878
  985SOL    HW120097   3.155   5.109   0.905
  985SOL    HW220098   3.174   4.969   0.959
  986SOL     OW20099   4.798   5.725   2.422
  986SOL    HW120100   4.894   5.723   2.421
  986SOL    HW220101   4.776   5.803   2.371
  987SOL     OW20102   2.834   0.460   0.232
  987SOL    HW120103   2.798   0.502   0.154
  987SOL    HW220104   2.797   0.372   0.231
  988SOL     OW20105   5.865   5.263   0.023
  988SOL    HW120106   5.846   5.357   0.019
  988SOL    HW220107   5.926   5.249  -0.050
  989SOL     OW20108   0.863   6.364   6.205
  989SOL    HW120109   0.809   6.437   6.176
  989SOL    HW220110   0.838   6.291   6.147
  990SOL     OW20111   0.691   4.153   0.211
  990SOL    HW120112   0.709   4.173   0.119
  990SOL    HW220113   0.634   4.076   0.208
  991SOL     OW20114   4.131   3.686   5.869
  991SOL    HW120115   4.120   3.679   5.964
  991SOL    HW220116   4.058   3.635   5.834
  992SOL     OW20117   5.435   4.541   7.335
  992SOL    HW120118   5.380   4.554   7.412
  992SOL    HW220119   5.475   4.626   7.320
  993SOL     OW20120   1.003   1.098   1.286
  993SOL    HW120121   0.979   1.035   1.353
  993SOL    HW220122   1.086   1.067   1.251
  994SOL     OW20123   3.376   3.514   7.393
  994SOL    HW120124   3.375   3.461   7.313
  994SOL    HW220125   3.283   3.533   7.409
  995SOL     OW20126   2.251   6.470   1.278
  995SOL    HW120127   2.263   6.410   1.204
  995SOL    HW220128   2.234   6.413   1.353
  996SOL     OW20129   0.414   4.375   7.531
  996SOL    HW120130   0.476   4.411   7.593
  996SOL    HW220131   0.330   4.378   7.576
  997SOL     OW20132   0.591   0.916   6.062
  997SOL    HW120133   0.647   0.977   6.014
  997SOL    HW220134   0.566   0.965   6.141
  998SOL     OW20135   2.974   0.352   0.992
  998SOL    HW120136   2.947   0.443   1.003
  998SOL    HW220137   3.039   0.338   1.061
  999SOL     OW20138   4.329   0.373   1.290
  999SOL    HW120139   4.403   0.379   1.230
  999SOL    HW220140   4.367   0.336   1.370
 1000SOL     OW20141   5.468   4.013   1.998
 1000SOL    HW120142   5.545   4.003   1.942
 1000SOL    HW220143   5.486   4.091   2.049
 1001SOL     OW20144   1.869   2.820   7.673
 1001SOL    HW120145   1.963   2.802   7.663
 1001SOL    HW220146   1.826   2.740   7.644
 1002SOL     OW20147   4.162   6.023   7.370
 1002SOL    HW120148   4.215   6.016   7.290
 1002SOL    HW220149   4.208   5.969   7.434
 1003SOL     OW20150   6.125   2.685   7.725
 1003SOL    HW120151   6.172   2.637   7.657
 1003SOL    HW220152   6.038   2.645   7.728
 1004SOL     OW20153   3.169   3.806   0.809
 1004SOL    HW120154   3.135   3.781   0.894
 1004SOL    HW220155   3.092   3.808   0.752
 1005SOL     OW20156   3.068   0.534   6.408
 1005SOL    HW120157   3.149   0.560   6.364
 1005SOL    HW220158   3.069   0.438   6.403
 1006SOL     OW20159   3.165   0.860   6.094
 1006SOL    HW120160   3.208   0.934   6.052
 1006SOL    HW220161   3.172   0.789   6.030
 1007SOL     OW20162   3.726   4.925   0.859
 1007SOL    HW120163   3.811   4.885   0.874
 1007SOL    HW220164   3.664   4.851   0.859
 1008SOL     OW20165   2.989   4.997   7.251
 1008SOL    HW120166   3.033   5.004   7.336
 1008SOL    HW220167   3.051   4.948   7.196
 1009SOL     OW20168   0.171   1.995   1.988
 1009SOL    HW120169   0.251   1.942   1.980
 1009SOL    HW220170   0.163   2.038   1.903
 1010SOL     OW20171   3.483   3.356   6.297
 1010SOL    HW120172   3.450   3.373   6.386
 1010SOL    HW220173   3.429   3.412   6.241
 1011SOL     OW20174   4.860   1.817   1.285
 1011SOL    HW120175   4.884   1.894   1.233
 1011SOL    HW220176   4.892   1.836   1.373
 1012SOL     OW20177   1.855   6.215   0.105
 1012SOL    HW120178   1.913   6.227   0.180
 1012SOL    HW220179   1.784   6.160   0.138
 1013SOL     OW20180   5.611   4.486   2.334
 1013SOL    HW120181   5.544   4.442   2.386
 1013SOL    HW220182   5.681   4.421   2.327
 1014SOL     OW20183   2.193   1.003   6.669
 1014SOL    HW120184   2.157   1.076   6.619
 1014SOL    HW220185   2.242   0.951   6.604
 1015SOL     OW20186   2.803   5.161   1.017
 1015SOL    HW120187   2.892   5.181   1.046
 1015SOL    HW220188   2.773   5.241   0.974
 1016SOL     OW20189   1.656   2.802   1.365
 1016SOL    HW120190   1.690   2.719   1.331
 1016SOL    HW220191   1.597   2.834   1.296
 1017SOL     OW20192   4.839   6.197   6.527
 1017SOL    HW120193   4.813   6.105   6.529
 1017SOL    HW220194   4.777   6.238   6.465
 1018SOL     OW20195   0.458   3.609   6.195
 1018SOL    HW120196   0.373   3.653   6.187
 1018SOL    HW220197   0.461   3.552   6.118
 1019SOL     OW20198   6.195   4.770   2.192
 1019SOL    HW120199   6.263   4.748   2.256
 1019SOL    HW220200   6.116   4.784   2.245
 1020SOL     OW20201   5.215   5.991   6.319
 1020SOL    HW120202   5.204   5.896   6.326
 1020SOL    HW220203   5.285   6.012   6.381
 1021SOL     OW20204   0.940   4.687   0.775
 1021SOL    HW120205   0.893   4.653   0.851
 1021SOL    HW220206   1.027   4.647   0.781
 1022SOL     OW20207   4.951   4.094   7.165
 1022SOL    HW120208   4.962   4.149   7.243
 1022SOL    HW220209   4.884   4.139   7.114
 1023SOL     OW20210   4.812   1.578   1.189
 1023SOL    HW120211   4.817   1.670   1.216
 1023SOL    HW220212   4.719   1.563   1.174
 1024SOL     OW20213   4.056   2.390   0.438
 1024SOL    HW120214   4.058   2.349   0.351
 1024SOL    HW220215   4.097   2.325   0.496
 1025SOL     OW20216   6.384   6.213   7.148
 1025SOL    HW120217   6.378   6.130   7.197
 1025SOL    HW220218   6.367   6.188   7.057
 1026SOL     OW20219   1.099   4.514   6.688
 1026SOL    HW120220   1.134   4.596   6.722
 1026SOL    HW220221   1.098   4.455   6.763
 1027SOL     OW20222   1.969   2.178   1.806
 1027SOL    HW120223   1.954   2.243   1.874
 1027SOL    HW220224   1.926   2.098   1.838
 1028SOL     OW20225   6.152   2.906   1.710
 1028SOL    HW120226   6.229   2.854   1.734
 1028SOL    HW220227   6.182   2.997   1.714
 1029SOL     OW20228   2.756   4.125   6.107
 1029SOL    HW120229   2.735   4.125   6.013
 1029SOL    HW220230   2.721   4.208   6.139
 1030SOL     OW20231   3.996   2.281   0.785
 1030SOL    HW120232   4.085   2.309   0.764
 1030SOL    HW220233   3.997   2.186   0.776
 1031SOL     OW20234   2.924   4.549   2.424
 1031SOL    HW120235   2.905   4.511   2.338
 1031SOL    HW220236   2.928   4.643   2.408
 1032SOL     OW20237   0.108   2.104   1.096
 1032SOL    HW120238   0.202   2.121   1.097
 1032SOL    HW220239   0.068   2.192   1.097
 1033SOL     OW20240   3.483   4.166   2.082
 1033SOL    HW120241   3.562   4.184   2.031
 1033SOL    HW220242   3.419   4.229   2.050
 1034SOL     OW20243   4.084   0.995   0.047
 1034SOL    HW120244   4.068   1.075  -0.003
 1034SOL    HW220245   3.997   0.966   0.076
 1035SOL     OW20246   2.094   6.353   6.456
 1035SOL    HW120247   1.998   6.344   6.452
 1035SOL    HW220248   2.119   6.386   6.370
 1036SOL     OW20249   3.921   4.643   0.358
 1036SOL    HW120250   4.001   4.693   0.341
 1036SOL    HW220251   3.857   4.680   0.297
 1037SOL     OW20252   0.829   6.046   6.931
 1037SOL    HW120253   0.883   6.007   7.000
 1037SOL    HW220254   0.744   6.061   6.973
 1038SOL     OW20255   1.905   3.285   6.167
 1038SOL    HW120256   1.879   3.193   6.161
 1038SOL    HW220257   1.982   3.285   6.223
 1039SOL     OW20258   0.718   6.077   1.237
 1039SOL    HW120259   0.659   6.123   1.177
 1039SOL    HW220260   0.708   6.124   1.320
 1040SOL     OW20261   5.210   2.308   7.323
 1040SOL    HW120262   5.287   2.256   7.349
 1040SOL    HW220263   5.139   2.275   7.379
 1041SOL     OW20264   1.737   1.071   0.091
 1041SOL    HW120265   1.770   1.033   0.172
 1041SOL    HW220266   1.693   1.151   0.118
 1042SOL     OW20267   2.332   5.636   0.141
 1042SOL    HW120268   2.341   5.717   0.090
 1042SOL    HW220269   2.357   5.566   0.080
 1043SOL     OW20270   6.191   3.635   0.830
 1043SOL    HW120271   6.190   3.584   0.911
 1043SOL    HW220272   6.155   3.577   0.764
 1044SOL     OW20273   3.402   1.517   5.536
 1044SOL    HW120274   3.323   1.464   5.549
 1044SOL    HW220275   3.378   1.579   5.468
 1045SOL     OW20276   2.529   5.891   2.590
 1045SOL    HW120277   2.592   5.960   2.569
 1045SOL    HW220278   2.447   5.921   2.551
 1046SOL     OW20279   5.645   4.908   6.737
 1046SOL    HW120280   5.650   4.816   6.760
 1046SOL    HW220281   5.715   4.950   6.787
 1047SOL     OW20282   1.808   5.849   6.452
 1047SOL    HW120283   1.883   5.791   6.437
 1047SOL    HW220284   1.794   5.891   6.367
 1048SOL     OW20285   1.942   4.171   6.669
 1048SOL    HW120286   2.024   4.220   6.662
 1048SOL    HW220287   1.938   4.118   6.589
 1049SOL     OW20288   3.907   5.090   1.157
 1049SOL    HW120289   3.891   5.165   1.214
 1049SOL    HW220290   3.949   5.127   1.079
 1050SOL     OW20291   2.064   2.217   1.082
 1050SOL    HW120292   1.997   2.152   1.060
 1050SOL    HW220293   2.128   2.168   1.135
 1051SOL     OW20294   5.294   1.668   0.989
 1051SOL    HW120295   5.247   1.751   0.996
 1051SOL    HW220296   5.245   1.608   1.045
 1052SOL     OW20297   2.728   3.820   0.512
 1052SOL    HW120298   2.639   3.812   0.477
 1052SOL    HW220299   2.740   3.741   0.565
 1053SOL     OW20300   0.625   2.919   6.377
 1053SOL    HW120301   0.561   2.902   6.307
 1053SOL    HW220302   0.632   2.835   6.422
 1054SOL     OW20303   6.130   2.415   0.533
 1054SOL    HW120304   6.208   2.384   0.487
 1054SOL    HW220305   6.163   2.448   0.617
 1055SOL     OW20306   5.352   4.026   0.812
 1055SOL    HW120307   5.284   3.967   0.779
 1055SOL    HW220308   5.408   3.971   0.867
 1056SOL     OW20309   3.542   5.089   7.079
 1056SOL    HW120310   3.624   5.119   7.117
 1056SOL    HW220311   3.541   4.995   7.094
 1057SOL     OW20312   0.590   0.319   6.191
 1057SOL    HW120313   0.501   0.352   6.191
 1057SOL    HW220314   0.635   0.372   6.257
 1058SOL     OW20315   1.692   1.489   1.567
 1058SOL    HW120316   1.675   1.562   1.507
 1058SOL    HW220317   1.694   1.529   1.653
 1059SOL     OW20318   2.816   5.305   6.810
 1059SOL    HW120319   2.752   5.339   6.747
 1059SOL    HW220320   2.892   5.362   6.800
 1060SOL     OW20321   2.359   3.054   2.059
 1060SOL    HW120322   2.366   2.959   2.071
 1060SOL    HW220323   2.444   3.088   2.087
 1061SOL     OW20324   5.453   6.055   7.105
 1061SOL    HW120325   5.517   6.048   7.176
 1061SOL    HW220326   5.444   5.965   7.073
 1062SOL     OW20327   2.252   3.601   2.630
 1062SOL    HW120328   2.219   3.659   2.562
 1062SOL    HW220329   2.346   3.616   2.631
 1063SOL     OW20330   4.119   6.071   0.818
 1063SOL    HW120331   4.058   6.017   0.768
 1063SOL    HW220332   4.205   6.049   0.783
 1064SOL     OW20333   4.723   2.923   7.391
 1064SOL    HW120334   4.733   2.955   7.301
 1064SOL    HW220335   4.633   2.944   7.414
 1065SOL     OW20336   6.189   4.347   1.889
 1065SOL    HW120337   6.232   4.287   1.828
 1065SOL    HW220338   6.245   4.344   1.967
 1066SOL     OW20339   4.263   4.176   6.067
 1066SOL    HW120340   4.231   4.143   5.983
 1066SOL    HW220341   4.303   4.260   6.046
 1067SOL     OW20342   1.374   2.933   7.412
 1067SOL    HW120343   1.374   2.884   7.494
 1067SOL    HW220344   1.466   2.933   7.384
 1068SOL     OW20345   0.745   1.656   0.868
 1068SOL    HW120346   0.789   1.645   0.953
 1068SOL    HW220347   0.690   1.578   0.860
 1069SOL     OW20348   1.217   3.299   7.665
 1069SOL    HW120349   1.129   3.296   7.702
 1069SOL    HW220350   1.274   3.275   7.739
 1070SOL     OW20351   1.359   4.364   6.030
 1070SOL    HW120352   1.280   4.396   5.985
 1070SOL    HW220353   1.369   4.423   6.105
 1071SOL     OW20354   4.982   3.662   7.588
 1071SOL    HW120355   4.996   3.714   7.509
 1071SOL    HW220356   4.892   3.683   7.615
 1072SOL     OW20357   5.927   2.748   7.126
 1072SOL    HW120358   5.927   2.810   7.199
 1072SOL    HW220359   6.015   2.712   7.125
 1073SOL     OW20360   4.355   0.611   6.828
 1073SOL    HW120361   4.279   0.632   6.773
 1073SOL    HW220362   4.325   0.626   6.918
 1074SOL     OW20363   0.615   4.739   1.931
 1074SOL    HW120364   0.615   4.651   1.968
 1074SOL    HW220365   0.697   4.778   1.961
 1075SOL     OW20366   4.232   6.297   7.056
 1075SOL    HW120367   4.215   6.279   6.964
 1075SOL    HW220368   4.213   6.391   7.066
 1076SOL     OW20369   0.765   6.436   2.132
 1076SOL    HW120370   0.699   6.506   2.129
 1076SOL    HW220371   0.763   6.406   2.223
 1077SOL     OW20372   1.047   2.890   1.212
 1077SOL    HW120373   0.957   2.858   1.224
 1077SOL    HW220374   1.098   2.844   1.278
 1078SOL     OW20375   1.669   2.867   2.699
 1078SOL    HW120376   1.683   2.792   2.757
 1078SOL    HW220377   1.701   2.943   2.748
 1079SOL     OW20378   4.589   5.187   2.735
 1079SOL    HW120379   4.660   5.205   2.796
 1079SOL    HW220380   4.564   5.273   2.701
 1080SOL     OW20381   5.738   6.371   5.752
 1080SOL    HW120382   5.696   6.404   5.831
 1080SOL    HW220383   5.802   6.437   5.729
 1081SOL     OW20384   5.002   4.417   2.137
 1081SOL    HW120385   4.945   4.394   2.063
 1081SOL    HW220386   4.990   4.512   2.147
 1082SOL     OW20387   3.319   4.592   1.072
 1082SOL    HW120388   3.299   4.532   1.144
 1082SOL    HW220389   3.388   4.548   1.022
 1083SOL     OW20390   5.329   4.495   0.728
 1083SOL    HW120391   5.387   4.558   0.769
 1083SOL    HW220392   5.316   4.427   0.795
 1084SOL     OW20393   5.484   0.958   2.156
 1084SOL    HW120394   5.494   1.050   2.131
 1084SOL    HW220395   5.389   0.946   2.162
 1085SOL     OW20396   1.359   0.082   2.168
 1085SOL    HW120397   1.448   0.119   2.162
 1085SOL    HW220398   1.372  -0.005   2.206
 1086SOL     OW20399   1.518   4.771   2.442
 1086SOL    HW120400   1.512   4.723   2.360
 1086SOL    HW220401   1.450   4.838   2.436
 1087SOL     OW20402   5.874   1.001   0.512
 1087SOL    HW120403   5.861   0.932   0.577
 1087SOL    HW220404   5.793   1.004   0.462
 1088SOL     OW20405   3.071   4.140   7.272
 1088SOL    HW120406   3.067   4.064   7.331
 1088SOL    HW220407   3.102   4.212   7.328
 1089SOL     OW20408   5.651   2.458   6.989
 1089SOL    HW120409   5.674   2.548   7.011
 1089SOL    HW220410   5.580   2.467   6.925
 1090SOL     OW20411   0.463   3.993   6.655
 1090SOL    HW120412   0.540   3.953   6.615
 1090SOL    HW220413   0.393   3.929   6.641
 1091SOL     OW20414   2.137   3.707   0.509
 1091SOL    HW120415   2.148   3.652   0.587
 1091SOL    HW220416   2.167   3.793   0.537
 1092SOL     OW20417   1.191   5.306   2.319
 1092SOL    HW120418   1.133   5.306   2.242
 1092SOL    HW220419   1.246   5.229   2.307
 1093SOL     OW20420   0.326   0.812   1.868
 1093SOL    HW120421   0.390   0.822   1.937
 1093SOL    HW220422   0.308   0.718   1.865
 1094SOL     OW20423   2.224   4.238   6.671
 1094SOL    HW120424   2.247   4.145   6.673
 1094SOL    HW220425   2.252   4.268   6.585
 1095SOL     OW20426   3.353   3.585   0.134
 1095SOL    HW120427   3.390   3.540   0.058
 1095SOL    HW220428   3.396   3.545   0.209
 1096SOL     OW20429   2.549   6.101   0.647
 1096SOL    HW120430   2.623   6.149   0.685
 1096SOL    HW220431   2.589   6.040   0.586
 1097SOL     OW20432   5.889   2.439   0.934
 1097SOL    HW120433   5.846   2.489   1.004
 1097SOL    HW220434   5.843   2.465   0.854
 1098SOL     OW20435   5.662   2.272   6.734
 1098SOL    HW120436   5.646   2.254   6.827
 1098SOL    HW220437   5.751   2.306   6.731
 1099SOL     OW20438   2.467   4.551   1.211
 1099SOL    HW120439   2.534   4.538   1.144
 1099SOL    HW220440   2.485   4.639   1.246
 1100SOL     OW20441   6.329   1.878   6.661
 1100SOL    HW120442   6.278   1.877   6.743
 1100SOL    HW220443   6.381   1.799   6.664
 1101SOL     OW20444   4.078   1.748   7.344
 1101SOL    HW120445   4.155   1.782   7.390
 1101SOL    HW220446   4.012   1.818   7.353
 1102SOL     OW20447   0.591   1.426   0.982
 1102SOL    HW120448   0.544   1.368   0.921
 1102SOL    HW220449   0.664   1.373   1.014
 1103SOL     OW20450   2.644   2.740   1.589
 1103SOL    HW120451   2.612   2.808   1.530
 1103SOL    HW220452   2.620   2.657   1.546
 1104SOL     OW20453   1.567   1.027   0.346
 1104SOL    HW120454   1.662   1.032   0.362
 1104SOL    HW220455   1.551   0.935   0.325
 1105SOL     OW20456   1.330   0.086   7.198
 1105SOL    HW120457   1.262   0.151   7.219
 1105SOL    HW220458   1.307   0.056   7.110
 1106SOL     OW20459   5.441   3.389   7.390
 1106SOL    HW120460   5.453   3.416   7.481
 1106SOL    HW220461   5.399   3.465   7.349
 1107SOL     OW20462   1.412   2.893   6.208
 1107SOL    HW120463   1.389   2.842   6.285
 1107SOL    HW220464   1.369   2.977   6.221
 1108SOL     OW20465   2.355   3.349   1.333
 1108SOL    HW120466   2.293   3.402   1.384
 1108SOL    HW220467   2.441   3.378   1.362
 1109SOL     OW20468   5.058   3.563   6.908
 1109SOL    HW120469   5.139   3.515   6.926
 1109SOL    HW220470   5.029   3.593   6.994
 1110SOL     OW20471   1.883   3.515   6.004
 1110SOL    HW120472   1.788   3.515   5.990
 1110SOL    HW220473   1.901   3.430   6.043
 1111SOL     OW20474   1.519   1.838   0.923
 1111SOL    HW120475   1.437   1.790   0.936
 1111SOL    HW220476   1.510   1.917   0.975
 1112SOL     OW20477   4.738   3.472   1.660
 1112SOL    HW120478   4.748   3.410   1.587
 1112SOL    HW220479   4.753   3.419   1.738
 1113SOL     OW20480   5.428   5.787   1.772
 1113SOL    HW120481   5.461   5.740   1.696
 1113SOL    HW220482   5.506   5.817   1.818
 1114SOL     OW20483   2.044   5.934   0.047
 1114SOL    HW120484   2.125   5.983   0.056
 1114SOL    HW220485   1.979   5.999   0.020
 1115SOL     OW20486   1.756   4.227   0.700
 1115SOL    HW120487   1.788   4.288   0.767
 1115SOL    HW220488   1.814   4.151   0.706
 1116SOL     OW20489   4.833   1.007   6.327
 1116SOL    HW120490   4.905   1.026   6.268
 1116SOL    HW220491   4.852   0.919   6.360
 1117SOL     OW20492   4.965   1.485   5.986
 1117SOL    HW120493   4.871   1.497   5.974
 1117SOL    HW220494   4.979   1.391   5.973
 1118SOL     OW20495   4.772   5.644   6.806
 1118SOL    HW120496   4.739   5.605   6.887
 1118SOL    HW220497   4.859   5.606   6.794
 1119SOL     OW20498   1.915   1.199   7.353
 1119SOL    HW120499   1.902   1.188   7.448
 1119SOL    HW220500   1.829   1.181   7.315
 1120SOL     OW20501   6.358   5.830   7.765
 1120SOL    HW120502   6.415   5.852   7.839
 1120SOL    HW220503   6.396   5.878   7.691
 1121SOL     OW20504   2.137   5.379   6.968
 1121SOL    HW120505   2.153   5.395   6.874
 1121SOL    HW220506   2.180   5.295   6.985
 1122SOL     OW20507   0.463   5.097   5.991
 1122SOL    HW120508   0.461   5.061   6.080
 1122SOL    HW220509   0.540   5.057   5.951
 1123SOL     OW20510   5.553   5.775   0.841
 1123SOL    HW120511   5.642   5.773   0.876
 1123SOL    HW220512   5.539   5.866   0.816
 1124SOL     OW20513   3.605   3.084   1.616
 1124SOL    HW120514   3.519   3.091   1.659
 1124SOL    HW220515   3.668   3.088   1.689
 1125SOL     OW20516   2.075   2.382   6.657
 1125SOL    HW120517   2.017   2.456   6.638
 1125SOL    HW220518   2.148   2.393   6.597
 1126SOL     OW20519   2.404   0.466   0.729
 1126SOL    HW120520   2.347   0.519   0.673
 1126SOL    HW220521   2.348   0.441   0.803
 1127SOL     OW20522   1.831   6.011   0.891
 1127SOL    HW120523   1.790   5.929   0.864
 1127SOL    HW220524   1.760   6.076   0.887
 1128SOL     OW20525   0.272   1.446   0.836
 1128SOL    HW120526   0.326   1.396   0.775
 1128SOL    HW220527   0.198   1.477   0.784
 1129SOL     OW20528   4.818   6.368   0.409
 1129SOL    HW120529   4.774   6.386   0.326
 1129SOL    HW220530   4.891   6.430   0.411
 1130SOL     OW20531   1.183   0.232   0.337
 1130SOL    HW120532   1.218   0.238   0.426
 1130SOL    HW220533   1.135   0.314   0.325
 1131SOL     OW20534   6.235   1.570   6.463
 1131SOL    HW120535   6.145   1.592   6.486
 1131SOL    HW220536   6.283   1.572   6.547
 1132SOL     OW20537   1.994   3.763   1.476
 1132SOL    HW120538   1.940   3.712   1.537
 1132SOL    HW220539   1.978   3.854   1.500
 1133SOL     OW20540   0.369   5.032   6.330
 1133SOL    HW120541   0.386   4.947   6.288
 1133SOL    HW220542   0.354   5.009   6.422
 1134SOL     OW20543   4.753   0.192   5.572
 1134SOL    HW120544   4.692   0.122   5.596
 1134SOL    HW220545   4.810   0.152   5.507
 1135SOL     OW20546   5.436   0.291   0.228
 1135SOL    HW120547   5.342   0.303   0.240
 1135SOL    HW220548   5.457   0.343   0.151
 1136SOL     OW20549   4.704   5.435   1.669
 1136SOL    HW120550   4.696   5.466   1.579
 1136SOL    HW220551   4.632   5.372   1.679
 1137SOL     OW20552   1.531   2.332   6.586
 1137SOL    HW120553   1.475   2.330   6.664
 1137SOL    HW220554   1.519   2.419   6.550
 1138SOL     OW20555   2.971   0.453   5.710
 1138SOL    HW120556   2.992   0.490   5.625
 1138SOL    HW220557   3.032   0.380   5.721
 1139SOL     OW20558   1.645   3.947   1.925
 1139SOL    HW120559   1.673   3.911   1.841
 1139SOL    HW220560   1.553   3.925   1.932
 1140SOL     OW20561   4.600   4.995   5.432
 1140SOL    HW120562   4.585   4.904   5.457
 1140SOL    HW220563   4.628   5.038   5.512
 1141SOL     OW20564   3.310   6.011   6.765
 1141SOL    HW120565   3.277   5.921   6.761
 1141SOL    HW220566   3.308   6.033   6.858
 1142SOL     OW20567   3.026   0.233   6.380
 1142SOL    HW120568   2.950   0.181   6.357
 1142SOL    HW220569   3.086   0.222   6.307
 1143SOL     OW20570   5.722   1.667   5.953
 1143SOL    HW120571   5.696   1.618   6.031
 1143SOL    HW220572   5.693   1.757   5.970
 1144SOL     OW20573   1.944   4.006   0.711
 1144SOL    HW120574   2.028   3.993   0.668
 1144SOL    HW220575   1.895   3.926   0.692
 1145SOL     OW20576   0.478   2.982   0.057
 1145SOL    HW120577   0.409   3.017   0.114
 1145SOL    HW220578   0.468   2.887   0.063
 1146SOL     OW20579   3.662   0.659   0.145
 1146SOL    HW120580   3.645   0.721   0.216
 1146SOL    HW220581   3.636   0.574   0.180
 1147SOL     OW20582   2.007   4.296   0.478
 1147SOL    HW120583   1.916   4.283   0.451
 1147SOL    HW220584   2.024   4.388   0.458
 1148SOL     OW20585   1.804   2.924   1.965
 1148SOL    HW120586   1.786   2.855   1.902
 1148SOL    HW220587   1.900   2.923   1.973
 1149SOL     OW20588   0.715   2.940   7.077
 1149SOL    HW120589   0.682   2.881   7.144
 1149SOL    HW220590   0.770   2.885   7.021
 1150SOL     OW20591   4.561   2.167   0.556
 1150SOL    HW120592   4.512   2.115   0.620
 1150SOL    HW220593   4.545   2.125   0.472
 1151SOL     OW20594   2.715   4.899   1.326
 1151SOL    HW120595   2.730   4.808   1.354
 1151SOL    HW220596   2.645   4.892   1.261
 1152SOL     OW20597   1.950   1.673   7.170
 1152SOL    HW120598   1.929   1.579   7.166
 1152SOL    HW220599   1.881   1.714   7.118
 1153SOL     OW20600   0.513   3.786   7.693
 1153SOL    HW120601   0.546   3.715   7.638
 1153SOL    HW220602   0.531   3.866   7.642
 1154SOL     OW20603   0.069   0.029   0.847
 1154SOL    HW120604   0.097  -0.047   0.899
 1154SOL    HW220605   0.150   0.062   0.807
 1155SOL     OW20606   0.102   5.281   7.114
 1155SOL    HW120607   0.081   5.374   7.106
 1155SOL    HW220608   0.037   5.248   7.176
 1156SOL     OW20609   5.817   4.795   7.130
 1156SOL    HW120610   5.831   4.701   7.146
 1156SOL    HW220611   5.811   4.833   7.217
 1157SOL     OW20612   1.868   6.238   7.437
 1157SOL    HW120613   1.960   6.215   7.446
 1157SOL    HW220614   1.855   6.308   7.502
 1158SOL     OW20615   1.659   1.475   1.210
 1158SOL    HW120616   1.627   1.400   1.260
 1158SOL    HW220617   1.639   1.551   1.265
 1159SOL     OW20618   1.377   1.616   6.545
 1159SOL    HW120619   1.309   1.678   6.520
 1159SOL    HW220620   1.408   1.579   6.463
 1160SOL     OW20621   3.904   1.452   1.958
 1160SOL    HW120622   3.827   1.401   1.934
 1160SOL    HW220623   3.978   1.399   1.928
 1161SOL     OW20624   2.563   2.471   6.015
 1161SOL    HW120625   2.568   2.566   6.002
 1161SOL    HW220626   2.486   2.444   5.965
 1162SOL     OW20627   1.109   3.769   0.373
 1162SOL    HW120628   1.163   3.800   0.445
 1162SOL    HW220629   1.152   3.688   0.345
 1163SOL     OW20630   3.035   4.515   0.239
 1163SOL    HW120631   3.056   4.458   0.312
 1163SOL    HW220632   3.001   4.456   0.172
 1164SOL     OW20633   3.519   5.407   1.293
 1164SOL    HW120634   3.488   5.471   1.228
 1164SOL    HW220635   3.502   5.322   1.253
 1165SOL     OW20636   3.330   2.258   7.339
 1165SOL    HW120637   3.403   2.250   7.400
 1165SOL    HW220638   3.277   2.180   7.354
 1166SOL     OW20639   5.198   4.053   1.699
 1166SOL    HW120640   5.110   4.085   1.722
 1166SOL    HW220641   5.244   4.130   1.666
 1167SOL     OW20642   1.498   3.462   7.731
 1167SOL    HW120643   1.544   3.403   7.673
 1167SOL    HW220644   1.442   3.405   7.784
 1168SOL     OW20645   0.280   3.295   0.238
 1168SOL    HW120646   0.294   3.234   0.166
 1168SOL    HW220647   0.255   3.377   0.196
 1169SOL     OW20648   0.154   3.346   7.693
 1169SOL    HW120649   0.211   3.417   7.722
 1169SOL    HW220650   0.107   3.383   7.618
 1170SOL     OW20651   0.083   6.183   7.377
 1170SOL    HW120652   0.143   6.248   7.341
 1170SOL    HW220653   0.027   6.157   7.303
 1171SOL     OW20654   3.118   1.290   0.606
 1171SOL    HW120655   3.042   1.322   0.654
 1171SOL    HW220656   3.178   1.365   0.605
 1172SOL     OW20657   6.018   5.334   0.702
 1172SOL    HW120658   6.089   5.271   0.689
 1172SOL    HW220659   6.051   5.416   0.665
 1173SOL     OW20660   2.398   5.029   6.690
 1173SOL    HW120661   2.343   5.093   6.645
 1173SOL    HW220662   2.451   5.081   6.749
 1174SOL     OW20663   5.181   1.077   1.916
 1174SOL    HW120664   5.192   0.985   1.939
 1174SOL    HW220665   5.271   1.110   1.910
 1175SOL     OW20666   0.677   5.032   6.934
 1175SOL    HW120667   0.627   4.982   6.999
 1175SOL    HW220668   0.644   5.121   6.942
 1176SOL     OW20669   4.227   2.546   1.539
 1176SOL    HW120670   4.234   2.469   1.594
 1176SOL    HW220671   4.282   2.526   1.463
 1177SOL     OW20672   6.351   0.194   0.958
 1177SOL    HW120673   6.394   0.206   1.042
 1177SOL    HW220674   6.406   0.131   0.911
 1178SOL     OW20675   4.818   3.377   1.109
 1178SOL    HW120676   4.835   3.292   1.150
 1178SOL    HW220677   4.889   3.388   1.046
 1179SOL     OW20678   2.692   1.124   0.066
 1179SOL    HW120679   2.673   1.030   0.066
 1179SOL    HW220680   2.785   1.130   0.088
 1180SOL     OW20681   5.016   1.779   0.906
 1180SOL    HW120682   4.964   1.843   0.857
 1180SOL    HW220683   5.094   1.827   0.932
 1181SOL     OW20684   0.811   5.213   1.544
 1181SOL    HW120685   0.774   5.225   1.632
 1181SOL    HW220686   0.851   5.127   1.547
 1182SOL     OW20687   2.374   0.007   6.116
 1182SOL    HW120688   2.428  -0.004   6.194
 1182SOL    HW220689   2.435  -0.003   6.043
 1183SOL     OW20690   1.105   2.919   6.839
 1183SOL    HW120691   1.057   2.972   6.775
 1183SOL    HW220692   1.037   2.876   6.890
 1184SOL     OW20693   0.624   2.702   1.729
 1184SOL    HW120694   0.693   2.754   1.687
 1184SOL    HW220695   0.651   2.697   1.821
 1185SOL     OW20696   4.043   6.034   1.291
 1185SOL    HW120697   4.042   5.987   1.375
 1185SOL    HW220698   4.054   6.126   1.316
 1186SOL     OW20699   4.235   5.868   1.625
 1186SOL    HW120700   4.193   5.894   1.707
 1186SOL    HW220701   4.164   5.863   1.562
 1187SOL     OW20702   0.498   0.114   1.994
 1187SOL    HW120703   0.504   0.090   1.902
 1187SOL    HW220704   0.461   0.037   2.037
 1188SOL     OW20705   0.797   3.409   6.223
 1188SOL    HW120706   0.798   3.390   6.129
 1188SOL    HW220707   0.881   3.376   6.255
 1189SOL     OW20708   0.340   3.573   7.754
 1189SOL    HW120709   0.375   3.658   7.728
 1189SOL    HW220710   0.416   3.526   7.790
 1190SOL     OW20711   5.867   5.587   1.713
 1190SOL    HW120712   5.836   5.594   1.804
 1190SOL    HW220713   5.930   5.658   1.704
 1191SOL     OW20714   1.527   4.286   0.233
 1191SOL    HW120715   1.558   4.219   0.294
 1191SOL    HW220716   1.556   4.255   0.147
 1192SOL     OW20717   2.750   2.164   1.194
 1192SOL    HW120718   2.819   2.176   1.129
 1192SOL    HW220719   2.677   2.128   1.145
 1193SOL     OW20720   2.500   0.066   2.014
 1193SOL    HW120721   2.533   0.140   2.065
 1193SOL    HW220722   2.409   0.089   1.994
 1194SOL     OW20723   1.331   5.805   2.565
 1194SOL    HW120724   1.240   5.785   2.586
 1194SOL    HW220725   1.337   5.900   2.575
 1195SOL     OW20726   5.516   0.225   2.052
 1195SOL    HW120727   5.477   0.148   2.093
 1195SOL    HW220728   5.512   0.293   2.119
 1196SOL     OW20729   6.182   2.746   1.416
 1196SOL    HW120730   6.218   2.736   1.328
 1196SOL    HW220731   6.259   2.745   1.474
 1197SOL     OW20732   2.099   4.783   7.421
 1197SOL    HW120733   2.020   4.834   7.437
 1197SOL    HW220734   2.171   4.843   7.444
 1198SOL     OW20735   1.584   4.223   6.846
 1198SOL    HW120736   1.578   4.317   6.832
 1198SOL    HW220737   1.587   4.185   6.758
 1199SOL     OW20738   0.317   4.337   2.107
 1199SOL    HW120739   0.231   4.297   2.092
 1199SOL    HW220740   0.332   4.391   2.029
 1200SOL     OW20741   4.430   1.254   2.491
 1200SOL    HW120742   4.378   1.327   2.458
 1200SOL    HW220743   4.506   1.250   2.434
 1201SOL     OW20744   3.343   3.304   1.661
 1201SOL    HW120745   3.323   3.231   1.601
 1201SOL    HW220746   3.302   3.380   1.621
 1202SOL     OW20747   2.809   3.865   1.600
 1202SOL    HW120748   2.888   3.920   1.600
 1202SOL    HW220749   2.842   3.776   1.607
 1203SOL     OW20750   5.162   1.745   7.390
 1203SOL    HW120751   5.179   1.770   7.481
 1203SOL    HW220752   5.070   1.719   7.389
 1204SOL     OW20753   0.457   1.202   0.871
 1204SOL    HW120754   0.443   1.127   0.928
 1204SOL    HW220755   0.405   1.184   0.793
 1205SOL     OW20756   4.545   4.009   7.319
 1205SOL    HW120757   4.537   3.931   7.374
 1205SOL    HW220758   4.596   4.070   7.372
 1206SOL     OW20759   4.892   3.744   2.736
 1206SOL    HW120760   4.850   3.780   2.814
 1206SOL    HW220761   4.822   3.696   2.691
 1207SOL     OW20762   3.250   0.653   1.572
 1207SOL    HW120763   3.237   0.695   1.657
 1207SOL    HW220764   3.161   0.644   1.536
 1208SOL     OW20765   0.756   0.857   1.020
 1208SOL    HW120766   0.834   0.906   0.992
 1208SOL    HW220767   0.705   0.845   0.939
 1209SOL     OW20768   0.309   1.866   1.185
 1209SOL    HW120769   0.297   1.928   1.113
 1209SOL    HW220770   0.388   1.817   1.161
 1210SOL     OW20771   4.823   1.445   7.043
 1210SOL    HW120772   4.881   1.445   6.968
 1210SOL    HW220773   4.800   1.353   7.056
 1211SOL     OW20774   0.095   4.550   0.125
 1211SOL    HW120775   0.016   4.496   0.133
 1211SOL    HW220776   0.104   4.592   0.211
 1212SOL     OW20777   2.727   6.252   2.161
 1212SOL    HW120778   2.645   6.300   2.175
 1212SOL    HW220779   2.736   6.197   2.239
 1213SOL     OW20780   5.894   3.554   5.465
 1213SOL    HW120781   5.879   3.477   5.410
 1213SOL    HW220782   5.835   3.542   5.539
 1214SOL     OW20783   2.346   2.378   0.984
 1214SOL    HW120784   2.306   2.460   0.954
 1214SOL    HW220785   2.304   2.311   0.930
 1215SOL     OW20786   5.508   4.402   6.213
 1215SOL    HW120787   5.577   4.450   6.168
 1215SOL    HW220788   5.544   4.315   6.229
 1216SOL     OW20789   0.520   2.464   6.535
 1216SOL    HW120790   0.545   2.393   6.476
 1216SOL    HW220791   0.543   2.431   6.622
 1217SOL     OW20792   4.248   1.395   6.148
 1217SOL    HW120793   4.176   1.335   6.172
 1217SOL    HW220794   4.205   1.463   6.096
 1218SOL     OW20795   3.354   0.981   2.567
 1218SOL    HW120796   3.316   0.961   2.481
 1218SOL    HW220797   3.445   0.951   2.560
 1219SOL     OW20798   1.931   4.357   1.188
 1219SOL    HW120799   2.009   4.412   1.196
 1219SOL    HW220800   1.905   4.366   1.096
 1220SOL     OW20801   2.241   0.619   1.516
 1220SOL    HW120802   2.160   0.589   1.556
 1220SOL    HW220803   2.218   0.634   1.424
 1221SOL     OW20804   6.288   3.948   0.144
 1221SOL    HW120805   6.205   3.920   0.106
 1221SOL    HW220806   6.349   3.952   0.071
 1222SOL     OW20807   6.267   1.903   6.929
 1222SOL    HW120808   6.261   1.809   6.946
 1222SOL    HW220809   6.257   1.943   7.015
 1223SOL     OW20810   3.139   5.885   0.008
 1223SOL    HW120811   3.226   5.851  -0.013
 1223SOL    HW220812   3.149   5.922   0.096
 1224SOL     OW20813   1.072   1.138   2.251
 1224SOL    HW120814   1.136   1.082   2.296
 1224SOL    HW220815   0.987   1.097   2.270
 1225SOL     OW20816   5.822   0.441   0.531
 1225SOL    HW120817   5.876   0.509   0.492
 1225SOL    HW220818   5.735   0.455   0.493
 1226SOL     OW20819   3.269   3.559   0.972
 1226SOL    HW120820   3.242   3.499   0.903
 1226SOL    HW220821   3.187   3.592   1.009
 1227SOL     OW20822   0.744   1.430   6.994
 1227SOL    HW120823   0.714   1.440   6.904
 1227SOL    HW220824   0.712   1.343   7.020
 1228SOL     OW20825   4.562   4.586   1.167
 1228SOL    HW120826   4.616   4.629   1.233
 1228SOL    HW220827   4.577   4.492   1.180
 1229SOL     OW20828   5.780   4.797   0.200
 1229SOL    HW120829   5.766   4.861   0.269
 1229SOL    HW220830   5.738   4.835   0.123
 1230SOL     OW20831   1.675   4.750   1.567
 1230SOL    HW120832   1.697   4.754   1.660
 1230SOL    HW220833   1.743   4.802   1.523
 1231SOL     OW20834   2.885   3.932   2.377
 1231SOL    HW120835   2.914   4.011   2.423
 1231SOL    HW220836   2.836   3.966   2.301
 1232SOL     OW20837   4.259   2.430   1.169
 1232SOL    HW120838   4.192   2.369   1.202
 1232SOL    HW220839   4.248   2.427   1.074
 1233SOL     OW20840   2.510   5.214   0.659
 1233SOL    HW120841   2.487   5.253   0.575
 1233SOL    HW220842   2.451   5.140   0.669
 1234SOL     OW20843   3.842   4.847   1.125
 1234SOL    HW120844   3.849   4.942   1.141
 1234SOL    HW220845   3.921   4.825   1.077
 1235SOL     OW20846   2.844   5.922   0.771
 1235SOL    HW120847   2.880   5.986   0.833
 1235SOL    HW220848   2.887   5.840   0.793
 1236SOL     OW20849   1.454   1.128   1.543
 1236SOL    HW120850   1.475   1.053   1.599
 1236SOL    HW220851   1.358   1.127   1.537
 1237SOL     OW20852   0.598   2.173   7.136
 1237SOL    HW120853   0.673   2.133   7.181
 1237SOL    HW220854   0.522   2.141   7.184
 1238SOL     OW20855   3.997   4.500   0.937
 1238SOL    HW120856   4.056   4.476   1.009
 1238SOL    HW220857   3.923   4.542   0.979
 1239SOL     OW20858   0.817   3.169   5.852
 1239SOL    HW120859   0.784   3.094   5.803
 1239SOL    HW220860   0.911   3.172   5.831
 1240SOL     OW20861   5.958   5.229   1.235
 1240SOL    HW120862   5.997   5.162   1.178
 1240SOL    HW220863   5.874   5.248   1.195
 1241SOL     OW20864   1.891   2.101   5.949
 1241SOL    HW120865   1.944   2.020   5.952
 1241SOL    HW220866   1.849   2.105   6.035
 1242SOL     OW20867   0.073   4.911   1.078
 1242SOL    HW120868   0.139   4.865   1.129
 1242SOL    HW220869  -0.010   4.869   1.101
 1243SOL     OW20870   4.669   2.514   0.774
 1243SOL    HW120871   4.645   2.453   0.844
 1243SOL    HW220872   4.651   2.601   0.811
 1244SOL     OW20873   5.433   2.195   6.026
 1244SOL    HW120874   5.516   2.205   5.980
 1244SOL    HW220875   5.434   2.105   6.059
 1245SOL     OW20876   5.480   2.488   6.801
 1245SOL    HW120877   5.511   2.431   6.731
 1245SOL    HW220878   5.387   2.498   6.785
 1246SOL     OW20879   1.550   5.639   7.046
 1246SOL    HW120880   1.455   5.629   7.043
 1246SOL    HW220881   1.566   5.692   7.124
 1247SOL     OW20882   5.317   3.614   7.250
 1247SOL    HW120883   5.364   3.582   7.173
 1247SOL    HW220884   5.229   3.578   7.240
 1248SOL     OW20885   5.704   2.244   0.141
 1248SOL    HW120886   5.656   2.251   0.058
 1248SOL    HW220887   5.672   2.163   0.180
 1249SOL     OW20888   1.660   2.394   0.508
 1249SOL    HW120889   1.587   2.453   0.493
 1249SOL    HW220890   1.627   2.331   0.571
 1250SOL     OW20891   3.815   0.625   7.660
 1250SOL    HW120892   3.750   0.572   7.707
 1250SOL    HW220893   3.773   0.646   7.577
 1251SOL     OW20894   6.044   5.301   1.747
 1251SOL    HW120895   6.095   5.356   1.807
 1251SOL    HW220896   6.102   5.228   1.726
 1252SOL     OW20897   1.911   1.584   1.155
 1252SOL    HW120898   1.816   1.592   1.156
 1252SOL    HW220899   1.931   1.543   1.071
 1253SOL     OW20900   1.861   0.499   0.053
 1253SOL    HW120901   1.853   0.449  -0.028
 1253SOL    HW220902   1.777   0.488   0.097
 1254SOL     OW20903   1.246   3.180   7.423
 1254SOL    HW120904   1.263   3.223   7.507
 1254SOL    HW220905   1.286   3.094   7.432
 1255SOL     OW20906   5.340   3.236   1.030
 1255SOL    HW120907   5.428   3.199   1.020
 1255SOL    HW220908   5.310   3.249   0.940
 1256SOL     OW20909   4.043   2.815   1.390
 1256SOL    HW120910   4.097   2.787   1.317
 1256SOL    HW220911   3.976   2.747   1.399
 1257SOL     OW20912   5.160   6.415   0.282
 1257SOL    HW120913   5.122   6.498   0.311
 1257SOL    HW220914   5.091   6.375   0.229
 1258SOL     OW20915   4.367   5.907   6.276
 1258SOL    HW120916   4.357   5.970   6.204
 1258SOL    HW220917   4.461   5.899   6.288
 1259SOL     OW20918   4.273   1.527   7.653
 1259SOL    HW120919   4.285   1.438   7.621
 1259SOL    HW220920   4.296   1.583   7.579
 1260SOL     OW20921   0.342   2.969   0.949
 1260SOL    HW120922   0.413   3.031   0.968
 1260SOL    HW220923   0.330   2.974   0.854
 1261SOL     OW20924   0.230   3.760   1.013
 1261SOL    HW120925   0.325   3.750   1.004
 1261SOL    HW220926   0.201   3.677   1.052
 1262SOL     OW20927   1.225   4.865   1.253
 1262SOL    HW120928   1.294   4.802   1.273
 1262SOL    HW220929   1.245   4.940   1.309
 1263SOL     OW20930   5.440   0.335   0.717
 1263SOL    HW120931   5.479   0.273   0.654
 1263SOL    HW220932   5.420   0.412   0.665
 1264SOL     OW20933   3.797   4.177   1.722
 1264SOL    HW120934   3.760   4.089   1.726
 1264SOL    HW220935   3.801   4.198   1.629
 1265SOL     OW20936   6.340   6.420   1.355
 1265SOL    HW120937   6.382   6.497   1.316
 1265SOL    HW220938   6.277   6.391   1.290
 1266SOL     OW20939   1.960   5.671   7.125
 1266SOL    HW120940   1.915   5.601   7.079
 1266SOL    HW220941   2.052   5.646   7.124
 1267SOL     OW20942   3.568   4.905   1.229
 1267SOL    HW120943   3.534   4.841   1.291
 1267SOL    HW220944   3.646   4.864   1.193
 1268SOL     OW20945   1.408   1.754   5.712
 1268SOL    HW120946   1.397   1.747   5.807
 1268SOL    HW220947   1.318   1.759   5.678
 1269SOL     OW20948   5.623   5.670   0.029
 1269SOL    HW120949   5.593   5.662   0.120
 1269SOL    HW220950   5.618   5.764   0.010
 1270SOL     OW20951   5.379   5.882   6.745
 1270SOL    HW120952   5.431   5.962   6.735
 1270SOL    HW220953   5.377   5.867   6.840
 1271SOL     OW20954   3.059   1.871   2.628
 1271SOL    HW120955   3.037   1.944   2.686
 1271SOL    HW220956   2.977   1.822   2.618
 1272SOL     OW20957   4.271   3.890   1.552
 1272SOL    HW120958   4.335   3.897   1.481
 1272SOL    HW220959   4.232   3.977   1.558
 1273SOL     OW20960   4.470   4.341   0.408
 1273SOL    HW120961   4.485   4.298   0.324
 1273SOL    HW220962   4.495   4.275   0.474
 1274SOL     OW20963   4.041   1.981   0.688
 1274SOL    HW120964   4.031   1.886   0.679
 1274SOL    HW220965   3.967   2.018   0.641
 1275SOL     OW20966   1.781   1.755   6.959
 1275SOL    HW120967   1.720   1.698   6.912
 1275SOL    HW220968   1.822   1.808   6.891
 1276SOL     OW20969   0.871   5.324   6.925
 1276SOL    HW120970   0.915   5.255   6.975
 1276SOL    HW220971   0.780   5.319   6.952
 1277SOL     OW20972   2.553   1.542   6.520
 1277SOL    HW120973   2.560   1.636   6.536
 1277SOL    HW220974   2.610   1.526   6.445
 1278SOL     OW20975   3.977   0.150   0.947
 1278SOL    HW120976   4.030   0.071   0.930
 1278SOL    HW220977   3.920   0.125   1.019
 1279SOL     OW20978   2.501   3.805   7.522
 1279SOL    HW120979   2.510   3.721   7.567
 1279SOL    HW220980   2.410   3.807   7.492
 1280SOL     OW20981   6.342   4.153   1.754
 1280SOL    HW120982   6.272   4.102   1.794
 1280SOL    HW220983   6.419   4.135   1.807
 1281SOL     OW20984   1.128   1.973   7.381
 1281SOL    HW120985   1.129   1.977   7.286
 1281SOL    HW220986   1.115   1.880   7.401
 1282SOL     OW20987   5.439   1.937   2.235
 1282SOL    HW120988   5.384   1.858   2.229
 1282SOL    HW220989   5.503   1.926   2.164
 1283SOL     OW20990   1.626   6.205   7.049
 1283SOL    HW120991   1.601   6.113   7.064
 1283SOL    HW220992   1.578   6.230   6.970
 1284SOL     OW20993   2.119   0.716   6.924
 1284SOL    HW120994   2.205   0.732   6.884
 1284SOL    HW220995   2.099   0.796   6.972
 1285SOL     OW20996   4.210   3.314   1.390
 1285SOL    HW120997   4.226   3.339   1.299
 1285SOL    HW220998   4.223   3.219   1.391
 1286SOL     OW20999   6.158   0.220   0.193
 1286SOL    HW121000   6.248   0.205   0.165
 1286SOL    HW221001   6.166   0.250   0.284
 1287SOL     OW21002   1.623   0.131   0.333
 1287SOL    HW121003   1.613   0.171   0.247
 1287SOL    HW221004   1.717   0.125   0.347
 1288SOL     OW21005   3.046   2.025   1.577
 1288SOL    HW121006   3.048   2.109   1.532
 1288SOL    HW221007   3.131   1.985   1.559
 1289SOL     OW21008   5.421   4.623   2.666
 1289SOL    HW121009   5.411   4.709   2.625
 1289SOL    HW221010   5.422   4.561   2.593
 1290SOL     OW21011   3.479   5.301   6.915
 1290SOL    HW121012   3.415   5.367   6.944
 1290SOL    HW221013   3.515   5.265   6.995
 1291SOL     OW21014   0.194   5.654   1.485
 1291SOL    HW121015   0.226   5.572   1.447
 1291SOL    HW221016   0.104   5.661   1.454
 1292SOL     OW21017   0.630   0.025   1.549
 1292SOL    HW121018   0.542   0.051   1.575
 1292SOL    HW221019   0.688   0.076   1.606
 1293SOL     OW21020   6.040   0.555   1.053
 1293SOL    HW121021   6.068   0.464   1.041
 1293SOL    HW221022   5.947   0.554   1.029
 1294SOL     OW21023   2.119   5.120   1.918
 1294SOL    HW121024   2.077   5.086   1.997
 1294SOL    HW221025   2.104   5.052   1.852
 1295SOL     OW21026   5.165   2.556   7.222
 1295SOL    HW121027   5.231   2.605   7.270
 1295SOL    HW221028   5.181   2.464   7.245
 1296SOL     OW21029   1.691   2.421   7.563
 1296SOL    HW121030   1.707   2.478   7.487
 1296SOL    HW221031   1.628   2.356   7.530
 1297SOL     OW21032   3.266   6.089   7.023
 1297SOL    HW121033   3.267   6.051   7.111
 1297SOL    HW221034   3.223   6.174   7.035
 1298SOL     OW21035   3.146   3.443   7.628
 1298SOL    HW121036   3.106   3.359   7.608
 1298SOL    HW221037   3.220   3.422   7.684
 1299SOL     OW21038   3.791   5.730   7.719
 1299SOL    HW121039   3.700   5.703   7.725
 1299SOL    HW221040   3.814   5.714   7.627
 1300SOL     OW21041   1.721   1.671   6.281
 1300SOL    HW121042   1.766   1.652   6.198
 1300SOL    HW221043   1.665   1.746   6.261
 1301SOL     OW21044   3.393   3.147   1.261
 1301SOL    HW121045   3.387   3.237   1.292
 1301SOL    HW221046   3.476   3.115   1.296
 1302SOL     OW21047   4.058   5.866   1.829
 1302SOL    HW121048   4.100   5.845   1.913
 1302SOL    HW221049   3.973   5.820   1.833
 1303SOL     OW21050   6.314   3.060   1.298
 1303SOL    HW121051   6.243   3.086   1.356
 1303SOL    HW221052   6.271   3.013   1.227
 1304SOL     OW21053   3.084   2.136   7.625
 1304SOL    HW121054   2.998   2.099   7.602
 1304SOL    HW221055   3.137   2.123   7.547
 1305SOL     OW21056   5.826   5.201   7.007
 1305SOL    HW121057   5.835   5.109   6.980
 1305SOL    HW221058   5.897   5.246   6.962
 1306SOL     OW21059   2.633   3.579   1.102
 1306SOL    HW121060   2.550   3.618   1.076
 1306SOL    HW221061   2.609   3.504   1.156
 1307SOL     OW21062   5.389   5.067   1.324
 1307SOL    HW121063   5.375   5.108   1.409
 1307SOL    HW221064   5.344   4.983   1.330
 1308SOL     OW21065   0.117   0.390   6.677
 1308SOL    HW121066   0.100   0.299   6.655
 1308SOL    HW221067   0.065   0.406   6.756
 1309SOL     OW21068   4.696   5.244   6.877
 1309SOL    HW121069   4.769   5.262   6.818
 1309SOL    HW221070   4.627   5.209   6.821
 1310SOL     OW21071   1.272   6.137   7.498
 1310SOL    HW121072   1.270   6.087   7.579
 1310SOL    HW221073   1.348   6.104   7.451
 1311SOL     OW21074   0.841   6.132   1.752
 1311SOL    HW121075   0.827   6.038   1.760
 1311SOL    HW221076   0.775   6.171   1.810
 1312SOL     OW21077   5.595   6.422   0.798
 1312SOL    HW121078   5.594   6.484   0.871
 1312SOL    HW221079   5.676   6.443   0.750
 1313SOL     OW21080   0.323   1.572   0.483
 1313SOL    HW121081   0.401   1.616   0.515
 1313SOL    HW221082   0.253   1.598   0.544
 1314SOL     OW21083   1.565   1.313   2.105
 1314SOL    HW121084   1.567   1.370   2.182
 1314SOL    HW221085   1.626   1.353   2.044
 1315SOL     OW21086   1.743   5.607   0.208
 1315SOL    HW121087   1.793   5.626   0.129
 1315SOL    HW221088   1.763   5.680   0.267
 1316SOL     OW21089   4.689   5.296   0.929
 1316SOL    HW121090   4.772   5.342   0.915
 1316SOL    HW221091   4.630   5.363   0.965
 1317SOL     OW21092   6.291   3.650   0.266
 1317SOL    HW121093   6.210   3.666   0.217
 1317SOL    HW221094   6.321   3.737   0.292
 1318SOL     OW21095   3.972   1.422   7.418
 1318SOL    HW121096   4.020   1.472   7.484
 1318SOL    HW221097   4.039   1.397   7.354
 1319SOL     OW21098   4.903   5.295   6.714
 1319SOL    HW121099   4.930   5.369   6.770
 1319SOL    HW221100   4.975   5.286   6.651
 1320SOL     OW21101   4.389   1.048   5.960
 1320SOL    HW121102   4.351   1.080   5.878
 1320SOL    HW221103   4.454   1.114   5.984
 1321SOL     OW21104   3.406   5.601   2.188
 1321SOL    HW121105   3.391   5.692   2.213
 1321SOL    HW221106   3.330   5.554   2.221
 1322SOL     OW21107   3.529   5.150   6.484
 1322SOL    HW121108   3.563   5.117   6.568
 1322SOL    HW221109   3.573   5.234   6.472
 1323SOL     OW21110   6.224   6.337   7.318
 1323SOL    HW121111   6.136   6.309   7.294
 1323SOL    HW221112   6.281   6.292   7.255
 1324SOL     OW21113   2.918   5.669   0.147
 1324SOL    HW121114   2.983   5.674   0.077
 1324SOL    HW221115   2.887   5.759   0.159
 1325SOL     OW21116   0.010   1.174   6.912
 1325SOL    HW121117   0.035   1.081   6.908
 1325SOL    HW221118  -0.020   1.194   6.823
 1326SOL     OW21119   1.341   0.107   6.672
 1326SOL    HW121120   1.354   0.199   6.698
 1326SOL    HW221121   1.424   0.082   6.632
 1327SOL     OW21122   0.143   1.868   5.628
 1327SOL    HW121123   0.231   1.838   5.652
 1327SOL    HW221124   0.142   1.866   5.533
 1328SOL     OW21125   4.008   5.523   7.031
 1328SOL    HW121126   4.018   5.489   6.942
 1328SOL    HW221127   4.010   5.446   7.087
 1329SOL     OW21128   0.720   0.677   0.233
 1329SOL    HW121129   0.762   0.701   0.316
 1329SOL    HW221130   0.735   0.753   0.176
 1330SOL     OW21131   4.548   6.002   0.534
 1330SOL    HW121132   4.607   6.067   0.571
 1330SOL    HW221133   4.461   6.031   0.561
 1331SOL     OW21134   0.571   5.076   6.658
 1331SOL    HW121135   0.530   5.162   6.663
 1331SOL    HW221136   0.597   5.057   6.748
 1332SOL     OW21137   5.252   5.975   1.079
 1332SOL    HW121138   5.273   5.966   0.986
 1332SOL    HW221139   5.187   5.906   1.096
 1333SOL     OW21140   3.901   4.447   6.775
 1333SOL    HW121141   3.886   4.539   6.752
 1333SOL    HW221142   3.823   4.401   6.745
 1334SOL     OW21143   0.301   4.083   0.246
 1334SOL    HW121144   0.301   4.095   0.151
 1334SOL    HW221145   0.353   4.004   0.260
 1335SOL     OW21146   3.460   2.549   7.624
 1335SOL    HW121147   3.521   2.617   7.653
 1335SOL    HW221148   3.381   2.564   7.675
 1336SOL     OW21149   2.351   4.303   6.430
 1336SOL    HW121150   2.323   4.266   6.347
 1336SOL    HW221151   2.402   4.381   6.406
 1337SOL     OW21152   3.869   1.936   6.957
 1337SOL    HW121153   3.875   1.848   6.994
 1337SOL    HW221154   3.805   1.928   6.886
 1338SOL     OW21155   1.890   5.554   6.031
 1338SOL    HW121156   1.796   5.547   6.049
 1338SOL    HW221157   1.931   5.492   6.091
 1339SOL     OW21158   4.635   1.832   6.667
 1339SOL    HW121159   4.580   1.836   6.746
 1339SOL    HW221160   4.609   1.908   6.616
 1340SOL     OW21161   3.190   6.362   1.024
 1340SOL    HW121162   3.139   6.335   1.100
 1340SOL    HW221163   3.129   6.413   0.970
 1341SOL     OW21164   0.169   2.320   1.994
 1341SOL    HW121165   0.233   2.259   1.958
 1341SOL    HW221166   0.178   2.310   2.089
 1342SOL     OW21167   5.023   1.002   7.736
 1342SOL    HW121168   5.041   1.086   7.694
 1342SOL    HW221169   4.928   0.998   7.743
 1343SOL     OW21170   2.604   6.071   1.980
 1343SOL    HW121171   2.595   6.006   2.050
 1343SOL    HW221172   2.666   6.135   2.014
 1344SOL     OW21173   6.453   0.340   6.357
 1344SOL    HW121174   6.464   0.380   6.444
 1344SOL    HW221175   6.484   0.250   6.368
 1345SOL     OW21176   5.803   6.257   6.786
 1345SOL    HW121177   5.842   6.298   6.708
 1345SOL    HW221178   5.811   6.163   6.770
 1346SOL     OW21179   4.592   5.636   0.307
 1346SOL    HW121180   4.612   5.634   0.400
 1346SOL    HW221181   4.497   5.625   0.302
 1347SOL     OW21182   0.395   0.553   1.682
 1347SOL    HW121183   0.363   0.554   1.772
 1347SOL    HW221184   0.432   0.640   1.669
 1348SOL     OW21185   4.516   5.496   1.030
 1348SOL    HW121186   4.428   5.485   0.993
 1348SOL    HW221187   4.508   5.569   1.090
 1349SOL     OW21188   2.970   3.108   5.705
 1349SOL    HW121189   2.893   3.065   5.742
 1349SOL    HW221190   2.963   3.199   5.734
 1350SOL     OW21191   1.665   0.525   1.021
 1350SOL    HW121192   1.693   0.611   0.991
 1350SOL    HW221193   1.569   0.526   1.012
 1351SOL     OW21194   6.437   4.341   6.302
 1351SOL    HW121195   6.346   4.321   6.281
 1351SOL    HW221196   6.465   4.401   6.233
 1352SOL     OW21197   5.690   4.799   0.731
 1352SOL    HW121198   5.685   4.714   0.774
 1352SOL    HW221199   5.783   4.822   0.736
 1353SOL     OW21200   0.232   6.116   7.594
 1353SOL    HW121201   0.325   6.138   7.591
 1353SOL    HW221202   0.188   6.201   7.592
 1354SOL     OW21203   5.062   6.102   1.235
 1354SOL    HW121204   5.022   6.018   1.260
 1354SOL    HW221205   5.155   6.082   1.223
 1355SOL     OW21206   4.630   1.979   0.246
 1355SOL    HW121207   4.621   1.967   0.151
 1355SOL    HW221208   4.634   2.074   0.258
 1356SOL     OW21209   2.405   4.647   7.578
 1356SOL    HW121210   2.490   4.612   7.552
 1356SOL    HW221211   2.344   4.575   7.564
 1357SOL     OW21212   2.611   3.824   7.272
 1357SOL    HW121213   2.570   3.789   7.351
 1357SOL    HW221214   2.705   3.805   7.284
 1358SOL     OW21215   2.838   5.269   1.546
 1358SOL    HW121216   2.929   5.240   1.544
 1358SOL    HW221217   2.808   5.260   1.455
 1359SOL     OW21218   1.375   5.989   1.530
 1359SOL    HW121219   1.413   5.978   1.443
 1359SOL    HW221220   1.346   6.081   1.532
 1360SOL     OW21221   1.967   3.452   7.373
 1360SOL    HW121222   1.892   3.495   7.415
 1360SOL    HW221223   1.982   3.374   7.427
 1361SOL     OW21224   4.441   2.496   1.353
 1361SOL    HW121225   4.529   2.497   1.314
 1361SOL    HW221226   4.383   2.480   1.279
 1362SOL     OW21227   1.142   0.935   6.027
 1362SOL    HW121228   1.094   0.919   5.946
 1362SOL    HW221229   1.228   0.965   5.998
 1363SOL     OW21230   4.208   6.230   6.645
 1363SOL    HW121231   4.218   6.167   6.716
 1363SOL    HW221232   4.117   6.259   6.650
 1364SOL     OW21233   4.380   2.850   1.267
 1364SOL    HW121234   4.303   2.805   1.232
 1364SOL    HW221235   4.345   2.912   1.330
 1365SOL     OW21236   5.036   2.079   5.728
 1365SOL    HW121237   5.083   2.098   5.809
 1365SOL    HW221238   5.041   2.160   5.677
 1366SOL     OW21239   0.555   6.353   7.096
 1366SOL    HW121240   0.579   6.262   7.110
 1366SOL    HW221241   0.584   6.373   7.007
 1367SOL     OW21242   6.011   0.565   0.350
 1367SOL    HW121243   6.039   0.655   0.368
 1367SOL    HW221244   6.092   0.519   0.328
 1368SOL     OW21245   1.764   2.657   2.862
 1368SOL    HW121246   1.727   2.583   2.911
 1368SOL    HW221247   1.853   2.629   2.841
 1369SOL     OW21248   2.887   6.105   0.356
 1369SOL    HW121249   2.941   6.106   0.435
 1369SOL    HW221250   2.826   6.178   0.368
 1370SOL     OW21251   1.152   0.102   0.598
 1370SOL    HW121252   1.111   0.113   0.683
 1370SOL    HW221253   1.179   0.010   0.597
 1371SOL     OW21254   4.215   3.221   1.941
 1371SOL    HW121255   4.275   3.238   2.014
 1371SOL    HW221256   4.134   3.193   1.983
 1372SOL     OW21257   1.461   3.834   6.074
 1372SOL    HW121258   1.486   3.912   6.123
 1372SOL    HW221259   1.428   3.868   5.991
 1373SOL     OW21260   2.714   1.491   6.784
 1373SOL    HW121261   2.648   1.557   6.761
 1373SOL    HW221262   2.755   1.468   6.700
 1374SOL     OW21263   5.603   1.587   6.516
 1374SOL    HW121264   5.631   1.601   6.606
 1374SOL    HW221265   5.681   1.606   6.463
 1375SOL     OW21266   0.437   5.973   6.781
 1375SOL    HW121267   0.497   6.045   6.762
 1375SOL    HW221268   0.390   5.958   6.700
 1376SOL     OW21269   0.023   0.183   1.226
 1376SOL    HW121270   0.030   0.202   1.319
 1376SOL    HW221271   0.091   0.236   1.185
 1377SOL     OW21272   4.459   5.220   0.485
 1377SOL    HW121273   4.447   5.243   0.577
 1377SOL    HW221274   4.426   5.130   0.479
 1378SOL     OW21275   2.900   0.594   1.093
 1378SOL    HW121276   2.829   0.654   1.072
 1378SOL    HW221277   2.940   0.630   1.172
 1379SOL     OW21278   5.429   2.880   0.080
 1379SOL    HW121279   5.385   2.808   0.034
 1379SOL    HW221280   5.453   2.843   0.165
 1380SOL     OW21281   4.038   4.891   6.977
 1380SOL    HW121282   4.128   4.858   6.983
 1380SOL    HW221283   3.994   4.852   7.053
 1381SOL     OW21284   1.346   2.270   6.052
 1381SOL    HW121285   1.430   2.275   6.097
 1381SOL    HW221286   1.283   2.306   6.114
 1382SOL     OW21287   6.303   5.070   1.370
 1382SOL    HW121288   6.237   5.119   1.418
 1382SOL    HW221289   6.259   4.988   1.345
 1383SOL     OW21290   4.748   2.752   0.553
 1383SOL    HW121291   4.666   2.703   0.552
 1383SOL    HW221292   4.722   2.843   0.538
 1384SOL     OW21293   0.747   4.480   1.365
 1384SOL    HW121294   0.708   4.501   1.280
 1384SOL    HW221295   0.779   4.391   1.355
 1385SOL     OW21296   2.020   3.517   1.720
 1385SOL    HW121297   1.962   3.447   1.749
 1385SOL    HW221298   1.984   3.596   1.758
 1386SOL     OW21299   3.835   4.308   6.423
 1386SOL    HW121300   3.760   4.303   6.482
 1386SOL    HW221301   3.891   4.235   6.450
 1387SOL     OW21302   3.155   0.975   7.751
 1387SOL    HW121303   3.089   0.916   7.715
 1387SOL    HW221304   3.237   0.928   7.741
 1388SOL     OW21305   5.605   5.162   6.618
 1388SOL    HW121306   5.629   5.076   6.652
 1388SOL    HW221307   5.688   5.210   6.612
 1389SOL     OW21308   1.924   5.631   0.013
 1389SOL    HW121309   1.938   5.703  -0.048
 1389SOL    HW221310   1.941   5.552  -0.040
 1390SOL     OW21311   3.767   2.236   1.595
 1390SOL    HW121312   3.836   2.282   1.546
 1390SOL    HW221313   3.713   2.306   1.631
 1391SOL     OW21314   1.524   0.730   1.451
 1391SOL    HW121315   1.569   0.736   1.535
 1391SOL    HW221316   1.591   0.704   1.388
 1392SOL     OW21317   2.083   3.086   1.232
 1392SOL    HW121318   2.022   3.023   1.271
 1392SOL    HW221319   2.089   3.157   1.296
 1393SOL     OW21320   2.648   4.340   6.832
 1393SOL    HW121321   2.575   4.287   6.865
 1393SOL    HW221322   2.607   4.421   6.803
 1394SOL     OW21323   3.058   6.260   1.233
 1394SOL    HW121324   3.123   6.190   1.225
 1394SOL    HW221325   2.974   6.215   1.234
 1395SOL     OW21326   1.683   6.215   0.405
 1395SOL    HW121327   1.662   6.309   0.402
 1395SOL    HW221328   1.778   6.213   0.414
 1396SOL     OW21329   2.670   0.385   0.459
 1396SOL    HW121330   2.577   0.363   0.464
 1396SOL    HW221331   2.687   0.396   0.365
 1397SOL     OW21332   5.984   0.022   0.450
 1397SOL    HW121333   6.008   0.096   0.507
 1397SOL    HW221334   5.939   0.063   0.376
 1398SOL     OW21335   0.836   3.708   7.528
 1398SOL    HW121336   0.795   3.632   7.570
 1398SOL    HW221337   0.842   3.684   7.436
 1399SOL     OW21338   3.093   3.669   0.151
 1399SOL    HW121339   3.183   3.654   0.122
 1399SOL    HW221340   3.050   3.584   0.143
 1400SOL     OW21341   6.144   6.163   6.991
 1400SOL    HW121342   6.212   6.156   6.925
 1400SOL    HW221343   6.085   6.089   6.973
 1401SOL     OW21344   0.103   3.578   1.168
 1401SOL    HW121345   0.159   3.532   1.230
 1401SOL    HW221346   0.044   3.510   1.135
 1402SOL     OW21347   1.779   5.063   0.388
 1402SOL    HW121348   1.739   5.108   0.462
 1402SOL    HW221349   1.737   5.101   0.311
 1403SOL     OW21350   0.791   3.685   5.934
 1403SOL    HW121351   0.767   3.593   5.943
 1403SOL    HW221352   0.784   3.720   6.023
 1404SOL     OW21353   1.908   1.024   6.758
 1404SOL    HW121354   2.003   1.023   6.750
 1404SOL    HW221355   1.880   1.086   6.690
 1405SOL     OW21356   2.364   6.428   0.704
 1405SOL    HW121357   2.415   6.420   0.784
 1405SOL    HW221358   2.385   6.348   0.655
 1406SOL     OW21359   2.144   1.148   0.656
 1406SOL    HW121360   2.239   1.157   0.645
 1406SOL    HW221361   2.115   1.236   0.679
 1407SOL     OW21362   5.774   5.918   0.269
 1407SOL    HW121363   5.758   5.933   0.175
 1407SOL    HW221364   5.844   5.853   0.270
 1408SOL     OW21365   1.090   1.859   1.783
 1408SOL    HW121366   1.164   1.897   1.735
 1408SOL    HW221367   1.038   1.815   1.715
 1409SOL     OW21368   1.575   0.145   1.497
 1409SOL    HW121369   1.561   0.239   1.488
 1409SOL    HW221370   1.498   0.114   1.545
 1410SOL     OW21371   6.368   3.397   0.300
 1410SOL    HW121372   6.330   3.485   0.294
 1410SOL    HW221373   6.374   3.367   0.209
 1411SOL     OW21374   0.580   3.475   6.809
 1411SOL    HW121375   0.565   3.470   6.904
 1411SOL    HW221376   0.635   3.400   6.790
 1412SOL     OW21377   0.306   5.479   6.590
 1412SOL    HW121378   0.235   5.441   6.641
 1412SOL    HW221379   0.386   5.446   6.632
 1413SOL     OW21380   5.079   6.418   1.175
 1413SOL    HW121381   5.154   6.417   1.116
 1413SOL    HW221382   5.100   6.354   1.243
 1414SOL     OW21383   5.285   0.271   7.055
 1414SOL    HW121384   5.348   0.200   7.068
 1414SOL    HW221385   5.200   0.233   7.077
 1415SOL     OW21386   0.145   5.366   0.810
 1415SOL    HW121387   0.194   5.435   0.856
 1415SOL    HW221388   0.153   5.390   0.718
 1416SOL     OW21389   1.065   2.617   1.086
 1416SOL    HW121390   1.136   2.631   1.023
 1416SOL    HW221391   1.106   2.564   1.155
 1417SOL     OW21392   5.889   4.077   0.015
 1417SOL    HW121393   5.927   4.165   0.004
 1417SOL    HW221394   5.795   4.091   0.014
 1418SOL     OW21395   2.175   6.067   0.585
 1418SOL    HW121396   2.127   6.109   0.657
 1418SOL    HW221397   2.187   5.977   0.612
 1419SOL     OW21398   0.437   2.034   0.655
 1419SOL    HW121399   0.370   2.011   0.590
 1419SOL    HW221400   0.514   2.056   0.603
 1420SOL     OW21401   6.115   1.942   7.545
 1420SOL    HW121402   6.203   1.975   7.565
 1420SOL    HW221403   6.097   1.975   7.457
 1421SOL     OW21404   1.847   4.393   6.368
 1421SOL    HW121405   1.768   4.403   6.315
 1421SOL    HW221406   1.865   4.299   6.366
 1422SOL     OW21407   5.410   2.556   2.320
 1422SOL    HW121408   5.387   2.599   2.403
 1422SOL    HW221409   5.501   2.527   2.333
 1423SOL     OW21410   3.050   3.771   1.987
 1423SOL    HW121411   3.096   3.803   1.910
 1423SOL    HW221412   3.067   3.836   2.055
 1424SOL     OW21413   6.198   0.174   7.330
 1424SOL    HW121414   6.272   0.234   7.339
 1424SOL    HW221415   6.237   0.093   7.296
 1425SOL     OW21416   5.259   0.883   0.881
 1425SOL    HW121417   5.317   0.807   0.890
 1425SOL    HW221418   5.305   0.953   0.928
 1426SOL     OW21419   3.613   3.916   6.987
 1426SOL    HW121420   3.566   3.844   7.029
 1426SOL    HW221421   3.544   3.965   6.942
 1427SOL     OW21422   4.374   5.429   0.307
 1427SOL    HW121423   4.392   5.404   0.217
 1427SOL    HW221424   4.434   5.376   0.360
 1428SOL     OW21425   1.433   1.474   6.308
 1428SOL    HW121426   1.489   1.402   6.335
 1428SOL    HW221427   1.444   1.478   6.213
 1429SOL     OW21428   3.425   5.108   0.555
 1429SOL    HW121429   3.381   5.171   0.613
 1429SOL    HW221430   3.390   5.023   0.581
 1430SOL     OW21431   2.316   3.942   1.182
 1430SOL    HW121432   2.224   3.916   1.186
 1430SOL    HW221433   2.319   4.027   1.226
 1431SOL     OW21434   5.846   2.721   6.644
 1431SOL    HW121435   5.763   2.713   6.597
 1431SOL    HW221436   5.905   2.762   6.582
 1432SOL     OW21437   2.883   3.845   0.745
 1432SOL    HW121438   2.808   3.861   0.687
 1432SOL    HW221439   2.859   3.766   0.792
 1433SOL     OW21440   4.872   4.760   7.182
 1433SOL    HW121441   4.875   4.806   7.098
 1433SOL    HW221442   4.819   4.816   7.239
 1434SOL     OW21443   4.437   2.164   0.837
 1434SOL    HW121444   4.494   2.194   0.908
 1434SOL    HW221445   4.400   2.243   0.800
 1435SOL     OW21446   5.334   3.263   6.656
 1435SOL    HW121447   5.386   3.214   6.592
 1435SOL    HW221448   5.311   3.198   6.723
 1436SOL     OW21449   6.331   5.415   7.303
 1436SOL    HW121450   6.284   5.396   7.385
 1436SOL    HW221451   6.417   5.446   7.331
 1437SOL     OW21452   0.323   4.550   0.747
 1437SOL    HW121453   0.319   4.538   0.842
 1437SOL    HW221454   0.231   4.557   0.720
 1438SOL     OW21455   2.558   1.531   2.227
 1438SOL    HW121456   2.614   1.499   2.155
 1438SOL    HW221457   2.505   1.600   2.188
 1439SOL     OW21458   4.382   5.642   1.641
 1439SOL    HW121459   4.336   5.725   1.642
 1439SOL    HW221460   4.436   5.643   1.721
 1440SOL     OW21461   0.137   6.288   1.007
 1440SOL    HW121462   0.053   6.244   1.022
 1440SOL    HW221463   0.193   6.222   0.967
 1441SOL     OW21464   4.076   0.745   6.630
 1441SOL    HW121465   4.075   0.811   6.699
 1441SOL    HW221466   4.128   0.784   6.560
 1442SOL     OW21467   4.544   4.181   0.630
 1442SOL    HW121468   4.569   4.089   0.637
 1442SOL    HW221469   4.461   4.186   0.677
 1443SOL     OW21470   3.775   4.945   1.493
 1443SOL    HW121471   3.709   4.914   1.431
 1443SOL    HW221472   3.748   5.034   1.514
 1444SOL     OW21473   2.400   2.055   0.313
 1444SOL    HW121474   2.371   2.084   0.227
 1444SOL    HW221475   2.353   1.972   0.327
 1445SOL     OW21476   3.185   3.372   2.339
 1445SOL    HW121477   3.211   3.447   2.392
 1445SOL    HW221478   3.099   3.396   2.305
 1446SOL     OW21479   1.304   6.219   1.637
 1446SOL    HW121480   1.341   6.302   1.607
 1446SOL    HW221481   1.333   6.211   1.728
 1447SOL     OW21482   1.228   1.003   1.196
 1447SOL    HW121483   1.230   0.919   1.240
 1447SOL    HW221484   1.311   1.009   1.150
 1448SOL     OW21485   1.407   3.758   1.878
 1448SOL    HW121486   1.386   3.666   1.890
 1448SOL    HW221487   1.394   3.774   1.784
 1449SOL     OW21488   3.493   6.334   0.477
 1449SOL    HW121489   3.525   6.418   0.509
 1449SOL    HW221490   3.397   6.343   0.479
 1450SOL     OW21491   1.762   5.598   0.801
 1450SOL    HW121492   1.729   5.678   0.759
 1450SOL    HW221493   1.721   5.598   0.888
 1451SOL     OW21494   3.421   3.135   0.782
 1451SOL    HW121495   3.423   3.075   0.856
 1451SOL    HW221496   3.482   3.097   0.719
 1452SOL     OW21497   4.927   4.052   6.774
 1452SOL    HW121498   4.870   4.070   6.849
 1452SOL    HW221499   4.916   3.958   6.757
 1453SOL     OW21500   3.140   0.367   0.422
 1453SOL    HW121501   3.138   0.353   0.517
 1453SOL    HW221502   3.139   0.462   0.411
 1454SOL     OW21503   5.424   6.040   1.517
 1454SOL    HW121504   5.388   5.976   1.455
 1454SOL    HW221505   5.519   6.030   1.510
 1455SOL     OW21506   4.917   1.312   1.225
 1455SOL    HW121507   4.934   1.255   1.301
 1455SOL    HW221508   4.868   1.386   1.261
 1456SOL     OW21509   2.023   0.156   6.925
 1456SOL    HW121510   1.975   0.144   7.007
 1456SOL    HW221511   1.970   0.110   6.859
 1457SOL     OW21512   0.078   2.283   0.782
 1457SOL    HW121513   0.084   2.290   0.877
 1457SOL    HW221514  -0.016   2.288   0.763
 1458SOL     OW21515   5.777   3.757   6.281
 1458SOL    HW121516   5.739   3.795   6.360
 1458SOL    HW221517   5.714   3.690   6.254
 1459SOL     OW21518   4.472   1.291   6.203
 1459SOL    HW121519   4.388   1.332   6.186
 1459SOL    HW221520   4.524   1.307   6.124
 1460SOL     OW21521   3.695   0.473   6.235
 1460SOL    HW121522   3.646   0.506   6.159
 1460SOL    HW221523   3.751   0.545   6.261
 1461SOL     OW21524   3.302   4.518   7.093
 1461SOL    HW121525   3.226   4.566   7.126
 1461SOL    HW221526   3.374   4.543   7.150
 1462SOL     OW21527   3.924   6.308   7.220
 1462SOL    HW121528   3.950   6.231   7.169
 1462SOL    HW221529   3.830   6.296   7.235
 1463SOL     OW21530   4.910   6.372   0.974
 1463SOL    HW121531   4.961   6.387   1.054
 1463SOL    HW221532   4.957   6.303   0.928
 1464SOL     OW21533   3.741   3.430   6.390
 1464SOL    HW121534   3.797   3.403   6.318
 1464SOL    HW221535   3.652   3.426   6.354
 1465SOL     OW21536   0.542   4.194   2.434
 1465SOL    HW121537   0.519   4.139   2.509
 1465SOL    HW221538   0.493   4.275   2.448
 1466SOL     OW21539   5.724   4.705   5.769
 1466SOL    HW121540   5.662   4.750   5.712
 1466SOL    HW221541   5.793   4.769   5.784
 1467SOL     OW21542   3.144   0.988   1.332
 1467SOL    HW121543   3.154   1.082   1.317
 1467SOL    HW221544   3.233   0.957   1.349
 1468SOL     OW21545   0.921   4.979   7.270
 1468SOL    HW121546   0.988   4.932   7.320
 1468SOL    HW221547   0.838   4.956   7.313
 1469SOL     OW21548   2.443   6.363   7.191
 1469SOL    HW121549   2.362   6.346   7.240
 1469SOL    HW221550   2.419   6.431   7.128
 1470SOL     OW21551   4.273   4.770   6.988
 1470SOL    HW121552   4.217   4.694   6.972
 1470SOL    HW221553   4.294   4.765   7.081
 1471SOL     OW21554   2.975   0.560   6.973
 1471SOL    HW121555   3.054   0.509   6.988
 1471SOL    HW221556   3.002   0.630   6.913
 1472SOL     OW21557   5.380   3.825   6.203
 1472SOL    HW121558   5.432   3.751   6.170
 1472SOL    HW221559   5.293   3.789   6.217
 1473SOL     OW21560   1.307   4.299   7.193
 1473SOL    HW121561   1.265   4.233   7.247
 1473SOL    HW221562   1.322   4.255   7.109
 1474SOL     OW21563   1.463   3.866   6.693
 1474SOL    HW121564   1.517   3.864   6.772
 1474SOL    HW221565   1.509   3.811   6.630
 1475SOL     OW21566   3.904   4.557   2.296
 1475SOL    HW121567   3.878   4.488   2.357
 1475SOL    HW221568   3.957   4.513   2.230
 1476SOL     OW21569   0.582   6.028   0.623
 1476SOL    HW121570   0.650   6.030   0.556
 1476SOL    HW221571   0.524   5.957   0.597
 1477SOL     OW21572   3.153   5.740   6.586
 1477SOL    HW121573   3.087   5.684   6.628
 1477SOL    HW221574   3.106   5.781   6.514
 1478SOL     OW21575   5.616   1.344   7.235
 1478SOL    HW121576   5.620   1.379   7.146
 1478SOL    HW221577   5.524   1.348   7.259
 1479SOL     OW21578   4.157   5.205   0.546
 1479SOL    HW121579   4.117   5.128   0.587
 1479SOL    HW221580   4.173   5.178   0.456
 1480SOL     OW21581   4.188   0.119   7.034
 1480SOL    HW121582   4.206   0.151   7.123
 1480SOL    HW221583   4.219   0.189   6.977
 1481SOL     OW21584   3.069   4.858   6.610
 1481SOL    HW121585   3.031   4.821   6.530
 1481SOL    HW221586   3.008   4.927   6.636
 1482SOL     OW21587   6.121   0.028   1.975
 1482SOL    HW121588   6.128   0.101   2.037
 1482SOL    HW221589   6.136  -0.050   2.028
 1483SOL     OW21590   0.490   1.339   1.885
 1483SOL    HW121591   0.527   1.426   1.870
 1483SOL    HW221592   0.474   1.335   1.980
 1484SOL     OW21593   2.235   4.519   6.818
 1484SOL    HW121594   2.308   4.509   6.757
 1484SOL    HW221595   2.270   4.573   6.889
 1485SOL     OW21596   6.214   5.294   5.803
 1485SOL    HW121597   6.215   5.238   5.725
 1485SOL    HW221598   6.205   5.383   5.768
 1486SOL     OW21599   4.212   5.716   7.080
 1486SOL    HW121600   4.213   5.741   7.172
 1486SOL    HW221601   4.160   5.635   7.078
 1487SOL     OW21602   2.871   5.516   6.377
 1487SOL    HW121603   2.962   5.494   6.356
 1487SOL    HW221604   2.856   5.599   6.331
 1488SOL     OW21605   1.465   3.716   0.344
 1488SOL    HW121606   1.430   3.805   0.340
 1488SOL    HW221607   1.389   3.659   0.331
 1489SOL     OW21608   3.868   5.987   6.369
 1489SOL    HW121609   3.857   6.030   6.454
 1489SOL    HW221610   3.779   5.982   6.333
 1490SOL     OW21611   1.057   3.145   0.818
 1490SOL    HW121612   1.151   3.132   0.829
 1490SOL    HW221613   1.019   3.059   0.835
 1491SOL     OW21614   4.176   6.382   0.624
 1491SOL    HW121615   4.158   6.320   0.554
 1491SOL    HW221616   4.267   6.408   0.610
 1492SOL     OW21617   0.837   4.842   0.498
 1492SOL    HW121618   0.901   4.909   0.475
 1492SOL    HW221619   0.886   4.760   0.501
 1493SOL     OW21620   3.983   0.854   5.890
 1493SOL    HW121621   4.074   0.823   5.891
 1493SOL    HW221622   3.980   0.915   5.816
 1494SOL     OW21623   4.605   0.973   0.994
 1494SOL    HW121624   4.625   1.010   0.909
 1494SOL    HW221625   4.584   0.881   0.976
 1495SOL     OW21626   2.736   4.428   7.266
 1495SOL    HW121627   2.657   4.481   7.279
 1495SOL    HW221628   2.704   4.348   7.223
 1496SOL     OW21629   3.857   2.201   2.263
 1496SOL    HW121630   3.870   2.292   2.236
 1496SOL    HW221631   3.915   2.150   2.207
 1497SOL     OW21632   2.274   4.070   7.305
 1497SOL    HW121633   2.321   4.001   7.352
 1497SOL    HW221634   2.265   4.140   7.369
 1498SOL     OW21635   0.401   0.972   6.686
 1498SOL    HW121636   0.458   0.938   6.755
 1498SOL    HW221637   0.422   0.918   6.610
 1499SOL     OW21638   6.272   2.140   6.612
 1499SOL    HW121639   6.289   2.047   6.629
 1499SOL    HW221640   6.285   2.183   6.696
 1500SOL     OW21641   4.149   1.338   1.821
 1500SOL    HW121642   4.188   1.336   1.908
 1500SOL    HW221643   4.183   1.260   1.777
 1501SOL     OW21644   3.766   3.280   0.616
 1501SOL    HW121645   3.719   3.284   0.533
 1501SOL    HW221646   3.701   3.303   0.682
 1502SOL     OW21647   3.061   6.218   6.552
 1502SOL    HW121648   3.004   6.169   6.492
 1502SOL    HW221649   3.137   6.162   6.565
 1503SOL     OW21650   5.413   0.267   6.579
 1503SOL    HW121651   5.405   0.360   6.558
 1503SOL    HW221652   5.330   0.229   6.549
 1504SOL     OW21653   4.810   3.141   0.729
 1504SOL    HW121654   4.739   3.204   0.723
 1504SOL    HW221655   4.847   3.138   0.640
 1505SOL     OW21656   1.825   5.312   0.903
 1505SOL    HW121657   1.841   5.386   0.845
 1505SOL    HW221658   1.867   5.238   0.860
 1506SOL     OW21659   3.273   3.569   6.655
 1506SOL    HW121660   3.236   3.577   6.743
 1506SOL    HW221661   3.213   3.511   6.609
 1507SOL     OW21662   3.334   1.329   6.072
 1507SOL    HW121663   3.299   1.323   5.983
 1507SOL    HW221664   3.291   1.259   6.119
 1508SOL     OW21665   0.611   4.654   6.087
 1508SOL    HW121666   0.668   4.577   6.085
 1508SOL    HW221667   0.528   4.622   6.050
 1509SOL     OW21668   5.204   2.175   7.728
 1509SOL    HW121669   5.189   2.248   7.669
 1509SOL    HW221670   5.211   2.099   7.670
 1510SOL     OW21671   5.861   3.810   5.432
 1510SOL    HW121672   5.810   3.808   5.513
 1510SOL    HW221673   5.882   3.718   5.414
 1511SOL     OW21674   0.816   0.943   7.142
 1511SOL    HW121675   0.882   0.914   7.205
 1511SOL    HW221676   0.788   0.863   7.098
 1512SOL     OW21677   4.567   3.475   1.165
 1512SOL    HW121678   4.557   3.558   1.118
 1512SOL    HW221679   4.656   3.447   1.146
 1513SOL     OW21680   4.053   1.902   5.797
 1513SOL    HW121681   3.967   1.861   5.806
 1513SOL    HW221682   4.102   1.870   5.873
 1514SOL     OW21683   0.717   3.628   0.828
 1514SOL    HW121684   0.702   3.681   0.750
 1514SOL    HW221685   0.692   3.539   0.803
 1515SOL     OW21686   5.013   3.171   0.032
 1515SOL    HW121687   5.008   3.165  -0.063
 1515SOL    HW221688   5.102   3.143   0.054
 1516SOL     OW21689   0.861   0.439   0.830
 1516SOL    HW121690   0.890   0.530   0.827
 1516SOL    HW221691   0.807   0.434   0.909
 1517SOL     OW21692   0.680   3.340   1.435
 1517SOL    HW121693   0.692   3.430   1.404
 1517SOL    HW221694   0.740   3.333   1.510
 1518SOL     OW21695   4.032   1.093   0.878
 1518SOL    HW121696   4.050   1.158   0.946
 1518SOL    HW221697   3.989   1.021   0.925
 1519SOL     OW21698   5.672   5.088   0.101
 1519SOL    HW121699   5.676   5.098   0.196
 1519SOL    HW221700   5.745   5.141   0.069
 1520SOL     OW21701   5.206   3.677   0.004
 1520SOL    HW121702   5.136   3.703  -0.056
 1520SOL    HW221703   5.198   3.737   0.078
 1521SOL     OW21704   5.039   1.056   6.142
 1521SOL    HW121705   5.082   0.981   6.102
 1521SOL    HW221706   5.031   1.120   6.071
 1522SOL     OW21707   2.590   2.462   1.491
 1522SOL    HW121708   2.670   2.408   1.492
 1522SOL    HW221709   2.557   2.453   1.401
 1523SOL     OW21710   3.793   1.477   6.663
 1523SOL    HW121711   3.778   1.480   6.757
 1523SOL    HW221712   3.882   1.443   6.653
 1524SOL     OW21713   6.455   4.308   7.296
 1524SOL    HW121714   6.524   4.283   7.234
 1524SOL    HW221715   6.464   4.245   7.368
 1525SOL     OW21716   3.162   3.517   7.198
 1525SOL    HW121717   3.138   3.425   7.183
 1525SOL    HW221718   3.147   3.560   7.114
 1526SOL     OW21719   0.451   5.512   0.756
 1526SOL    HW121720   0.516   5.507   0.826
 1526SOL    HW221721   0.367   5.507   0.801
 1527SOL     OW21722   3.096   0.853   7.467
 1527SOL    HW121723   3.039   0.783   7.433
 1527SOL    HW221724   3.176   0.807   7.492
 1528SOL     OW21725   2.733   3.112   1.395
 1528SOL    HW121726   2.658   3.054   1.385
 1528SOL    HW221727   2.767   3.123   1.306
 1529SOL     OW21728   2.496   3.536   0.133
 1529SOL    HW121729   2.537   3.486   0.204
 1529SOL    HW221730   2.517   3.627   0.154
 1530SOL     OW21731   1.976   6.239   7.156
 1530SOL    HW121732   1.928   6.269   7.079
 1530SOL    HW221733   1.910   6.234   7.225
 1531SOL     OW21734   5.358   4.035   6.525
 1531SOL    HW121735   5.265   4.035   6.546
 1531SOL    HW221736   5.388   3.946   6.542
 1532SOL     OW21737   2.057   4.167   1.333
 1532SOL    HW121738   2.024   4.235   1.274
 1532SOL    HW221739   2.145   4.196   1.356
 1533SOL     OW21740   2.320   6.328   1.725
 1533SOL    HW121741   2.378   6.346   1.651
 1533SOL    HW221742   2.378   6.292   1.792
 1534SOL     OW21743   1.725   1.068   0.984
 1534SOL    HW121744   1.730   1.131   0.912
 1534SOL    HW221745   1.774   1.108   1.055
 1535SOL     OW21746   1.408   5.589   0.669
 1535SOL    HW121747   1.490   5.563   0.628
 1535SOL    HW221748   1.347   5.600   0.596
 1536SOL     OW21749   3.884   1.417   0.999
 1536SOL    HW121750   3.868   1.400   0.907
 1536SOL    HW221751   3.863   1.510   1.010
 1537SOL     OW21752   0.466   1.851   5.967
 1537SOL    HW121753   0.535   1.798   5.926
 1537SOL    HW221754   0.439   1.913   5.900
 1538SOL     OW21755   3.452   4.159   7.062
 1538SOL    HW121756   3.373   4.205   7.032
 1538SOL    HW221757   3.517   4.229   7.074
 1539SOL     OW21758   2.058   0.947   5.721
 1539SOL    HW121759   1.966   0.965   5.707
 1539SOL    HW221760   2.060   0.875   5.785
 1540SOL     OW21761   0.013   1.691   0.207
 1540SOL    HW121762  -0.006   1.687   0.113
 1540SOL    HW221763   0.088   1.750   0.214
 1541SOL     OW21764   5.142   3.442   7.528
 1541SOL    HW121765   5.090   3.505   7.577
 1541SOL    HW221766   5.230   3.449   7.566
 1542SOL     OW21767   2.315   0.863   0.345
 1542SOL    HW121768   2.383   0.796   0.351
 1542SOL    HW221769   2.273   0.847   0.260
 1543SOL     OW21770   3.211   4.201   7.550
 1543SOL    HW121771   3.205   4.235   7.639
 1543SOL    HW221772   3.144   4.132   7.546
 1544SOL     OW21773   2.758   5.526   1.598
 1544SOL    HW121774   2.822   5.592   1.572
 1544SOL    HW221775   2.794   5.443   1.566
 1545SOL     OW21776   3.575   3.150   7.649
 1545SOL    HW121777   3.574   3.167   7.555
 1545SOL    HW221778   3.642   3.082   7.660
 1546SOL     OW21779   3.530   6.290   6.481
 1546SOL    HW121780   3.481   6.267   6.560
 1546SOL    HW221781   3.563   6.378   6.499
 1547SOL     OW21782   0.888   3.476   6.585
 1547SOL    HW121783   0.891   3.440   6.496
 1547SOL    HW221784   0.858   3.403   6.639
 1548SOL     OW21785   6.030   5.291   6.799
 1548SOL    HW121786   6.122   5.316   6.789
 1548SOL    HW221787   5.982   5.373   6.805
 1549SOL     OW21788   5.573   2.161   1.154
 1549SOL    HW121789   5.502   2.192   1.096
 1549SOL    HW221790   5.653   2.184   1.107
 1550SOL     OW21791   2.991   6.190   7.248
 1550SOL    HW121792   2.945   6.162   7.168
 1550SOL    HW221793   3.063   6.244   7.217
 1551SOL     OW21794   3.704   6.220   0.760
 1551SOL    HW121795   3.715   6.315   0.754
 1551SOL    HW221796   3.695   6.191   0.669
 1552SOL     OW21797   4.487   1.239   1.127
 1552SOL    HW121798   4.410   1.182   1.131
 1552SOL    HW221799   4.555   1.185   1.087
 1553SOL     OW21800   0.184   0.928   0.504
 1553SOL    HW121801   0.129   0.975   0.442
 1553SOL    HW221802   0.256   0.894   0.451
 1554SOL     OW21803   2.727   1.745   0.176
 1554SOL    HW121804   2.697   1.805   0.108
 1554SOL    HW221805   2.822   1.754   0.177
 1555SOL     OW21806   6.297   3.909   0.802
 1555SOL    HW121807   6.249   3.838   0.844
 1555SOL    HW221808   6.254   3.920   0.717
 1556SOL     OW21809   2.752   4.820   0.677
 1556SOL    HW121810   2.809   4.872   0.734
 1556SOL    HW221811   2.812   4.772   0.620
 1557SOL     OW21812   1.849   2.431   0.823
 1557SOL    HW121813   1.882   2.348   0.790
 1557SOL    HW221814   1.894   2.442   0.907
 1558SOL     OW21815   0.305   0.103   0.737
 1558SOL    HW121816   0.365   0.129   0.667
 1558SOL    HW221817   0.347   0.132   0.817
 1559SOL     OW21818   2.258   2.037   1.357
 1559SOL    HW121819   2.349   2.011   1.371
 1559SOL    HW221820   2.207   1.972   1.406
 1560SOL     OW21821   5.129   4.506   6.036
 1560SOL    HW121822   5.173   4.505   6.121
 1560SOL    HW221823   5.058   4.443   6.046
 1561SOL     OW21824   4.351   3.919   0.898
 1561SOL    HW121825   4.327   4.007   0.869
 1561SOL    HW221826   4.281   3.893   0.957
 1562SOL     OW21827   4.981   1.720   6.124
 1562SOL    HW121828   4.985   1.799   6.069
 1562SOL    HW221829   4.961   1.650   6.062
 1563SOL     OW21830   5.912   4.911   5.749
 1563SOL    HW121831   5.991   4.895   5.697
 1563SOL    HW221832   5.845   4.933   5.684
 1564SOL     OW21833   6.178   1.320   1.649
 1564SOL    HW121834   6.241   1.389   1.672
 1564SOL    HW221835   6.232   1.245   1.625
 1565SOL     OW21836   0.890   3.829   7.053
 1565SOL    HW121837   0.941   3.890   7.001
 1565SOL    HW221838   0.933   3.745   7.041
 1566SOL     OW21839   5.741   2.893   7.735
 1566SOL    HW121840   5.681   2.945   7.681
 1566SOL    HW221841   5.686   2.824   7.772
 1567SOL     OW21842   4.165   4.851   3.052
 1567SOL    HW121843   4.220   4.925   3.025
 1567SOL    HW221844   4.076   4.884   3.045
 1568SOL     OW21845   6.183   0.427   1.566
 1568SOL    HW121846   6.216   0.471   1.645
 1568SOL    HW221847   6.240   0.459   1.496
 1569SOL     OW21848   0.125   6.118   0.688
 1569SOL    HW121849   0.179   6.083   0.758
 1569SOL    HW221850   0.179   6.186   0.648
 1570SOL     OW21851   5.637   5.302   2.310
 1570SOL    HW121852   5.709   5.329   2.252
 1570SOL    HW221853   5.680   5.263   2.386
 1571SOL     OW21854   1.540   4.519   1.510
 1571SOL    HW121855   1.546   4.489   1.600
 1571SOL    HW221856   1.593   4.599   1.507
 1572SOL     OW21857   5.553   4.853   7.755
 1572SOL    HW121858   5.474   4.870   7.704
 1572SOL    HW221859   5.583   4.940   7.781
 1573SOL     OW21860   5.590   1.157   6.632
 1573SOL    HW121861   5.631   1.094   6.573
 1573SOL    HW221862   5.643   1.237   6.623
 1574SOL     OW21863   3.530   3.875   1.036
 1574SOL    HW121864   3.473   3.899   1.109
 1574SOL    HW221865   3.470   3.856   0.964
 1575SOL     OW21866   1.515   1.690   5.990
 1575SOL    HW121867   1.456   1.732   6.053
 1575SOL    HW221868   1.586   1.753   5.977
 1576SOL     OW21869   5.040   1.253   7.591
 1576SOL    HW121870   5.036   1.313   7.517
 1576SOL    HW221871   5.132   1.253   7.616
 1577SOL     OW21872   3.623   2.019   2.029
 1577SOL    HW121873   3.709   2.025   1.989
 1577SOL    HW221874   3.615   2.098   2.082
 1578SOL     OW21875   0.815   5.117   0.279
 1578SOL    HW121876   0.833   5.090   0.189
 1578SOL    HW221877   0.891   5.087   0.329
 1579SOL     OW21878   4.295   3.959   7.195
 1579SOL    HW121879   4.387   3.971   7.221
 1579SOL    HW221880   4.245   4.000   7.264
 1580SOL     OW21881   3.106   2.187   6.427
 1580SOL    HW121882   3.082   2.193   6.519
 1580SOL    HW221883   3.025   2.161   6.383
 1581SOL     OW21884   3.883   1.496   6.928
 1581SOL    HW121885   3.841   1.573   6.965
 1581SOL    HW221886   3.854   1.423   6.983
 1582SOL     OW21887   1.158   1.565   7.614
 1582SOL    HW121888   1.089   1.533   7.555
 1582SOL    HW221889   1.237   1.520   7.585
 1583SOL     OW21890   3.071   6.376   6.781
 1583SOL    HW121891   3.145   6.430   6.754
 1583SOL    HW221892   3.076   6.299   6.724
 1584SOL     OW21893   1.025   0.279   1.258
 1584SOL    HW121894   0.952   0.289   1.319
 1584SOL    HW221895   0.995   0.215   1.195
 1585SOL     OW21896   0.459   4.917   2.744
 1585SOL    HW121897   0.378   4.930   2.694
 1585SOL    HW221898   0.430   4.883   2.829
 1586SOL     OW21899   5.981   3.149   0.055
 1586SOL    HW121900   5.925   3.087   0.008
 1586SOL    HW221901   5.931   3.172   0.133
 1587SOL     OW21902   2.625   4.512   7.546
 1587SOL    HW121903   2.678   4.577   7.592
 1587SOL    HW221904   2.667   4.428   7.566
 1588SOL     OW21905   3.237   0.034   6.505
 1588SOL    HW121906   3.308   0.091   6.536
 1588SOL    HW221907   3.157   0.082   6.525
 1589SOL     OW21908   5.270   4.270   1.569
 1589SOL    HW121909   5.212   4.301   1.500
 1589SOL    HW221910   5.267   4.339   1.636
 1590SOL     OW21911   3.206   4.123   0.616
 1590SOL    HW121912   3.202   4.192   0.682
 1590SOL    HW221913   3.280   4.069   0.642
 1591SOL     OW21914   0.720   6.192   1.475
 1591SOL    HW121915   0.717   6.158   1.565
 1591SOL    HW221916   0.675   6.277   1.480
 1592SOL     OW21917   3.802   1.293   0.779
 1592SOL    HW121918   3.839   1.208   0.755
 1592SOL    HW221919   3.781   1.335   0.696
 1593SOL     OW21920   6.126   2.302   6.477
 1593SOL    HW121921   6.156   2.324   6.389
 1593SOL    HW221922   6.184   2.232   6.506
 1594SOL     OW21923   4.128   0.958   6.808
 1594SOL    HW121924   4.072   1.015   6.756
 1594SOL    HW221925   4.204   1.012   6.830
 1595SOL     OW21926   3.681   4.833   2.910
 1595SOL    HW121927   3.625   4.778   2.855
 1595SOL    HW221928   3.770   4.801   2.895
 1596SOL     OW21929   0.757   2.904   0.293
 1596SOL    HW121930   0.664   2.895   0.315
 1596SOL    HW221931   0.799   2.919   0.378
 1597SOL     OW21932   2.820   3.570   0.573
 1597SOL    HW121933   2.835   3.522   0.654
 1597SOL    HW221934   2.905   3.568   0.528
 1598SOL     OW21935   4.522   6.200   7.664
 1598SOL    HW121936   4.615   6.183   7.676
 1598SOL    HW221937   4.487   6.204   7.753
 1599SOL     OW21938   6.221   0.704   1.160
 1599SOL    HW121939   6.161   0.772   1.191
 1599SOL    HW221940   6.164   0.636   1.125
 1600SOL     OW21941   6.253   2.960   6.527
 1600SOL    HW121942   6.208   2.932   6.606
 1600SOL    HW221943   6.311   3.030   6.555
 1601SOL     OW21944   6.375   1.562   1.437
 1601SOL    HW121945   6.375   1.533   1.528
 1601SOL    HW221946   6.414   1.650   1.440
 1602SOL     OW21947   1.935   2.131   6.627
 1602SOL    HW121948   1.965   2.220   6.643
 1602SOL    HW221949   1.855   2.141   6.575
 1603SOL     OW21950   5.677   5.253   1.662
 1603SOL    HW121951   5.715   5.217   1.582
 1603SOL    HW221952   5.645   5.340   1.636
 1604SOL     OW21953   0.911   3.137   1.114
 1604SOL    HW121954   0.967   3.068   1.151
 1604SOL    HW221955   0.923   3.129   1.020
 1605SOL     OW21956   1.204   2.384   1.402
 1605SOL    HW121957   1.239   2.418   1.483
 1605SOL    HW221958   1.131   2.443   1.380
 1606SOL     OW21959   2.069   2.735   0.547
 1606SOL    HW121960   1.991   2.681   0.538
 1606SOL    HW221961   2.054   2.787   0.626
 1607SOL     OW21962   4.346   3.927   0.512
 1607SOL    HW121963   4.395   3.920   0.429
 1607SOL    HW221964   4.259   3.894   0.490
 1608SOL     OW21965   5.548   3.967   0.108
 1608SOL    HW121966   5.472   3.949   0.164
 1608SOL    HW221967   5.601   4.028   0.159
 1609SOL     OW21968   5.058   6.347   7.003
 1609SOL    HW121969   5.084   6.408   6.934
 1609SOL    HW221970   4.968   6.322   6.981
 1610SOL     OW21971   3.203   2.610   1.563
 1610SOL    HW121972   3.286   2.653   1.581
 1610SOL    HW221973   3.218   2.518   1.582
 1611SOL     OW21974   2.469   2.797   1.332
 1611SOL    HW121975   2.515   2.809   1.249
 1611SOL    HW221976   2.425   2.881   1.348
 1612SOL     OW21977   2.461   0.231   1.023
 1612SOL    HW121978   2.543   0.249   1.071
 1612SOL    HW221979   2.392   0.261   1.082
 1613SOL     OW21980   1.049   0.797   1.376
 1613SOL    HW121981   0.996   0.840   1.443
 1613SOL    HW221982   1.137   0.790   1.415
 1614SOL     OW21983   4.694   3.592   2.269
 1614SOL    HW121984   4.630   3.662   2.261
 1614SOL    HW221985   4.651   3.515   2.233
 1615SOL     OW21986   1.187   3.475   6.615
 1615SOL    HW121987   1.115   3.511   6.564
 1615SOL    HW221988   1.230   3.414   6.556
 1616SOL     OW21989   0.727   3.282   7.439
 1616SOL    HW121990   0.812   3.304   7.477
 1616SOL    HW221991   0.749   3.229   7.362
 1617SOL     OW21992   1.911   5.814   2.268
 1617SOL    HW121993   1.900   5.723   2.295
 1617SOL    HW221994   1.975   5.849   2.330
 1618SOL     OW21995   0.315   5.884   1.541
 1618SOL    HW121996   0.258   5.948   1.583
 1618SOL    HW221997   0.256   5.813   1.515
 1619SOL     OW21998   0.609   1.953   6.810
 1619SOL    HW121999   0.670   2.023   6.830
 1619SOL    HW222000   0.664   1.877   6.793
 1620SOL     OW22001   2.111   6.247   0.261
 1620SOL    HW122002   2.195   6.209   0.283
 1620SOL    HW222003   2.132   6.329   0.216
 1621SOL     OW22004   1.302   1.003   6.561
 1621SOL    HW122005   1.237   0.954   6.611
 1621SOL    HW222006   1.291   0.973   6.471
 1622SOL     OW22007   3.025   2.559   0.754
 1622SOL    HW122008   2.945   2.521   0.717
 1622SOL    HW222009   3.078   2.483   0.778
 1623SOL     OW22010   2.971   3.056   1.544
 1623SOL    HW122011   2.990   2.964   1.525
 1623SOL    HW222012   2.892   3.075   1.493
 1624SOL     OW22013   1.312   5.160   0.147
 1624SOL    HW122014   1.285   5.070   0.170
 1624SOL    HW222015   1.231   5.211   0.152
 1625SOL     OW22016   0.588   3.852   7.015
 1625SOL    HW122017   0.583   3.948   7.016
 1625SOL    HW222018   0.673   3.833   6.977
 1626SOL     OW22019   3.606   4.204   0.003
 1626SOL    HW122020   3.680   4.246   0.047
 1626SOL    HW222021   3.642   4.175  -0.081
 1627SOL     OW22022   1.577   0.085   1.785
 1627SOL    HW122023   1.562   0.030   1.861
 1627SOL    HW222024   1.639   0.036   1.731
 1628SOL     OW22025   5.393   3.475   2.309
 1628SOL    HW122026   5.470   3.432   2.272
 1628SOL    HW222027   5.319   3.434   2.265
 1629SOL     OW22028   0.030   2.588   6.701
 1629SOL    HW122029  -0.060   2.566   6.677
 1629SOL    HW222030   0.034   2.683   6.694
 1630SOL     OW22031   1.779   2.088   1.473
 1630SOL    HW122032   1.745   2.173   1.445
 1630SOL    HW222033   1.704   2.045   1.515
 1631SOL     OW22034   0.750   1.267   6.618
 1631SOL    HW122035   0.843   1.276   6.637
 1631SOL    HW222036   0.723   1.188   6.664
 1632SOL     OW22037   1.702   3.374   6.935
 1632SOL    HW122038   1.667   3.462   6.946
 1632SOL    HW222039   1.793   3.387   6.908
 1633SOL     OW22040   1.033   3.497   7.137
 1633SOL    HW122041   1.015   3.493   7.231
 1633SOL    HW222042   1.109   3.440   7.126
 1634SOL     OW22043   1.840   4.910   7.440
 1634SOL    HW122044   1.839   4.834   7.498
 1634SOL    HW222045   1.766   4.963   7.469
 1635SOL     OW22046   0.450   0.806   6.458
 1635SOL    HW122047   0.358   0.776   6.460
 1635SOL    HW222048   0.460   0.845   6.371
 1636SOL     OW22049   2.583   3.092   7.608
 1636SOL    HW122050   2.659   3.150   7.604
 1636SOL    HW222051   2.507   3.151   7.601
 1637SOL     OW22052   1.074   2.698   7.453
 1637SOL    HW122053   1.127   2.775   7.475
 1637SOL    HW222054   1.069   2.648   7.535
 1638SOL     OW22055   1.070   5.378   7.227
 1638SOL    HW122056   1.048   5.297   7.180
 1638SOL    HW222057   1.155   5.360   7.267
 1639SOL     OW22058   1.387   4.606   6.190
 1639SOL    HW122059   1.302   4.636   6.223
 1639SOL    HW222060   1.450   4.640   6.253
 1640SOL     OW22061   3.502   4.648   1.725
 1640SOL    HW122062   3.412   4.630   1.753
 1640SOL    HW222063   3.502   4.740   1.700
 1641SOL     OW22064   4.804   1.221   0.594
 1641SOL    HW122065   4.787   1.314   0.604
 1641SOL    HW222066   4.892   1.216   0.556
 1642SOL     OW22067   3.895   1.700   7.130
 1642SOL    HW122068   3.965   1.696   7.194
 1642SOL    HW222069   3.815   1.711   7.181
 1643SOL     OW22070   4.006   3.556   0.365
 1643SOL    HW122071   4.040   3.493   0.428
 1643SOL    HW222072   3.916   3.572   0.393
 1644SOL     OW22073   2.650   3.375   7.270
 1644SOL    HW122074   2.690   3.334   7.193
 1644SOL    HW222075   2.722   3.421   7.313
 1645SOL     OW22076   3.165   5.624   1.871
 1645SOL    HW122077   3.159   5.615   1.966
 1645SOL    HW222078   3.252   5.661   1.856
 1646SOL     OW22079   3.296   0.054   7.559
 1646SOL    HW122080   3.216   0.061   7.611
 1646SOL    HW222081   3.269   0.010   7.478
 1647SOL     OW22082   1.985   1.981   7.291
 1647SOL    HW122083   1.934   2.060   7.306
 1647SOL    HW222084   1.919   1.911   7.290
 1648SOL     OW22085   0.345   0.042   0.443
 1648SOL    HW122086   0.432   0.003   0.435
 1648SOL    HW222087   0.362   0.135   0.460
 1649SOL     OW22088   1.757   1.993   1.120
 1649SOL    HW122089   1.705   1.934   1.174
 1649SOL    HW222090   1.708   2.075   1.119
 1650SOL     OW22091   5.256   0.192   7.390
 1650SOL    HW122092   5.347   0.206   7.364
 1650SOL    HW222093   5.243   0.097   7.383
 1651SOL     OW22094   1.033   5.027   0.440
 1651SOL    HW122095   1.110   5.019   0.384
 1651SOL    HW222096   1.066   5.068   0.520
 1652SOL     OW22097   5.791   3.796   7.657
 1652SOL    HW122098   5.837   3.755   7.584
 1652SOL    HW222099   5.770   3.884   7.626
 1653SOL     OW22100   5.782   5.563   0.414
 1653SOL    HW122101   5.742   5.631   0.467
 1653SOL    HW222102   5.711   5.500   0.399
 1654SOL     OW22103   4.338   2.222   7.072
 1654SOL    HW122104   4.420   2.243   7.028
 1654SOL    HW222105   4.320   2.132   7.047
 1655SOL     OW22106   3.980   0.319   2.152
 1655SOL    HW122107   4.005   0.307   2.061
 1655SOL    HW222108   3.988   0.231   2.191
 1656SOL     OW22109   4.961   2.502   1.514
 1656SOL    HW122110   4.997   2.414   1.527
 1656SOL    HW222111   4.896   2.511   1.583
 1657SOL     OW22112   2.022   1.686   6.417
 1657SOL    HW122113   2.011   1.747   6.490
 1657SOL    HW222114   2.023   1.742   6.339
 1658SOL     OW22115   0.986   1.782   1.087
 1658SOL    HW122116   0.942   1.867   1.094
 1658SOL    HW222117   0.935   1.724   1.143
 1659SOL     OW22118   3.588   6.120   6.021
 1659SOL    HW122119   3.566   6.177   6.095
 1659SOL    HW222120   3.607   6.180   5.949
 1660SOL     OW22121   1.652   5.771   1.789
 1660SOL    HW122122   1.628   5.860   1.815
 1660SOL    HW222123   1.585   5.716   1.829
 1661SOL     OW22124   5.875   1.864   6.787
 1661SOL    HW122125   5.817   1.884   6.713
 1661SOL    HW222126   5.885   1.947   6.833
 1662SOL     OW22127   4.046   3.564   6.091
 1662SOL    HW122128   4.005   3.495   6.143
 1662SOL    HW222129   4.140   3.555   6.108
 1663SOL     OW22130   2.608   0.420   7.595
 1663SOL    HW122131   2.530   0.373   7.565
 1663SOL    HW222132   2.681   0.369   7.562
 1664SOL     OW22133   3.279   3.088   1.506
 1664SOL    HW122134   3.186   3.107   1.517
 1664SOL    HW222135   3.295   3.094   1.412
 1665SOL     OW22136   2.446   2.579   0.488
 1665SOL    HW122137   2.537   2.596   0.462
 1665SOL    HW222138   2.399   2.573   0.405
 1666SOL     OW22139   5.364   1.111   1.618
 1666SOL    HW122140   5.345   1.024   1.583
 1666SOL    HW222141   5.382   1.096   1.711
 1667SOL     OW22142   0.787   0.563   1.477
 1667SOL    HW122143   0.870   0.515   1.466
 1667SOL    HW222144   0.780   0.616   1.398
 1668SOL     OW22145   6.088   5.206   1.499
 1668SOL    HW122146   6.033   5.236   1.572
 1668SOL    HW222147   6.042   5.235   1.421
 1669SOL     OW22148   4.119   5.398   6.818
 1669SOL    HW122149   4.187   5.351   6.771
 1669SOL    HW222150   4.064   5.436   6.749
 1670SOL     OW22151   4.947   3.814   5.870
 1670SOL    HW122152   4.867   3.806   5.818
 1670SOL    HW222153   4.916   3.829   5.959
 1671SOL     OW22154   0.069   6.448   7.170
 1671SOL    HW122155   0.033   6.369   7.130
 1671SOL    HW222156   0.157   6.423   7.197
 1672SOL     OW22157   2.501   1.180   1.086
 1672SOL    HW122158   2.408   1.181   1.064
 1672SOL    HW222159   2.513   1.257   1.141
 1673SOL     OW22160   4.447   5.866   7.267
 1673SOL    HW122161   4.457   5.942   7.325
 1673SOL    HW222162   4.427   5.904   7.181
 1674SOL     OW22163   5.459   3.938   7.594
 1674SOL    HW122164   5.480   3.963   7.684
 1674SOL    HW222165   5.369   3.970   7.581
 1675SOL     OW22166   5.174   1.805   6.642
 1675SOL    HW122167   5.188   1.789   6.548
 1675SOL    HW222168   5.094   1.858   6.645
 1676SOL     OW22169   5.817   3.747   1.294
 1676SOL    HW122170   5.793   3.840   1.290
 1676SOL    HW222171   5.736   3.702   1.315
 1677SOL     OW22172   0.912   2.041   7.070
 1677SOL    HW122173   1.006   2.028   7.083
 1677SOL    HW222174   0.881   2.078   7.152
 1678SOL     OW22175   3.697   5.244   7.264
 1678SOL    HW122176   3.771   5.304   7.253
 1678SOL    HW222177   3.645   5.283   7.334
 1679SOL     OW22178   2.184   3.189   7.025
 1679SOL    HW122179   2.129   3.188   7.104
 1679SOL    HW222180   2.237   3.268   7.034
 1680SOL     OW22181   6.273   5.228   0.009
 1680SOL    HW122182   6.364   5.245   0.031
 1680SOL    HW222183   6.230   5.313   0.014
 1681SOL     OW22184   4.045   1.208   5.816
 1681SOL    HW122185   4.092   1.171   5.891
 1681SOL    HW222186   4.064   1.148   5.744
 1682SOL     OW22187   3.293   5.530   5.474
 1682SOL    HW122188   3.356   5.585   5.520
 1682SOL    HW222189   3.219   5.587   5.457
 1683SOL     OW22190   1.075   4.060   0.034
 1683SOL    HW122191   1.156   4.079  -0.015
 1683SOL    HW222192   1.023   4.007  -0.026
 1684SOL     OW22193   1.768   1.774   5.889
 1684SOL    HW122194   1.827   1.829   5.940
 1684SOL    HW222195   1.808   1.769   5.802
 1685SOL     OW22196   2.195   6.004   1.537
 1685SOL    HW122197   2.252   5.930   1.557
 1685SOL    HW222198   2.109   5.979   1.570
 1686SOL     OW22199   1.953   5.626   7.402
 1686SOL    HW122200   1.967   5.659   7.313
 1686SOL    HW222201   2.015   5.676   7.455
 1687SOL     OW22202   5.761   2.904   5.914
 1687SOL    HW122203   5.787   2.812   5.905
 1687SOL    HW222204   5.841   2.949   5.942
 1688SOL     OW22205   2.506   5.681   7.072
 1688SOL    HW122206   2.521   5.775   7.057
 1688SOL    HW222207   2.415   5.667   7.044
 1689SOL     OW22208   1.601   1.942   1.635
 1689SOL    HW122209   1.517   1.928   1.592
 1689SOL    HW222210   1.579   1.965   1.725
 1690SOL     OW22211   1.245   1.439   0.426
 1690SOL    HW122212   1.234   1.526   0.388
 1690SOL    HW222213   1.336   1.415   0.406
 1691SOL     OW22214   2.451   5.183   0.230
 1691SOL    HW122215   2.419   5.232   0.305
 1691SOL    HW222216   2.509   5.244   0.184
 1692SOL     OW22217   4.487   2.742   7.393
 1692SOL    HW122218   4.567   2.795   7.404
 1692SOL    HW222219   4.518   2.660   7.354
 1693SOL     OW22220   4.993   0.484   6.635
 1693SOL    HW122221   5.066   0.471   6.695
 1693SOL    HW222222   4.955   0.396   6.624
 1694SOL     OW22223   6.362   6.461   6.892
 1694SOL    HW122224   6.448   6.432   6.925
 1694SOL    HW222225   6.359   6.554   6.915
 1695SOL     OW22226   5.268   6.354   0.957
 1695SOL    HW122227   5.337   6.319   1.014
 1695SOL    HW222228   5.314   6.372   0.875
 1696SOL     OW22229   0.519   4.478   1.532
 1696SOL    HW122230   0.497   4.571   1.520
 1696SOL    HW222231   0.600   4.466   1.483
 1697SOL     OW22232   3.660   1.309   1.958
 1697SOL    HW122233   3.604   1.349   2.025
 1697SOL    HW222234   3.647   1.214   1.969
 1698SOL     OW22235   4.291   5.661   6.777
 1698SOL    HW122236   4.362   5.619   6.825
 1698SOL    HW222237   4.225   5.680   6.845
 1699SOL     OW22238   1.011   5.637   1.710
 1699SOL    HW122239   1.012   5.546   1.679
 1699SOL    HW222240   1.025   5.689   1.631
 1700SOL     OW22241   5.333   2.045   6.367
 1700SOL    HW122242   5.360   1.972   6.311
 1700SOL    HW222243   5.246   2.070   6.335
 1701SOL     OW22244   1.242   5.935   1.834
 1701SOL    HW122245   1.249   5.839   1.837
 1701SOL    HW222246   1.289   5.960   1.755
 1702SOL     OW22247   0.383   5.162   0.812
 1702SOL    HW122248   0.330   5.242   0.805
 1702SOL    HW222249   0.323   5.091   0.789
 1703SOL     OW22250   2.084   0.568   0.876
 1703SOL    HW122251   2.014   0.551   0.940
 1703SOL    HW222252   2.116   0.481   0.853
 1704SOL     OW22253   6.114   0.560   6.399
 1704SOL    HW122254   6.181   0.626   6.383
 1704SOL    HW222255   6.113   0.507   6.319
 1705SOL     OW22256   2.167   6.284   1.067
 1705SOL    HW122257   2.086   6.253   1.108
 1705SOL    HW222258   2.184   6.222   0.996
 1706SOL     OW22259   1.536   4.956   5.498
 1706SOL    HW122260   1.520   5.041   5.539
 1706SOL    HW222261   1.453   4.909   5.508
 1707SOL     OW22262   5.761   3.932   1.869
 1707SOL    HW122263   5.731   4.005   1.815
 1707SOL    HW222264   5.847   3.959   1.900
 1708SOL     OW22265   4.795   2.129   6.234
 1708SOL    HW122266   4.726   2.171   6.285
 1708SOL    HW222267   4.774   2.150   6.143
 1709SOL     OW22268   4.818   4.445   1.014
 1709SOL    HW122269   4.779   4.390   1.082
 1709SOL    HW222270   4.814   4.391   0.935
 1710SOL     OW22271   6.451   4.372   1.209
 1710SOL    HW122272   6.542   4.361   1.182
 1710SOL    HW222273   6.407   4.405   1.130
 1711SOL     OW22274   2.394   1.534   0.168
 1711SOL    HW122275   2.453   1.459   0.167
 1711SOL    HW222276   2.315   1.502   0.213
 1712SOL     OW22277   5.017   3.821   7.353
 1712SOL    HW122278   4.924   3.840   7.343
 1712SOL    HW222279   5.055   3.842   7.268
 1713SOL     OW22280   3.105   0.316   0.078
 1713SOL    HW122281   3.069   0.240   0.125
 1713SOL    HW222282   3.093   0.389   0.138
 1714SOL     OW22283   1.749   0.365   7.571
 1714SOL    HW122284   1.691   0.440   7.583
 1714SOL    HW222285   1.692   0.296   7.538
 1715SOL     OW22286   1.274   6.452   6.904
 1715SOL    HW122287   1.317   6.494   6.830
 1715SOL    HW222288   1.182   6.475   6.894
 1716SOL     OW22289   6.069   0.256   1.743
 1716SOL    HW122290   6.094   0.298   1.825
 1716SOL    HW222291   6.115   0.307   1.676
 1717SOL     OW22292   3.838   4.046   6.786
 1717SOL    HW122293   3.836   3.957   6.821
 1717SOL    HW222294   3.840   4.033   6.691
 1718SOL     OW22295   4.093   0.050   1.308
 1718SOL    HW122296   4.001   0.048   1.282
 1718SOL    HW222297   4.092   0.090   1.395
 1719SOL     OW22298   5.085   6.192   0.870
 1719SOL    HW122299   5.113   6.108   0.908
 1719SOL    HW222300   5.152   6.254   0.897
 1720SOL     OW22301   5.140   0.668   0.405
 1720SOL    HW122302   5.064   0.654   0.348
 1720SOL    HW222303   5.195   0.730   0.358
 1721SOL     OW22304   3.000   6.085   0.913
 1721SOL    HW122305   2.947   6.159   0.945
 1721SOL    HW222306   3.090   6.117   0.916
 1722SOL     OW22307   1.510   4.000   2.861
 1722SOL    HW122308   1.453   4.072   2.887
 1722SOL    HW222309   1.565   4.036   2.792
 1723SOL     OW22310   3.958   3.273   1.523
 1723SOL    HW122311   4.023   3.330   1.485
 1723SOL    HW222312   3.971   3.188   1.480
 1724SOL     OW22313   1.221   2.361   0.304
 1724SOL    HW122314   1.304   2.394   0.269
 1724SOL    HW222315   1.186   2.306   0.234
 1725SOL     OW22316   5.378   2.578   5.785
 1725SOL    HW122317   5.456   2.627   5.761
 1725SOL    HW222318   5.398   2.487   5.762
 1726SOL     OW22319   6.152   3.875   1.155
 1726SOL    HW122320   6.165   3.965   1.186
 1726SOL    HW222321   6.237   3.833   1.168
 1727SOL     OW22322   3.921   1.366   0.335
 1727SOL    HW122323   3.917   1.425   0.260
 1727SOL    HW222324   3.983   1.298   0.309
 1728SOL     OW22325   1.956   3.215   2.008
 1728SOL    HW122326   1.927   3.249   1.923
 1728SOL    HW222327   1.880   3.225   2.065
 1729SOL     OW22328   0.229   2.822   0.457
 1729SOL    HW122329   0.172   2.884   0.411
 1729SOL    HW222330   0.174   2.787   0.528
 1730SOL     OW22331   3.151   6.014   0.242
 1730SOL    HW122332   3.140   6.072   0.317
 1730SOL    HW222333   3.228   5.962   0.263
 1731SOL     OW22334   3.901   5.896   7.451
 1731SOL    HW122335   3.978   5.946   7.423
 1731SOL    HW222336   3.851   5.882   7.371
 1732SOL     OW22337   4.133   1.677   6.339
 1732SOL    HW122338   4.052   1.626   6.342
 1732SOL    HW222339   4.177   1.646   6.260
 1733SOL     OW22340   2.461   3.529   7.491
 1733SOL    HW122341   2.388   3.567   7.442
 1733SOL    HW222342   2.436   3.438   7.505
 1734SOL     OW22343   0.845   4.576   1.740
 1734SOL    HW122344   0.846   4.481   1.728
 1734SOL    HW222345   0.811   4.611   1.657
 1735SOL     OW22346   4.330   5.508   7.746
 1735SOL    HW122347   4.278   5.550   7.815
 1735SOL    HW222348   4.373   5.581   7.701
 1736SOL     OW22349   3.077   4.837   1.399
 1736SOL    HW122350   3.102   4.766   1.340
 1736SOL    HW222351   3.136   4.828   1.474
 1737SOL     OW22352   2.479   4.930   1.576
 1737SOL    HW122353   2.463   5.023   1.592
 1737SOL    HW222354   2.571   4.917   1.600
 1738SOL     OW22355   5.477   2.530   7.393
 1738SOL    HW122356   5.541   2.579   7.445
 1738SOL    HW222357   5.457   2.588   7.319
 1739SOL     OW22358   6.226   6.171   1.674
 1739SOL    HW122359   6.132   6.160   1.687
 1739SOL    HW222360   6.241   6.265   1.684
 1740SOL     OW22361   4.866   5.277   5.912
 1740SOL    HW122362   4.903   5.354   5.955
 1740SOL    HW222363   4.803   5.242   5.976
 1741SOL     OW22364   6.447   3.865   1.154
 1741SOL    HW122365   6.414   3.932   1.095
 1741SOL    HW222366   6.527   3.833   1.113
 1742SOL     OW22367   2.802   5.926   0.163
 1742SOL    HW122368   2.716   5.960   0.141
 1742SOL    HW222369   2.844   5.996   0.213
 1743SOL     OW22370   4.100   2.857   0.864
 1743SOL    HW122371   4.146   2.930   0.906
 1743SOL    HW222372   4.008   2.882   0.866
 1744SOL     OW22373   6.198   2.744   6.035
 1744SOL    HW122374   6.187   2.669   6.094
 1744SOL    HW222375   6.190   2.821   6.091
 1745SOL     OW22376   5.571   5.641   7.416
 1745SOL    HW122377   5.641   5.577   7.430
 1745SOL    HW222378   5.617   5.720   7.389
 1746SOL     OW22379   5.990   3.592   0.281
 1746SOL    HW122380   5.959   3.530   0.348
 1746SOL    HW222381   6.019   3.537   0.209
 1747SOL     OW22382   1.219   4.815   7.294
 1747SOL    HW122383   1.172   4.749   7.244
 1747SOL    HW222384   1.297   4.834   7.242
 1748SOL     OW22385   5.744   0.404   2.388
 1748SOL    HW122386   5.654   0.405   2.356
 1748SOL    HW222387   5.767   0.496   2.397
 1749SOL     OW22388   2.559   1.601   1.891
 1749SOL    HW122389   2.613   1.670   1.852
 1749SOL    HW222390   2.623   1.537   1.922
 1750SOL     OW22391   1.953   2.495   1.489
 1750SOL    HW122392   2.014   2.428   1.522
 1750SOL    HW222393   1.963   2.568   1.550
 1751SOL     OW22394   5.731   4.153   6.493
 1751SOL    HW122395   5.691   4.172   6.408
 1751SOL    HW222396   5.714   4.060   6.507
 1752SOL     OW22397   6.449   5.778   6.894
 1752SOL    HW122398   6.527   5.744   6.851
 1752SOL    HW222399   6.378   5.764   6.830
 1753SOL     OW22400   3.899   4.325   0.018
 1753SOL    HW122401   3.920   4.308   0.110
 1753SOL    HW222402   3.974   4.375  -0.014
 1754SOL     OW22403   1.054   4.959   2.356
 1754SOL    HW122404   0.981   4.986   2.299
 1754SOL    HW222405   1.053   5.023   2.427
 1755SOL     OW22406   3.801   1.985   0.498
 1755SOL    HW122407   3.805   1.909   0.439
 1755SOL    HW222408   3.745   1.955   0.570
 1756SOL     OW22409   4.499   5.003   0.089
 1756SOL    HW122410   4.504   5.006   0.184
 1756SOL    HW222411   4.511   5.094   0.062
 1757SOL     OW22412   5.544   2.107   5.736
 1757SOL    HW122413   5.618   2.107   5.797
 1757SOL    HW222414   5.517   2.016   5.731
 1758SOL     OW22415   0.859   2.365   7.593
 1758SOL    HW122416   0.867   2.271   7.581
 1758SOL    HW222417   0.798   2.375   7.666
 1759SOL     OW22418   3.408   3.083   6.955
 1759SOL    HW122419   3.446   3.075   7.042
 1759SOL    HW222420   3.314   3.079   6.969
 1760SOL     OW22421   3.542   4.798   7.089
 1760SOL    HW122422   3.541   4.727   7.153
 1760SOL    HW222423   3.598   4.767   7.018
 1761SOL     OW22424   0.064   4.123   1.555
 1761SOL    HW122425   0.068   4.215   1.530
 1761SOL    HW222426  -0.010   4.118   1.617
 1762SOL     OW22427   6.365   1.037   2.215
 1762SOL    HW122428   6.347   1.016   2.123
 1762SOL    HW222429   6.398   0.955   2.252
 1763SOL     OW22430   0.648   0.080   0.234
 1763SOL    HW122431   0.741   0.083   0.253
 1763SOL    HW222432   0.613   0.016   0.296
 1764SOL     OW22433   0.809   5.719   2.207
 1764SOL    HW122434   0.739   5.772   2.245
 1764SOL    HW222435   0.810   5.742   2.114
 1765SOL     OW22436   0.386   4.725   1.454
 1765SOL    HW122437   0.380   4.747   1.361
 1765SOL    HW222438   0.320   4.780   1.496
 1766SOL     OW22439   5.016   4.859   1.647
 1766SOL    HW122440   5.022   4.774   1.604
 1766SOL    HW222441   5.024   4.922   1.575
 1767SOL     OW22442   0.413   1.677   0.892
 1767SOL    HW122443   0.463   1.615   0.946
 1767SOL    HW222444   0.329   1.633   0.878
 1768SOL     OW22445   4.869   6.171   2.324
 1768SOL    HW122446   4.819   6.092   2.306
 1768SOL    HW222447   4.805   6.234   2.356
 1769SOL     OW22448   5.496   3.517   7.066
 1769SOL    HW122449   5.584   3.485   7.085
 1769SOL    HW222450   5.508   3.574   6.989
 1770SOL     OW22451   4.537   2.582   1.598
 1770SOL    HW122452   4.497   2.553   1.516
 1770SOL    HW222453   4.465   2.620   1.648
 1771SOL     OW22454   2.537   1.940   1.328
 1771SOL    HW122455   2.623   1.967   1.358
 1771SOL    HW222456   2.540   1.951   1.233
 1772SOL     OW22457   0.708   2.705   7.583
 1772SOL    HW122458   0.710   2.667   7.670
 1772SOL    HW222459   0.616   2.702   7.557
 1773SOL     OW22460   5.493   2.613   0.562
 1773SOL    HW122461   5.399   2.604   0.550
 1773SOL    HW222462   5.506   2.618   0.657
 1774SOL     OW22463   1.990   2.611   6.550
 1774SOL    HW122464   1.931   2.605   6.474
 1774SOL    HW222465   2.057   2.673   6.522
 1775SOL     OW22466   5.147   4.308   5.465
 1775SOL    HW122467   5.233   4.340   5.436
 1775SOL    HW222468   5.104   4.385   5.503
 1776SOL     OW22469   3.236   3.918   0.131
 1776SOL    HW122470   3.176   3.988   0.109
 1776SOL    HW222471   3.189   3.838   0.107
 1777SOL     OW22472   5.253   4.749   2.987
 1777SOL    HW122473   5.164   4.783   2.978
 1777SOL    HW222474   5.248   4.659   2.955
 1778SOL     OW22475   6.234   2.515   6.617
 1778SOL    HW122476   6.211   2.576   6.546
 1778SOL    HW222477   6.199   2.431   6.589
 1779SOL     OW22478   1.224   3.101   0.216
 1779SOL    HW122479   1.149   3.114   0.275
 1779SOL    HW222480   1.242   3.007   0.220
 1780SOL     OW22481   5.417   6.075   6.460
 1780SOL    HW122482   5.475   6.086   6.385
 1780SOL    HW222483   5.393   6.164   6.485
 1781SOL     OW22484   2.755   0.595   1.693
 1781SOL    HW122485   2.673   0.546   1.683
 1781SOL    HW222486   2.810   0.539   1.748
 1782SOL     OW22487   6.147   0.123   5.847
 1782SOL    HW122488   6.151   0.051   5.910
 1782SOL    HW222489   6.239   0.143   5.828
 1783SOL     OW22490   0.099   3.215   7.335
 1783SOL    HW122491   0.019   3.168   7.311
 1783SOL    HW222492   0.153   3.149   7.380
 1784SOL     OW22493   3.595   2.425   1.682
 1784SOL    HW122494   3.601   2.460   1.771
 1784SOL    HW222495   3.550   2.494   1.632
 1785SOL     OW22496   1.209   2.843   1.673
 1785SOL    HW122497   1.133   2.901   1.677
 1785SOL    HW222498   1.237   2.834   1.764
 1786SOL     OW22499   0.757   4.185   7.674
 1786SOL    HW122500   0.792   4.274   7.674
 1786SOL    HW222501   0.832   4.129   7.653
 1787SOL     OW22502   2.158   1.931   7.644
 1787SOL    HW122503   2.065   1.909   7.646
 1787SOL    HW222504   2.201   1.858   7.688
 1788SOL     OW22505   5.642   2.928   1.727
 1788SOL    HW122506   5.658   3.022   1.720
 1788SOL    HW222507   5.577   2.921   1.797
 1789SOL     OW22508   0.891   6.430   0.695
 1789SOL    HW122509   0.900   6.474   0.611
 1789SOL    HW222510   0.806   6.458   0.728
 1790SOL     OW22511   5.584   1.321   0.435
 1790SOL    HW122512   5.504   1.343   0.387
 1790SOL    HW222513   5.653   1.372   0.392
 1791SOL     OW22514   1.949   2.874   1.332
 1791SOL    HW122515   1.866   2.827   1.344
 1791SOL    HW222516   1.983   2.887   1.420
 1792SOL     OW22517   3.992   4.462   1.425
 1792SOL    HW122518   4.002   4.418   1.510
 1792SOL    HW222519   4.078   4.502   1.410
 1793SOL     OW22520   3.407   4.919   1.847
 1793SOL    HW122521   3.343   4.969   1.898
 1793SOL    HW222522   3.451   4.863   1.911
 1794SOL     OW22523   1.848   4.777   7.689
 1794SOL    HW122524   1.794   4.747   7.762
 1794SOL    HW222525   1.938   4.766   7.719
 1795SOL     OW22526   2.157   3.819   6.974
 1795SOL    HW122527   2.110   3.790   6.896
 1795SOL    HW222528   2.108   3.780   7.047
 1796SOL     OW22529   3.639   4.546   2.742
 1796SOL    HW122530   3.721   4.572   2.783
 1796SOL    HW222531   3.617   4.618   2.683
 1797SOL     OW22532   1.990   1.834   1.102
 1797SOL    HW122533   1.965   1.747   1.134
 1797SOL    HW222534   1.916   1.890   1.124
 1798SOL     OW22535   4.982   2.240   1.693
 1798SOL    HW122536   4.987   2.145   1.692
 1798SOL    HW222537   4.929   2.261   1.770
 1799SOL     OW22538   5.075   2.879   0.915
 1799SOL    HW122539   5.143   2.838   0.969
 1799SOL    HW222540   5.114   2.885   0.828
 1800SOL     OW22541   5.720   6.451   1.061
 1800SOL    HW122542   5.739   6.504   1.138
 1800SOL    HW222543   5.797   6.461   1.005
 1801SOL     OW22544   0.903   1.495   2.052
 1801SOL    HW122545   0.937   1.495   2.141
 1801SOL    HW222546   0.897   1.587   2.028
 1802SOL     OW22547   2.365   5.238   1.858
 1802SOL    HW122548   2.364   5.293   1.936
 1802SOL    HW222549   2.273   5.227   1.835
 1803SOL     OW22550   5.612   0.765   0.244
 1803SOL    HW122551   5.701   0.730   0.251
 1803SOL    HW222552   5.611   0.842   0.301
 1804SOL     OW22553   2.878   0.762   5.674
 1804SOL    HW122554   2.923   0.715   5.604
 1804SOL    HW222555   2.802   0.801   5.631
 1805SOL     OW22556   0.136   2.262   0.511
 1805SOL    HW122557   0.135   2.235   0.603
 1805SOL    HW222558   0.170   2.186   0.464
 1806SOL     OW22559   5.856   1.622   0.524
 1806SOL    HW122560   5.831   1.558   0.591
 1806SOL    HW222561   5.788   1.689   0.527
 1807SOL     OW22562   5.953   2.622   6.869
 1807SOL    HW122563   5.904   2.661   6.941
 1807SOL    HW222564   5.922   2.668   6.791
 1808SOL     OW22565   4.028   4.287   0.768
 1808SOL    HW122566   3.997   4.334   0.691
 1808SOL    HW222567   4.007   4.344   0.842
 1809SOL     OW22568   2.642   3.188   1.637
 1809SOL    HW122569   2.665   3.170   1.546
 1809SOL    HW222570   2.697   3.129   1.688
 1810SOL     OW22571   4.484   5.340   1.848
 1810SOL    HW122572   4.477   5.374   1.937
 1810SOL    HW222573   4.495   5.245   1.859
 1811SOL     OW22574   3.822   4.337   2.417
 1811SOL    HW122575   3.875   4.296   2.486
 1811SOL    HW222576   3.740   4.289   2.418
 1812SOL     OW22577   1.097   0.478   1.594
 1812SOL    HW122578   1.053   0.513   1.671
 1812SOL    HW222579   1.097   0.551   1.532
 1813SOL     OW22580   5.192   1.920   1.087
 1813SOL    HW122581   5.251   1.986   1.051
 1813SOL    HW222582   5.111   1.967   1.105
 1814SOL     OW22583   0.379   4.392   2.490
 1814SOL    HW122584   0.380   4.418   2.582
 1814SOL    HW222585   0.288   4.401   2.464
 1815SOL     OW22586   3.394   6.338   0.773
 1815SOL    HW122587   3.486   6.325   0.797
 1815SOL    HW222588   3.372   6.425   0.806
 1816SOL     OW22589   2.147   2.779   6.419
 1816SOL    HW122590   2.099   2.828   6.352
 1816SOL    HW222591   2.228   2.751   6.374
 1817SOL     OW22592   5.829   3.059   6.435
 1817SOL    HW122593   5.775   3.063   6.356
 1817SOL    HW222594   5.882   2.980   6.423
 1818SOL     OW22595   5.318   4.250   0.947
 1818SOL    HW122596   5.344   4.175   0.893
 1818SOL    HW222597   5.396   4.271   0.999
 1819SOL     OW22598   3.209   1.769   1.079
 1819SOL    HW122599   3.154   1.789   1.155
 1819SOL    HW222600   3.270   1.703   1.110
 1820SOL     OW22601   3.266   4.710   7.494
 1820SOL    HW122602   3.330   4.640   7.481
 1820SOL    HW222603   3.290   4.749   7.578
 1821SOL     OW22604   3.866   5.730   6.430
 1821SOL    HW122605   3.873   5.817   6.390
 1821SOL    HW222606   3.943   5.683   6.397
 1822SOL     OW22607   3.571   5.636   7.033
 1822SOL    HW122608   3.561   5.652   6.939
 1822SOL    HW222609   3.502   5.572   7.053
 1823SOL     OW22610   3.153   5.832   1.473
 1823SOL    HW122611   3.172   5.778   1.397
 1823SOL    HW222612   3.236   5.875   1.494
 1824SOL     OW22613   3.038   3.511   2.131
 1824SOL    HW122614   3.022   3.562   2.052
 1824SOL    HW222615   3.007   3.566   2.202
 1825SOL     OW22616   4.476   4.488   7.364
 1825SOL    HW122617   4.510   4.569   7.403
 1825SOL    HW222618   4.549   4.455   7.312
 1826SOL     OW22619   3.601   1.698   1.419
 1826SOL    HW122620   3.632   1.626   1.365
 1826SOL    HW222621   3.637   1.681   1.506
 1827SOL     OW22622   4.269   4.649   7.228
 1827SOL    HW122623   4.180   4.615   7.241
 1827SOL    HW222624   4.324   4.591   7.280
 1828SOL     OW22625   3.819   2.787   1.902
 1828SOL    HW122626   3.877   2.857   1.928
 1828SOL    HW222627   3.808   2.733   1.980
 1829SOL     OW22628   5.556   5.066   7.529
 1829SOL    HW122629   5.522   5.062   7.439
 1829SOL    HW222630   5.482   5.038   7.583
 1830SOL     OW22631   2.587   2.168   5.994
 1830SOL    HW122632   2.594   2.263   6.003
 1830SOL    HW222633   2.674   2.136   6.013
 1831SOL     OW22634   5.156   1.465   0.652
 1831SOL    HW122635   5.240   1.489   0.691
 1831SOL    HW222636   5.112   1.549   0.637
 1832SOL     OW22637   2.564   2.970   2.714
 1832SOL    HW122638   2.626   2.928   2.654
 1832SOL    HW222639   2.613   3.045   2.748
 1833SOL     OW22640   2.333   1.952   7.431
 1833SOL    HW122641   2.310   1.954   7.524
 1833SOL    HW222642   2.361   1.862   7.415
 1834SOL     OW22643   3.168   3.379   6.031
 1834SOL    HW122644   3.095   3.377   6.093
 1834SOL    HW222645   3.234   3.434   6.074
 1835SOL     OW22646   2.090   3.116   0.368
 1835SOL    HW122647   2.088   3.046   0.303
 1835SOL    HW222648   2.157   3.088   0.431
 1836SOL     OW22649   5.640   2.988   0.296
 1836SOL    HW122650   5.714   2.928   0.303
 1836SOL    HW222651   5.677   3.066   0.254
 1837SOL     OW22652   2.976   5.470   1.053
 1837SOL    HW122653   3.013   5.438   1.136
 1837SOL    HW222654   2.889   5.504   1.077
 1838SOL     OW22655   5.961   5.947   6.923
 1838SOL    HW122656   5.885   5.957   6.981
 1838SOL    HW222657   5.996   5.861   6.944
 1839SOL     OW22658   2.794   5.762   6.561
 1839SOL    HW122659   2.837   5.685   6.596
 1839SOL    HW222660   2.804   5.754   6.466
 1840SOL     OW22661   1.022   5.595   7.759
 1840SOL    HW122662   0.990   5.554   7.679
 1840SOL    HW222663   0.960   5.666   7.776
 1841SOL     OW22664   1.167   5.301   1.027
 1841SOL    HW122665   1.203   5.341   0.949
 1841SOL    HW222666   1.238   5.247   1.061
 1842SOL     OW22667   0.928   2.608   0.516
 1842SOL    HW122668   0.885   2.563   0.588
 1842SOL    HW222669   1.010   2.641   0.553
 1843SOL     OW22670   0.353   5.711   6.999
 1843SOL    HW122671   0.266   5.672   7.002
 1843SOL    HW222672   0.348   5.775   6.927
 1844SOL     OW22673   3.107   4.163   0.126
 1844SOL    HW122674   3.026   4.213   0.117
 1844SOL    HW222675   3.166   4.220   0.175
 1845SOL     OW22676   6.241   2.763   7.149
 1845SOL    HW122677   6.188   2.835   7.184
 1845SOL    HW222678   6.310   2.807   7.099
 1846SOL     OW22679   4.449   2.115   1.699
 1846SOL    HW122680   4.384   2.183   1.680
 1846SOL    HW222681   4.445   2.104   1.794
 1847SOL     OW22682   1.514   3.843   0.982
 1847SOL    HW122683   1.579   3.813   1.045
 1847SOL    HW222684   1.560   3.843   0.898
 1848SOL     OW22685   3.465   4.420   0.935
 1848SOL    HW122686   3.508   4.358   0.875
 1848SOL    HW222687   3.446   4.369   1.013
 1849SOL     OW22688   3.227   0.870   6.581
 1849SOL    HW122689   3.233   0.820   6.499
 1849SOL    HW222690   3.272   0.953   6.561
 1850SOL     OW22691   2.039   4.811   6.943
 1850SOL    HW122692   1.967   4.851   6.993
 1850SOL    HW222693   2.114   4.816   7.002
 1851SOL     OW22694   3.750   5.900   5.945
 1851SOL    HW122695   3.718   5.847   5.871
 1851SOL    HW222696   3.672   5.943   5.979
 1852SOL     OW22697   4.859   3.853   6.473
 1852SOL    HW122698   4.820   3.862   6.385
 1852SOL    HW222699   4.815   3.777   6.511
 1853SOL     OW22700   2.543   4.203   1.099
 1853SOL    HW122701   2.533   4.293   1.067
 1853SOL    HW222702   2.581   4.156   1.025
 1854SOL     OW22703   4.243   0.313   6.845
 1854SOL    HW122704   4.324   0.362   6.860
 1854SOL    HW222705   4.183   0.376   6.806
 1855SOL     OW22706   3.836   0.791   6.097
 1855SOL    HW122707   3.769   0.730   6.068
 1855SOL    HW222708   3.874   0.824   6.016
 1856SOL     OW22709   3.145   0.713   1.826
 1856SOL    HW122710   3.209   0.690   1.893
 1856SOL    HW222711   3.061   0.717   1.873
 1857SOL     OW22712   3.425   3.866   7.499
 1857SOL    HW122713   3.405   3.947   7.453
 1857SOL    HW222714   3.354   3.807   7.475
 1858SOL     OW22715   4.970   5.324   6.449
 1858SOL    HW122716   5.016   5.320   6.365
 1858SOL    HW222717   4.991   5.411   6.483
 1859SOL     OW22718   1.739   0.769   0.909
 1859SOL    HW122719   1.657   0.803   0.872
 1859SOL    HW222720   1.804   0.782   0.839
 1860SOL     OW22721   2.804   4.626   6.821
 1860SOL    HW122722   2.886   4.663   6.786
 1860SOL    HW222723   2.780   4.558   6.759
 1861SOL     OW22724   0.516   2.985   1.695
 1861SOL    HW122725   0.458   2.973   1.770
 1861SOL    HW222726   0.595   2.936   1.719
 1862SOL     OW22727   1.501   6.431   2.457
 1862SOL    HW122728   1.590   6.421   2.423
 1862SOL    HW222729   1.446   6.391   2.390
 1863SOL     OW22730   2.701   1.733   0.658
 1863SOL    HW122731   2.616   1.778   0.656
 1863SOL    HW222732   2.688   1.656   0.603
 1864SOL     OW22733   4.343   5.639   7.357
 1864SOL    HW122734   4.379   5.719   7.317
 1864SOL    HW222735   4.297   5.670   7.435
 1865SOL     OW22736   2.722   1.063   0.605
 1865SOL    HW122737   2.679   1.045   0.689
 1865SOL    HW222738   2.756   0.978   0.578
 1866SOL     OW22739   5.586   2.357   7.640
 1866SOL    HW122740   5.501   2.364   7.596
 1866SOL    HW222741   5.650   2.355   7.569
 1867SOL     OW22742   1.715   5.335   7.458
 1867SOL    HW122743   1.638   5.349   7.513
 1867SOL    HW222744   1.684   5.346   7.369
 1868SOL     OW22745   2.803   1.706   7.634
 1868SOL    HW122746   2.878   1.663   7.593
 1868SOL    HW222747   2.744   1.634   7.657
 1869SOL     OW22748   2.743   4.826   7.199
 1869SOL    HW122749   2.827   4.852   7.237
 1869SOL    HW222750   2.718   4.899   7.143
 1870SOL     OW22751   4.026   4.708   0.045
 1870SOL    HW122752   4.046   4.787  -0.005
 1870SOL    HW222753   3.941   4.726   0.085
 1871SOL     OW22754   5.039   4.115   6.060
 1871SOL    HW122755   5.122   4.086   6.100
 1871SOL    HW222756   4.977   4.045   6.080
 1872SOL     OW22757   4.997   1.962   6.969
 1872SOL    HW122758   5.014   1.990   6.879
 1872SOL    HW222759   5.021   2.038   7.023
 1873SOL     OW22760   0.094   5.548   1.197
 1873SOL    HW122761   0.157   5.487   1.236
 1873SOL    HW222762   0.008   5.513   1.221
 1874SOL     OW22763   0.381   2.221   0.046
 1874SOL    HW122764   0.355   2.133   0.022
 1874SOL    HW222765   0.438   2.210   0.122
 1875SOL     OW22766   0.958   3.039   2.167
 1875SOL    HW122767   1.008   2.957   2.173
 1875SOL    HW222768   1.024   3.106   2.153
 1876SOL     OW22769   3.583   3.234   7.370
 1876SOL    HW122770   3.507   3.188   7.334
 1876SOL    HW222771   3.619   3.283   7.296
 1877SOL     OW22772   2.205   3.888   1.982
 1877SOL    HW122773   2.224   3.981   1.980
 1877SOL    HW222774   2.234   3.859   2.069
 1878SOL     OW22775   5.123   4.496   2.584
 1878SOL    HW122776   5.211   4.487   2.546
 1878SOL    HW222777   5.069   4.532   2.514
 1879SOL     OW22778   6.255   5.865   1.946
 1879SOL    HW122779   6.168   5.902   1.937
 1879SOL    HW222780   6.301   5.924   2.005
 1880SOL     OW22781   6.365   6.099   6.853
 1880SOL    HW122782   6.455   6.132   6.845
 1880SOL    HW222783   6.355   6.039   6.779
 1881SOL     OW22784   0.890   2.574   5.685
 1881SOL    HW122785   0.952   2.624   5.737
 1881SOL    HW222786   0.868   2.498   5.739
 1882SOL     OW22787   4.099   5.699   7.571
 1882SOL    HW122788   4.030   5.708   7.505
 1882SOL    HW222789   4.141   5.785   7.574
 1883SOL     OW22790   5.027   4.814   0.025
 1883SOL    HW122791   5.069   4.899   0.039
 1883SOL    HW222792   5.042   4.795  -0.068
 1884SOL     OW22793   1.812   2.315   5.779
 1884SOL    HW122794   1.832   2.253   5.849
 1884SOL    HW222795   1.794   2.260   5.702
 1885SOL     OW22796   6.325   2.758   7.454
 1885SOL    HW122797   6.333   2.669   7.487
 1885SOL    HW222798   6.310   2.748   7.360
 1886SOL     OW22799   3.698   4.413   0.312
 1886SOL    HW122800   3.734   4.324   0.307
 1886SOL    HW222801   3.768   4.465   0.350
 1887SOL     OW22802   2.501   0.899   2.727
 1887SOL    HW122803   2.567   0.913   2.795
 1887SOL    HW222804   2.488   0.985   2.687
 1888SOL     OW22805   5.890   0.501   1.339
 1888SOL    HW122806   5.891   0.578   1.282
 1888SOL    HW222807   5.918   0.535   1.424
 1889SOL     OW22808   2.896   4.976   0.823
 1889SOL    HW122809   2.866   5.057   0.863
 1889SOL    HW222810   2.988   4.993   0.800
 1890SOL     OW22811   1.527   4.956   1.526
 1890SOL    HW122812   1.585   4.998   1.462
 1890SOL    HW222813   1.570   4.873   1.546
 1891SOL     OW22814   2.632   2.377   0.271
 1891SOL    HW122815   2.614   2.290   0.307
 1891SOL    HW222816   2.695   2.362   0.201
 1892SOL     OW22817   1.776   3.567   1.511
 1892SOL    HW122818   1.832   3.568   1.434
 1892SOL    HW222819   1.688   3.583   1.477
 1893SOL     OW22820   4.307   0.265   6.397
 1893SOL    HW122821   4.254   0.343   6.379
 1893SOL    HW222822   4.392   0.285   6.359
 1894SOL     OW22823   0.822   5.839   6.021
 1894SOL    HW122824   0.737   5.878   6.002
 1894SOL    HW222825   0.823   5.758   5.969
 1895SOL     OW22826   6.348   4.323   2.089
 1895SOL    HW122827   6.426   4.288   2.047
 1895SOL    HW222828   6.378   4.399   2.138
 1896SOL     OW22829   5.553   1.726   0.682
 1896SOL    HW122830   5.626   1.759   0.629
 1896SOL    HW222831   5.477   1.772   0.647
 1897SOL     OW22832   5.016   3.520   0.162
 1897SOL    HW122833   5.081   3.555   0.102
 1897SOL    HW222834   4.984   3.440   0.120
 1898SOL     OW22835   3.211   3.201   6.559
 1898SOL    HW122836   3.163   3.200   6.642
 1898SOL    HW222837   3.152   3.245   6.497
 1899SOL     OW22838   2.104   3.452   1.477
 1899SOL    HW122839   2.079   3.484   1.564
 1899SOL    HW222840   2.101   3.357   1.485
 1900SOL     OW22841   0.414   3.458   7.074
 1900SOL    HW122842   0.412   3.364   7.060
 1900SOL    HW222843   0.496   3.474   7.121
 1901SOL     OW22844   5.395   4.406   5.408
 1901SOL    HW122845   5.409   4.447   5.322
 1901SOL    HW222846   5.380   4.480   5.467
 1902SOL     OW22847   2.196   1.539   0.324
 1902SOL    HW122848   2.119   1.589   0.294
 1902SOL    HW222849   2.171   1.510   0.412
 1903SOL     OW22850   4.074  -0.004   6.798
 1903SOL    HW122851   4.097   0.044   6.877
 1903SOL    HW222852   4.119   0.041   6.727
 1904SOL     OW22853   1.882   4.612   1.055
 1904SOL    HW122854   1.893   4.625   1.149
 1904SOL    HW222855   1.959   4.654   1.016
 1905SOL     OW22856   2.182   1.168   6.921
 1905SOL    HW122857   2.188   1.095   6.860
 1905SOL    HW222858   2.089   1.193   6.919
 1906SOL     OW22859   3.126   2.894   0.916
 1906SOL    HW122860   3.135   2.812   0.964
 1906SOL    HW222861   3.042   2.930   0.946
 1907SOL     OW22862   0.357   5.184   7.189
 1907SOL    HW122863   0.289   5.224   7.134
 1907SOL    HW222864   0.367   5.245   7.262
 1908SOL     OW22865   2.251   0.168   1.533
 1908SOL    HW122866   2.160   0.162   1.563
 1908SOL    HW222867   2.252   0.121   1.449
 1909SOL     OW22868   4.232   5.936   1.120
 1909SOL    HW122869   4.173   5.957   1.192
 1909SOL    HW222870   4.178   5.943   1.041
 1910SOL     OW22871   6.255   0.250   6.600
 1910SOL    HW122872   6.275   0.168   6.555
 1910SOL    HW222873   6.195   0.225   6.670
 1911SOL     OW22874   4.498   1.925   6.905
 1911SOL    HW122875   4.409   1.919   6.939
 1911SOL    HW222876   4.520   2.018   6.910
 1912SOL     OW22877   1.896   2.012   6.880
 1912SOL    HW122878   1.882   2.105   6.898
 1912SOL    HW222879   1.919   2.010   6.787
 1913SOL     OW22880   3.414   5.801   6.199
 1913SOL    HW122881   3.455   5.860   6.262
 1913SOL    HW222882   3.400   5.720   6.247
 1914SOL     OW22883   1.406   4.680   1.330
 1914SOL    HW122884   1.424   4.612   1.394
 1914SOL    HW222885   1.480   4.675   1.269
 1915SOL     OW22886   2.178   2.626   7.256
 1915SOL    HW122887   2.111   2.636   7.324
 1915SOL    HW222888   2.189   2.531   7.248
 1916SOL     OW22889   4.658   1.827   1.051
 1916SOL    HW122890   4.618   1.779   1.123
 1916SOL    HW222891   4.634   1.919   1.067
 1917SOL     OW22892   5.079   2.117   1.337
 1917SOL    HW122893   5.145   2.182   1.363
 1917SOL    HW222894   5.067   2.063   1.416
 1918SOL     OW22895   3.367   1.342   1.735
 1918SOL    HW122896   3.322   1.401   1.675
 1918SOL    HW222897   3.457   1.374   1.737
 1919SOL     OW22898   5.868   1.014   2.196
 1919SOL    HW122899   5.807   1.084   2.170
 1919SOL    HW222900   5.954   1.046   2.167
 1920SOL     OW22901   3.391   4.276   0.250
 1920SOL    HW122902   3.419   4.194   0.291
 1920SOL    HW222903   3.465   4.335   0.263
 1921SOL     OW22904   1.538   4.648   0.790
 1921SOL    HW122905   1.443   4.643   0.796
 1921SOL    HW222906   1.559   4.736   0.821
 1922SOL     OW22907   4.622   4.588   6.664
 1922SOL    HW122908   4.668   4.665   6.632
 1922SOL    HW222909   4.581   4.616   6.745
 1923SOL     OW22910   5.844   2.343   7.472
 1923SOL    HW122911   5.882   2.268   7.518
 1923SOL    HW222912   5.914   2.372   7.412
 1924SOL     OW22913   3.087   2.726   0.539
 1924SOL    HW122914   3.131   2.781   0.604
 1924SOL    HW222915   3.036   2.664   0.591
 1925SOL     OW22916   5.240   6.202   6.682
 1925SOL    HW122917   5.218   6.114   6.652
 1925SOL    HW222918   5.327   6.193   6.722
 1926SOL     OW22919   5.681   1.502   0.223
 1926SOL    HW122920   5.635   1.585   0.239
 1926SOL    HW222921   5.772   1.527   0.208
 1927SOL     OW22922   5.022   4.132   5.598
 1927SOL    HW122923   5.041   4.157   5.688
 1927SOL    HW222924   5.053   4.205   5.545
 1928SOL     OW22925   5.245   5.756   0.624
 1928SOL    HW122926   5.280   5.830   0.575
 1928SOL    HW222927   5.288   5.760   0.710
 1929SOL     OW22928   1.274   4.813   6.602
 1929SOL    HW122929   1.316   4.836   6.519
 1929SOL    HW222930   1.340   4.761   6.648
 1930SOL     OW22931   1.332   5.208   5.416
 1930SOL    HW122932   1.304   5.126   5.456
 1930SOL    HW222933   1.397   5.244   5.476
 1931SOL     OW22934   2.077   5.503   0.675
 1931SOL    HW122935   2.027   5.570   0.628
 1931SOL    HW222936   2.017   5.428   0.678
 1932SOL     OW22937   6.311   4.045   6.402
 1932SOL    HW122938   6.339   3.971   6.348
 1932SOL    HW222939   6.240   4.086   6.352
 1933SOL     OW22940   2.539   1.045   6.663
 1933SOL    HW122941   2.597   1.022   6.736
 1933SOL    HW222942   2.476   1.106   6.701
 1934SOL     OW22943   6.286   4.956   5.826
 1934SOL    HW122944   6.317   5.009   5.752
 1934SOL    HW222945   6.256   4.875   5.786
 1935SOL     OW22946   4.481   2.959   0.064
 1935SOL    HW122947   4.460   2.946   0.156
 1935SOL    HW222948   4.514   2.874   0.035
 1936SOL     OW22949   0.406   6.347   0.086
 1936SOL    HW122950   0.462   6.322   0.160
 1936SOL    HW222951   0.344   6.410   0.124
 1937SOL     OW22952   1.457   4.224   2.076
 1937SOL    HW122953   1.486   4.217   2.167
 1937SOL    HW222954   1.440   4.317   2.063
 1938SOL     OW22955   4.995   4.231   0.410
 1938SOL    HW122956   4.983   4.263   0.500
 1938SOL    HW222957   5.090   4.229   0.398
 1939SOL     OW22958   1.592   2.533   1.501
 1939SOL    HW122959   1.601   2.625   1.476
 1939SOL    HW222960   1.563   2.536   1.592
 1940SOL     OW22961   4.888   5.934   0.944
 1940SOL    HW122962   4.852   6.004   0.998
 1940SOL    HW222963   4.944   5.884   1.004
 1941SOL     OW22964   1.991   6.228   0.778
 1941SOL    HW122965   1.908   6.239   0.732
 1941SOL    HW222966   1.971   6.169   0.851
 1942SOL     OW22967   6.343   3.142   7.137
 1942SOL    HW122968   6.284   3.178   7.204
 1942SOL    HW222969   6.290   3.138   7.058
 1943SOL     OW22970   2.183   2.629   0.304
 1943SOL    HW122971   2.245   2.702   0.310
 1943SOL    HW222972   2.127   2.639   0.381
 1944SOL     OW22973   4.422   1.477   6.456
 1944SOL    HW122974   4.391   1.410   6.396
 1944SOL    HW222975   4.377   1.458   6.538
 1945SOL     OW22976   6.332   6.240   6.300
 1945SOL    HW122977   6.422   6.272   6.312
 1945SOL    HW222978   6.298   6.232   6.389
 1946SOL     OW22979   1.544   2.564   2.583
 1946SOL    HW122980   1.471   2.605   2.538
 1946SOL    HW222981   1.591   2.637   2.624
 1947SOL     OW22982   3.591   2.824   0.974
 1947SOL    HW122983   3.656   2.894   0.966
 1947SOL    HW222984   3.508   2.870   0.989
 1948SOL     OW22985   5.847   1.345   7.698
 1948SOL    HW122986   5.779   1.302   7.750
 1948SOL    HW222987   5.829   1.319   7.608
 1949SOL     OW22988   2.436   0.909   7.593
 1949SOL    HW122989   2.508   0.969   7.615
 1949SOL    HW222990   2.480   0.826   7.573
 1950SOL     OW22991   1.916   0.158   0.053
 1950SOL    HW122992   1.978   0.230   0.043
 1950SOL    HW222993   1.920   0.136   0.146
 1951SOL     OW22994   0.975   6.105   1.298
 1951SOL    HW122995   0.882   6.087   1.288
 1951SOL    HW222996   0.987   6.117   1.392
 1952SOL     OW22997   2.849   3.692   1.219
 1952SOL    HW122998   2.871   3.622   1.279
 1952SOL    HW222999   2.768   3.663   1.177
 1953SOL     OW23000   5.455   5.925   2.149
 1953SOL    HW123001   5.361   5.925   2.132
 1953SOL    HW223002   5.464   5.882   2.234
 1954SOL     OW23003   0.012   2.173   6.067
 1954SOL    HW123004  -0.059   2.229   6.037
 1954SOL    HW223005   0.023   2.108   5.997
 1955SOL     OW23006   0.067   0.574   7.065
 1955SOL    HW123007   0.024   0.559   7.150
 1955SOL    HW223008   0.159   0.553   7.081
 1956SOL     OW23009   0.224   0.317   1.143
 1956SOL    HW123010   0.204   0.381   1.075
 1956SOL    HW223011   0.319   0.317   1.150
 1957SOL     OW23012   1.613   1.296   1.408
 1957SOL    HW123013   1.545   1.242   1.448
 1957SOL    HW223014   1.624   1.370   1.468
 1958SOL     OW23015   3.813   2.252   0.445
 1958SOL    HW123016   3.825   2.159   0.423
 1958SOL    HW223017   3.900   2.290   0.435
 1959SOL     OW23018   4.777   3.408   0.363
 1959SOL    HW123019   4.826   3.332   0.395
 1959SOL    HW223020   4.784   3.402   0.267
 1960SOL     OW23021   0.668   2.548   1.337
 1960SOL    HW123022   0.651   2.496   1.415
 1960SOL    HW223023   0.594   2.609   1.332
 1961SOL     OW23024   2.553   0.676   7.542
 1961SOL    HW123025   2.542   0.590   7.582
 1961SOL    HW223026   2.530   0.662   7.449
 1962SOL     OW23027   1.340   2.049   0.310
 1962SOL    HW123028   1.264   2.082   0.262
 1962SOL    HW223029   1.336   2.093   0.394
 1963SOL     OW23030   5.610   1.773   0.213
 1963SOL    HW123031   5.517   1.778   0.191
 1963SOL    HW223032   5.650   1.842   0.160
 1964SOL     OW23033   3.448   2.710   1.607
 1964SOL    HW123034   3.532   2.754   1.604
 1964SOL    HW223035   3.439   2.681   1.698
 1965SOL     OW23036   2.216   6.365   7.391
 1965SOL    HW123037   2.237   6.444   7.441
 1965SOL    HW223038   2.140   6.389   7.338
 1966SOL     OW23039   5.265   3.443   6.236
 1966SOL    HW123040   5.345   3.411   6.279
 1966SOL    HW223041   5.242   3.374   6.174
 1967SOL     OW23042   2.310   2.273   5.753
 1967SOL    HW123043   2.233   2.329   5.743
 1967SOL    HW223044   2.384   2.327   5.726
 1968SOL     OW23045   0.240   4.251   0.640
 1968SOL    HW123046   0.204   4.172   0.598
 1968SOL    HW223047   0.189   4.323   0.603
 1969SOL     OW23048   6.432   5.134   2.676
 1969SOL    HW123049   6.343   5.101   2.683
 1969SOL    HW223050   6.425   5.227   2.700
 1970SOL     OW23051   3.250   4.366   2.839
 1970SOL    HW123052   3.193   4.397   2.909
 1970SOL    HW223053   3.207   4.394   2.759
 1971SOL     OW23054   2.940   4.517   1.694
 1971SOL    HW123055   2.890   4.599   1.687
 1971SOL    HW223056   2.972   4.516   1.784
 1972SOL     OW23057   0.118   0.905   1.011
 1972SOL    HW123058   0.100   0.994   0.978
 1972SOL    HW223059   0.211   0.907   1.033
 1973SOL     OW23060   4.437   1.513   0.162
 1973SOL    HW123061   4.497   1.440   0.143
 1973SOL    HW223062   4.415   1.548   0.075
 1974SOL     OW23063   2.820   3.305   5.957
 1974SOL    HW123064   2.890   3.340   5.903
 1974SOL    HW223065   2.800   3.375   6.019
 1975SOL     OW23066   6.051   5.032   5.957
 1975SOL    HW123067   6.142   5.028   5.926
 1975SOL    HW223068   6.001   4.986   5.890
 1976SOL     OW23069   0.349   3.407   1.221
 1976SOL    HW123070   0.444   3.397   1.220
 1976SOL    HW223071   0.331   3.458   1.299
 1977SOL     OW23072   5.062   1.276   0.856
 1977SOL    HW123073   5.014   1.355   0.883
 1977SOL    HW223074   5.113   1.304   0.780
 1978SOL     OW23075   5.606   3.978   7.288
 1978SOL    HW123076   5.594   4.013   7.376
 1978SOL    HW223077   5.520   3.942   7.265
 1979SOL     OW23078   2.430   4.305   0.660
 1979SOL    HW123079   2.503   4.343   0.708
 1979SOL    HW223080   2.381   4.255   0.725
 1980SOL     OW23081   0.430   5.595   1.664
 1980SOL    HW123082   0.488   5.555   1.599
 1980SOL    HW223083   0.372   5.651   1.613
 1981SOL     OW23084   3.399   6.237   0.079
 1981SOL    HW123085   3.487   6.276   0.084
 1981SOL    HW223086   3.351   6.275   0.152
 1982SOL     OW23087   5.793   5.825   0.939
 1982SOL    HW123088   5.815   5.869   1.021
 1982SOL    HW223089   5.877   5.816   0.894
 1983SOL     OW23090   0.097   1.010   0.210
 1983SOL    HW123091   0.057   1.089   0.246
 1983SOL    HW223092   0.026   0.945   0.210
 1984SOL     OW23093   0.197   5.110   2.290
 1984SOL    HW123094   0.150   5.033   2.319
 1984SOL    HW223095   0.179   5.117   2.197
 1985SOL     OW23096   5.700   3.404   6.006
 1985SOL    HW123097   5.652   3.321   5.997
 1985SOL    HW223098   5.792   3.378   6.008
 1986SOL     OW23099   3.271   2.270   2.814
 1986SOL    HW123100   3.317   2.353   2.828
 1986SOL    HW223101   3.339   2.210   2.781
 1987SOL     OW23102   1.944   5.572   5.752
 1987SOL    HW123103   1.909   5.522   5.826
 1987SOL    HW223104   2.012   5.516   5.715
 1988SOL     OW23105   5.153   1.619   7.643
 1988SOL    HW123106   5.076   1.563   7.656
 1988SOL    HW223107   5.227   1.564   7.672
 1989SOL     OW23108   1.056   5.901   1.129
 1989SOL    HW123109   1.064   5.931   1.039
 1989SOL    HW223110   1.034   5.980   1.179
 1990SOL     OW23111   2.303   1.535   6.069
 1990SOL    HW123112   2.378   1.590   6.090
 1990SOL    HW223113   2.249   1.589   6.010
 1991SOL     OW23114   0.952   6.420   1.312
 1991SOL    HW123115   0.864   6.457   1.303
 1991SOL    HW223116   0.938   6.335   1.355
 1992SOL     OW23117   4.258   1.890   0.351
 1992SOL    HW123118   4.310   1.815   0.381
 1992SOL    HW223119   4.171   1.855   0.335
 1993SOL     OW23120   4.858   5.893   0.356
 1993SOL    HW123121   4.796   5.932   0.418
 1993SOL    HW223122   4.863   5.801   0.383
 1994SOL     OW23123   0.507   1.092   6.267
 1994SOL    HW123124   0.449   1.137   6.205
 1994SOL    HW223125   0.543   1.162   6.321
 1995SOL     OW23126   6.072   0.830   0.427
 1995SOL    HW123127   6.010   0.891   0.465
 1995SOL    HW223128   6.140   0.885   0.388
 1996SOL     OW23129   3.847   4.707   7.118
 1996SOL    HW123130   3.900   4.637   7.155
 1996SOL    HW223131   3.801   4.745   7.193
 1997SOL     OW23132   5.322   0.055   0.565
 1997SOL    HW123133   5.405   0.007   0.554
 1997SOL    HW223134   5.254  -0.011   0.556
 1998SOL     OW23135   3.830   2.641   1.428
 1998SOL    HW123136   3.789   2.630   1.343
 1998SOL    HW223137   3.764   2.689   1.479
 1999SOL     OW23138   5.500   4.633   2.130
 1999SOL    HW123139   5.534   4.594   2.211
 1999SOL    HW223140   5.406   4.636   2.142
 2000SOL     OW23141   4.706   5.096   2.152
 2000SOL    HW123142   4.708   5.123   2.244
 2000SOL    HW223143   4.751   5.166   2.106
 2001SOL     OW23144   4.669   2.709   2.022
 2001SOL    HW123145   4.640   2.776   1.960
 2001SOL    HW223146   4.755   2.683   1.990
 2002SOL     OW23147   6.460   3.844   6.106
 2002SOL    HW123148   6.453   3.800   6.022
 2002SOL    HW223149   6.401   3.919   6.100
 2003SOL     OW23150   0.109   0.634   7.600
 2003SOL    HW123151   0.118   0.539   7.596
 2003SOL    HW223152   0.057   0.656   7.522
 2004SOL     OW23153   5.015   2.039   0.098
 2004SOL    HW123154   5.092   2.085   0.066
 2004SOL    HW223155   4.975   2.100   0.160
 2005SOL     OW23156   2.599   2.487   0.718
 2005SOL    HW123157   2.677   2.507   0.665
 2005SOL    HW223158   2.531   2.543   0.681
 2006SOL     OW23159   3.638   0.593   6.561
 2006SOL    HW123160   3.545   0.601   6.539
 2006SOL    HW223161   3.675   0.680   6.542
 2007SOL     OW23162   1.546   4.452   6.461
 2007SOL    HW123163   1.451   4.458   6.475
 2007SOL    HW223164   1.557   4.465   6.367
 2008SOL     OW23165   6.340   6.271   0.685
 2008SOL    HW123166   6.412   6.208   0.692
 2008SOL    HW223167   6.357   6.336   0.753
 2009SOL     OW23168   3.509   4.294   2.754
 2009SOL    HW123169   3.561   4.373   2.764
 2009SOL    HW223170   3.424   4.316   2.794
 2010SOL     OW23171   4.551   3.911   0.679
 2010SOL    HW123172   4.478   3.904   0.618
 2010SOL    HW223173   4.516   3.880   0.763
 2011SOL     OW23174   0.263   3.631   5.379
 2011SOL    HW123175   0.182   3.581   5.390
 2011SOL    HW223176   0.330   3.565   5.362
 2012SOL     OW23177   4.536   3.487   1.427
 2012SOL    HW123178   4.609   3.446   1.472
 2012SOL    HW223179   4.550   3.466   1.334
 2013SOL     OW23180   2.042   1.602   0.748
 2013SOL    HW123181   2.119   1.654   0.728
 2013SOL    HW223182   1.977   1.665   0.778
 2014SOL     OW23183   5.522   4.838   3.000
 2014SOL    HW123184   5.505   4.921   3.046
 2014SOL    HW223185   5.436   4.797   2.993
 2015SOL     OW23186   4.806   5.660   1.248
 2015SOL    HW123187   4.800   5.727   1.316
 2015SOL    HW223188   4.751   5.589   1.282
 2016SOL     OW23189   1.084   4.685   7.129
 2016SOL    HW123190   1.132   4.691   7.047
 2016SOL    HW223191   1.000   4.728   7.111
 2017SOL     OW23192   4.172   6.054   0.054
 2017SOL    HW123193   4.222   6.005   0.119
 2017SOL    HW223194   4.089   6.072   0.097
 2018SOL     OW23195   5.329   2.889   6.452
 2018SOL    HW123196   5.278   2.863   6.376
 2018SOL    HW223197   5.317   2.817   6.515
 2019SOL     OW23198   4.873   3.602   5.621
 2019SOL    HW123199   4.888   3.683   5.573
 2019SOL    HW223200   4.823   3.628   5.698
 2020SOL     OW23201   6.088   2.678   0.524
 2020SOL    HW123202   6.096   2.583   0.520
 2020SOL    HW223203   6.002   2.693   0.563
 2021SOL     OW23204   3.620   4.422   6.289
 2021SOL    HW123205   3.704   4.381   6.310
 2021SOL    HW223206   3.556   4.351   6.293
 2022SOL     OW23207   2.526   5.032   7.473
 2022SOL    HW123208   2.494   5.112   7.515
 2022SOL    HW223209   2.459   4.967   7.492
 2023SOL     OW23210   2.614   0.211   6.133
 2023SOL    HW123211   2.635   0.302   6.112
 2023SOL    HW223212   2.546   0.187   6.070
 2024SOL     OW23213   0.210   1.354   0.125
 2024SOL    HW123214   0.223   1.359   0.031
 2024SOL    HW223215   0.115   1.359   0.137
 2025SOL     OW23216   4.419   0.526   5.512
 2025SOL    HW123217   4.373   0.445   5.489
 2025SOL    HW223218   4.469   0.503   5.590
 2026SOL     OW23219   3.775   1.654   5.502
 2026SOL    HW123220   3.735   1.649   5.589
 2026SOL    HW223221   3.800   1.746   5.491
 2027SOL     OW23222   0.298   5.347   2.450
 2027SOL    HW123223   0.280   5.276   2.387
 2027SOL    HW223224   0.283   5.307   2.535
 2028SOL     OW23225   4.571   2.233   6.328
 2028SOL    HW123226   4.541   2.324   6.332
 2028SOL    HW223227   4.490   2.182   6.330
 2029SOL     OW23228   0.780   5.341   1.881
 2029SOL    HW123229   0.745   5.303   1.961
 2029SOL    HW223230   0.720   5.413   1.861
 2030SOL     OW23231   2.784   1.754   1.851
 2030SOL    HW123232   2.852   1.818   1.871
 2030SOL    HW223233   2.817   1.672   1.887
 2031SOL     OW23234   2.610   0.433   7.104
 2031SOL    HW123235   2.556   0.495   7.055
 2031SOL    HW223236   2.622   0.359   7.043
 2032SOL     OW23237   2.999   0.400   1.493
 2032SOL    HW123238   3.018   0.437   1.579
 2032SOL    HW223239   2.951   0.470   1.447
 2033SOL     OW23240   4.560   0.507   6.686
 2033SOL    HW123241   4.578   0.429   6.738
 2033SOL    HW223242   4.480   0.544   6.724
 2034SOL     OW23243   5.661   2.708   7.471
 2034SOL    HW123244   5.677   2.790   7.425
 2034SOL    HW223245   5.698   2.721   7.558
 2035SOL     OW23246   4.150   5.895   6.435
 2035SOL    HW123247   4.067   5.916   6.392
 2035SOL    HW223248   4.216   5.916   6.369
 2036SOL     OW23249   3.618   5.076   0.286
 2036SOL    HW123250   3.542   5.065   0.343
 2036SOL    HW223251   3.584   5.063   0.197
 2037SOL     OW23252   3.902   6.269   1.018
 2037SOL    HW123253   3.927   6.249   0.928
 2037SOL    HW223254   3.875   6.185   1.055
 2038SOL     OW23255   5.286   5.104   6.720
 2038SOL    HW123256   5.341   5.037   6.678
 2038SOL    HW223257   5.321   5.187   6.688
 2039SOL     OW23258   0.647   2.612   6.241
 2039SOL    HW123259   0.638   2.576   6.153
 2039SOL    HW223260   0.669   2.537   6.296
 2040SOL     OW23261   4.023   5.787   5.546
 2040SOL    HW123262   3.931   5.779   5.572
 2040SOL    HW223263   4.019   5.819   5.455
 2041SOL     OW23264   1.675   3.955   1.354
 2041SOL    HW123265   1.606   3.996   1.405
 2041SOL    HW223266   1.749   3.948   1.414
 2042SOL     OW23267   1.299   5.137   6.731
 2042SOL    HW123268   1.299   5.123   6.636
 2042SOL    HW223269   1.391   5.141   6.755
 2043SOL     OW23270   4.719   3.616   7.391
 2043SOL    HW123271   4.646   3.664   7.431
 2043SOL    HW223272   4.738   3.545   7.453
 2044SOL     OW23273   6.182   2.932   6.791
 2044SOL    HW123274   6.179   3.014   6.841
 2044SOL    HW223275   6.252   2.881   6.832
 2045SOL     OW23276   4.975   6.008   1.914
 2045SOL    HW123277   4.985   6.093   1.955
 2045SOL    HW223278   4.927   5.955   1.978
 2046SOL     OW23279   3.170   6.345   7.086
 2046SOL    HW123280   3.210   6.428   7.112
 2046SOL    HW223281   3.108   6.370   7.017
 2047SOL     OW23282   4.288   6.073   0.582
 2047SOL    HW123283   4.203   6.062   0.541
 2047SOL    HW223284   4.308   6.166   0.572
 2048SOL     OW23285   6.162   3.427   1.118
 2048SOL    HW123286   6.198   3.415   1.205
 2048SOL    HW223287   6.123   3.515   1.120
 2049SOL     OW23288   2.775   1.758   1.164
 2049SOL    HW123289   2.705   1.724   1.108
 2049SOL    HW223290   2.810   1.833   1.116
 2050SOL     OW23291   2.805   4.917   2.081
 2050SOL    HW123292   2.852   4.843   2.042
 2050SOL    HW223293   2.833   4.918   2.173
 2051SOL     OW23294   4.102   3.862   6.551
 2051SOL    HW123295   4.044   3.792   6.580
 2051SOL    HW223296   4.135   3.832   6.466
 2052SOL     OW23297   0.852   4.851   2.050
 2052SOL    HW123298   0.841   4.929   2.105
 2052SOL    HW223299   0.916   4.798   2.096
 2053SOL     OW23300   3.369   5.848   0.341
 2053SOL    HW123301   3.413   5.773   0.383
 2053SOL    HW223302   3.419   5.863   0.261
 2054SOL     OW23303   5.797   5.902   2.645
 2054SOL    HW123304   5.802   5.843   2.570
 2054SOL    HW223305   5.871   5.962   2.633
 2055SOL     OW23306   4.220   0.554   0.947
 2055SOL    HW123307   4.282   0.590   0.883
 2055SOL    HW223308   4.226   0.460   0.935
 2056SOL     OW23309   1.714   4.593   1.868
 2056SOL    HW123310   1.752   4.517   1.825
 2056SOL    HW223311   1.734   4.580   1.961
 2057SOL     OW23312   1.301   1.585   2.341
 2057SOL    HW123313   1.318   1.670   2.381
 2057SOL    HW223314   1.384   1.538   2.349
 2058SOL     OW23315   1.927   1.889   6.250
 2058SOL    HW123316   1.855   1.827   6.257
 2058SOL    HW223317   1.952   1.886   6.158
 2059SOL     OW23318   4.930   6.053   6.234
 2059SOL    HW123319   5.020   6.053   6.265
 2059SOL    HW223320   4.927   5.983   6.168
 2060SOL     OW23321   4.354   4.611   0.530
 2060SOL    HW123322   4.418   4.543   0.548
 2060SOL    HW223323   4.356   4.621   0.434
 2061SOL     OW23324   5.298   0.214   0.913
 2061SOL    HW123325   5.354   0.228   0.989
 2061SOL    HW223326   5.354   0.233   0.838
 2062SOL     OW23327   0.226   1.243   6.278
 2062SOL    HW123328   0.231   1.334   6.308
 2062SOL    HW223329   0.271   1.243   6.193
 2063SOL     OW23330   4.697   1.718   2.342
 2063SOL    HW123331   4.792   1.717   2.351
 2063SOL    HW223332   4.679   1.796   2.289
 2064SOL     OW23333   0.374   4.367   1.295
 2064SOL    HW123334   0.404   4.441   1.347
 2064SOL    HW223335   0.328   4.311   1.358
 2065SOL     OW23336   2.980   3.234   6.365
 2065SOL    HW123337   2.902   3.268   6.410
 2065SOL    HW223338   2.989   3.291   6.288
 2066SOL     OW23339   4.599   4.800   6.386
 2066SOL    HW123340   4.684   4.829   6.417
 2066SOL    HW223341   4.584   4.849   6.305
 2067SOL     OW23342   0.420   5.104   1.740
 2067SOL    HW123343   0.501   5.055   1.731
 2067SOL    HW223344   0.420   5.134   1.831
 2068SOL     OW23345   0.136   6.388   7.653
 2068SOL    HW123346   0.088   6.470   7.667
 2068SOL    HW223347   0.204   6.387   7.720
 2069SOL     OW23348   1.245   6.131   0.185
 2069SOL    HW123349   1.280   6.218   0.168
 2069SOL    HW223350   1.291   6.103   0.264
 2070SOL     OW23351   0.507   5.394   1.112
 2070SOL    HW123352   0.450   5.318   1.100
 2070SOL    HW223353   0.580   5.379   1.052
 2071SOL     OW23354   4.214   1.777   1.257
 2071SOL    HW123355   4.212   1.823   1.341
 2071SOL    HW223356   4.133   1.804   1.213
 2072SOL     OW23357   0.740   2.401   0.078
 2072SOL    HW123358   0.751   2.463   0.150
 2072SOL    HW223359   0.706   2.322   0.120
 2073SOL     OW23360   4.565   1.687   5.792
 2073SOL    HW123361   4.638   1.624   5.787
 2073SOL    HW223362   4.494   1.637   5.831
 2074SOL     OW23363   3.832   3.106   1.771
 2074SOL    HW123364   3.887   3.061   1.836
 2074SOL    HW223365   3.876   3.189   1.755
 2075SOL     OW23366   5.077   1.388   6.922
 2075SOL    HW123367   5.089   1.454   6.854
 2075SOL    HW223368   5.087   1.304   6.877
 2076SOL     OW23369   5.930   4.027   5.094
 2076SOL    HW123370   5.968   3.946   5.127
 2076SOL    HW223371   6.003   4.073   5.052
 2077SOL     OW23372   1.697   1.483   7.472
 2077SOL    HW123373   1.786   1.516   7.484
 2077SOL    HW223374   1.655   1.497   7.557
 2078SOL     OW23375   2.012   2.200   0.713
 2078SOL    HW123376   1.968   2.177   0.631
 2078SOL    HW223377   1.977   2.137   0.777
 2079SOL     OW23378   3.240   5.646   1.276
 2079SOL    HW123379   3.310   5.633   1.211
 2079SOL    HW223380   3.235   5.563   1.323
 2080SOL     OW23381   6.262   2.696   1.152
 2080SOL    HW123382   6.265   2.767   1.088
 2080SOL    HW223383   6.354   2.674   1.169
 2081SOL     OW23384   4.280   3.634   1.340
 2081SOL    HW123385   4.256   3.670   1.425
 2081SOL    HW223386   4.365   3.593   1.355
 2082SOL     OW23387   4.025   3.086   0.288
 2082SOL    HW123388   3.971   3.125   0.220
 2082SOL    HW223389   4.021   2.992   0.271
 2083SOL     OW23390   1.218   1.115   7.546
 2083SOL    HW123391   1.216   1.198   7.498
 2083SOL    HW223392   1.251   1.051   7.483
 2084SOL     OW23393   2.500   6.111   7.282
 2084SOL    HW123394   2.488   6.204   7.263
 2084SOL    HW223395   2.546   6.109   7.366
 2085SOL     OW23396   3.720   6.041   2.456
 2085SOL    HW123397   3.737   6.135   2.460
 2085SOL    HW223398   3.805   6.002   2.433
 2086SOL     OW23399   4.134   5.711   6.070
 2086SOL    HW123400   4.183   5.718   5.988
 2086SOL    HW223401   4.151   5.622   6.101
 2087SOL     OW23402   0.680   4.862   2.575
 2087SOL    HW123403   0.608   4.866   2.638
 2087SOL    HW223404   0.742   4.928   2.606
 2088SOL     OW23405   2.462   2.741   1.889
 2088SOL    HW123406   2.530   2.796   1.851
 2088SOL    HW223407   2.467   2.759   1.983
 2089SOL     OW23408   6.351   2.679   0.173
 2089SOL    HW123409   6.371   2.703   0.264
 2089SOL    HW223410   6.285   2.743   0.146
 2090SOL     OW23411   2.075   1.869   6.599
 2090SOL    HW123412   2.136   1.881   6.672
 2090SOL    HW223413   2.037   1.955   6.585
 2091SOL     OW23414   5.509   0.720   7.064
 2091SOL    HW123415   5.583   0.705   7.006
 2091SOL    HW223416   5.442   0.659   7.034
 2092SOL     OW23417   1.343   1.440   1.351
 2092SOL    HW123418   1.364   1.443   1.258
 2092SOL    HW223419   1.287   1.363   1.360
 2093SOL     OW23420   4.221   5.248   2.380
 2093SOL    HW123421   4.142   5.195   2.387
 2093SOL    HW223422   4.278   5.200   2.320
 2094SOL     OW23423   2.803   1.021   7.318
 2094SOL    HW123424   2.771   0.964   7.248
 2094SOL    HW223425   2.801   0.967   7.396
 2095SOL     OW23426   3.205   5.790   0.571
 2095SOL    HW123427   3.260   5.724   0.614
 2095SOL    HW223428   3.249   5.807   0.488
 2096SOL     OW23429   1.636  -0.006   0.565
 2096SOL    HW123430   1.613   0.060   0.500
 2096SOL    HW223431   1.688   0.041   0.630
 2097SOL     OW23432   2.448   6.427   0.955
 2097SOL    HW123433   2.446   6.520   0.977
 2097SOL    HW223434   2.470   6.383   1.036
 2098SOL     OW23435   2.184   1.172   5.605
 2098SOL    HW123436   2.166   1.085   5.640
 2098SOL    HW223437   2.097   1.208   5.585
 2099SOL     OW23438   0.636   3.779   0.638
 2099SOL    HW123439   0.544   3.768   0.659
 2099SOL    HW223440   0.637   3.803   0.545
 2100SOL     OW23441   2.400   0.364   0.329
 2100SOL    HW123442   2.369   0.433   0.271
 2100SOL    HW223443   2.327   0.302   0.334
 2101SOL     OW23444   5.054   5.205   1.399
 2101SOL    HW123445   4.995   5.260   1.348
 2101SOL    HW223446   5.142   5.237   1.377
 2102SOL     OW23447   2.492   4.713   0.860
 2102SOL    HW123448   2.472   4.788   0.916
 2102SOL    HW223449   2.568   4.741   0.809
 2103SOL     OW23450   5.825   0.467   7.380
 2103SOL    HW123451   5.835   0.558   7.353
 2103SOL    HW223452   5.730   0.453   7.379
 2104SOL     OW23453   1.579   6.011   1.178
 2104SOL    HW123454   1.612   6.098   1.202
 2104SOL    HW223455   1.484   6.018   1.192
 2105SOL     OW23456   0.234   6.399   1.540
 2105SOL    HW123457   0.151   6.381   1.584
 2105SOL    HW223458   0.211   6.408   1.448
 2106SOL     OW23459   1.009   3.690   2.034
 2106SOL    HW123460   0.958   3.708   2.113
 2106SOL    HW223461   1.007   3.595   2.025
 2107SOL     OW23462   5.064   0.937   0.703
 2107SOL    HW123463   5.006   0.869   0.739
 2107SOL    HW223464   5.136   0.941   0.766
 2108SOL     OW23465   5.624   4.667   1.870
 2108SOL    HW123466   5.565   4.656   1.944
 2108SOL    HW223467   5.570   4.709   1.803
 2109SOL     OW23468   2.321   3.473   1.710
 2109SOL    HW123469   2.343   3.395   1.762
 2109SOL    HW223470   2.225   3.475   1.710
 2110SOL     OW23471   6.159   0.494   6.664
 2110SOL    HW123472   6.153   0.535   6.578
 2110SOL    HW223473   6.209   0.414   6.650
 2111SOL     OW23474   1.362   2.262   0.802
 2111SOL    HW123475   1.452   2.285   0.824
 2111SOL    HW223476   1.355   2.278   0.708
 2112SOL     OW23477   4.181   4.143   5.808
 2112SOL    HW123478   4.131   4.223   5.789
 2112SOL    HW223479   4.240   4.133   5.733
 2113SOL     OW23480   4.792   5.954   7.704
 2113SOL    HW123481   4.728   5.940   7.774
 2113SOL    HW223482   4.780   5.879   7.645
 2114SOL     OW23483   5.203   0.519   6.824
 2114SOL    HW123484   5.276   0.548   6.769
 2114SOL    HW223485   5.242   0.455   6.884
 2115SOL     OW23486   0.354   0.104   7.329
 2115SOL    HW123487   0.266   0.135   7.310
 2115SOL    HW223488   0.374   0.140   7.416
 2116SOL     OW23489   1.446   5.253   0.455
 2116SOL    HW123490   1.407   5.310   0.388
 2116SOL    HW223491   1.408   5.166   0.438
 2117SOL     OW23492   4.946   4.644   0.472
 2117SOL    HW123493   5.020   4.700   0.495
 2117SOL    HW223494   4.929   4.663   0.380
 2118SOL     OW23495   1.244   4.319   7.632
 2118SOL    HW123496   1.254   4.225   7.622
 2118SOL    HW223497   1.333   4.353   7.634
 2119SOL     OW23498   4.035   0.811   7.622
 2119SOL    HW123499   4.058   0.876   7.689
 2119SOL    HW223500   3.956   0.769   7.656
 2120SOL     OW23501   1.073   3.799   2.583
 2120SOL    HW123502   1.068   3.865   2.514
 2120SOL    HW223503   1.120   3.842   2.655
 2121SOL     OW23504   4.253   4.060   0.215
 2121SOL    HW123505   4.200   3.982   0.195
 2121SOL    HW223506   4.342   4.027   0.222
 2122SOL     OW23507   3.364   0.756   6.806
 2122SOL    HW123508   3.327   0.796   6.727
 2122SOL    HW223509   3.311   0.678   6.820
 2123SOL     OW23510   2.518   3.739   0.858
 2123SOL    HW123511   2.521   3.782   0.943
 2123SOL    HW223512   2.427   3.713   0.847
 2124SOL     OW23513   2.327   3.993   6.697
 2124SOL    HW123514   2.371   3.939   6.763
 2124SOL    HW223515   2.393   4.006   6.629
 2125SOL     OW23516   4.520   3.855   6.471
 2125SOL    HW123517   4.493   3.764   6.481
 2125SOL    HW223518   4.590   3.852   6.406
 2126SOL     OW23519   6.421   4.124   7.488
 2126SOL    HW123520   6.435   4.057   7.555
 2126SOL    HW223521   6.331   4.153   7.500
 2127SOL     OW23522   1.408   1.861   7.144
 2127SOL    HW123523   1.329   1.910   7.122
 2127SOL    HW223524   1.376   1.780   7.184
 2128SOL     OW23525   3.731   5.773   0.412
 2128SOL    HW123526   3.733   5.678   0.397
 2128SOL    HW223527   3.692   5.782   0.499
 2129SOL     OW23528   3.472   1.347   5.739
 2129SOL    HW123529   3.442   1.413   5.677
 2129SOL    HW223530   3.392   1.308   5.774
 2130SOL     OW23531   3.695   1.855   6.152
 2130SOL    HW123532   3.627   1.886   6.092
 2130SOL    HW223533   3.659   1.871   6.239
 2131SOL     OW23534   4.752   1.506   5.742
 2131SOL    HW123535   4.840   1.521   5.709
 2131SOL    HW223536   4.757   1.421   5.787
 2132SOL     OW23537   5.798   1.773   7.474
 2132SOL    HW123538   5.705   1.748   7.466
 2132SOL    HW223539   5.821   1.749   7.564
 2133SOL     OW23540   0.021   0.801   2.303
 2133SOL    HW123541  -0.045   0.739   2.272
 2133SOL    HW223542   0.041   0.772   2.392
 2134SOL     OW23543   1.799   1.443   7.168
 2134SOL    HW123544   1.789   1.430   7.262
 2134SOL    HW223545   1.719   1.407   7.130
 2135SOL     OW23546   4.655   4.466   0.645
 2135SOL    HW123547   4.688   4.446   0.558
 2135SOL    HW223548   4.614   4.384   0.674
 2136SOL     OW23549   5.751   4.044   1.277
 2136SOL    HW123550   5.727   4.087   1.358
 2136SOL    HW223551   5.820   4.100   1.239
 2137SOL     OW23552   4.181   6.375   0.909
 2137SOL    HW123553   4.173   6.378   0.813
 2137SOL    HW223554   4.146   6.290   0.933
 2138SOL     OW23555   5.646   1.249   0.098
 2138SOL    HW123556   5.556   1.219   0.110
 2138SOL    HW223557   5.655   1.324   0.156
 2139SOL     OW23558   0.405   1.318   0.631
 2139SOL    HW123559   0.339   1.322   0.562
 2139SOL    HW223560   0.489   1.320   0.584
 2140SOL     OW23561   4.402   0.741   1.218
 2140SOL    HW123562   4.357   0.779   1.143
 2140SOL    HW223563   4.465   0.679   1.180
 2141SOL     OW23564   5.586   2.733   1.535
 2141SOL    HW123565   5.616   2.792   1.603
 2141SOL    HW223566   5.534   2.788   1.476
 2142SOL     OW23567   1.070   1.710   7.371
 2142SOL    HW123568   1.100   1.685   7.284
 2142SOL    HW223569   1.018   1.635   7.400
 2143SOL     OW23570   3.029   3.377   5.777
 2143SOL    HW123571   3.071   3.404   5.695
 2143SOL    HW223572   3.096   3.390   5.844
 2144SOL     OW23573   1.015   6.180   0.651
 2144SOL    HW123574   0.959   6.254   0.676
 2144SOL    HW223575   1.069   6.214   0.580
 2145SOL     OW23576   2.859   1.195   1.601
 2145SOL    HW123577   2.877   1.289   1.598
 2145SOL    HW223578   2.788   1.183   1.537
 2146SOL     OW23579   6.417   1.161   1.890
 2146SOL    HW123580   6.442   1.237   1.837
 2146SOL    HW223581   6.482   1.157   1.960
 2147SOL     OW23582   2.737   2.052   6.928
 2147SOL    HW123583   2.809   2.053   6.865
 2147SOL    HW223584   2.733   1.961   6.959
 2148SOL     OW23585   1.098   3.600   0.942
 2148SOL    HW123586   1.080   3.536   0.874
 2148SOL    HW223587   1.109   3.683   0.895
 2149SOL     OW23588   6.158   5.662   0.963
 2149SOL    HW123589   6.088   5.604   0.933
 2149SOL    HW223590   6.174   5.720   0.889
 2150SOL     OW23591   6.198   3.269   6.449
 2150SOL    HW123592   6.115   3.313   6.432
 2150SOL    HW223593   6.199   3.254   6.543
 2151SOL     OW23594   0.480   5.672   1.065
 2151SOL    HW123595   0.470   5.580   1.088
 2151SOL    HW223596   0.572   5.692   1.081
 2152SOL     OW23597   4.785   2.997   0.329
 2152SOL    HW123598   4.856   2.933   0.336
 2152SOL    HW223599   4.760   2.996   0.237
 2153SOL     OW23600   3.831   5.009   0.426
 2153SOL    HW123601   3.767   5.061   0.378
 2153SOL    HW223602   3.794   4.920   0.428
 2154SOL     OW23603   6.105   6.390   6.843
 2154SOL    HW123604   6.199   6.401   6.857
 2154SOL    HW223605   6.080   6.319   6.902
 2155SOL     OW23606   5.430   5.778   7.023
 2155SOL    HW123607   5.508   5.724   7.012
 2155SOL    HW223608   5.365   5.718   7.061
 2156SOL     OW23609   4.544   1.019   7.638
 2156SOL    HW123610   4.596   0.942   7.615
 2156SOL    HW223611   4.496   0.993   7.717
 2157SOL     OW23612   3.017   6.062   0.584
 2157SOL    HW123613   3.105   6.043   0.615
 2157SOL    HW223614   2.959   6.028   0.652
 2158SOL     OW23615   2.459   1.675   1.371
 2158SOL    HW123616   2.553   1.657   1.368
 2158SOL    HW223617   2.453   1.770   1.363
 2159SOL     OW23618   0.974   5.137   7.087
 2159SOL    HW123619   1.061   5.100   7.075
 2159SOL    HW223620   0.929   5.074   7.144
 2160SOL     OW23621   5.286   4.569   7.552
 2160SOL    HW123622   5.202   4.525   7.564
 2160SOL    HW223623   5.319   4.585   7.641
 2161SOL     OW23624   2.645   0.237   6.878
 2161SOL    HW123625   2.570   0.208   6.825
 2161SOL    HW223626   2.717   0.182   6.848
 2162SOL     OW23627   1.946   0.245   1.225
 2162SOL    HW123628   1.874   0.299   1.259
 2162SOL    HW223629   1.961   0.179   1.293
 2163SOL     OW23630   2.826   2.297   1.436
 2163SOL    HW123631   2.914   2.265   1.453
 2163SOL    HW223632   2.794   2.242   1.363
 2164SOL     OW23633   2.763   1.938   2.517
 2164SOL    HW123634   2.831   1.950   2.451
 2164SOL    HW223635   2.728   2.026   2.532
 2165SOL     OW23636   5.671   4.619   1.049
 2165SOL    HW123637   5.680   4.697   1.103
 2165SOL    HW223638   5.752   4.570   1.064
 2166SOL     OW23639   3.959   2.418   1.487
 2166SOL    HW123640   3.908   2.492   1.456
 2166SOL    HW223641   4.020   2.455   1.551
 2167SOL     OW23642   0.152   6.351   1.281
 2167SOL    HW123643   0.091   6.280   1.302
 2167SOL    HW223644   0.153   6.355   1.186
 2168SOL     OW23645   1.375   5.182   7.351
 2168SOL    HW123646   1.428   5.117   7.398
 2168SOL    HW223647   1.439   5.238   7.307
 2169SOL     OW23648   1.626   0.422   0.172
 2169SOL    HW123649   1.540   0.410   0.132
 2169SOL    HW223650   1.606   0.444   0.263
 2170SOL     OW23651   1.874   0.054   7.415
 2170SOL    HW123652   1.794   0.088   7.453
 2170SOL    HW223653   1.860   0.062   7.320
 2171SOL     OW23654   2.748   3.405   1.816
 2171SOL    HW123655   2.680   3.360   1.767
 2171SOL    HW223656   2.712   3.416   1.904
 2172SOL     OW23657   3.712   2.188   7.469
 2172SOL    HW123658   3.716   2.156   7.379
 2172SOL    HW223659   3.628   2.157   7.503
 2173SOL     OW23660   3.696   6.245   1.986
 2173SOL    HW123661   3.701   6.338   1.963
 2173SOL    HW223662   3.776   6.207   1.951
 2174SOL     OW23663   0.067   3.481   5.838
 2174SOL    HW123664   0.021   3.565   5.840
 2174SOL    HW223665   0.147   3.496   5.888
 2175SOL     OW23666   3.703   3.170   6.508
 2175SOL    HW123667   3.625   3.152   6.560
 2175SOL    HW223668   3.682   3.250   6.461
 2176SOL     OW23669   3.231   4.300   6.949
 2176SOL    HW123670   3.242   4.376   7.006
 2176SOL    HW223671   3.145   4.266   6.971
 2177SOL     OW23672   2.959   2.757   5.734
 2177SOL    HW123673   2.873   2.743   5.773
 2177SOL    HW223674   3.019   2.757   5.809
 2178SOL     OW23675   0.104   2.326   1.542
 2178SOL    HW123676   0.053   2.348   1.464
 2178SOL    HW223677   0.055   2.365   1.614
 2179SOL     OW23678   0.216   3.691   6.139
 2179SOL    HW123679   0.228   3.632   6.065
 2179SOL    HW223680   0.131   3.733   6.123
 2180SOL     OW23681   0.880   5.053   6.257
 2180SOL    HW123682   0.957   5.008   6.291
 2180SOL    HW223683   0.805   5.005   6.293
 2181SOL     OW23684   0.319   0.343   6.451
 2181SOL    HW123685   0.301   0.393   6.372
 2181SOL    HW223686   0.251   0.370   6.513
 2182SOL     OW23687   0.673   2.393   7.379
 2182SOL    HW123688   0.610   2.407   7.450
 2182SOL    HW223689   0.736   2.464   7.389
 2183SOL     OW23690   1.686   4.779   2.097
 2183SOL    HW123691   1.759   4.810   2.151
 2183SOL    HW223692   1.624   4.741   2.159
 2184SOL     OW23693   0.386   1.894   6.621
 2184SOL    HW123694   0.459   1.906   6.681
 2184SOL    HW223695   0.320   1.847   6.672
 2185SOL     OW23696   1.786   5.780   6.831
 2185SOL    HW123697   1.780   5.690   6.799
 2185SOL    HW223698   1.764   5.774   6.924
 2186SOL     OW23699   2.508   4.097   6.521
 2186SOL    HW123700   2.598   4.128   6.511
 2186SOL    HW223701   2.454   4.171   6.493
 2187SOL     OW23702   1.000   4.703   2.248
 2187SOL    HW123703   1.041   4.649   2.316
 2187SOL    HW223704   1.003   4.792   2.283
 2188SOL     OW23705   0.134   5.612   7.352
 2188SOL    HW123706   0.130   5.707   7.364
 2188SOL    HW223707   0.149   5.577   7.440
 2189SOL     OW23708   5.539   4.788   7.255
 2189SOL    HW123709   5.627   4.791   7.219
 2189SOL    HW223710   5.482   4.812   7.181
 2190SOL     OW23711   0.892   5.751   7.456
 2190SOL    HW123712   0.930   5.712   7.377
 2190SOL    HW223713   0.798   5.737   7.447
 2191SOL     OW23714   5.808   4.875   1.461
 2191SOL    HW123715   5.880   4.813   1.474
 2191SOL    HW223716   5.730   4.827   1.486
 2192SOL     OW23717   2.318   5.452   2.941
 2192SOL    HW123718   2.244   5.478   2.996
 2192SOL    HW223719   2.311   5.507   2.863
 2193SOL     OW23720   3.007   6.117   6.056
 2193SOL    HW123721   2.939   6.062   6.096
 2193SOL    HW223722   3.010   6.195   6.111
 2194SOL     OW23723   5.884   0.820   0.222
 2194SOL    HW123724   5.956   0.801   0.282
 2194SOL    HW223725   5.900   0.910   0.193
 2195SOL     OW23726   4.908   0.965   2.206
 2195SOL    HW123727   4.883   0.880   2.171
 2195SOL    HW223728   4.837   1.024   2.179
 2196SOL     OW23729   1.605   0.931   7.656
 2196SOL    HW123730   1.640   0.945   7.744
 2196SOL    HW223731   1.681   0.933   7.598
 2197SOL     OW23732   0.886   4.410   7.463
 2197SOL    HW123733   0.955   4.449   7.516
 2197SOL    HW223734   0.931   4.379   7.384
 2198SOL     OW23735   6.264   4.651   0.428
 2198SOL    HW123736   6.245   4.610   0.513
 2198SOL    HW223737   6.190   4.710   0.413
 2199SOL     OW23738   5.620   5.862   1.952
 2199SOL    HW123739   5.628   5.946   1.907
 2199SOL    HW223740   5.563   5.881   2.026
 2200SOL     OW23741   1.429   1.406   6.716
 2200SOL    HW123742   1.419   1.465   6.642
 2200SOL    HW223743   1.457   1.323   6.678
 2201SOL     OW23744   5.784   5.213   7.493
 2201SOL    HW123745   5.718   5.155   7.531
 2201SOL    HW223746   5.758   5.301   7.522
 2202SOL     OW23747   1.721   4.155   7.117
 2202SOL    HW123748   1.664   4.193   7.050
 2202SOL    HW223749   1.774   4.229   7.147
 2203SOL     OW23750   4.901   4.935   2.370
 2203SOL    HW123751   4.927   4.843   2.375
 2203SOL    HW223752   4.922   4.962   2.281
 2204SOL     OW23753   1.887   5.394   7.067
 2204SOL    HW123754   1.837   5.345   7.002
 2204SOL    HW223755   1.977   5.391   7.035
 2205SOL     OW23756   1.797   3.393   1.798
 2205SOL    HW123757   1.732   3.428   1.859
 2205SOL    HW223758   1.745   3.364   1.723
 2206SOL     OW23759   2.387   4.095   0.086
 2206SOL    HW123760   2.388   4.092  -0.010
 2206SOL    HW223761   2.401   4.188   0.107
 2207SOL     OW23762   4.547   2.190   7.746
 2207SOL    HW123763   4.479   2.130   7.715
 2207SOL    HW223764   4.615   2.133   7.781
 2208SOL     OW23765   1.364   1.993   6.613
 2208SOL    HW123766   1.334   2.062   6.672
 2208SOL    HW223767   1.459   1.989   6.626
 2209SOL     OW23768   4.403   4.349   1.481
 2209SOL    HW123769   4.441   4.333   1.394
 2209SOL    HW223770   4.456   4.297   1.540
 2210SOL     OW23771   1.312   2.724   0.096
 2210SOL    HW123772   1.224   2.692   0.073
 2210SOL    HW223773   1.364   2.710   0.017
 2211SOL     OW23774   3.202   6.015   1.207
 2211SOL    HW123775   3.294   6.003   1.183
 2211SOL    HW223776   3.164   5.928   1.199
 2212SOL     OW23777   3.569   1.063   2.021
 2212SOL    HW123778   3.524   0.979   2.030
 2212SOL    HW223779   3.553   1.109   2.103
 2213SOL     OW23780   2.767   3.622   0.858
 2213SOL    HW123781   2.739   3.553   0.917
 2213SOL    HW223782   2.689   3.676   0.844
 2214SOL     OW23783   1.573   0.040   6.574
 2214SOL    HW123784   1.629   0.070   6.502
 2214SOL    HW223785   1.607  -0.047   6.595
 2215SOL     OW23786   2.857   0.397   6.770
 2215SOL    HW123787   2.871   0.449   6.849
 2215SOL    HW223788   2.765   0.374   6.772
 2216SOL     OW23789   0.490   3.128   7.051
 2216SOL    HW123790   0.567   3.096   7.097
 2216SOL    HW223791   0.450   3.050   7.014
 2217SOL     OW23792   0.220   5.461   0.476
 2217SOL    HW123793   0.129   5.464   0.507
 2217SOL    HW223794   0.220   5.514   0.396
 2218SOL     OW23795   4.869   4.669   2.739
 2218SOL    HW123796   4.885   4.640   2.650
 2218SOL    HW223797   4.786   4.716   2.734
 2219SOL     OW23798   0.965   3.395   0.733
 2219SOL    HW123799   1.003   3.317   0.773
 2219SOL    HW223800   0.871   3.385   0.745
 2220SOL     OW23801   4.472   0.217   7.585
 2220SOL    HW123802   4.451   0.127   7.558
 2220SOL    HW223803   4.387   0.257   7.601
 2221SOL     OW23804   5.304   3.869   2.173
 2221SOL    HW123805   5.225   3.904   2.131
 2221SOL    HW223806   5.375   3.895   2.114
 2222SOL     OW23807   1.315   4.101   1.868
 2222SOL    HW123808   1.349   4.134   1.951
 2222SOL    HW223809   1.242   4.043   1.894
 2223SOL     OW23810   4.783   5.118   6.446
 2223SOL    HW123811   4.828   5.039   6.415
 2223SOL    HW223812   4.855   5.179   6.465
 2224SOL     OW23813   2.850   2.449   6.858
 2224SOL    HW123814   2.906   2.527   6.856
 2224SOL    HW223815   2.764   2.482   6.885
 2225SOL     OW23816   5.288   1.881   7.658
 2225SOL    HW123817   5.363   1.823   7.669
 2225SOL    HW223818   5.212   1.823   7.661
 2226SOL     OW23819   5.388   2.223   6.603
 2226SOL    HW123820   5.457   2.198   6.664
 2226SOL    HW223821   5.380   2.148   6.543
 2227SOL     OW23822   3.391   2.407   0.243
 2227SOL    HW123823   3.381   2.316   0.213
 2227SOL    HW223824   3.474   2.408   0.291
 2228SOL     OW23825   1.698   2.457   7.269
 2228SOL    HW123826   1.672   2.535   7.317
 2228SOL    HW223827   1.672   2.473   7.178
 2229SOL     OW23828   3.664   5.394   6.436
 2229SOL    HW123829   3.600   5.463   6.417
 2229SOL    HW223830   3.723   5.433   6.501
 2230SOL     OW23831   3.623   1.734   2.473
 2230SOL    HW123832   3.667   1.681   2.407
 2230SOL    HW223833   3.665   1.820   2.467
 2231SOL     OW23834   3.056   0.398   1.766
 2231SOL    HW123835   2.987   0.419   1.829
 2231SOL    HW223836   3.137   0.418   1.812
 2232SOL     OW23837   1.674   4.939   7.038
 2232SOL    HW123838   1.722   4.993   7.100
 2232SOL    HW223839   1.694   4.849   7.064
 2233SOL     OW23840   0.641   1.324   6.033
 2233SOL    HW123841   0.648   1.412   5.995
 2233SOL    HW223842   0.549   1.301   6.023
 2234SOL     OW23843   6.097   5.328   0.231
 2234SOL    HW123844   6.129   5.394   0.292
 2234SOL    HW223845   6.079   5.377   0.151
 2235SOL     OW23846   1.486   2.873   5.946
 2235SOL    HW123847   1.468   2.854   6.039
 2235SOL    HW223848   1.401   2.860   5.903
 2236SOL     OW23849   0.284   4.310   6.672
 2236SOL    HW123850   0.370   4.273   6.691
 2236SOL    HW223851   0.224   4.262   6.729
 2237SOL     OW23852   3.598   5.439   7.489
 2237SOL    HW123853   3.558   5.411   7.572
 2237SOL    HW223854   3.537   5.506   7.456
 2238SOL     OW23855   4.365   3.125   1.756
 2238SOL    HW123856   4.416   3.205   1.745
 2238SOL    HW223857   4.309   3.143   1.831
 2239SOL     OW23858   1.154   3.091   1.839
 2239SOL    HW123859   1.248   3.084   1.821
 2239SOL    HW223860   1.149   3.150   1.915
 2240SOL     OW23861   2.162   1.400   1.686
 2240SOL    HW123862   2.108   1.413   1.764
 2240SOL    HW223863   2.184   1.489   1.657
 2241SOL     OW23864   5.328   2.053   6.971
 2241SOL    HW123865   5.260   2.097   6.921
 2241SOL    HW223866   5.328   1.963   6.938
 2242SOL     OW23867   3.398   1.704   5.915
 2242SOL    HW123868   3.461   1.657   5.861
 2242SOL    HW223869   3.444   1.784   5.940
 2243SOL     OW23870   5.156   0.346   0.221
 2243SOL    HW123871   5.116   0.404   0.286
 2243SOL    HW223872   5.082   0.299   0.182
 2244SOL     OW23873   3.194   5.277   6.462
 2244SOL    HW123874   3.189   5.237   6.549
 2244SOL    HW223875   3.271   5.333   6.466
 2245SOL     OW23876   1.273   0.388   7.246
 2245SOL    HW123877   1.301   0.395   7.337
 2245SOL    HW223878   1.353   0.398   7.195
 2246SOL     OW23879   2.284   2.614   1.485
 2246SOL    HW123880   2.264   2.521   1.474
 2246SOL    HW223881   2.347   2.633   1.416
 2247SOL     OW23882   0.843   4.029   6.695
 2247SOL    HW123883   0.904   3.955   6.699
 2247SOL    HW223884   0.892   4.099   6.652
 2248SOL     OW23885   4.987   4.429   0.640
 2248SOL    HW123886   4.983   4.468   0.727
 2248SOL    HW223887   4.985   4.504   0.580
 2249SOL     OW23888   0.994   1.662   6.393
 2249SOL    HW123889   1.088   1.645   6.390
 2249SOL    HW223890   0.986   1.757   6.386
 2250SOL     OW23891   5.813   5.411   6.184
 2250SOL    HW123892   5.834   5.329   6.227
 2250SOL    HW223893   5.899   5.451   6.166
 2251SOL     OW23894   5.578   0.492   0.445
 2251SOL    HW123895   5.487   0.472   0.468
 2251SOL    HW223896   5.583   0.475   0.351
 2252SOL     OW23897   0.815   3.122   7.241
 2252SOL    HW123898   0.793   3.081   7.157
 2252SOL    HW223899   0.840   3.049   7.297
 2253SOL     OW23900   2.501   1.233   7.557
 2253SOL    HW123901   2.556   1.223   7.634
 2253SOL    HW223902   2.545   1.301   7.505
 2254SOL     OW23903   1.805   3.401   0.805
 2254SOL    HW123904   1.819   3.355   0.887
 2254SOL    HW223905   1.801   3.331   0.739
 2255SOL     OW23906   1.620   0.514   6.950
 2255SOL    HW123907   1.598   0.603   6.921
 2255SOL    HW223908   1.711   0.502   6.924
 2256SOL     OW23909   3.686   1.607   2.054
 2256SOL    HW123910   3.744   1.534   2.032
 2256SOL    HW223911   3.680   1.659   1.974
 2257SOL     OW23912   3.493   0.458   6.744
 2257SOL    HW123913   3.415   0.513   6.743
 2257SOL    HW223914   3.546   0.490   6.670
 2258SOL     OW23915   6.090   3.702   7.193
 2258SOL    HW123916   6.016   3.748   7.152
 2258SOL    HW223917   6.130   3.767   7.251
 2259SOL     OW23918   4.148   1.150   7.371
 2259SOL    HW123919   4.060   1.125   7.396
 2259SOL    HW223920   4.193   1.067   7.353
 2260SOL     OW23921   6.297   2.197   0.081
 2260SOL    HW123922   6.320   2.288   0.102
 2260SOL    HW223923   6.202   2.199   0.065
 2261SOL     OW23924   6.019   1.149   1.150
 2261SOL    HW123925   5.995   1.227   1.200
 2261SOL    HW223926   5.946   1.135   1.090
 2262SOL     OW23927   3.613   0.516   1.460
 2262SOL    HW123928   3.557   0.448   1.496
 2262SOL    HW223929   3.702   0.485   1.477
 2263SOL     OW23930   1.814   4.627   1.328
 2263SOL    HW123931   1.800   4.555   1.389
 2263SOL    HW223932   1.740   4.622   1.268
 2264SOL     OW23933   0.302   1.180   1.704
 2264SOL    HW123934   0.362   1.165   1.777
 2264SOL    HW223935   0.246   1.252   1.734
 2265SOL     OW23936   3.647   6.036   1.357
 2265SOL    HW123937   3.630   5.962   1.415
 2265SOL    HW223938   3.574   6.036   1.295
 2266SOL     OW23939   4.709   0.486   0.065
 2266SOL    HW123940   4.623   0.461   0.097
 2266SOL    HW223941   4.701   0.480  -0.031
 2267SOL     OW23942   2.259   5.530   2.703
 2267SOL    HW123943   2.180   5.575   2.672
 2267SOL    HW223944   2.257   5.445   2.659
 2268SOL     OW23945   3.420   0.884   0.122
 2268SOL    HW123946   3.440   0.830   0.046
 2268SOL    HW223947   3.354   0.833   0.171
 2269SOL     OW23948   6.367   3.137   2.377
 2269SOL    HW123949   6.356   3.056   2.426
 2269SOL    HW223950   6.404   3.198   2.440
 2270SOL     OW23951   0.866   5.794   7.732
 2270SOL    HW123952   0.911   5.878   7.724
 2270SOL    HW223953   0.812   5.789   7.653
 2271SOL     OW23954   2.615   0.426   1.943
 2271SOL    HW123955   2.538   0.441   1.889
 2271SOL    HW223956   2.581   0.386   2.023
 2272SOL     OW23957   5.773   1.921   0.052
 2272SOL    HW123958   5.850   1.923   0.109
 2272SOL    HW223959   5.772   1.832   0.016
 2273SOL     OW23960   4.057   2.158   7.586
 2273SOL    HW123961   4.012   2.162   7.501
 2273SOL    HW223962   4.125   2.224   7.580
 2274SOL     OW23963   5.871   4.916   6.868
 2274SOL    HW123964   5.954   4.886   6.830
 2274SOL    HW223965   5.870   4.876   6.955
 2275SOL     OW23966   6.430   0.776   0.836
 2275SOL    HW123967   6.451   0.805   0.747
 2275SOL    HW223968   6.499   0.815   0.890
 2276SOL     OW23969   5.983   0.059   2.298
 2276SOL    HW123970   6.020   0.136   2.254
 2276SOL    HW223971   6.054  -0.005   2.296
 2277SOL     OW23972   2.215   4.398   2.028
 2277SOL    HW123973   2.217   4.431   2.118
 2277SOL    HW223974   2.148   4.450   1.984
 2278SOL     OW23975   4.057   2.000   5.529
 2278SOL    HW123976   4.039   1.928   5.468
 2278SOL    HW223977   4.072   1.957   5.613
 2279SOL     OW23978   4.057   2.856   7.344
 2279SOL    HW123979   3.969   2.880   7.317
 2279SOL    HW223980   4.048   2.768   7.380
 2280SOL     OW23981   4.347   1.691   6.765
 2280SOL    HW123982   4.421   1.632   6.751
 2280SOL    HW223983   4.343   1.703   6.860
 2281SOL     OW23984   2.207   5.984   1.274
 2281SOL    HW123985   2.184   5.987   1.367
 2281SOL    HW223986   2.124   5.974   1.229
 2282SOL     OW23987   5.216   4.845   1.271
 2282SOL    HW123988   5.227   4.795   1.190
 2282SOL    HW223989   5.148   4.909   1.250
 2283SOL     OW23990   5.423   3.839   2.666
 2283SOL    HW123991   5.340   3.801   2.634
 2283SOL    HW223992   5.464   3.875   2.588
 2284SOL     OW23993   1.449   6.284   0.656
 2284SOL    HW123994   1.414   6.256   0.572
 2284SOL    HW223995   1.505   6.358   0.635
 2285SOL     OW23996   0.513   4.824   0.773
 2285SOL    HW123997   0.524   4.866   0.687
 2285SOL    HW223998   0.451   4.752   0.756
 2286SOL     OW23999   5.843   1.607   6.342
 2286SOL    HW124000   5.913   1.569   6.289
 2286SOL    HW224001   5.788   1.654   6.279
 2287SOL     OW24002   1.825   2.185   7.244
 2287SOL    HW124003   1.753   2.247   7.249
 2287SOL    HW224004   1.809   2.136   7.164
 2288SOL     OW24005   0.068   2.015   5.839
 2288SOL    HW124006   0.076   1.970   5.755
 2288SOL    HW224007   0.159   2.032   5.865
 2289SOL     OW24008   3.306   5.480   6.620
 2289SOL    HW124009   3.369   5.546   6.651
 2289SOL    HW224010   3.236   5.481   6.685
 2290SOL     OW24011   0.886   5.396   7.583
 2290SOL    HW124012   0.845   5.424   7.501
 2290SOL    HW224013   0.891   5.301   7.576
 2291SOL     OW24014   3.177   3.896   2.537
 2291SOL    HW124015   3.234   3.903   2.613
 2291SOL    HW224016   3.089   3.889   2.574
 2292SOL     OW24017   3.692   1.571   6.198
 2292SOL    HW124018   3.623   1.540   6.257
 2292SOL    HW224019   3.661   1.656   6.166
 2293SOL     OW24020   0.432   0.543   6.887
 2293SOL    HW124021   0.374   0.601   6.838
 2293SOL    HW224022   0.393   0.537   6.974
 2294SOL     OW24023   0.120   5.844   5.880
 2294SOL    HW124024   0.101   5.751   5.886
 2294SOL    HW224025   0.148   5.869   5.969
 2295SOL     OW24026   1.284   4.356   1.688
 2295SOL    HW124027   1.354   4.407   1.729
 2295SOL    HW224028   1.308   4.265   1.704
 2296SOL     OW24029   1.796   0.483   6.189
 2296SOL    HW124030   1.859   0.415   6.212
 2296SOL    HW224031   1.717   0.435   6.165
 2297SOL     OW24032   4.081   0.641   6.126
 2297SOL    HW124033   4.132   0.704   6.075
 2297SOL    HW224034   3.992   0.677   6.126
 2298SOL     OW24035   4.793   0.815   0.319
 2298SOL    HW124036   4.785   0.791   0.227
 2298SOL    HW224037   4.839   0.899   0.318
 2299SOL     OW24038   3.501   0.415   0.196
 2299SOL    HW124039   3.532   0.334   0.237
 2299SOL    HW224040   3.453   0.386   0.119
 2300SOL     OW24041   5.034   5.928   2.572
 2300SOL    HW124042   5.124   5.959   2.566
 2300SOL    HW224043   5.010   5.905   2.482
 2301SOL     OW24044   3.371   2.086   2.207
 2301SOL    HW124045   3.400   1.995   2.207
 2301SOL    HW224046   3.446   2.136   2.174
 2302SOL     OW24047   1.388   0.114   1.221
 2302SOL    HW124048   1.374   0.073   1.135
 2302SOL    HW224049   1.368   0.207   1.206
 2303SOL     OW24050   3.690   3.386   1.427
 2303SOL    HW124051   3.639   3.426   1.498
 2303SOL    HW224052   3.743   3.319   1.470
 2304SOL     OW24053   0.496   4.137   7.029
 2304SOL    HW124054   0.490   4.222   7.073
 2304SOL    HW224055   0.589   4.128   7.007
 2305SOL     OW24056   5.585   1.991   6.743
 2305SOL    HW124057   5.524   1.919   6.756
 2305SOL    HW224058   5.579   2.043   6.823
 2306SOL     OW24059   0.661   0.019   1.286
 2306SOL    HW124060   0.626  -0.040   1.218
 2306SOL    HW224061   0.602   0.007   1.360
 2307SOL     OW24062   2.036   2.399   2.480
 2307SOL    HW124063   1.978   2.340   2.529
 2307SOL    HW224064   2.104   2.341   2.446
 2308SOL     OW24065   3.192   3.461   6.379
 2308SOL    HW124066   3.109   3.440   6.336
 2308SOL    HW224067   3.244   3.504   6.311
 2309SOL     OW24068   5.338   0.585   6.382
 2309SOL    HW124069   5.360   0.570   6.290
 2309SOL    HW224070   5.268   0.651   6.379
 2310SOL     OW24071   0.636   5.777   7.480
 2310SOL    HW124072   0.568   5.777   7.413
 2310SOL    HW224073   0.602   5.832   7.550
 2311SOL     OW24074   2.965   2.666   2.400
 2311SOL    HW124075   2.905   2.662   2.474
 2311SOL    HW224076   2.946   2.750   2.358
 2312SOL     OW24077   0.569   4.999   0.213
 2312SOL    HW124078   0.648   5.045   0.241
 2312SOL    HW224079   0.525   4.976   0.295
 2313SOL     OW24080   1.860   3.308   6.632
 2313SOL    HW124081   1.928   3.252   6.595
 2313SOL    HW224082   1.845   3.375   6.566
 2314SOL     OW24083   5.762   4.531   6.350
 2314SOL    HW124084   5.837   4.591   6.343
 2314SOL    HW224085   5.790   4.452   6.305
 2315SOL     OW24086   2.149   1.031   7.520
 2315SOL    HW124087   2.160   1.125   7.528
 2315SOL    HW224088   2.239   0.996   7.521
 2316SOL     OW24089   2.447   2.679   6.543
 2316SOL    HW124090   2.410   2.670   6.455
 2316SOL    HW224091   2.518   2.615   6.547
 2317SOL     OW24092   4.979   2.942   7.548
 2317SOL    HW124093   5.011   3.031   7.537
 2317SOL    HW224094   4.903   2.937   7.490
 2318SOL     OW24095   3.300   2.953   7.663
 2318SOL    HW124096   3.342   3.032   7.631
 2318SOL    HW224097   3.372   2.897   7.691
 2319SOL     OW24098   3.841   6.105   6.609
 2319SOL    HW124099   3.753   6.097   6.645
 2319SOL    HW224100   3.887   6.164   6.669
 2320SOL     OW24101   1.453   6.355   7.357
 2320SOL    HW124102   1.410   6.426   7.309
 2320SOL    HW224103   1.413   6.276   7.322
 2321SOL     OW24104   2.782   2.393   6.165
 2321SOL    HW124105   2.746   2.414   6.079
 2321SOL    HW224106   2.867   2.354   6.146
 2322SOL     OW24107   6.269   0.525   0.836
 2322SOL    HW124108   6.192   0.580   0.850
 2322SOL    HW224109   6.338   0.569   0.887
 2323SOL     OW24110   5.115   1.985   0.735
 2323SOL    HW124111   5.138   1.954   0.648
 2323SOL    HW224112   5.022   1.964   0.744
 2324SOL     OW24113   5.284   2.932   1.149
 2324SOL    HW124114   5.207   2.946   1.205
 2324SOL    HW224115   5.292   3.013   1.099
 2325SOL     OW24116   4.123   1.642   0.300
 2325SOL    HW124117   4.211   1.626   0.336
 2325SOL    HW224118   4.134   1.630   0.205
 2326SOL     OW24119   5.043   3.862   7.068
 2326SOL    HW124120   5.122   3.911   7.043
 2326SOL    HW224121   4.977   3.930   7.085
 2327SOL     OW24122   0.658   2.937   5.753
 2327SOL    HW124123   0.610   2.922   5.672
 2327SOL    HW224124   0.589   2.946   5.820
 2328SOL     OW24125   1.626   3.307   7.551
 2328SOL    HW124126   1.678   3.232   7.582
 2328SOL    HW224127   1.606   3.285   7.460
 2329SOL     OW24128   1.631   4.865   6.601
 2329SOL    HW124129   1.720   4.831   6.584
 2329SOL    HW224130   1.615   4.926   6.529
 2330SOL     OW24131   2.747   1.278   0.437
 2330SOL    HW124132   2.743   1.201   0.493
 2330SOL    HW224133   2.841   1.294   0.424
 2331SOL     OW24134   5.237   4.252   2.114
 2331SOL    HW124135   5.244   4.233   2.208
 2331SOL    HW224136   5.165   4.315   2.108
 2332SOL     OW24137   1.074   6.286   0.016
 2332SOL    HW124138   1.027   6.317   0.093
 2332SOL    HW224139   1.143   6.230   0.052
 2333SOL     OW24140   2.047   0.365   2.672
 2333SOL    HW124141   2.123   0.311   2.695
 2333SOL    HW224142   2.069   0.403   2.587
 2334SOL     OW24143   1.858   3.122   0.530
 2334SOL    HW124144   1.945   3.123   0.491
 2334SOL    HW224145   1.811   3.193   0.487
 2335SOL     OW24146   0.323   5.412   1.311
 2335SOL    HW124147   0.409   5.417   1.270
 2335SOL    HW224148   0.339   5.376   1.398
 2336SOL     OW24149   2.681   5.353   5.953
 2336SOL    HW124150   2.731   5.311   6.023
 2336SOL    HW224151   2.593   5.365   5.989
 2337SOL     OW24152   3.073   3.319   6.751
 2337SOL    HW124153   3.014   3.334   6.677
 2337SOL    HW224154   3.057   3.393   6.810
 2338SOL     OW24155   5.912   1.056   0.084
 2338SOL    HW124156   5.837   1.060   0.024
 2338SOL    HW224157   5.918   1.144   0.121
 2339SOL     OW24158   0.188   4.231   7.117
 2339SOL    HW124159   0.250   4.290   7.075
 2339SOL    HW224160   0.229   4.144   7.111
 2340SOL     OW24161   3.390   0.430   1.605
 2340SOL    HW124162   3.359   0.516   1.576
 2340SOL    HW224163   3.356   0.421   1.694
 2341SOL     OW24164   2.425   5.059   6.212
 2341SOL    HW124165   2.337   5.092   6.230
 2341SOL    HW224166   2.480   5.100   6.279
 2342SOL     OW24167   4.005   5.667   0.943
 2342SOL    HW124168   3.919   5.706   0.926
 2342SOL    HW224169   4.049   5.670   0.858
 2343SOL     OW24170   3.293   0.133   7.128
 2343SOL    HW124171   3.286   0.105   7.219
 2343SOL    HW224172   3.276   0.227   7.130
 2344SOL     OW24173   2.966   0.767   1.303
 2344SOL    HW124174   2.962   0.862   1.302
 2344SOL    HW224175   2.986   0.744   1.394
 2345SOL     OW24176   3.737   4.012   0.737
 2345SOL    HW124177   3.737   4.063   0.817
 2345SOL    HW224178   3.812   4.044   0.687
 2346SOL     OW24179   5.764   4.324   2.747
 2346SOL    HW124180   5.728   4.379   2.817
 2346SOL    HW224181   5.857   4.315   2.769
 2347SOL     OW24182   4.927   4.673   2.137
 2347SOL    HW124183   4.843   4.695   2.097
 2347SOL    HW224184   4.992   4.691   2.068
 2348SOL     OW24185   5.678   1.137   1.614
 2348SOL    HW124186   5.594   1.167   1.578
 2348SOL    HW224187   5.739   1.208   1.595
 2349SOL     OW24188   4.707   2.810   1.492
 2349SOL    HW124189   4.661   2.732   1.523
 2349SOL    HW224190   4.765   2.777   1.423
 2350SOL     OW24191   2.704   0.039   7.724
 2350SOL    HW124192   2.641  -0.030   7.701
 2350SOL    HW224193   2.790  -0.001   7.708
 2351SOL     OW24194   0.056   5.275   0.118
 2351SOL    HW124195   0.022   5.257   0.206
 2351SOL    HW224196   0.151   5.274   0.129
 2352SOL     OW24197   0.366   0.294   7.600
 2352SOL    HW124198   0.432   0.361   7.583
 2352SOL    HW224199   0.374   0.274   7.693
 2353SOL     OW24200   2.888   2.833   7.408
 2353SOL    HW124201   2.941   2.822   7.486
 2353SOL    HW224202   2.807   2.787   7.427
 2354SOL     OW24203   5.524   5.088   6.248
 2354SOL    HW124204   5.579   5.057   6.320
 2354SOL    HW224205   5.435   5.082   6.282
 2355SOL     OW24206   1.323   5.824   7.218
 2355SOL    HW124207   1.281   5.803   7.301
 2355SOL    HW224208   1.315   5.744   7.166
 2356SOL     OW24209   4.936   5.263   2.051
 2356SOL    HW124210   5.022   5.299   2.071
 2356SOL    HW224211   4.926   5.274   1.957
 2357SOL     OW24212   2.459   5.006   5.930
 2357SOL    HW124213   2.403   4.932   5.908
 2357SOL    HW224214   2.442   5.023   6.023
 2358SOL     OW24215   5.018   0.144   0.411
 2358SOL    HW124216   5.043   0.204   0.481
 2358SOL    HW224217   4.984   0.201   0.342
 2359SOL     OW24218   5.173   3.459   1.478
 2359SOL    HW124219   5.088   3.435   1.515
 2359SOL    HW224220   5.178   3.409   1.396
 2360SOL     OW24221   2.870   4.050   0.476
 2360SOL    HW124222   2.802   3.983   0.468
 2360SOL    HW224223   2.952   4.001   0.477
 2361SOL     OW24224   2.666   4.587   1.881
 2361SOL    HW124225   2.575   4.597   1.852
 2361SOL    HW224226   2.668   4.501   1.922
 2362SOL     OW24227   0.281   5.047   1.273
 2362SOL    HW124228   0.217   5.118   1.279
 2362SOL    HW224229   0.346   5.079   1.210
 2363SOL     OW24230   2.613   3.490   1.371
 2363SOL    HW124231   2.653   3.464   1.454
 2363SOL    HW224232   2.598   3.584   1.380
 2364SOL     OW24233   1.239   2.848   0.375
 2364SOL    HW124234   1.293   2.798   0.313
 2364SOL    HW224235   1.152   2.846   0.336
 2365SOL     OW24236   5.581   2.132   6.975
 2365SOL    HW124237   5.595   2.180   7.057
 2365SOL    HW224238   5.490   2.101   6.980
 2366SOL     OW24239   1.036   1.457   2.278
 2366SOL    HW124240   1.042   1.364   2.297
 2366SOL    HW224241   1.114   1.496   2.318
 2367SOL     OW24242   4.026   3.874   7.566
 2367SOL    HW124243   3.981   3.803   7.613
 2367SOL    HW224244   3.999   3.863   7.475
 2368SOL     OW24245   2.443   4.335   1.680
 2368SOL    HW124246   2.472   4.325   1.770
 2368SOL    HW224247   2.408   4.249   1.656
 2369SOL     OW24248   3.956   5.546   0.085
 2369SOL    HW124249   4.045   5.578   0.100
 2369SOL    HW224250   3.911   5.620   0.044
 2370SOL     OW24251   3.121   2.586   0.292
 2370SOL    HW124252   3.093   2.643   0.364
 2370SOL    HW224253   3.142   2.503   0.335
 2371SOL     OW24254   2.232   1.869   6.826
 2371SOL    HW124255   2.193   1.783   6.845
 2371SOL    HW224256   2.210   1.922   6.903
 2372SOL     OW24257   4.979   2.523   0.792
 2372SOL    HW124258   4.996   2.439   0.750
 2372SOL    HW224259   4.883   2.530   0.793
 2373SOL     OW24260   3.592   2.416   0.426
 2373SOL    HW124261   3.593   2.441   0.518
 2373SOL    HW224262   3.670   2.361   0.415
 2374SOL     OW24263   3.560   2.660   0.751
 2374SOL    HW124264   3.636   2.704   0.713
 2374SOL    HW224265   3.554   2.695   0.839
 2375SOL     OW24266   5.177   0.463   1.804
 2375SOL    HW124267   5.193   0.449   1.897
 2375SOL    HW224268   5.110   0.398   1.781
 2376SOL     OW24269   5.444   1.058   0.159
 2376SOL    HW124270   5.453   0.978   0.107
 2376SOL    HW224271   5.382   1.035   0.228
 2377SOL     OW24272   6.146   1.386   7.738
 2377SOL    HW124273   6.119   1.456   7.678
 2377SOL    HW224274   6.086   1.314   7.718
 2378SOL     OW24275   5.339   4.474   1.237
 2378SOL    HW124276   5.274   4.413   1.275
 2378SOL    HW224277   5.414   4.419   1.217
 2379SOL     OW24278   5.504   0.155   1.396
 2379SOL    HW124279   5.572   0.119   1.339
 2379SOL    HW224280   5.521   0.249   1.398
 2380SOL     OW24281   2.724   4.262   7.601
 2380SOL    HW124282   2.780   4.206   7.547
 2380SOL    HW224283   2.689   4.203   7.668
 2381SOL     OW24284   2.276   2.358   7.232
 2381SOL    HW124285   2.240   2.305   7.303
 2381SOL    HW224286   2.271   2.301   7.155
 2382SOL     OW24287   3.364   3.419   0.429
 2382SOL    HW124288   3.310   3.428   0.507
 2382SOL    HW224289   3.395   3.507   0.410
 2383SOL     OW24290   0.631   5.488   1.498
 2383SOL    HW124291   0.673   5.535   1.426
 2383SOL    HW224292   0.684   5.409   1.509
 2384SOL     OW24293   1.016   2.079   0.413
 2384SOL    HW124294   1.018   2.014   0.483
 2384SOL    HW224295   1.006   2.163   0.459
 2385SOL     OW24296   2.688   1.279   6.986
 2385SOL    HW124297   2.702   1.341   6.914
 2385SOL    HW224298   2.601   1.244   6.971
 2386SOL     OW24299   2.138   3.549   5.862
 2386SOL    HW124300   2.060   3.509   5.898
 2386SOL    HW224301   2.163   3.615   5.926
 2387SOL     OW24302   3.119   3.954   7.079
 2387SOL    HW124303   3.097   4.036   7.123
 2387SOL    HW224304   3.059   3.950   7.004
 2388SOL     OW24305   1.192   1.654   7.101
 2388SOL    HW124306   1.258   1.592   7.069
 2388SOL    HW224307   1.150   1.687   7.021
 2389SOL     OW24308   4.076   2.256   1.305
 2389SOL    HW124309   4.002   2.243   1.247
 2389SOL    HW224310   4.041   2.310   1.376
 2390SOL     OW24311   2.857   1.976   7.659
 2390SOL    HW124312   2.842   1.882   7.669
 2390SOL    HW224313   2.779   2.008   7.614
 2391SOL     OW24314   5.958   1.767   1.117
 2391SOL    HW124315   5.862   1.774   1.119
 2391SOL    HW224316   5.974   1.678   1.085
 2392SOL     OW24317   3.221   2.023   0.081
 2392SOL    HW124318   3.186   2.055   0.164
 2392SOL    HW224319   3.152   2.041   0.017
 2393SOL     OW24320   6.187   0.680   0.029
 2393SOL    HW124321   6.242   0.605   0.052
 2393SOL    HW224322   6.211   0.748   0.093
 2394SOL     OW24323   0.798   6.393   7.673
 2394SOL    HW124324   0.803   6.391   7.768
 2394SOL    HW224325   0.781   6.485   7.651
 2395SOL     OW24326   2.366   0.751   6.491
 2395SOL    HW124327   2.344   0.774   6.401
 2395SOL    HW224328   2.460   0.731   6.489
 2396SOL     OW24329   3.180   4.600   6.658
 2396SOL    HW124330   3.153   4.692   6.654
 2396SOL    HW224331   3.120   4.556   6.598
 2397SOL     OW24332   4.211   0.640   0.480
 2397SOL    HW124333   4.185   0.563   0.531
 2397SOL    HW224334   4.129   0.683   0.456
 2398SOL     OW24335   2.958   6.343   6.203
 2398SOL    HW124336   2.891   6.312   6.265
 2398SOL    HW224337   2.924   6.427   6.171
 2399SOL     OW24338   2.803   4.482   2.177
 2399SOL    HW124339   2.719   4.523   2.197
 2399SOL    HW224340   2.795   4.393   2.213
 2400SOL     OW24341   5.229   3.934   0.558
 2400SOL    HW124342   5.139   3.935   0.525
 2400SOL    HW224343   5.252   4.027   0.566
 2401SOL     OW24344   3.848   0.923   6.896
 2401SOL    HW124345   3.919   0.985   6.886
 2401SOL    HW224346   3.871   0.850   6.837
 2402SOL     OW24347   5.398   5.120   7.298
 2402SOL    HW124348   5.425   5.198   7.249
 2402SOL    HW224349   5.313   5.143   7.335
 2403SOL     OW24350   5.575   3.239   6.920
 2403SOL    HW124351   5.574   3.176   6.848
 2403SOL    HW224352   5.607   3.320   6.880
 2404SOL     OW24353   0.618   5.438   0.531
 2404SOL    HW124354   0.664   5.359   0.558
 2404SOL    HW224355   0.551   5.451   0.598
 2405SOL     OW24356   5.024   3.216   7.474
 2405SOL    HW124357   5.068   3.298   7.498
 2405SOL    HW224358   5.012   3.222   7.380
 2406SOL     OW24359   1.013   1.267   0.896
 2406SOL    HW124360   1.026   1.330   0.967
 2406SOL    HW224361   1.086   1.284   0.836
 2407SOL     OW24362   1.895   1.180   1.169
 2407SOL    HW124363   1.868   1.257   1.219
 2407SOL    HW224364   1.985   1.197   1.145
 2408SOL     OW24365   5.327   2.414   2.582
 2408SOL    HW124366   5.279   2.383   2.659
 2408SOL    HW224367   5.272   2.483   2.546
 2409SOL     OW24368   0.131   5.133   6.879
 2409SOL    HW124369   0.128   5.167   6.968
 2409SOL    HW224370   0.221   5.102   6.868
 2410SOL     OW24371   6.030   3.411   6.231
 2410SOL    HW124372   5.992   3.388   6.146
 2410SOL    HW224373   5.978   3.361   6.295
 2411SOL     OW24374   1.814   3.448   6.376
 2411SOL    HW124375   1.721   3.461   6.356
 2411SOL    HW224376   1.848   3.397   6.302
 2412SOL     OW24377   2.941   0.238   7.247
 2412SOL    HW124378   2.847   0.219   7.248
 2412SOL    HW224379   2.969   0.212   7.159
 2413SOL     OW24380   6.391   2.557   1.878
 2413SOL    HW124381   6.463   2.529   1.935
 2413SOL    HW224382   6.396   2.652   1.879
 2414SOL     OW24383   2.977   0.403   7.615
 2414SOL    HW124384   2.897   0.353   7.596
 2414SOL    HW224385   3.024   0.348   7.678
 2415SOL     OW24386   5.387   2.064   0.738
 2415SOL    HW124387   5.428   2.062   0.651
 2415SOL    HW224388   5.308   2.011   0.727
 2416SOL     OW24389   1.086   4.008   5.813
 2416SOL    HW124390   1.097   4.103   5.806
 2416SOL    HW224391   1.166   3.977   5.855
 2417SOL     OW24392   2.666   1.309   0.740
 2417SOL    HW124393   2.696   1.254   0.668
 2417SOL    HW224394   2.655   1.248   0.814
 2418SOL     OW24395   3.730   1.394   0.551
 2418SOL    HW124396   3.776   1.364   0.473
 2418SOL    HW224397   3.639   1.406   0.523
 2419SOL     OW24398   1.941   2.623   5.961
 2419SOL    HW124399   1.857   2.617   5.917
 2419SOL    HW224400   1.922   2.669   6.043
 2420SOL     OW24401   5.277   3.994   7.023
 2420SOL    HW124402   5.239   4.082   7.014
 2420SOL    HW224403   5.361   3.999   6.979
 2421SOL     OW24404   1.365   2.761   2.497
 2421SOL    HW124405   1.283   2.715   2.475
 2421SOL    HW224406   1.352   2.849   2.462
 2422SOL     OW24407   3.689   2.240   0.803
 2422SOL    HW124408   3.664   2.237   0.711
 2422SOL    HW224409   3.773   2.284   0.804
 2423SOL     OW24410   6.175   2.945   0.124
 2423SOL    HW124411   6.137   2.894   0.052
 2423SOL    HW224412   6.101   2.994   0.160
 2424SOL     OW24413   2.269   1.266   5.840
 2424SOL    HW124414   2.262   1.219   5.757
 2424SOL    HW224415   2.347   1.322   5.829
 2425SOL     OW24416   3.989   3.264   0.772
 2425SOL    HW124417   3.909   3.265   0.720
 2425SOL    HW224418   4.036   3.342   0.745
 2426SOL     OW24419   3.824   0.057   1.154
 2426SOL    HW124420   3.737   0.078   1.186
 2426SOL    HW224421   3.817  -0.034   1.124
 2427SOL     OW24422   1.884   0.807   6.203
 2427SOL    HW124423   1.873   0.812   6.108
 2427SOL    HW224424   1.953   0.742   6.216
 2428SOL     OW24425   3.418   2.072   2.644
 2428SOL    HW124426   3.476   2.100   2.574
 2428SOL    HW224427   3.395   1.982   2.622
 2429SOL     OW24428   6.072   2.673   5.798
 2429SOL    HW124429   6.122   2.679   5.880
 2429SOL    HW224430   6.105   2.746   5.745
 2430SOL     OW24431   5.603   2.704   6.508
 2430SOL    HW124432   5.617   2.773   6.443
 2430SOL    HW224433   5.520   2.663   6.483
 2431SOL     OW24434   4.792   3.302   6.684
 2431SOL    HW124435   4.826   3.303   6.774
 2431SOL    HW224436   4.750   3.217   6.675
 2432SOL     OW24437   1.560   4.051   0.332
 2432SOL    HW124438   1.638   3.995   0.330
 2432SOL    HW224439   1.489   3.993   0.305
 2433SOL     OW24440   5.523   2.362   1.542
 2433SOL    HW124441   5.499   2.365   1.450
 2433SOL    HW224442   5.441   2.340   1.588
 2434SOL     OW24443   3.621   5.372   0.852
 2434SOL    HW124444   3.609   5.284   0.888
 2434SOL    HW224445   3.710   5.370   0.815
 2435SOL     OW24446   3.631   5.145   1.930
 2435SOL    HW124447   3.678   5.065   1.952
 2435SOL    HW224448   3.592   5.127   1.844
 2436SOL     OW24449   2.378   2.939   7.101
 2436SOL    HW124450   2.427   2.920   7.181
 2436SOL    HW224451   2.363   3.034   7.104
 2437SOL     OW24452   2.352   6.238   0.484
 2437SOL    HW124453   2.273   6.203   0.526
 2437SOL    HW224454   2.423   6.184   0.518
 2438SOL     OW24455   3.787   1.038   6.436
 2438SOL    HW124456   3.708   0.985   6.424
 2438SOL    HW224457   3.754   1.124   6.461
 2439SOL     OW24458   2.175   2.714   2.303
 2439SOL    HW124459   2.219   2.737   2.221
 2439SOL    HW224460   2.246   2.704   2.367
 2440SOL     OW24461   3.466   0.024   1.464
 2440SOL    HW124462   3.545  -0.027   1.446
 2440SOL    HW224463   3.478   0.105   1.414
 2441SOL     OW24464   4.158   3.731   7.093
 2441SOL    HW124465   4.068   3.754   7.072
 2441SOL    HW224466   4.194   3.809   7.136
 2442SOL     OW24467   2.085   2.420   5.730
 2442SOL    HW124468   1.994   2.391   5.736
 2442SOL    HW224469   2.079   2.513   5.705
 2443SOL     OW24470   0.734   0.392   2.351
 2443SOL    HW124471   0.691   0.386   2.266
 2443SOL    HW224472   0.689   0.464   2.396
 2444SOL     OW24473   5.804   0.124   0.250
 2444SOL    HW124474   5.791   0.217   0.269
 2444SOL    HW224475   5.834   0.122   0.159
 2445SOL     OW24476   0.516   6.134   0.304
 2445SOL    HW124477   0.604   6.155   0.271
 2445SOL    HW224478   0.510   6.038   0.296
 2446SOL     OW24479   4.467   5.265   0.764
 2446SOL    HW124480   4.415   5.188   0.786
 2446SOL    HW224481   4.539   5.264   0.827
 2447SOL     OW24482   5.505   0.157   6.805
 2447SOL    HW124483   5.435   0.151   6.870
 2447SOL    HW224484   5.462   0.195   6.728
 2448SOL     OW24485   1.357   1.776   7.591
 2448SOL    HW124486   1.272   1.734   7.606
 2448SOL    HW224487   1.397   1.724   7.521
 2449SOL     OW24488   6.122   4.559   6.258
 2449SOL    HW124489   6.189   4.579   6.193
 2449SOL    HW224490   6.084   4.644   6.280
 2450SOL     OW24491   5.861   4.065   7.478
 2450SOL    HW124492   5.929   4.124   7.447
 2450SOL    HW224493   5.790   4.122   7.507
 2451SOL     OW24494   2.153   2.187   7.429
 2451SOL    HW124495   2.151   2.232   7.513
 2451SOL    HW224496   2.122   2.099   7.448
 2452SOL     OW24497   2.902   4.507   7.049
 2452SOL    HW124498   2.849   4.553   6.984
 2452SOL    HW224499   2.842   4.492   7.122
 2453SOL     OW24500   0.004   3.546   1.966
 2453SOL    HW124501   0.079   3.587   2.011
 2453SOL    HW224502  -0.073   3.583   2.009
 2454SOL     OW24503   0.632   6.016   6.518
 2454SOL    HW124504   0.698   6.070   6.475
 2454SOL    HW224505   0.549   6.041   6.477
 2455SOL     OW24506   4.727   5.200   6.149
 2455SOL    HW124507   4.633   5.186   6.151
 2455SOL    HW224508   4.757   5.177   6.237
 2456SOL     OW24509   4.059   3.914   0.101
 2456SOL    HW124510   4.052   3.933   0.007
 2456SOL    HW224511   3.974   3.939   0.137
 2457SOL     OW24512   1.709   5.368   0.323
 2457SOL    HW124513   1.695   5.371   0.418
 2457SOL    HW224514   1.718   5.459   0.296
 2458SOL     OW24515   4.022   3.642   0.715
 2458SOL    HW124516   4.074   3.708   0.668
 2458SOL    HW224517   3.937   3.683   0.727
 2459SOL     OW24518   1.751   3.907   7.203
 2459SOL    HW124519   1.846   3.902   7.198
 2459SOL    HW224520   1.729   3.993   7.167
 2460SOL     OW24521   0.207   4.212   1.049
 2460SOL    HW124522   0.239   4.165   1.126
 2460SOL    HW224523   0.262   4.181   0.977
 2461SOL     OW24524   5.673   1.855   0.479
 2461SOL    HW124525   5.679   1.951   0.478
 2461SOL    HW224526   5.624   1.833   0.400
 2462SOL     OW24527   3.631   6.102   7.406
 2462SOL    HW124528   3.618   6.152   7.326
 2462SOL    HW224529   3.709   6.049   7.389
 2463SOL     OW24530   3.137   4.053   1.333
 2463SOL    HW124531   3.107   3.989   1.397
 2463SOL    HW224532   3.057   4.088   1.294
 2464SOL     OW24533   2.040   5.356   0.137
 2464SOL    HW124534   1.962   5.305   0.117
 2464SOL    HW224535   2.012   5.447   0.131
 2465SOL     OW24536   1.719   5.012   6.386
 2465SOL    HW124537   1.809   5.046   6.393
 2465SOL    HW224538   1.674   5.075   6.330
 2466SOL     OW24539   0.021   2.359   1.084
 2466SOL    HW124540  -0.074   2.358   1.099
 2466SOL    HW224541   0.053   2.427   1.143
 2467SOL     OW24542   0.764   2.375   6.341
 2467SOL    HW124543   0.778   2.298   6.285
 2467SOL    HW224544   0.730   2.340   6.423
 2468SOL     OW24545   5.675   6.162   5.552
 2468SOL    HW124546   5.683   6.226   5.622
 2468SOL    HW224547   5.669   6.215   5.472
 2469SOL     OW24548   4.260   1.890   7.002
 2469SOL    HW124549   4.210   1.942   7.064
 2469SOL    HW224550   4.287   1.813   7.051
 2470SOL     OW24551   6.309   5.973   6.626
 2470SOL    HW124552   6.352   6.005   6.547
 2470SOL    HW224553   6.220   6.006   6.621
 2471SOL     OW24554   0.475   6.028   1.909
 2471SOL    HW124555   0.527   6.108   1.898
 2471SOL    HW224556   0.407   6.034   1.842
 2472SOL     OW24557   4.322   4.706   5.637
 2472SOL    HW124558   4.414   4.720   5.612
 2472SOL    HW224559   4.322   4.622   5.682
 2473SOL     OW24560   2.434   5.734   0.586
 2473SOL    HW124561   2.511   5.780   0.620
 2473SOL    HW224562   2.439   5.748   0.491
 2474SOL     OW24563   4.196   4.252   0.524
 2474SOL    HW124564   4.262   4.182   0.522
 2474SOL    HW224565   4.189   4.279   0.432
 2475SOL     OW24566   3.144   1.015   7.031
 2475SOL    HW124567   3.088   0.941   7.007
 2475SOL    HW224568   3.112   1.088   6.977
 2476SOL     OW24569   1.542   5.734   1.227
 2476SOL    HW124570   1.581   5.814   1.191
 2476SOL    HW224571   1.558   5.740   1.321
 2477SOL     OW24572   0.743   0.816   7.605
 2477SOL    HW124573   0.672   0.840   7.546
 2477SOL    HW224574   0.720   0.858   7.688
 2478SOL     OW24575   5.654   4.187   7.609
 2478SOL    HW124576   5.654   4.282   7.598
 2478SOL    HW224577   5.565   4.165   7.635
 2479SOL     OW24578   4.806   1.665   7.759
 2479SOL    HW124579   4.804   1.570   7.761
 2479SOL    HW224580   4.742   1.689   7.693
 2480SOL     OW24581   5.347   1.010   6.796
 2480SOL    HW124582   5.331   0.925   6.836
 2480SOL    HW224583   5.406   0.991   6.723
 2481SOL     OW24584   4.848   1.727   1.776
 2481SOL    HW124585   4.798   1.809   1.773
 2481SOL    HW224586   4.848   1.702   1.868
 2482SOL     OW24587   3.582   4.802   7.415
 2482SOL    HW124588   3.636   4.860   7.361
 2482SOL    HW224589   3.526   4.861   7.465
 2483SOL     OW24590   2.645   2.710   0.873
 2483SOL    HW124591   2.614   2.631   0.828
 2483SOL    HW224592   2.568   2.741   0.921
 2484SOL     OW24593   0.399   4.558   5.968
 2484SOL    HW124594   0.311   4.550   5.931
 2484SOL    HW224595   0.432   4.469   5.969
 2485SOL     OW24596   2.262   0.895   0.065
 2485SOL    HW124597   2.287   0.977   0.109
 2485SOL    HW224598   2.302   0.903  -0.022
 2486SOL     OW24599   5.297   3.626   6.438
 2486SOL    HW124600   5.276   3.569   6.363
 2486SOL    HW224601   5.215   3.672   6.456
 2487SOL     OW24602   5.271   6.006   0.803
 2487SOL    HW124603   5.240   6.009   0.713
 2487SOL    HW224604   5.367   6.013   0.795
 2488SOL     OW24605   5.175   2.202   2.716
 2488SOL    HW124606   5.211   2.200   2.804
 2488SOL    HW224607   5.179   2.111   2.686
 2489SOL     OW24608   5.423   0.798   1.354
 2489SOL    HW124609   5.464   0.838   1.277
 2489SOL    HW224610   5.356   0.860   1.381
 2490SOL     OW24611   0.106   3.926   0.855
 2490SOL    HW124612   0.126   3.857   0.918
 2490SOL    HW224613   0.016   3.907   0.827
 2491SOL     OW24614   1.045   3.432   7.416
 2491SOL    HW124615   1.112   3.477   7.466
 2491SOL    HW224616   1.076   3.341   7.409
 2492SOL     OW24617   6.459   4.929   7.371
 2492SOL    HW124618   6.366   4.923   7.351
 2492SOL    HW224619   6.463   4.926   7.467
 2493SOL     OW24620   0.829   6.254   5.772
 2493SOL    HW124621   0.762   6.288   5.713
 2493SOL    HW224622   0.904   6.234   5.716
 2494SOL     OW24623   5.538   3.450   1.149
 2494SOL    HW124624   5.613   3.395   1.173
 2494SOL    HW224625   5.473   3.388   1.115
 2495SOL     OW24626   2.719   0.228   0.217
 2495SOL    HW124627   2.676   0.179   0.287
 2495SOL    HW224628   2.735   0.163   0.148
 2496SOL     OW24629   3.358   4.044   7.289
 2496SOL    HW124630   3.267   4.015   7.292
 2496SOL    HW224631   3.374   4.064   7.197
 2497SOL     OW24632   1.579   1.496   0.941
 2497SOL    HW124633   1.648   1.473   0.879
 2497SOL    HW224634   1.622   1.494   1.027
 2498SOL     OW24635   6.339   3.667   6.360
 2498SOL    HW124636   6.380   3.625   6.285
 2498SOL    HW224637   6.251   3.690   6.329
 2499SOL     OW24638   5.294   6.270   1.359
 2499SOL    HW124639   5.366   6.307   1.308
 2499SOL    HW224640   5.320   6.180   1.376
 2500SOL     OW24641   2.518   1.284   1.849
 2500SOL    HW124642   2.494   1.350   1.784
 2500SOL    HW224643   2.589   1.324   1.900
 2501SOL     OW24644   3.774   3.742   0.740
 2501SOL    HW124645   3.698   3.702   0.782
 2501SOL    HW224646   3.754   3.836   0.739
 2502SOL     OW24647   3.702   1.306   6.470
 2502SOL    HW124648   3.630   1.346   6.420
 2502SOL    HW224649   3.722   1.371   6.538
 2503SOL     OW24650   0.680   3.266   1.171
 2503SOL    HW124651   0.684   3.288   1.264
 2503SOL    HW224652   0.765   3.229   1.151
 2504SOL     OW24653   2.869   5.530   5.600
 2504SOL    HW124654   2.787   5.573   5.624
 2504SOL    HW224655   2.866   5.445   5.644
 2505SOL     OW24656   0.741   1.340   2.251
 2505SOL    HW124657   0.790   1.395   2.190
 2505SOL    HW224658   0.793   1.260   2.259
 2506SOL     OW24659   0.900   2.720   6.613
 2506SOL    HW124660   0.970   2.682   6.666
 2506SOL    HW224661   0.926   2.811   6.601
 2507SOL     OW24662   1.340   3.612   1.116
 2507SOL    HW124663   1.367   3.665   1.041
 2507SOL    HW224664   1.271   3.555   1.082
 2508SOL     OW24665   0.339   2.188   6.874
 2508SOL    HW124666   0.297   2.154   6.954
 2508SOL    HW224667   0.409   2.126   6.856
 2509SOL     OW24668   1.470   5.206   5.683
 2509SOL    HW124669   1.556   5.228   5.718
 2509SOL    HW224670   1.409   5.263   5.729
 2510SOL     OW24671   1.435   2.801   5.583
 2510SOL    HW124672   1.427   2.795   5.678
 2510SOL    HW224673   1.351   2.837   5.554
 2511SOL     OW24674   2.763   5.633   0.734
 2511SOL    HW124675   2.725   5.545   0.743
 2511SOL    HW224676   2.816   5.628   0.655
 2512SOL     OW24677   2.867   2.817   0.757
 2512SOL    HW124678   2.917   2.753   0.806
 2512SOL    HW224679   2.776   2.802   0.783
 2513SOL     OW24680   6.368   2.242   6.856
 2513SOL    HW124681   6.294   2.302   6.867
 2513SOL    HW224682   6.365   2.186   6.933
 2514SOL     OW24683   2.133   5.739   7.589
 2514SOL    HW124684   2.109   5.780   7.672
 2514SOL    HW224685   2.187   5.804   7.544
 2515SOL     OW24686   2.215   1.871   0.208
 2515SOL    HW124687   2.143   1.809   0.199
 2515SOL    HW224688   2.291   1.818   0.231
 2516SOL     OW24689   3.837   4.685   1.603
 2516SOL    HW124690   3.789   4.767   1.612
 2516SOL    HW224691   3.924   4.711   1.571
 2517SOL     OW24692   1.054   3.306   6.827
 2517SOL    HW124693   1.115   3.298   6.900
 2517SOL    HW224694   1.097   3.364   6.765
 2518SOL     OW24695   4.470   1.180   1.873
 2518SOL    HW124696   4.558   1.165   1.838
 2518SOL    HW224697   4.486   1.222   1.958
 2519SOL     OW24698   0.836   1.389   1.797
 2519SOL    HW124699   0.875   1.429   1.875
 2519SOL    HW224700   0.757   1.440   1.781
 2520SOL     OW24701   2.224   3.931   0.645
 2520SOL    HW124702   2.229   4.013   0.596
 2520SOL    HW224703   2.278   3.945   0.722
 2521SOL     OW24704   2.283   4.925   7.551
 2521SOL    HW124705   2.306   4.843   7.594
 2521SOL    HW224706   2.312   4.993   7.611
 2522SOL     OW24707   6.240   6.329   5.985
 2522SOL    HW124708   6.311   6.292   6.037
 2522SOL    HW224709   6.237   6.273   5.907
 2523SOL     OW24710   0.812   6.310   7.298
 2523SOL    HW124711   0.737   6.345   7.249
 2523SOL    HW224712   0.775   6.247   7.359
 2524SOL     OW24713   2.915   1.591   6.955
 2524SOL    HW124714   2.923   1.527   7.026
 2524SOL    HW224715   2.849   1.554   6.896
 2525SOL     OW24716   2.339   2.740   0.758
 2525SOL    HW124717   2.363   2.832   0.748
 2525SOL    HW224718   2.297   2.717   0.676
 2526SOL     OW24719   1.851   5.634   1.705
 2526SOL    HW124720   1.774   5.690   1.716
 2526SOL    HW224721   1.883   5.617   1.793
 2527SOL     OW24722   0.496   4.352   0.667
 2527SOL    HW124723   0.440   4.286   0.626
 2527SOL    HW224724   0.438   4.426   0.683
 2528SOL     OW24725   1.266   0.684   1.524
 2528SOL    HW124726   1.264   0.604   1.576
 2528SOL    HW224727   1.355   0.688   1.489
 2529SOL     OW24728   4.045   0.487   6.739
 2529SOL    HW124729   4.070   0.572   6.702
 2529SOL    HW224730   3.972   0.509   6.798
 2530SOL     OW24731   4.827   5.816   1.716
 2530SOL    HW124732   4.918   5.823   1.743
 2530SOL    HW224733   4.792   5.745   1.770
 2531SOL     OW24734   3.236   0.395   1.111
 2531SOL    HW124735   3.253   0.486   1.136
 2531SOL    HW224736   3.232   0.347   1.194
 2532SOL     OW24737   3.924   0.743   0.452
 2532SOL    HW124738   3.907   0.745   0.546
 2532SOL    HW224739   3.847   0.699   0.415
 2533SOL     OW24740   2.573   1.306   0.212
 2533SOL    HW124741   2.624   1.274   0.286
 2533SOL    HW224742   2.606   1.257   0.137
 2534SOL     OW24743   3.365   1.993   0.426
 2534SOL    HW124744   3.421   1.951   0.360
 2534SOL    HW224745   3.380   1.942   0.505
 2535SOL     OW24746   3.120   5.839   6.324
 2535SOL    HW124747   3.185   5.902   6.294
 2535SOL    HW224748   3.036   5.882   6.308
 2536SOL     OW24749   6.246   4.519   5.860
 2536SOL    HW124750   6.249   4.599   5.808
 2536SOL    HW224751   6.250   4.549   5.951
 2537SOL     OW24752   1.359   1.394   1.054
 2537SOL    HW124753   1.443   1.433   1.031
 2537SOL    HW224754   1.338   1.337   0.980
 2538SOL     OW24755   3.712   2.210   6.738
 2538SOL    HW124756   3.726   2.120   6.709
 2538SOL    HW224757   3.791   2.257   6.711
 2539SOL     OW24758   4.313   3.349   0.220
 2539SOL    HW124759   4.315   3.305   0.135
 2539SOL    HW224760   4.249   3.300   0.272
 2540SOL     OW24761   2.527   5.040   7.198
 2540SOL    HW124762   2.535   5.015   7.291
 2540SOL    HW224763   2.450   4.994   7.167
 2541SOL     OW24764   6.107   1.227   6.817
 2541SOL    HW124765   6.013   1.216   6.832
 2541SOL    HW224766   6.117   1.317   6.787
 2542SOL     OW24767   0.743   5.435   0.095
 2542SOL    HW124768   0.812   5.368   0.089
 2542SOL    HW224769   0.674   5.403   0.037
 2543SOL     OW24770   5.332   6.401   1.808
 2543SOL    HW124771   5.259   6.430   1.753
 2543SOL    HW224772   5.410   6.417   1.754
 2544SOL     OW24773   1.000   1.613   6.688
 2544SOL    HW124774   0.977   1.614   6.595
 2544SOL    HW224775   0.980   1.523   6.717
 2545SOL     OW24776   3.178   1.569   0.588
 2545SOL    HW124777   3.131   1.590   0.669
 2545SOL    HW224778   3.223   1.651   0.565
 2546SOL     OW24779   5.017   2.307   7.526
 2546SOL    HW124780   4.973   2.223   7.513
 2546SOL    HW224781   4.989   2.335   7.614
 2547SOL     OW24782   2.380   2.869   0.287
 2547SOL    HW124783   2.450   2.804   0.281
 2547SOL    HW224784   2.409   2.941   0.230
 2548SOL     OW24785   4.847   5.859   1.449
 2548SOL    HW124786   4.789   5.935   1.441
 2548SOL    HW224787   4.838   5.832   1.541
 2549SOL     OW24788   1.769   2.552   1.298
 2549SOL    HW124789   1.827   2.523   1.369
 2549SOL    HW224790   1.810   2.519   1.218
 2550SOL     OW24791   3.020   1.279   0.369
 2550SOL    HW124792   3.059   1.271   0.455
 2550SOL    HW224793   3.054   1.362   0.335
 2551SOL     OW24794   6.025   2.198   1.066
 2551SOL    HW124795   5.982   2.187   0.981
 2551SOL    HW224796   5.955   2.229   1.124
 2552SOL     OW24797   4.391   4.626   2.832
 2552SOL    HW124798   4.455   4.690   2.802
 2552SOL    HW224799   4.384   4.641   2.926
 2553SOL     OW24800   3.242   0.137   0.664
 2553SOL    HW124801   3.179   0.105   0.600
 2553SOL    HW224802   3.193   0.201   0.716
 2554SOL     OW24803   5.538   2.891   0.532
 2554SOL    HW124804   5.585   2.916   0.452
 2554SOL    HW224805   5.460   2.846   0.501
 2555SOL     OW24806   5.586   3.649   6.090
 2555SOL    HW124807   5.605   3.691   6.005
 2555SOL    HW224808   5.629   3.564   6.084
 2556SOL     OW24809   1.307   3.194   1.285
 2556SOL    HW124810   1.265   3.175   1.369
 2556SOL    HW224811   1.400   3.200   1.305
 2557SOL     OW24812   5.320   5.498   6.267
 2557SOL    HW124813   5.364   5.500   6.352
 2557SOL    HW224814   5.386   5.530   6.205
 2558SOL     OW24815   1.379   5.166   2.161
 2558SOL    HW124816   1.367   5.229   2.090
 2558SOL    HW224817   1.474   5.159   2.170
 2559SOL     OW24818   5.208   2.647   0.490
 2559SOL    HW124819   5.243   2.649   0.401
 2559SOL    HW224820   5.118   2.678   0.481
 2560SOL     OW24821   5.309   5.181   0.596
 2560SOL    HW124822   5.217   5.204   0.607
 2560SOL    HW224823   5.317   5.095   0.637
 2561SOL     OW24824   3.139   3.808   1.435
 2561SOL    HW124825   3.127   3.715   1.418
 2561SOL    HW224826   3.190   3.811   1.516
 2562SOL     OW24827   0.995   6.293   7.103
 2562SOL    HW124828   0.937   6.254   7.169
 2562SOL    HW224829   1.083   6.273   7.135
 2563SOL     OW24830   5.771   3.687   7.374
 2563SOL    HW124831   5.676   3.699   7.375
 2563SOL    HW224832   5.790   3.637   7.453
 2564SOL     OW24833   0.174   3.353   0.711
 2564SOL    HW124834   0.208   3.373   0.799
 2564SOL    HW224835   0.124   3.431   0.687
 2565SOL     OW24836   6.159   5.585   1.836
 2565SOL    HW124837   6.109   5.667   1.834
 2565SOL    HW224838   6.180   5.572   1.929
 2566SOL     OW24839   5.168   2.198   6.797
 2566SOL    HW124840   5.131   2.269   6.849
 2566SOL    HW224841   5.220   2.241   6.730
 2567SOL     OW24842   1.792   0.873   7.008
 2567SOL    HW124843   1.876   0.836   7.034
 2567SOL    HW224844   1.815   0.951   6.956
 2568SOL     OW24845   2.013   5.820   6.105
 2568SOL    HW124846   1.970   5.741   6.071
 2568SOL    HW224847   1.942   5.869   6.147
 2569SOL     OW24848   6.041   2.014   0.571
 2569SOL    HW124849   6.008   2.080   0.632
 2569SOL    HW224850   6.034   1.931   0.618
 2570SOL     OW24851   4.823   2.364   7.045
 2570SOL    HW124852   4.810   2.459   7.049
 2570SOL    HW224853   4.751   2.328   7.096
 2571SOL     OW24854   4.995   2.949   1.260
 2571SOL    HW124855   4.910   2.979   1.227
 2571SOL    HW224856   4.977   2.861   1.295
 2572SOL     OW24857   5.323   1.534   7.302
 2572SOL    HW124858   5.269   1.609   7.327
 2572SOL    HW224859   5.331   1.540   7.207
 2573SOL     OW24860   2.151   1.680   1.978
 2573SOL    HW124861   2.102   1.598   1.986
 2573SOL    HW224862   2.103   1.742   2.032
 2574SOL     OW24863   6.135   4.558   0.914
 2574SOL    HW124864   6.112   4.466   0.927
 2574SOL    HW224865   6.099   4.602   0.991
 2575SOL     OW24866   3.958   0.741   0.728
 2575SOL    HW124867   3.942   0.772   0.817
 2575SOL    HW224868   4.033   0.793   0.697
 2576SOL     OW24869   4.996   0.708   7.226
 2576SOL    HW124870   4.996   0.803   7.237
 2576SOL    HW224871   5.084   0.681   7.253
 2577SOL     OW24872   5.366   3.084   7.415
 2577SOL    HW124873   5.278   3.065   7.382
 2577SOL    HW224874   5.401   3.148   7.353
 2578SOL     OW24875   6.160   1.335   7.067
 2578SOL    HW124876   6.126   1.256   7.025
 2578SOL    HW224877   6.230   1.304   7.124
 2579SOL     OW24878   3.758   0.979   2.279
 2579SOL    HW124879   3.663   0.981   2.279
 2579SOL    HW224880   3.783   1.036   2.206
 2580SOL     OW24881   2.615   1.487   7.492
 2580SOL    HW124882   2.536   1.516   7.445
 2580SOL    HW224883   2.607   1.525   7.579
 2581SOL     OW24884   0.039   4.744   1.544
 2581SOL    HW124885   0.103   4.815   1.546
 2581SOL    HW224886  -0.018   4.760   1.619
 2582SOL     OW24887   0.738   0.943   1.801
 2582SOL    HW124888   0.711   0.862   1.758
 2582SOL    HW224889   0.707   1.013   1.743
 2583SOL     OW24890   0.344   3.204   0.512
 2583SOL    HW124891   0.312   3.240   0.429
 2583SOL    HW224892   0.365   3.280   0.565
 2584SOL     OW24893   5.556   3.409   0.763
 2584SOL    HW124894   5.477   3.359   0.783
 2584SOL    HW224895   5.622   3.377   0.824
 2585SOL     OW24896   4.824   3.336   0.114
 2585SOL    HW124897   4.737   3.302   0.096
 2585SOL    HW224898   4.884   3.275   0.072
 2586SOL     OW24899   6.358   1.457   0.798
 2586SOL    HW124900   6.308   1.383   0.830
 2586SOL    HW224901   6.327   1.531   0.850
 2587SOL     OW24902   2.147   5.227   0.383
 2587SOL    HW124903   2.129   5.277   0.304
 2587SOL    HW224904   2.120   5.137   0.361
 2588SOL     OW24905   2.684   2.932   1.141
 2588SOL    HW124906   2.741   2.875   1.192
 2588SOL    HW224907   2.735   2.955   1.064
 2589SOL     OW24908   5.079   5.159   7.094
 2589SOL    HW124909   5.117   5.243   7.067
 2589SOL    HW224910   5.129   5.134   7.171
 2590SOL     OW24911   6.203   0.359   6.985
 2590SOL    HW124912   6.164   0.324   6.906
 2590SOL    HW224913   6.138   0.421   7.019
 2591SOL     OW24914   3.302   4.593   0.756
 2591SOL    HW124915   3.207   4.578   0.756
 2591SOL    HW224916   3.337   4.524   0.812
 2592SOL     OW24917   4.756   5.464   2.422
 2592SOL    HW124918   4.666   5.432   2.413
 2592SOL    HW224919   4.749   5.559   2.410
 2593SOL     OW24920   0.119   5.846   1.178
 2593SOL    HW124921   0.215   5.847   1.177
 2593SOL    HW224922   0.096   5.757   1.204
 2594SOL     OW24923   4.108   1.170   0.261
 2594SOL    HW124924   4.170   1.127   0.202
 2594SOL    HW224925   4.096   1.108   0.332
 2595SOL     OW24926   2.698   4.398   0.704
 2595SOL    HW124927   2.735   4.353   0.628
 2595SOL    HW224928   2.767   4.394   0.770
 2596SOL     OW24929   1.603   3.684   6.218
 2596SOL    HW124930   1.563   3.604   6.185
 2596SOL    HW224931   1.564   3.754   6.166
 2597SOL     OW24932   3.478   4.186   6.299
 2597SOL    HW124933   3.475   4.126   6.224
 2597SOL    HW224934   3.489   4.130   6.375
 2598SOL     OW24935   5.727   3.853   6.528
 2598SOL    HW124936   5.636   3.840   6.556
 2598SOL    HW224937   5.779   3.831   6.605
 2599SOL     OW24938   0.961   2.696   1.560
 2599SOL    HW124939   0.932   2.783   1.588
 2599SOL    HW224940   1.007   2.661   1.636
 2600SOL     OW24941   5.871   4.333   6.131
 2600SOL    HW124942   5.958   4.332   6.092
 2600SOL    HW224943   5.818   4.385   6.070
 2601SOL     OW24944   0.723   6.285   6.857
 2601SOL    HW124945   0.801   6.326   6.894
 2601SOL    HW224946   0.741   6.191   6.860
 2602SOL     OW24947   0.196   1.492   6.352
 2602SOL    HW124948   0.138   1.568   6.353
 2602SOL    HW224949   0.284   1.529   6.345
 2603SOL     OW24950   3.341   1.360   6.569
 2603SOL    HW124951   3.267   1.365   6.630
 2603SOL    HW224952   3.417   1.385   6.622
 2604SOL     OW24953   3.828   6.014   1.127
 2604SOL    HW124954   3.905   5.985   1.175
 2604SOL    HW224955   3.758   6.014   1.192
 2605SOL     OW24956   5.984   5.571   6.712
 2605SOL    HW124957   6.004   5.623   6.790
 2605SOL    HW224958   5.994   5.633   6.639
 2606SOL     OW24959   5.268   4.514   1.715
 2606SOL    HW124960   5.295   4.605   1.710
 2606SOL    HW224961   5.323   4.477   1.784
 2607SOL     OW24962   5.699   4.398   1.889
 2607SOL    HW124963   5.777   4.370   1.840
 2607SOL    HW224964   5.698   4.493   1.880
 2608SOL     OW24965   6.283   0.476   1.803
 2608SOL    HW124966   6.356   0.524   1.841
 2608SOL    HW224967   6.251   0.420   1.874
 2609SOL     OW24968   4.377   3.284   0.651
 2609SOL    HW124969   4.406   3.249   0.734
 2609SOL    HW224970   4.345   3.208   0.602
 2610SOL     OW24971   1.701   5.238   6.854
 2610SOL    HW124972   1.636   5.169   6.871
 2610SOL    HW224973   1.784   5.190   6.844
 2611SOL     OW24974   2.133   0.105   7.574
 2611SOL    HW124975   2.128   0.112   7.669
 2611SOL    HW224976   2.044   0.123   7.544
 2612SOL     OW24977   3.435   4.200   1.137
 2612SOL    HW124978   3.399   4.114   1.159
 2612SOL    HW224979   3.380   4.262   1.185
 2613SOL     OW24980   4.787   3.663   0.217
 2613SOL    HW124981   4.851   3.594   0.234
 2613SOL    HW224982   4.741   3.673   0.300
 2614SOL     OW24983   3.493   5.527   0.185
 2614SOL    HW124984   3.566   5.529   0.247
 2614SOL    HW224985   3.416   5.510   0.239
 2615SOL     OW24986   0.078   2.864   6.690
 2615SOL    HW124987   0.037   2.916   6.620
 2615SOL    HW224988   0.160   2.910   6.708
 2616SOL     OW24989   4.920   1.945   1.541
 2616SOL    HW124990   4.985   1.909   1.600
 2616SOL    HW224991   4.845   1.966   1.597
 2617SOL     OW24992   4.690   0.286   0.425
 2617SOL    HW124993   4.714   0.374   0.454
 2617SOL    HW224994   4.697   0.290   0.329
 2618SOL     OW24995   0.292   4.787   1.188
 2618SOL    HW124996   0.278   4.874   1.225
 2618SOL    HW224997   0.368   4.798   1.130
 2619SOL     OW24998   3.935   5.212   6.459
 2619SOL    HW124999   3.932   5.139   6.521
 2619SOL    HW225000   3.847   5.215   6.421
 2620SOL     OW25001   4.137   0.497   5.492
 2620SOL    HW125002   4.077   0.478   5.565
 2620SOL    HW225003   4.178   0.414   5.471
 2621SOL     OW25004   2.575   0.088   1.368
 2621SOL    HW125005   2.669   0.103   1.360
 2621SOL    HW225006   2.538   0.174   1.391
 2622SOL     OW25007   0.084   2.614   1.218
 2622SOL    HW125008   0.158   2.648   1.167
 2622SOL    HW225009   0.113   2.622   1.309
 2623SOL     OW25010   5.995   4.286   0.613
 2623SOL    HW125011   5.976   4.233   0.690
 2623SOL    HW225012   5.980   4.227   0.539
 2624SOL     OW25013   4.764   0.612   6.532
 2624SOL    HW125014   4.681   0.585   6.572
 2624SOL    HW225015   4.830   0.562   6.579
 2625SOL     OW25016   1.433   3.011   2.070
 2625SOL    HW125017   1.377   3.050   2.138
 2625SOL    HW225018   1.377   2.946   2.028
 2626SOL     OW25019   1.300   0.920   7.314
 2626SOL    HW125020   1.226   0.971   7.281
 2626SOL    HW225021   1.264   0.833   7.329
 2627SOL     OW25022   2.002   2.542   7.608
 2627SOL    HW125023   2.017   2.478   7.679
 2627SOL    HW225024   2.000   2.489   7.529
 2628SOL     OW25025   5.054   3.458   0.994
 2628SOL    HW125026   5.082   3.550   0.993
 2628SOL    HW225027   5.045   3.435   0.901
 2629SOL     OW25028   5.074   4.843   1.928
 2629SOL    HW125029   5.045   4.866   1.840
 2629SOL    HW225030   5.132   4.768   1.916
 2630SOL     OW25031   1.692   0.748   1.262
 2630SOL    HW125032   1.677   0.840   1.285
 2630SOL    HW225033   1.690   0.747   1.166
 2631SOL     OW25034   2.623   5.747   1.961
 2631SOL    HW125035   2.621   5.792   2.046
 2631SOL    HW225036   2.710   5.767   1.926
 2632SOL     OW25037   5.776   0.599   0.785
 2632SOL    HW125038   5.780   0.515   0.740
 2632SOL    HW225039   5.775   0.576   0.878
 2633SOL     OW25040   2.096   5.727   2.648
 2633SOL    HW125041   2.114   5.759   2.559
 2633SOL    HW225042   2.124   5.798   2.705
 2634SOL     OW25043   4.348   4.906   5.842
 2634SOL    HW125044   4.362   4.834   5.903
 2634SOL    HW225045   4.358   4.867   5.755
 2635SOL     OW25046   5.769   5.394   6.634
 2635SOL    HW125047   5.775   5.394   6.538
 2635SOL    HW225048   5.836   5.456   6.662
 2636SOL     OW25049   5.776   6.354   0.568
 2636SOL    HW125050   5.714   6.354   0.495
 2636SOL    HW225051   5.859   6.379   0.528
 2637SOL     OW25052   6.085   4.002   7.099
 2637SOL    HW125053   6.096   3.941   7.026
 2637SOL    HW225054   5.997   3.984   7.132
 2638SOL     OW25055   3.931   5.956   0.611
 2638SOL    HW125056   3.920   6.041   0.569
 2638SOL    HW225057   3.950   5.896   0.539
 2639SOL     OW25058   3.313   0.960   2.258
 2639SOL    HW125059   3.343   0.923   2.175
 2639SOL    HW225060   3.383   1.020   2.284
 2640SOL     OW25061   3.094   2.942   5.537
 2640SOL    HW125062   3.056   3.004   5.600
 2640SOL    HW225063   3.063   2.856   5.566
 2641SOL     OW25064   2.145   4.173   6.243
 2641SOL    HW125065   2.067   4.152   6.293
 2641SOL    HW225066   2.186   4.088   6.225
 2642SOL     OW25067   3.560   0.028   7.273
 2642SOL    HW125068   3.607   0.070   7.345
 2642SOL    HW225069   3.522   0.101   7.223
 2643SOL     OW25070   5.715   5.379   1.129
 2643SOL    HW125071   5.762   5.418   1.056
 2643SOL    HW225072   5.648   5.323   1.089
 2644SOL     OW25073   3.494   3.638   0.819
 2644SOL    HW125074   3.430   3.633   0.890
 2644SOL    HW225075   3.447   3.681   0.747
 2645SOL     OW25076   2.763   0.555   5.852
 2645SOL    HW125077   2.833   0.512   5.803
 2645SOL    HW225078   2.742   0.632   5.800
 2646SOL     OW25079   3.059   4.990   0.556
 2646SOL    HW125080   3.149   4.957   0.560
 2646SOL    HW225081   3.065   5.073   0.509
 2647SOL     OW25082   4.429   6.220   6.170
 2647SOL    HW125083   4.464   6.155   6.230
 2647SOL    HW225084   4.500   6.238   6.109
 2648SOL     OW25085   3.401   2.506   2.155
 2648SOL    HW125086   3.438   2.593   2.141
 2648SOL    HW225087   3.325   2.520   2.212
 2649SOL     OW25088   4.409   2.219   1.334
 2649SOL    HW125089   4.354   2.252   1.264
 2649SOL    HW225090   4.436   2.297   1.383
 2650SOL     OW25091   2.168   3.614   7.244
 2650SOL    HW125092   2.201   3.565   7.169
 2650SOL    HW225093   2.076   3.591   7.249
 2651SOL     OW25094   2.544   0.335   2.180
 2651SOL    HW125095   2.469   0.332   2.239
 2651SOL    HW225096   2.616   0.367   2.233
 2652SOL     OW25097   4.947   1.016   6.615
 2652SOL    HW125098   4.944   0.923   6.636
 2652SOL    HW225099   4.878   1.028   6.549
 2653SOL     OW25100   5.732   1.853   6.545
 2653SOL    HW125101   5.701   1.863   6.455
 2653SOL    HW225102   5.669   1.902   6.597
 2654SOL     OW25103   5.038   6.109   5.777
 2654SOL    HW125104   4.994   6.192   5.762
 2654SOL    HW225105   4.969   6.050   5.808
 2655SOL     OW25106   1.713   1.029   1.336
 2655SOL    HW125107   1.671   1.109   1.369
 2655SOL    HW225108   1.780   1.061   1.276
 2656SOL     OW25109   4.693   3.053   7.146
 2656SOL    HW125110   4.682   3.138   7.102
 2656SOL    HW225111   4.643   2.992   7.092
 2657SOL     OW25112   0.268   4.125   7.741
 2657SOL    HW125113   0.361   4.122   7.715
 2657SOL    HW225114   0.228   4.185   7.678
 2658SOL     OW25115   4.970   6.298   0.114
 2658SOL    HW125116   4.947   6.212   0.150
 2658SOL    HW225117   5.006   6.278   0.027
 2659SOL     OW25118   6.370   2.846   2.508
 2659SOL    HW125119   6.354   2.761   2.467
 2659SOL    HW225120   6.310   2.849   2.582
 2660SOL     OW25121   1.298   6.247   5.774
 2660SOL    HW125122   1.337   6.290   5.851
 2660SOL    HW225123   1.364   6.258   5.705
 2661SOL     OW25124   3.714   6.449   6.761
 2661SOL    HW125125   3.699   6.472   6.669
 2661SOL    HW225126   3.750   6.528   6.800
 2662SOL     OW25127   0.709   5.822   1.092
 2662SOL    HW125128   0.736   5.893   1.035
 2662SOL    HW225129   0.727   5.854   1.181
 2663SOL     OW25130   2.717   3.028   0.359
 2663SOL    HW125131   2.748   3.036   0.268
 2663SOL    HW225132   2.646   3.092   0.366
 2664SOL     OW25133   3.716   2.807   1.648
 2664SOL    HW125134   3.721   2.897   1.617
 2664SOL    HW225135   3.774   2.804   1.724
 2665SOL     OW25136   4.725   1.979   1.713
 2665SOL    HW125137   4.672   2.044   1.667
 2665SOL    HW225138   4.738   2.016   1.801
 2666SOL     OW25139   2.704   3.421   2.093
 2666SOL    HW125140   2.682   3.474   2.169
 2666SOL    HW225141   2.799   3.423   2.088
 2667SOL     OW25142   1.301   2.854   7.011
 2667SOL    HW125143   1.224   2.874   6.958
 2667SOL    HW225144   1.265   2.819   7.093
 2668SOL     OW25145   3.738   3.156   1.087
 2668SOL    HW125146   3.799   3.133   1.157
 2668SOL    HW225147   3.695   3.236   1.118
 2669SOL     OW25148   5.878   2.320   2.400
 2669SOL    HW125149   5.801   2.290   2.350
 2669SOL    HW225150   5.861   2.413   2.417
 2670SOL     OW25151   5.491   4.141   6.745
 2670SOL    HW125152   5.508   4.059   6.791
 2670SOL    HW225153   5.436   4.115   6.671
 2671SOL     OW25154   2.912   2.770   2.825
 2671SOL    HW125155   2.858   2.832   2.777
 2671SOL    HW225156   2.908   2.690   2.773
 2672SOL     OW25157   5.709   4.305   0.848
 2672SOL    HW125158   5.794   4.266   0.827
 2672SOL    HW225159   5.719   4.398   0.827
 2673SOL     OW25160   4.491   0.338   6.212
 2673SOL    HW125161   4.573   0.355   6.167
 2673SOL    HW225162   4.423   0.352   6.146
 2674SOL     OW25163   5.415  -0.001   0.261
 2674SOL    HW125164   5.321   0.004   0.241
 2674SOL    HW225165   5.437   0.087   0.292
 2675SOL     OW25166   6.211   5.006   2.020
 2675SOL    HW125167   6.118   5.009   2.045
 2675SOL    HW225168   6.239   4.918   2.043
 2676SOL     OW25169   1.255   5.409   7.474
 2676SOL    HW125170   1.176   5.373   7.513
 2676SOL    HW225171   1.304   5.332   7.443
 2677SOL     OW25172   5.182   3.913   1.187
 2677SOL    HW125173   5.267   3.877   1.214
 2677SOL    HW225174   5.186   4.005   1.215
 2678SOL     OW25175   3.260   0.145   0.314
 2678SOL    HW125176   3.218   0.221   0.353
 2678SOL    HW225177   3.353   0.167   0.314
 2679SOL     OW25178   3.524   1.957   7.254
 2679SOL    HW125179   3.434   1.955   7.220
 2679SOL    HW225180   3.566   2.028   7.205
 2680SOL     OW25181   5.148   0.263   0.611
 2680SOL    HW125182   5.098   0.237   0.688
 2680SOL    HW225183   5.202   0.186   0.591
 2681SOL     OW25184   4.075   1.227   2.705
 2681SOL    HW125185   4.052   1.135   2.690
 2681SOL    HW225186   4.170   1.225   2.720
 2682SOL     OW25187   5.003   3.532   7.244
 2682SOL    HW125188   4.922   3.583   7.250
 2682SOL    HW225189   5.027   3.515   7.335
 2683SOL     OW25190   0.571   1.679   6.558
 2683SOL    HW125191   0.529   1.638   6.482
 2683SOL    HW225192   0.534   1.767   6.561
 2684SOL     OW25193   2.244   1.141   0.188
 2684SOL    HW125194   2.149   1.147   0.200
 2684SOL    HW225195   2.280   1.192   0.261
 2685SOL     OW25196   5.616   5.394   6.862
 2685SOL    HW125197   5.684   5.333   6.888
 2685SOL    HW225198   5.628   5.405   6.768
 2686SOL     OW25199   3.099   4.233   1.793
 2686SOL    HW125200   3.192   4.251   1.782
 2686SOL    HW225201   3.090   4.212   1.886
 2687SOL     OW25202   1.946   5.916   1.627
 2687SOL    HW125203   1.934   5.837   1.678
 2687SOL    HW225204   1.901   5.898   1.544
 2688SOL     OW25205   1.666   5.977   6.641
 2688SOL    HW125206   1.724   5.952   6.569
 2688SOL    HW225207   1.701   5.932   6.717
 2689SOL     OW25208   0.676   3.876   6.518
 2689SOL    HW125209   0.728   3.938   6.569
 2689SOL    HW225210   0.684   3.793   6.566
 2690SOL     OW25211   3.356   5.388   2.452
 2690SOL    HW125212   3.396   5.301   2.443
 2690SOL    HW225213   3.315   5.404   2.368
 2691SOL     OW25214   3.200   6.285   0.557
 2691SOL    HW125215   3.242   6.303   0.641
 2691SOL    HW225216   3.109   6.267   0.579
 2692SOL     OW25217   4.949   2.342   6.472
 2692SOL    HW125218   4.930   2.384   6.388
 2692SOL    HW225219   4.887   2.270   6.477
 2693SOL     OW25220   4.454   4.965   2.604
 2693SOL    HW125221   4.363   4.973   2.575
 2693SOL    HW225222   4.475   5.049   2.644
 2694SOL     OW25223   5.123   4.030   2.025
 2694SOL    HW125224   5.056   4.064   2.084
 2694SOL    HW225225   5.188   4.100   2.019
 2695SOL     OW25226   4.624   5.147   2.424
 2695SOL    HW125227   4.567   5.225   2.422
 2695SOL    HW225228   4.594   5.098   2.501
 2696SOL     OW25229   5.677   4.604   6.759
 2696SOL    HW125230   5.715   4.521   6.730
 2696SOL    HW225231   5.628   4.581   6.838
 2697SOL     OW25232   2.469   5.429   7.439
 2697SOL    HW125233   2.397   5.406   7.381
 2697SOL    HW225234   2.427   5.461   7.519
 2698SOL     OW25235   2.669   1.885   6.129
 2698SOL    HW125236   2.675   1.874   6.224
 2698SOL    HW225237   2.711   1.969   6.111
 2699SOL     OW25238   0.153   0.379   0.827
 2699SOL    HW125239   0.152   0.356   0.735
 2699SOL    HW225240   0.101   0.310   0.870
 2700SOL     OW25241   1.266   2.259   6.716
 2700SOL    HW125242   1.262   2.297   6.804
 2700SOL    HW225243   1.176   2.263   6.684
 2701SOL     OW25244   2.487   5.891   0.354
 2701SOL    HW125245   2.512   5.818   0.297
 2701SOL    HW225246   2.554   5.892   0.423
 2702SOL     OW25247   1.111   2.219   5.374
 2702SOL    HW125248   1.052   2.163   5.424
 2702SOL    HW225249   1.064   2.302   5.366
 2703SOL     OW25250   1.890   5.116   1.553
 2703SOL    HW125251   1.885   5.169   1.474
 2703SOL    HW225252   1.838   5.038   1.533
 2704SOL     OW25253   5.966   1.224   0.338
 2704SOL    HW125254   5.999   1.293   0.396
 2704SOL    HW225255   5.915   1.167   0.395
 2705SOL     OW25256   5.392   5.504   0.551
 2705SOL    HW125257   5.338   5.578   0.582
 2705SOL    HW225258   5.337   5.427   0.567
 2706SOL     OW25259   0.089   0.440   6.129
 2706SOL    HW125260   0.030   0.477   6.064
 2706SOL    HW225261   0.033   0.425   6.206
 2707SOL     OW25262   2.823   5.806   1.755
 2707SOL    HW125263   2.848   5.860   1.680
 2707SOL    HW225264   2.846   5.716   1.729
 2708SOL     OW25265   5.652   2.864   6.780
 2708SOL    HW125266   5.655   2.954   6.747
 2708SOL    HW225267   5.680   2.810   6.706
 2709SOL     OW25268   5.229   0.579   0.099
 2709SOL    HW125269   5.213   0.494   0.140
 2709SOL    HW225270   5.165   0.584   0.028
 2710SOL     OW25271   6.345   1.050   0.688
 2710SOL    HW125272   6.350   1.122   0.626
 2710SOL    HW225273   6.288   0.986   0.646
 2711SOL     OW25274   3.289   6.339   1.634
 2711SOL    HW125275   3.362   6.366   1.579
 2711SOL    HW225276   3.321   6.352   1.724
 2712SOL     OW25277   2.905   2.219   6.660
 2712SOL    HW125278   2.866   2.249   6.742
 2712SOL    HW225279   2.864   2.272   6.592
 2713SOL     OW25280   5.603   0.230   1.803
 2713SOL    HW125281   5.577   0.223   1.895
 2713SOL    HW225282   5.541   0.293   1.766
 2714SOL     OW25283   2.356   0.594   1.855
 2714SOL    HW125284   2.422   0.657   1.827
 2714SOL    HW225285   2.273   0.640   1.841
 2715SOL     OW25286   2.471   0.072   7.401
 2715SOL    HW125287   2.466  -0.008   7.349
 2715SOL    HW225288   2.545   0.120   7.364
 2716SOL     OW25289   0.550   0.843   6.882
 2716SOL    HW125290   0.555   0.822   6.975
 2716SOL    HW225291   0.551   0.758   6.838
 2717SOL     OW25292   5.138   5.512   1.164
 2717SOL    HW125293   5.222   5.557   1.156
 2717SOL    HW225294   5.162   5.421   1.180
 2718SOL     OW25295   1.543   2.094   6.894
 2718SOL    HW125296   1.638   2.088   6.897
 2718SOL    HW225297   1.522   2.171   6.946
 2719SOL     OW25298   0.408   0.346   0.365
 2719SOL    HW125299   0.424   0.305   0.280
 2719SOL    HW225300   0.425   0.439   0.350
 2720SOL     OW25301   0.469   6.173   1.653
 2720SOL    HW125302   0.519   6.128   1.585
 2720SOL    HW225303   0.378   6.148   1.637
 2721SOL     OW25304   1.037   0.232   0.841
 2721SOL    HW125305   1.012   0.177   0.916
 2721SOL    HW225306   0.975   0.305   0.844
 2722SOL     OW25307   1.635   5.214   2.183
 2722SOL    HW125308   1.692   5.270   2.236
 2722SOL    HW225309   1.691   5.184   2.112
 2723SOL     OW25310   4.343   3.894   6.714
 2723SOL    HW125311   4.415   3.881   6.653
 2723SOL    HW225312   4.266   3.906   6.658
 2724SOL     OW25313   3.541   3.700   7.156
 2724SOL    HW125314   3.464   3.729   7.205
 2724SOL    HW225315   3.597   3.659   7.221
 2725SOL     OW25316   6.398   3.149   6.645
 2725SOL    HW125317   6.482   3.112   6.671
 2725SOL    HW225318   6.389   3.228   6.697
 2726SOL     OW25319   0.833   2.601   7.349
 2726SOL    HW125320   0.796   2.660   7.415
 2726SOL    HW225321   0.927   2.603   7.367
 2727SOL     OW25322   6.227   2.993   7.550
 2727SOL    HW125323   6.269   2.914   7.516
 2727SOL    HW225324   6.138   2.966   7.571
 2728SOL     OW25325   5.474   1.778   1.712
 2728SOL    HW125326   5.478   1.805   1.803
 2728SOL    HW225327   5.553   1.815   1.672
 2729SOL     OW25328   4.781   2.307   1.885
 2729SOL    HW125329   4.779   2.213   1.904
 2729SOL    HW225330   4.747   2.348   1.965
 2730SOL     OW25331   4.819   5.095   7.140
 2730SOL    HW125332   4.794   5.077   7.049
 2730SOL    HW225333   4.914   5.108   7.135
 2731SOL     OW25334   1.156   1.355   6.384
 2731SOL    HW125335   1.159   1.274   6.335
 2731SOL    HW225336   1.248   1.381   6.393
 2732SOL     OW25337   6.207   0.357   6.206
 2732SOL    HW125338   6.181   0.266   6.189
 2732SOL    HW225339   6.292   0.350   6.250
 2733SOL     OW25340   0.440   2.940   5.920
 2733SOL    HW125341   0.426   2.873   5.988
 2733SOL    HW225342   0.352   2.963   5.891
 2734SOL     OW25343   0.337   6.123   5.632
 2734SOL    HW125344   0.269   6.107   5.566
 2734SOL    HW225345   0.412   6.071   5.602
 2735SOL     OW25346   5.491   6.274   0.580
 2735SOL    HW125347   5.555   6.208   0.557
 2735SOL    HW225348   5.514   6.300   0.669
 2736SOL     OW25349   0.872   3.611   0.350
 2736SOL    HW125350   0.915   3.614   0.435
 2736SOL    HW225351   0.803   3.676   0.356
 2737SOL     OW25352   4.816   0.541   0.462
 2737SOL    HW125353   4.872   0.566   0.536
 2737SOL    HW225354   4.798   0.623   0.417
 2738SOL     OW25355   2.068   2.505   2.167
 2738SOL    HW125356   2.089   2.560   2.092
 2738SOL    HW225357   2.108   2.551   2.241
 2739SOL     OW25358   4.167   0.410   0.613
 2739SOL    HW125359   4.076   0.416   0.644
 2739SOL    HW225360   4.202   0.333   0.658
 2740SOL     OW25361   5.184   2.090   0.458
 2740SOL    HW125362   5.215   2.138   0.381
 2740SOL    HW225363   5.095   2.063   0.435
 2741SOL     OW25364   3.568   4.837   0.508
 2741SOL    HW125365   3.594   4.919   0.549
 2741SOL    HW225366   3.512   4.794   0.573
 2742SOL     OW25367   3.650   3.398   1.160
 2742SOL    HW125368   3.714   3.439   1.102
 2742SOL    HW225369   3.688   3.404   1.247
 2743SOL     OW25370   2.149   4.911   7.167
 2743SOL    HW125371   2.126   4.849   7.235
 2743SOL    HW225372   2.144   4.997   7.210
 2744SOL     OW25373   0.795   5.255   1.291
 2744SOL    HW125374   0.790   5.231   1.384
 2744SOL    HW225375   0.809   5.349   1.292
 2745SOL     OW25376   4.292   2.170   6.571
 2745SOL    HW125377   4.261   2.225   6.500
 2745SOL    HW225378   4.212   2.142   6.616
 2746SOL     OW25379   0.424   3.562   0.309
 2746SOL    HW125380   0.404   3.644   0.263
 2746SOL    HW225381   0.498   3.525   0.260
 2747SOL     OW25382   2.200   2.515   5.964
 2747SOL    HW125383   2.120   2.565   5.980
 2747SOL    HW225384   2.183   2.469   5.882
 2748SOL     OW25385   2.965   5.311   7.357
 2748SOL    HW125386   2.950   5.349   7.444
 2748SOL    HW225387   2.897   5.245   7.348
 2749SOL     OW25388   1.142   4.239   0.725
 2749SOL    HW125389   1.196   4.166   0.698
 2749SOL    HW225390   1.078   4.250   0.654
 2750SOL     OW25391   5.907   2.563   7.673
 2750SOL    HW125392   5.854   2.519   7.606
 2750SOL    HW225393   5.844   2.589   7.740
 2751SOL     OW25394   4.970   1.646   2.315
 2751SOL    HW125395   4.980   1.556   2.285
 2751SOL    HW225396   5.036   1.657   2.383
 2752SOL     OW25397   3.295   1.564   7.017
 2752SOL    HW125398   3.306   1.469   7.005
 2752SOL    HW225399   3.359   1.587   7.085
 2753SOL     OW25400   0.399   3.815   2.283
 2753SOL    HW125401   0.422   3.903   2.254
 2753SOL    HW225402   0.467   3.792   2.347
 2754SOL     OW25403   6.073   4.514   1.368
 2754SOL    HW125404   6.066   4.525   1.462
 2754SOL    HW225405   6.160   4.478   1.354
 2755SOL     OW25406   4.737   5.063   5.680
 2755SOL    HW125407   4.800   4.991   5.680
 2755SOL    HW225408   4.786   5.137   5.644
 2756SOL     OW25409   6.012   3.135   6.657
 2756SOL    HW125410   6.032   3.045   6.683
 2756SOL    HW225411   5.975   3.126   6.568
 2757SOL     OW25412   0.208   3.705   2.118
 2757SOL    HW125413   0.265   3.740   2.186
 2757SOL    HW225414   0.120   3.713   2.154
 2758SOL     OW25415   6.065   6.045   6.251
 2758SOL    HW125416   5.987   5.990   6.245
 2758SOL    HW225417   6.130   6.001   6.196
 2759SOL     OW25418   5.805   4.114   5.633
 2759SOL    HW125419   5.760   4.031   5.643
 2759SOL    HW225420   5.823   4.120   5.539
 2760SOL     OW25421   1.921   0.043   6.704
 2760SOL    HW125422   1.960   0.122   6.669
 2760SOL    HW225423   1.845   0.026   6.649
 2761SOL     OW25424   1.301   0.738   7.727
 2761SOL    HW125425   1.381   0.774   7.689
 2761SOL    HW225426   1.231   0.772   7.672
 2762SOL     OW25427   3.462   3.428   7.703
 2762SOL    HW125428   3.494   3.492   7.640
 2762SOL    HW225429   3.510   3.348   7.683
 2763SOL     OW25430   3.197   5.742   7.019
 2763SOL    HW125431   3.116   5.757   6.970
 2763SOL    HW225432   3.228   5.829   7.041
 2764SOL     OW25433   1.640   5.575   1.040
 2764SOL    HW125434   1.583   5.610   1.109
 2764SOL    HW225435   1.727   5.610   1.061
 2765SOL     OW25436   4.601   0.906   0.497
 2765SOL    HW125437   4.669   0.883   0.435
 2765SOL    HW225438   4.519   0.881   0.455
 2766SOL     OW25439   1.839   1.194   6.570
 2766SOL    HW125440   1.770   1.172   6.507
 2766SOL    HW225441   1.812   1.279   6.605
 2767SOL     OW25442   0.392   2.707   0.070
 2767SOL    HW125443   0.418   2.695  -0.022
 2767SOL    HW225444   0.305   2.666   0.075
 2768SOL     OW25445   3.667   0.788   7.401
 2768SOL    HW125446   3.747   0.798   7.350
 2768SOL    HW225447   3.656   0.871   7.446
 2769SOL     OW25448   5.570   2.020   1.398
 2769SOL    HW125449   5.662   1.994   1.399
 2769SOL    HW225450   5.567   2.096   1.340
 2770SOL     OW25451   6.010   1.776   2.375
 2770SOL    HW125452   6.007   1.680   2.368
 2770SOL    HW225453   5.954   1.806   2.303
 2771SOL     OW25454   5.427   3.497   7.646
 2771SOL    HW125455   5.483   3.553   7.592
 2771SOL    HW225456   5.381   3.557   7.704
 2772SOL     OW25457   6.060   4.704   5.968
 2772SOL    HW125458   6.145   4.698   6.013
 2772SOL    HW225459   6.082   4.716   5.876
 2773SOL     OW25460   5.140   5.398   0.877
 2773SOL    HW125461   5.219   5.444   0.905
 2773SOL    HW225462   5.069   5.444   0.922
 2774SOL     OW25463   5.916   0.952   6.674
 2774SOL    HW125464   5.912   0.881   6.610
 2774SOL    HW225465   5.933   1.031   6.622
 2775SOL     OW25466   3.397   0.981   1.386
 2775SOL    HW125467   3.431   0.896   1.417
 2775SOL    HW225468   3.475   1.031   1.363
 2776SOL     OW25469   1.134   6.400   0.835
 2776SOL    HW125470   1.049   6.381   0.796
 2776SOL    HW225471   1.113   6.441   0.920
 2777SOL     OW25472   2.391   1.477   6.733
 2777SOL    HW125473   2.446   1.472   6.654
 2777SOL    HW225474   2.319   1.535   6.707
 2778SOL     OW25475   4.877   2.857   6.572
 2778SOL    HW125476   4.805   2.878   6.513
 2778SOL    HW225477   4.836   2.852   6.658
 2779SOL     OW25478   1.829   2.286   7.737
 2779SOL    HW125479   1.789   2.283   7.823
 2779SOL    HW225480   1.781   2.354   7.690
 2780SOL     OW25481   2.563   0.187   6.400
 2780SOL    HW125482   2.579   0.226   6.314
 2780SOL    HW225483   2.537   0.097   6.381
 2781SOL     OW25484   2.484   3.745   1.399
 2781SOL    HW125485   2.395   3.713   1.381
 2781SOL    HW225486   2.477   3.840   1.396
 2782SOL     OW25487   0.569   4.457   2.072
 2782SOL    HW125488   0.500   4.395   2.097
 2782SOL    HW225489   0.644   4.432   2.126
 2783SOL     OW25490   2.208   0.299   6.214
 2783SOL    HW125491   2.268   0.302   6.139
 2783SOL    HW225492   2.262   0.321   6.289
 2784SOL     OW25493   3.059   1.578   7.489
 2784SOL    HW125494   3.009   1.609   7.413
 2784SOL    HW225495   2.998   1.520   7.536
 2785SOL     OW25496   4.925   5.010   5.994
 2785SOL    HW125497   4.889   5.098   5.983
 2785SOL    HW225498   4.933   4.977   5.904
 2786SOL     OW25499   5.191   5.889   2.037
 2786SOL    HW125500   5.179   5.803   1.997
 2786SOL    HW225501   5.134   5.947   1.985
 2787SOL     OW25502   6.230   5.290   1.075
 2787SOL    HW125503   6.251   5.348   1.148
 2787SOL    HW225504   6.312   5.245   1.056
 2788SOL     OW25505   1.637   5.145   1.042
 2788SOL    HW125506   1.626   5.180   1.130
 2788SOL    HW225507   1.700   5.205   1.000
 2789SOL     OW25508   0.981   4.311   0.964
 2789SOL    HW125509   0.951   4.287   0.877
 2789SOL    HW225510   0.962   4.404   0.972
 2790SOL     OW25511   0.690   0.372   0.151
 2790SOL    HW125512   0.619   0.309   0.141
 2790SOL    HW225513   0.646   0.457   0.157
 2791SOL     OW25514   1.150   3.270   2.050
 2791SOL    HW125515   1.110   3.351   2.083
 2791SOL    HW225516   1.204   3.239   2.122
 2792SOL     OW25517   5.748   2.941   7.353
 2792SOL    HW125518   5.766   3.033   7.369
 2792SOL    HW225519   5.688   2.940   7.279
 2793SOL     OW25520   1.483   2.602   0.477
 2793SOL    HW125521   1.447   2.647   0.553
 2793SOL    HW225522   1.538   2.668   0.434
 2794SOL     OW25523   5.740   2.385   1.929
 2794SOL    HW125524   5.756   2.424   2.015
 2794SOL    HW225525   5.735   2.460   1.870
 2795SOL     OW25526   4.783   1.114   0.059
 2795SOL    HW125527   4.688   1.123   0.051
 2795SOL    HW225528   4.798   1.090   0.150
 2796SOL     OW25529   3.097   4.219   1.036
 2796SOL    HW125530   3.097   4.139   0.984
 2796SOL    HW225531   3.025   4.207   1.098
 2797SOL     OW25532   1.946   5.260   0.600
 2797SOL    HW125533   2.003   5.227   0.531
 2797SOL    HW225534   1.858   5.248   0.565
 2798SOL     OW25535   4.189   2.163   0.506
 2798SOL    HW125536   4.159   2.097   0.569
 2798SOL    HW225537   4.226   2.111   0.434
 2799SOL     OW25538   5.882   5.048   0.990
 2799SOL    HW125539   5.917   4.994   0.919
 2799SOL    HW225540   5.877   5.136   0.954
 2800SOL     OW25541   1.205   1.724   6.832
 2800SOL    HW125542   1.286   1.675   6.817
 2800SOL    HW225543   1.141   1.684   6.773
 2801SOL     OW25544   3.879   1.192   7.521
 2801SOL    HW125545   3.925   1.262   7.474
 2801SOL    HW225546   3.920   1.190   7.607
 2802SOL     OW25547   0.839   1.921   1.441
 2802SOL    HW125548   0.774   1.878   1.385
 2802SOL    HW225549   0.870   1.850   1.498
 2803SOL     OW25550   5.492   1.271   1.441
 2803SOL    HW125551   5.420   1.237   1.494
 2803SOL    HW225552   5.472   1.240   1.352
 2804SOL     OW25553   1.478   3.295   1.024
 2804SOL    HW125554   1.557   3.302   1.078
 2804SOL    HW225555   1.412   3.260   1.083
 2805SOL     OW25556   3.465   3.957   6.482
 2805SOL    HW125557   3.547   3.934   6.526
 2805SOL    HW225558   3.408   3.988   6.552
 2806SOL     OW25559   6.335   1.107   1.611
 2806SOL    HW125560   6.332   1.011   1.609
 2806SOL    HW225561   6.397   1.127   1.681
 2807SOL     OW25562   2.861   6.294   2.486
 2807SOL    HW125563   2.882   6.386   2.476
 2807SOL    HW225564   2.944   6.252   2.509
 2808SOL     OW25565   2.239   4.151   0.494
 2808SOL    HW125566   2.162   4.208   0.508
 2808SOL    HW225567   2.312   4.212   0.487
 2809SOL     OW25568   1.038   2.837   0.173
 2809SOL    HW125569   0.957   2.888   0.173
 2809SOL    HW225570   1.067   2.838   0.082
 2810SOL     OW25571   5.834   5.197   6.375
 2810SOL    HW125572   5.829   5.128   6.309
 2810SOL    HW225573   5.884   5.159   6.447
 2811SOL     OW25574   2.542   5.825   6.398
 2811SOL    HW125575   2.621   5.792   6.355
 2811SOL    HW225576   2.570   5.845   6.488
 2812SOL     OW25577   2.577   5.006   1.116
 2812SOL    HW125578   2.533   5.049   1.189
 2812SOL    HW225579   2.659   5.054   1.105
 2813SOL     OW25580   1.311   4.856   0.687
 2813SOL    HW125581   1.307   4.949   0.663
 2813SOL    HW225582   1.299   4.857   0.782
 2814SOL     OW25583   3.201   2.980   0.652
 2814SOL    HW125584   3.293   3.006   0.659
 2814SOL    HW225585   3.171   2.971   0.742
 2815SOL     OW25586   5.668   4.521   0.506
 2815SOL    HW125587   5.629   4.603   0.478
 2815SOL    HW225588   5.762   4.532   0.489
 2816SOL     OW25589   3.344   2.785   2.492
 2816SOL    HW125590   3.424   2.833   2.511
 2816SOL    HW225591   3.274   2.850   2.499
 2817SOL     OW25592   3.840   5.578   7.460
 2817SOL    HW125593   3.827   5.599   7.368
 2817SOL    HW225594   3.777   5.508   7.478
 2818SOL     OW25595   2.790   4.780   1.021
 2818SOL    HW125596   2.838   4.824   0.950
 2818SOL    HW225597   2.749   4.852   1.069
 2819SOL     OW25598   1.413   1.540   0.745
 2819SOL    HW125599   1.481   1.546   0.812
 2819SOL    HW225600   1.363   1.621   0.755
 2820SOL     OW25601   4.599   4.375   6.025
 2820SOL    HW125602   4.505   4.354   6.030
 2820SOL    HW225603   4.602   4.470   6.017
 2821SOL     OW25604   2.229   2.310   2.211
 2821SOL    HW125605   2.184   2.245   2.265
 2821SOL    HW225606   2.161   2.372   2.185
 2822SOL     OW25607   1.110   0.843   6.694
 2822SOL    HW125608   1.051   0.891   6.752
 2822SOL    HW225609   1.064   0.761   6.676
 2823SOL     OW25610   1.702   3.376   0.487
 2823SOL    HW125611   1.647   3.393   0.563
 2823SOL    HW225612   1.733   3.463   0.461
 2824SOL     OW25613   0.840   4.303   1.653
 2824SOL    HW125614   0.863   4.347   1.572
 2824SOL    HW225615   0.868   4.212   1.640
 2825SOL     OW25616   1.060   1.862   0.579
 2825SOL    HW125617   0.993   1.860   0.647
 2825SOL    HW225618   1.044   1.783   0.527
 2826SOL     OW25619   0.833   3.902   5.769
 2826SOL    HW125620   0.917   3.942   5.791
 2826SOL    HW225621   0.828   3.824   5.824
 2827SOL     OW25622   2.632   4.078   0.851
 2827SOL    HW125623   2.716   4.103   0.813
 2827SOL    HW225624   2.654   4.009   0.914
 2828SOL     OW25625   2.082   1.419   7.289
 2828SOL    HW125626   2.023   1.344   7.278
 2828SOL    HW225627   2.131   1.423   7.207
 2829SOL     OW25628   2.367   0.294   1.814
 2829SOL    HW125629   2.405   0.258   1.735
 2829SOL    HW225630   2.348   0.385   1.793
 2830SOL     OW25631   3.035   1.984   0.546
 2830SOL    HW125632   2.984   2.054   0.505
 2830SOL    HW225633   2.989   1.965   0.627
 2831SOL     OW25634   1.862   3.994   6.853
 2831SOL    HW125635   1.868   4.047   6.932
 2831SOL    HW225636   1.882   4.056   6.782
 2832SOL     OW25637   5.078   1.999   1.793
 2832SOL    HW125638   5.133   1.969   1.720
 2832SOL    HW225639   5.126   1.973   1.871
 2833SOL     OW25640   5.823   2.964   6.973
 2833SOL    HW125641   5.756   2.925   6.918
 2833SOL    HW225642   5.885   2.893   6.989
 2834SOL     OW25643   4.163   0.168   0.098
 2834SOL    HW125644   4.208   0.129   0.173
 2834SOL    HW225645   4.106   0.235   0.136
 2835SOL     OW25646   5.166   0.663   2.105
 2835SOL    HW125647   5.075   0.679   2.132
 2835SOL    HW225648   5.171   0.568   2.096
 2836SOL     OW25649   6.462   3.311   1.115
 2836SOL    HW125650   6.421   3.255   1.180
 2836SOL    HW225651   6.443   3.269   1.031
 2837SOL     OW25652   5.774   6.368   1.797
 2837SOL    HW125653   5.716   6.422   1.744
 2837SOL    HW225654   5.798   6.425   1.871
 2838SOL     OW25655   5.721   1.099   6.384
 2838SOL    HW125656   5.700   1.188   6.355
 2838SOL    HW225657   5.653   1.044   6.346
 2839SOL     OW25658   0.996   0.023   6.932
 2839SOL    HW125659   0.938   0.084   6.978
 2839SOL    HW225660   1.007  -0.050   6.993
 2840SOL     OW25661   0.109   2.287   6.400
 2840SOL    HW125662   0.016   2.294   6.375
 2840SOL    HW225663   0.107   2.262   6.492
 2841SOL     OW25664   1.067   5.331   0.136
 2841SOL    HW125665   1.063   5.273   0.060
 2841SOL    HW225666   1.033   5.415   0.103
 2842SOL     OW25667   3.592   3.550   1.655
 2842SOL    HW125668   3.601   3.637   1.617
 2842SOL    HW225669   3.506   3.552   1.698
 2843SOL     OW25670   4.994   0.328   5.468
 2843SOL    HW125671   4.910   0.284   5.455
 2843SOL    HW225672   5.059   0.259   5.458
 2844SOL     OW25673   0.956   1.624   0.497
 2844SOL    HW125674   0.972   1.550   0.556
 2844SOL    HW225675   0.926   1.583   0.416
 2845SOL     OW25676   2.543   1.646   6.091
 2845SOL    HW125677   2.591   1.728   6.103
 2845SOL    HW225678   2.605   1.588   6.047
 2846SOL     OW25679   3.737   4.515   1.330
 2846SOL    HW125680   3.827   4.512   1.364
 2846SOL    HW225681   3.687   4.459   1.389
 2847SOL     OW25682   3.386   5.858   2.301
 2847SOL    HW125683   3.452   5.917   2.264
 2847SOL    HW225684   3.395   5.867   2.395
 2848SOL     OW25685   2.282   2.370   6.485
 2848SOL    HW125686   2.354   2.408   6.535
 2848SOL    HW225687   2.297   2.399   6.395
 2849SOL     OW25688   3.291   5.240   2.075
 2849SOL    HW125689   3.378   5.232   2.113
 2849SOL    HW225690   3.248   5.308   2.126
 2850SOL     OW25691   0.989   0.337   7.286
 2850SOL    HW125692   0.973   0.247   7.315
 2850SOL    HW225693   1.084   0.343   7.279
 2851SOL     OW25694   4.940   2.594   2.064
 2851SOL    HW125695   5.003   2.640   2.120
 2851SOL    HW225696   4.897   2.532   2.122
 2852SOL     OW25697   6.276   4.860   7.596
 2852SOL    HW125698   6.290   4.925   7.665
 2852SOL    HW225699   6.324   4.783   7.626
 2853SOL     OW25700   0.285   1.221   6.737
 2853SOL    HW125701   0.356   1.284   6.747
 2853SOL    HW225702   0.327   1.141   6.706
 2854SOL     OW25703   4.308   0.705   0.747
 2854SOL    HW125704   4.278   0.718   0.658
 2854SOL    HW225705   4.400   0.680   0.738
 2855SOL     OW25706   1.365   6.232   1.894
 2855SOL    HW125707   1.446   6.269   1.929
 2855SOL    HW225708   1.332   6.176   1.964
 2856SOL     OW25709   5.584   0.684   1.539
 2856SOL    HW125710   5.523   0.709   1.470
 2856SOL    HW225711   5.641   0.760   1.551
 2857SOL     OW25712   4.312   3.518   6.140
 2857SOL    HW125713   4.363   3.557   6.070
 2857SOL    HW225714   4.375   3.502   6.210
 2858SOL     OW25715   3.161   4.815   1.094
 2858SOL    HW125716   3.237   4.759   1.084
 2858SOL    HW225717   3.086   4.755   1.096
 2859SOL     OW25718   5.876   4.191   2.174
 2859SOL    HW125719   5.787   4.174   2.206
 2859SOL    HW225720   5.933   4.141   2.232
 2860SOL     OW25721   1.992   5.659   6.381
 2860SOL    HW125722   2.034   5.643   6.296
 2860SOL    HW225723   1.985   5.572   6.421
 2861SOL     OW25724   1.099   3.922   1.933
 2861SOL    HW125725   1.105   3.895   1.841
 2861SOL    HW225726   1.061   3.846   1.977
 2862SOL     OW25727   1.310   3.053   6.682
 2862SOL    HW125728   1.355   2.968   6.682
 2862SOL    HW225729   1.240   3.043   6.746
 2863SOL     OW25730   0.040   0.728   0.066
 2863SOL    HW125731   0.064   0.726  -0.026
 2863SOL    HW225732  -0.029   0.793   0.072
 2864SOL     OW25733   1.534   0.209   0.839
 2864SOL    HW125734   1.590   0.266   0.891
 2864SOL    HW225735   1.537   0.246   0.751
 2865SOL     OW25736   3.180   1.903   2.040
 2865SOL    HW125737   3.110   1.937   1.985
 2865SOL    HW225738   3.216   1.980   2.084
 2866SOL     OW25739   4.976   0.133   5.788
 2866SOL    HW125740   5.050   0.180   5.749
 2866SOL    HW225741   4.918   0.202   5.820
 2867SOL     OW25742   5.273   3.405   6.995
 2867SOL    HW125743   5.293   3.313   7.014
 2867SOL    HW225744   5.357   3.450   7.002
 2868SOL     OW25745   5.579   6.070   6.233
 2868SOL    HW125746   5.593   6.143   6.173
 2868SOL    HW225747   5.545   5.999   6.177
 2869SOL     OW25748   4.299   2.644   0.817
 2869SOL    HW125749   4.281   2.738   0.811
 2869SOL    HW225750   4.378   2.639   0.871
 2870SOL     OW25751   5.815   4.542   0.766
 2870SOL    HW125752   5.896   4.534   0.816
 2870SOL    HW225753   5.843   4.544   0.675
 2871SOL     OW25754   1.243   2.893   0.639
 2871SOL    HW125755   1.240   2.907   0.545
 2871SOL    HW225756   1.181   2.956   0.675
 2872SOL     OW25757   4.058   2.994   7.572
 2872SOL    HW125758   4.063   3.083   7.536
 2872SOL    HW225759   4.044   2.938   7.496
 2873SOL     OW25760   2.797   3.243   7.649
 2873SOL    HW125761   2.886   3.212   7.628
 2873SOL    HW225762   2.808   3.336   7.670
 2874SOL     OW25763   6.113   3.630   1.814
 2874SOL    HW125764   6.119   3.589   1.900
 2874SOL    HW225765   6.148   3.718   1.826
 2875SOL     OW25766   1.791   4.350   1.427
 2875SOL    HW125767   1.803   4.316   1.338
 2875SOL    HW225768   1.730   4.289   1.468
 2876SOL     OW25769   5.408   2.946   1.442
 2876SOL    HW125770   5.492   2.992   1.434
 2876SOL    HW225771   5.373   2.946   1.353
 2877SOL     OW25772   4.981   5.591   0.668
 2877SOL    HW125773   5.068   5.633   0.667
 2877SOL    HW225774   4.966   5.569   0.760
 2878SOL     OW25775   6.398   0.822   1.555
 2878SOL    HW125776   6.403   0.739   1.507
 2878SOL    HW225777   6.437   0.802   1.640
 2879SOL     OW25778   4.475   5.736   7.656
 2879SOL    HW125779   4.499   5.779   7.738
 2879SOL    HW225780   4.558   5.718   7.612
 2880SOL     OW25781   0.441   2.679   1.369
 2880SOL    HW125782   0.384   2.725   1.431
 2880SOL    HW225783   0.400   2.694   1.284
 2881SOL     OW25784   1.753   3.332   2.130
 2881SOL    HW125785   1.659   3.345   2.124
 2881SOL    HW225786   1.785   3.410   2.176
 2882SOL     OW25787   6.406   2.944   5.791
 2882SOL    HW125788   6.320   2.907   5.772
 2882SOL    HW225789   6.388   3.031   5.827
 2883SOL     OW25790   6.176   0.913   7.427
 2883SOL    HW125791   6.116   0.843   7.454
 2883SOL    HW225792   6.120   0.978   7.385
 2884SOL     OW25793   1.506   0.299   1.904
 2884SOL    HW125794   1.513   0.271   1.995
 2884SOL    HW225795   1.541   0.226   1.853
 2885SOL     OW25796   3.810   6.112   7.012
 2885SOL    HW125797   3.716   6.106   7.028
 2885SOL    HW225798   3.840   6.021   7.010
 2886SOL     OW25799   2.755   2.900   1.811
 2886SOL    HW125800   2.741   2.854   1.728
 2886SOL    HW225801   2.744   2.833   1.878
 2887SOL     OW25802   3.928   3.615   2.070
 2887SOL    HW125803   3.992   3.548   2.094
 2887SOL    HW225804   3.865   3.615   2.142
 2888SOL     OW25805   3.886   0.324   0.514
 2888SOL    HW125806   3.883   0.347   0.607
 2888SOL    HW225807   3.887   0.229   0.512
 2889SOL     OW25808   3.493   0.120   6.082
 2889SOL    HW125809   3.451   0.049   6.035
 2889SOL    HW225810   3.470   0.199   6.033
 2890SOL     OW25811   2.644   2.824   7.535
 2890SOL    HW125812   2.621   2.905   7.581
 2890SOL    HW225813   2.645   2.758   7.603
 2891SOL     OW25814   1.139   1.109   1.780
 2891SOL    HW125815   1.059   1.086   1.827
 2891SOL    HW225816   1.183   1.025   1.766
 2892SOL     OW25817   0.647   4.315   7.407
 2892SOL    HW125818   0.580   4.335   7.472
 2892SOL    HW225819   0.725   4.359   7.439
 2893SOL     OW25820   0.090   4.137   6.790
 2893SOL    HW125821   0.020   4.153   6.726
 2893SOL    HW225822   0.044   4.133   6.874
 2894SOL     OW25823   4.729   0.133   1.448
 2894SOL    HW125824   4.741   0.175   1.533
 2894SOL    HW225825   4.804   0.162   1.396
 2895SOL     OW25826   5.142   2.620   0.025
 2895SOL    HW125827   5.062   2.570   0.007
 2895SOL    HW225828   5.173   2.647  -0.061
 2896SOL     OW25829   6.452   6.005   6.159
 2896SOL    HW125830   6.381   5.969   6.105
 2896SOL    HW225831   6.428   6.097   6.171
 2897SOL     OW25832   5.289   4.707   0.503
 2897SOL    HW125833   5.277   4.617   0.534
 2897SOL    HW225834   5.380   4.710   0.473
 2898SOL     OW25835   1.289   1.997   6.007
 2898SOL    HW125836   1.335   2.080   5.990
 2898SOL    HW225837   1.229   1.988   5.933
 2899SOL     OW25838   5.697   3.000   6.179
 2899SOL    HW125839   5.721   2.908   6.164
 2899SOL    HW225840   5.767   3.050   6.137
 2900SOL     OW25841   5.694   1.057   6.905
 2900SOL    HW125842   5.685   1.034   6.812
 2900SOL    HW225843   5.771   1.114   6.908
 2901SOL     OW25844   2.179   4.523   0.345
 2901SOL    HW125845   2.163   4.583   0.271
 2901SOL    HW225846   2.251   4.563   0.393
 2902SOL     OW25847   4.478   5.990   1.139
 2902SOL    HW125848   4.473   6.048   1.062
 2902SOL    HW225849   4.388   5.963   1.154
 2903SOL     OW25850   5.864   2.098   6.918
 2903SOL    HW125851   5.769   2.098   6.934
 2903SOL    HW225852   5.887   2.190   6.909
 2904SOL     OW25853   4.134   4.150   6.331
 2904SOL    HW125854   4.139   4.179   6.240
 2904SOL    HW225855   4.221   4.115   6.349
 2905SOL     OW25856   2.798   4.628   1.434
 2905SOL    HW125857   2.709   4.592   1.435
 2905SOL    HW225858   2.814   4.653   1.525
 2906SOL     OW25859   2.981   4.523   1.968
 2906SOL    HW125860   2.989   4.605   2.017
 2906SOL    HW225861   2.925   4.468   2.023
 2907SOL     OW25862   6.005   1.827   1.416
 2907SOL    HW125863   6.000   1.733   1.434
 2907SOL    HW225864   6.008   1.833   1.320
 2908SOL     OW25865   5.933   3.917   2.502
 2908SOL    HW125866   5.894   3.833   2.527
 2908SOL    HW225867   5.873   3.983   2.538
 2909SOL     OW25868   3.898   0.511   1.800
 2909SOL    HW125869   3.827   0.459   1.764
 2909SOL    HW225870   3.965   0.447   1.825
 2910SOL     OW25871   2.969   1.161   0.120
 2910SOL    HW125872   2.965   1.172   0.215
 2910SOL    HW225873   2.996   1.070   0.107
 2911SOL     OW25874   0.073   2.122   0.128
 2911SOL    HW125875   0.103   2.213   0.123
 2911SOL    HW225876  -0.023   2.129   0.133
 2912SOL     OW25877   6.240   5.679   6.357
 2912SOL    HW125878   6.245   5.590   6.323
 2912SOL    HW225879   6.331   5.709   6.361
 2913SOL     OW25880   1.180   5.791   7.480
 2913SOL    HW125881   1.196   5.830   7.565
 2913SOL    HW225882   1.085   5.773   7.479
 2914SOL     OW25883   4.172   2.143   1.885
 2914SOL    HW125884   4.115   2.097   1.946
 2914SOL    HW225885   4.259   2.136   1.924
 2915SOL     OW25886   3.879   0.870   0.967
 2915SOL    HW125887   3.820   0.946   0.961
 2915SOL    HW225888   3.849   0.823   1.045
 2916SOL     OW25889   0.907   0.332   7.579
 2916SOL    HW125890   0.936   0.335   7.488
 2916SOL    HW225891   0.837   0.397   7.585
 2917SOL     OW25892   0.966   1.709   1.559
 2917SOL    HW125893   0.909   1.632   1.559
 2917SOL    HW225894   1.047   1.680   1.517
 2918SOL     OW25895   0.389   4.586   7.318
 2918SOL    HW125896   0.411   4.512   7.375
 2918SOL    HW225897   0.347   4.649   7.376
 2919SOL     OW25898   1.516   0.403   1.453
 2919SOL    HW125899   1.445   0.381   1.394
 2919SOL    HW225900   1.475   0.454   1.523
 2920SOL     OW25901   2.150   5.815   0.683
 2920SOL    HW125902   2.233   5.786   0.646
 2920SOL    HW225903   2.084   5.764   0.635
 2921SOL     OW25904   1.323   3.114   7.168
 2921SOL    HW125905   1.263   3.142   7.238
 2921SOL    HW225906   1.372   3.042   7.207
 2922SOL     OW25907   4.889   5.779   2.081
 2922SOL    HW125908   4.827   5.740   2.020
 2922SOL    HW225909   4.837   5.842   2.132
 2923SOL     OW25910   2.436   1.128   2.045
 2923SOL    HW125911   2.447   1.193   2.114
 2923SOL    HW225912   2.455   1.176   1.964
 2924SOL     OW25913   3.693   4.695   2.173
 2924SOL    HW125914   3.668   4.739   2.255
 2924SOL    HW225915   3.756   4.629   2.200
 2925SOL     OW25916   4.794   4.725   0.111
 2925SOL    HW125917   4.880   4.754   0.081
 2925SOL    HW225918   4.769   4.788   0.179
 2926SOL     OW25919   0.267   4.606   6.290
 2926SOL    HW125920   0.182   4.616   6.246
 2926SOL    HW225921   0.245   4.588   6.381
 2927SOL     OW25922   3.395   2.620   1.834
 2927SOL    HW125923   3.316   2.612   1.888
 2927SOL    HW225924   3.463   2.575   1.884
 2928SOL     OW25925   4.998   1.572   6.462
 2928SOL    HW125926   5.013   1.652   6.411
 2928SOL    HW225927   4.902   1.564   6.466
 2929SOL     OW25928   1.161   4.921   5.245
 2929SOL    HW125929   1.070   4.951   5.242
 2929SOL    HW225930   1.209   4.986   5.194
 2930SOL     OW25931   5.655   3.865   2.836
 2930SOL    HW125932   5.629   3.922   2.908
 2930SOL    HW225933   5.574   3.844   2.791
 2931SOL     OW25934   4.765   5.905   6.836
 2931SOL    HW125935   4.858   5.909   6.857
 2931SOL    HW225936   4.746   5.812   6.828
 2932SOL     OW25937   1.951   5.694   0.525
 2932SOL    HW125938   2.003   5.692   0.445
 2932SOL    HW225939   1.881   5.757   0.506
 2933SOL     OW25940   0.017   4.491   6.999
 2933SOL    HW125941   0.112   4.492   6.989
 2933SOL    HW225942  -0.015   4.536   6.921
 2934SOL     OW25943   3.306   5.972   7.260
 2934SOL    HW125944   3.223   5.955   7.306
 2934SOL    HW225945   3.373   5.937   7.318
 2935SOL     OW25946   5.934   1.787   2.071
 2935SOL    HW125947   5.976   1.842   2.004
 2935SOL    HW225948   5.870   1.844   2.113
 2936SOL     OW25949   5.139   6.344   0.612
 2936SOL    HW125950   5.085   6.264   0.615
 2936SOL    HW225951   5.076   6.416   0.618
 2937SOL     OW25952   3.281   5.292   0.685
 2937SOL    HW125953   3.204   5.341   0.715
 2937SOL    HW225954   3.352   5.356   0.688
 2938SOL     OW25955   4.315   3.510   7.123
 2938SOL    HW125956   4.385   3.510   7.189
 2938SOL    HW225957   4.292   3.602   7.111
 2939SOL     OW25958   5.819   5.937   6.263
 2939SOL    HW125959   5.770   5.878   6.319
 2939SOL    HW225960   5.767   6.018   6.262
 2940SOL     OW25961   4.785   4.550   6.967
 2940SOL    HW125962   4.807   4.607   7.040
 2940SOL    HW225963   4.816   4.598   6.889
 2941SOL     OW25964   0.282   2.836   6.449
 2941SOL    HW125965   0.242   2.750   6.463
 2941SOL    HW225966   0.299   2.869   6.537
 2942SOL     OW25967   2.960   0.660   0.776
 2942SOL    HW125968   2.907   0.597   0.726
 2942SOL    HW225969   2.978   0.731   0.715
 2943SOL     OW25970   5.832   5.789   1.427
 2943SOL    HW125971   5.781   5.870   1.427
 2943SOL    HW225972   5.859   5.777   1.518
 2944SOL     OW25973   3.746   2.827   6.250
 2944SOL    HW125974   3.791   2.896   6.201
 2944SOL    HW225975   3.786   2.746   6.219
 2945SOL     OW25976   4.929   3.737   2.268
 2945SOL    HW125977   4.840   3.703   2.256
 2945SOL    HW225978   4.916   3.827   2.296
 2946SOL     OW25979   5.279   3.095   0.134
 2946SOL    HW125980   5.351   3.158   0.128
 2946SOL    HW225981   5.323   3.010   0.143
 2947SOL     OW25982   5.170   2.993   0.671
 2947SOL    HW125983   5.108   3.054   0.711
 2947SOL    HW225984   5.182   3.026   0.582
 2948SOL     OW25985   2.557   4.231   7.174
 2948SOL    HW125986   2.469   4.243   7.140
 2948SOL    HW225987   2.587   4.149   7.136
 2949SOL     OW25988   1.708   0.227   6.420
 2949SOL    HW125989   1.640   0.248   6.356
 2949SOL    HW225990   1.790   0.238   6.371
 2950SOL     OW25991   1.609   4.387   6.208
 2950SOL    HW125992   1.607   4.450   6.136
 2950SOL    HW225993   1.541   4.323   6.188
 2951SOL     OW25994   4.576   3.708   7.100
 2951SOL    HW125995   4.540   3.687   7.186
 2951SOL    HW225996   4.511   3.763   7.059
 2952SOL     OW25997   5.245   3.100   1.607
 2952SOL    HW125998   5.313   3.059   1.553
 2952SOL    HW225999   5.289   3.176   1.646
 2953SOL     OW26000   2.711   5.086   7.002
 2953SOL    HW126001   2.658   5.077   7.082
 2953SOL    HW226002   2.756   5.170   7.013
 2954SOL     OW26003   2.356   6.302   7.721
 2954SOL    HW126004   2.409   6.303   7.640
 2954SOL    HW226005   2.266   6.305   7.690
 2955SOL     OW26006   4.310   2.972   7.360
 2955SOL    HW126007   4.222   2.967   7.322
 2955SOL    HW226008   4.336   2.880   7.371
 2956SOL     OW26009   5.857   4.520   7.415
 2956SOL    HW126010   5.909   4.598   7.432
 2956SOL    HW226011   5.827   4.531   7.324
 2957SOL     OW26012   6.368   5.638   6.650
 2957SOL    HW126013   6.453   5.663   6.614
 2957SOL    HW226014   6.305   5.692   6.603
 2958SOL     OW26015   2.695   4.876   6.866
 2958SOL    HW126016   2.736   4.814   6.926
 2958SOL    HW226017   2.697   4.960   6.913
 2959SOL     OW26018   6.357   0.445   0.048
 2959SOL    HW126019   6.324   0.369   0.001
 2959SOL    HW226020   6.426   0.480  -0.009
 2960SOL     OW26021   5.273   2.670   6.624
 2960SOL    HW126022   5.220   2.618   6.683
 2960SOL    HW226023   5.284   2.615   6.546
 2961SOL     OW26024   2.819   2.465   0.478
 2961SOL    HW126025   2.753   2.456   0.410
 2961SOL    HW226026   2.877   2.390   0.465
 2962SOL     OW26027   3.039   2.428   2.769
 2962SOL    HW126028   3.098   2.504   2.760
 2962SOL    HW226029   3.098   2.353   2.771
 2963SOL     OW26030   3.905   3.075   1.303
 2963SOL    HW126031   3.964   3.120   1.242
 2963SOL    HW226032   3.957   3.001   1.336
 2964SOL     OW26033   3.542   6.432   2.196
 2964SOL    HW126034   3.570   6.519   2.168
 2964SOL    HW226035   3.452   6.425   2.164
 2965SOL     OW26036   2.885   3.769   0.021
 2965SOL    HW126037   2.956   3.747   0.081
 2965SOL    HW226038   2.806   3.769   0.076
 2966SOL     OW26039   6.223   5.358   6.475
 2966SOL    HW126040   6.285   5.401   6.416
 2966SOL    HW226041   6.147   5.416   6.477
 2967SOL     OW26042   0.632   2.475   1.592
 2967SOL    HW126043   0.541   2.448   1.604
 2967SOL    HW226044   0.642   2.553   1.646
 2968SOL     OW26045   4.289   0.270   5.512
 2968SOL    HW126046   4.326   0.188   5.479
 2968SOL    HW226047   4.279   0.255   5.606
 2969SOL     OW26048   1.314   0.411   7.507
 2969SOL    HW126049   1.334   0.320   7.529
 2969SOL    HW226050   1.333   0.459   7.587
 2970SOL     OW26051   3.544   5.882   2.035
 2970SOL    HW126052   3.545   5.953   1.971
 2970SOL    HW226053   3.631   5.843   2.029
 2971SOL     OW26054   6.066   3.774   1.402
 2971SOL    HW126055   5.972   3.774   1.380
 2971SOL    HW226056   6.108   3.811   1.324
 2972SOL     OW26057   0.227   3.195   1.397
 2972SOL    HW126058   0.263   3.238   1.319
 2972SOL    HW226059   0.241   3.258   1.468
 2973SOL     OW26060   4.480   2.767   2.304
 2973SOL    HW126061   4.439   2.798   2.224
 2973SOL    HW226062   4.408   2.759   2.367
 2974SOL     OW26063   6.365   2.374   1.355
 2974SOL    HW126064   6.302   2.369   1.284
 2974SOL    HW226065   6.318   2.418   1.426
 2975SOL     OW26066   2.880   4.188   1.215
 2975SOL    HW126067   2.798   4.233   1.237
 2975SOL    HW226068   2.854   4.097   1.199
 2976SOL     OW26069   6.397   4.643   7.691
 2976SOL    HW126070   6.447   4.607   7.764
 2976SOL    HW226071   6.440   4.610   7.613
 2977SOL     OW26072   1.840   0.134   7.119
 2977SOL    HW126073   1.753   0.097   7.109
 2977SOL    HW226074   1.825   0.223   7.152
 2978SOL     OW26075   0.236   0.589   1.101
 2978SOL    HW126076   0.169   0.641   1.145
 2978SOL    HW226077   0.313   0.595   1.158
 2979SOL     OW26078   0.067   3.083   0.576
 2979SOL    HW126079   0.054   3.079   0.481
 2979SOL    HW226080   0.084   3.176   0.594
 2980SOL     OW26081   1.730   3.810   1.129
 2980SOL    HW126082   1.825   3.824   1.123
 2980SOL    HW226083   1.706   3.844   1.215
 2981SOL     OW26084   3.387   3.488   1.203
 2981SOL    HW126085   3.338   3.506   1.122
 2981SOL    HW226086   3.477   3.473   1.173
 2982SOL     OW26087   6.225   2.491   6.919
 2982SOL    HW126088   6.227   2.507   6.824
 2982SOL    HW226089   6.184   2.570   6.955
 2983SOL     OW26090   3.620   4.273   6.597
 2983SOL    HW126091   3.549   4.325   6.636
 2983SOL    HW226092   3.670   4.241   6.673
 2984SOL     OW26093   4.633   6.424   6.069
 2984SOL    HW126094   4.574   6.498   6.081
 2984SOL    HW226095   4.633   6.408   5.975
 2985SOL     OW26096   5.280   3.713   0.759
 2985SOL    HW126097   5.191   3.747   0.752
 2985SOL    HW226098   5.287   3.684   0.850
 2986SOL     OW26099   1.943   0.517   1.113
 2986SOL    HW126100   1.851   0.540   1.097
 2986SOL    HW226101   1.940   0.423   1.131
 2987SOL     OW26102   5.364   5.824   1.344
 2987SOL    HW126103   5.285   5.806   1.395
 2987SOL    HW226104   5.373   5.747   1.287
 2988SOL     OW26105   2.244   0.958   2.003
 2988SOL    HW126106   2.315   1.013   2.035
 2988SOL    HW226107   2.267   0.941   1.911
 2989SOL     OW26108   3.964   6.219   6.814
 2989SOL    HW126109   3.994   6.309   6.818
 2989SOL    HW226110   3.913   6.207   6.895
 2990SOL     OW26111   0.553   0.113   2.314
 2990SOL    HW126112   0.597   0.183   2.266
 2990SOL    HW226113   0.462   0.118   2.286
 2991SOL     OW26114   4.234   5.229   1.119
 2991SOL    HW126115   4.185   5.244   1.038
 2991SOL    HW226116   4.224   5.310   1.168
 2992SOL     OW26117   0.044   3.684   7.252
 2992SOL    HW126118   0.014   3.689   7.162
 2992SOL    HW226119   0.046   3.776   7.281
 2993SOL     OW26120   5.718   1.375   6.587
 2993SOL    HW126121   5.664   1.450   6.561
 2993SOL    HW226122   5.782   1.412   6.649
 2994SOL     OW26123   3.187   2.842   1.188
 2994SOL    HW126124   3.112   2.785   1.205
 2994SOL    HW226125   3.263   2.789   1.210
 2995SOL     OW26126   5.372   1.517   0.797
 2995SOL    HW126127   5.442   1.578   0.772
 2995SOL    HW226128   5.335   1.555   0.877
 2996SOL     OW26129   3.603   6.038   6.330
 2996SOL    HW126130   3.619   6.064   6.239
 2996SOL    HW226131   3.623   6.117   6.381
 2997SOL     OW26132   1.506   2.582   7.095
 2997SOL    HW126133   1.474   2.519   7.159
 2997SOL    HW226134   1.495   2.667   7.137
 2998SOL     OW26135   4.424   4.586   1.919
 2998SOL    HW126136   4.382   4.637   1.850
 2998SOL    HW226137   4.373   4.504   1.922
 2999SOL     OW26138   0.914   0.379   6.629
 2999SOL    HW126139   0.919   0.411   6.539
 2999SOL    HW226140   0.820   0.368   6.645
 3000SOL     OW26141   0.229   5.579   0.944
 3000SOL    HW126142   0.298   5.625   0.991
 3000SOL    HW226143   0.155   5.578   1.005
 3001SOL     OW26144   1.487   2.232   7.536
 3001SOL    HW126145   1.495   2.144   7.499
 3001SOL    HW226146   1.453   2.219   7.625
 3002SOL     OW26147   4.965   0.749   6.703
 3002SOL    HW126148   4.964   0.767   6.797
 3002SOL    HW226149   4.987   0.657   6.696
 3003SOL     OW26150   0.632   1.551   7.570
 3003SOL    HW126151   0.691   1.626   7.564
 3003SOL    HW226152   0.595   1.543   7.482
 3004SOL     OW26153   0.558   5.551   7.103
 3004SOL    HW126154   0.616   5.621   7.135
 3004SOL    HW226155   0.507   5.591   7.033
 3005SOL     OW26156   1.232   5.791   0.804
 3005SOL    HW126157   1.278   5.710   0.780
 3005SOL    HW226158   1.298   5.842   0.852
 3006SOL     OW26159   5.013   5.766   1.116
 3006SOL    HW126160   5.071   5.691   1.130
 3006SOL    HW226161   4.928   5.736   1.146
 3007SOL     OW26162   4.742   2.599   0.204
 3007SOL    HW126163   4.680   2.659   0.162
 3007SOL    HW226164   4.686   2.540   0.255
 3008SOL     OW26165   3.604   3.115   5.630
 3008SOL    HW126166   3.672   3.092   5.567
 3008SOL    HW226167   3.527   3.067   5.600
 3009SOL     OW26168   1.101   0.405   7.768
 3009SOL    HW126169   1.085   0.499   7.767
 3009SOL    HW226170   1.049   0.371   7.695
 3010SOL     OW26171   2.189   5.478   5.599
 3010SOL    HW126172   2.277   5.462   5.632
 3010SOL    HW226173   2.192   5.452   5.507
 3011SOL     OW26174   5.213   4.380   0.093
 3011SOL    HW126175   5.243   4.326   0.166
 3011SOL    HW226176   5.198   4.467   0.131
 3012SOL     OW26177   1.496   0.185   6.891
 3012SOL    HW126178   1.514   0.104   6.940
 3012SOL    HW226179   1.510   0.161   6.800
 3013SOL     OW26180   5.556   3.908   6.902
 3013SOL    HW126181   5.645   3.942   6.891
 3013SOL    HW226182   5.566   3.813   6.903
 3014SOL     OW26183   3.178   5.325   1.834
 3014SOL    HW126184   3.237   5.314   1.908
 3014SOL    HW226185   3.174   5.419   1.820
 3015SOL     OW26186   5.754   4.767   2.139
 3015SOL    HW126187   5.797   4.748   2.056
 3015SOL    HW226188   5.680   4.706   2.142
 3016SOL     OW26189   1.063   2.353   7.366
 3016SOL    HW126190   1.150   2.326   7.394
 3016SOL    HW226191   1.015   2.369   7.447
 3017SOL     OW26192   0.763   0.671   1.218
 3017SOL    HW126193   0.753   0.737   1.150
 3017SOL    HW226194   0.798   0.594   1.173
 3018SOL     OW26195   4.118   0.488   6.445
 3018SOL    HW126196   4.068   0.520   6.520
 3018SOL    HW226197   4.154   0.567   6.406
 3019SOL     OW26198   5.620   3.190   1.714
 3019SOL    HW126199   5.618   3.178   1.809
 3019SOL    HW226200   5.543   3.243   1.694
 3020SOL     OW26201   0.106   3.476   7.005
 3020SOL    HW126202   0.086   3.518   7.089
 3020SOL    HW226203   0.201   3.476   7.000
 3021SOL     OW26204   2.453   3.238   7.125
 3021SOL    HW126205   2.493   3.256   7.209
 3021SOL    HW226206   2.487   3.306   7.067
 3022SOL     OW26207   4.721   0.777   0.038
 3022SOL    HW126208   4.741   0.684   0.050
 3022SOL    HW226209   4.736   0.793  -0.055
 3023SOL     OW26210   0.043   5.204   1.031
 3023SOL    HW126211   0.066   5.225   0.940
 3023SOL    HW226212   0.061   5.111   1.039
 3024SOL     OW26213   2.213   1.410   7.058
 3024SOL    HW126214   2.183   1.338   7.003
 3024SOL    HW226215   2.303   1.386   7.082
 3025SOL     OW26216   4.802   5.418   7.237
 3025SOL    HW126217   4.894   5.444   7.234
 3025SOL    HW226218   4.803   5.323   7.226
 3026SOL     OW26219   0.523   6.153   6.236
 3026SOL    HW126220   0.472   6.093   6.182
 3026SOL    HW226221   0.596   6.179   6.180
 3027SOL     OW26222   0.155   2.844   7.078
 3027SOL    HW126223   0.225   2.821   7.017
 3027SOL    HW226224   0.149   2.939   7.073
 3028SOL     OW26225   0.523   2.397   1.178
 3028SOL    HW126226   0.474   2.462   1.128
 3028SOL    HW226227   0.573   2.448   1.241
 3029SOL     OW26228   4.718   4.922   7.358
 3029SOL    HW126229   4.700   5.010   7.325
 3029SOL    HW226230   4.738   4.935   7.451
 3030SOL     OW26231   3.066   4.544   1.296
 3030SOL    HW126232   3.019   4.539   1.379
 3030SOL    HW226233   2.999   4.529   1.229
 3031SOL     OW26234   0.561   3.420   0.964
 3031SOL    HW126235   0.613   3.368   1.026
 3031SOL    HW226236   0.581   3.382   0.878
 3032SOL     OW26237   0.963   5.364   0.391
 3032SOL    HW126238   1.009   5.384   0.310
 3032SOL    HW226239   0.885   5.315   0.364
 3033SOL     OW26240   5.824   4.355   6.692
 3033SOL    HW126241   5.766   4.296   6.644
 3033SOL    HW226242   5.888   4.297   6.734
 3034SOL     OW26243   1.046   4.309   5.852
 3034SOL    HW126244   0.980   4.324   5.785
 3034SOL    HW226245   1.100   4.388   5.851
 3035SOL     OW26246   2.266   2.171   0.858
 3035SOL    HW126247   2.182   2.177   0.813
 3035SOL    HW226248   2.245   2.135   0.944
 3036SOL     OW26249   0.281   3.846   2.687
 3036SOL    HW126250   0.193   3.884   2.687
 3036SOL    HW226251   0.266   3.752   2.678
 3037SOL     OW26252   5.579   2.067   2.665
 3037SOL    HW126253   5.671   2.087   2.680
 3037SOL    HW226254   5.551   2.130   2.598
 3038SOL     OW26255   6.068   3.497   7.359
 3038SOL    HW126256   5.987   3.525   7.402
 3038SOL    HW226257   6.089   3.568   7.299
 3039SOL     OW26258   5.147   2.529   6.814
 3039SOL    HW126259   5.122   2.587   6.886
 3039SOL    HW226260   5.065   2.512   6.768
 3040SOL     OW26261   4.040   4.978   6.296
 3040SOL    HW126262   4.117   4.933   6.261
 3040SOL    HW226263   4.075   5.059   6.333
 3041SOL     OW26264   3.800   0.659   6.805
 3041SOL    HW126265   3.752   0.679   6.885
 3041SOL    HW226266   3.732   0.635   6.742
 3042SOL     OW26267   6.386   5.422   6.267
 3042SOL    HW126268   6.356   5.420   6.176
 3042SOL    HW226269   6.469   5.373   6.266
 3043SOL     OW26270   6.422   5.959   1.723
 3043SOL    HW126271   6.404   5.925   1.810
 3043SOL    HW226272   6.342   6.003   1.696
 3044SOL     OW26273   0.542   4.377   6.904
 3044SOL    HW126274   0.547   4.345   6.814
 3044SOL    HW226275   0.628   4.359   6.941
 3045SOL     OW26276   1.440   2.251   7.214
 3045SOL    HW126277   1.510   2.278   7.155
 3045SOL    HW226278   1.484   2.226   7.295
 3046SOL     OW26279   2.462   0.142   7.072
 3046SOL    HW126280   2.481   0.163   6.981
 3046SOL    HW226281   2.393   0.204   7.097
 3047SOL     OW26282   5.308   6.041   1.777
 3047SOL    HW126283   5.345   5.953   1.782
 3047SOL    HW226284   5.356   6.083   1.706
 3048SOL     OW26285   4.954   4.531   6.749
 3048SOL    HW126286   4.998   4.446   6.745
 3048SOL    HW226287   5.025   4.595   6.754
 3049SOL     OW26288   0.723   0.124   7.480
 3049SOL    HW126289   0.799   0.070   7.461
 3049SOL    HW226290   0.759   0.208   7.510
 3050SOL     OW26291   1.695   3.403   1.205
 3050SOL    HW126292   1.724   3.314   1.182
 3050SOL    HW226293   1.776   3.450   1.225
 3051SOL     OW26294   3.781   3.929   1.630
 3051SOL    HW126295   3.811   3.964   1.546
 3051SOL    HW226296   3.844   3.860   1.651
 3052SOL     OW26297   1.263   0.235   1.564
 3052SOL    HW126298   1.199   0.298   1.530
 3052SOL    HW226299   1.316   0.285   1.625
 3053SOL     OW26300   4.141   0.828   7.348
 3053SOL    HW126301   4.165   0.736   7.344
 3053SOL    HW226302   4.111   0.842   7.438
 3054SOL     OW26303   3.863   4.148   7.550
 3054SOL    HW126304   3.858   4.194   7.634
 3054SOL    HW226305   3.923   4.075   7.566
 3055SOL     OW26306   1.438   1.118   0.595
 3055SOL    HW126307   1.466   1.127   0.504
 3055SOL    HW226308   1.373   1.047   0.593
 3056SOL     OW26309   6.159   4.492   0.620
 3056SOL    HW126310   6.098   4.419   0.626
 3056SOL    HW226311   6.170   4.523   0.710
 3057SOL     OW26312   5.626   3.639   0.974
 3057SOL    HW126313   5.704   3.601   1.014
 3057SOL    HW226314   5.622   3.602   0.886
 3058SOL     OW26315   2.526   2.063   1.055
 3058SOL    HW126316   2.529   2.027   0.966
 3058SOL    HW226317   2.433   2.079   1.070
 3059SOL     OW26318   1.419   1.132   1.979
 3059SOL    HW126319   1.476   1.199   2.017
 3059SOL    HW226320   1.330   1.166   1.990
 3060SOL     OW26321   6.317   2.523   7.561
 3060SOL    HW126322   6.288   2.445   7.513
 3060SOL    HW226323   6.341   2.490   7.648
 3061SOL     OW26324   5.935   4.344   0.061
 3061SOL    HW126325   5.853   4.393   0.064
 3061SOL    HW226326   5.988   4.391  -0.004
 3062SOL     OW26327   3.335   2.025   1.543
 3062SOL    HW126328   3.349   2.016   1.637
 3062SOL    HW226329   3.376   2.108   1.520
 3063SOL     OW26330   0.614   5.568   1.866
 3063SOL    HW126331   0.564   5.558   1.785
 3063SOL    HW226332   0.568   5.637   1.914
 3064SOL     OW26333   2.158   4.468   7.213
 3064SOL    HW126334   2.233   4.521   7.186
 3064SOL    HW226335   2.128   4.508   7.294
 3065SOL     OW26336   0.333   5.293   1.550
 3065SOL    HW126337   0.240   5.286   1.568
 3065SOL    HW226338   0.375   5.233   1.612
 3066SOL     OW26339   4.448   6.126   1.597
 3066SOL    HW126340   4.448   6.048   1.651
 3066SOL    HW226341   4.494   6.100   1.517
 3067SOL     OW26342   1.511   3.415   6.128
 3067SOL    HW126343   1.508   3.420   6.224
 3067SOL    HW226344   1.518   3.321   6.109
 3068SOL     OW26345   3.664   3.827   6.656
 3068SOL    HW126346   3.572   3.846   6.675
 3068SOL    HW226347   3.697   3.785   6.735
 3069SOL     OW26348   5.044   1.027   0.441
 3069SOL    HW126349   5.052   0.987   0.528
 3069SOL    HW226350   5.052   1.121   0.456
 3070SOL     OW26351   1.390   3.389   1.561
 3070SOL    HW126352   1.405   3.304   1.518
 3070SOL    HW226353   1.450   3.449   1.516
 3071SOL     OW26354   1.449   4.560   0.236
 3071SOL    HW126355   1.402   4.575   0.318
 3071SOL    HW226356   1.480   4.469   0.243
 3072SOL     OW26357   0.455   1.645   7.328
 3072SOL    HW126358   0.374   1.695   7.315
 3072SOL    HW226359   0.483   1.621   7.240
 3073SOL     OW26360   1.290   1.952   1.618
 3073SOL    HW126361   1.234   1.960   1.541
 3073SOL    HW226362   1.314   2.042   1.639
 3074SOL     OW26363   2.940   3.267   0.401
 3074SOL    HW126364   2.858   3.246   0.447
 3074SOL    HW226365   2.986   3.184   0.394
 3075SOL     OW26366   2.676   0.854   1.932
 3075SOL    HW126367   2.596   0.829   1.885
 3075SOL    HW226368   2.696   0.942   1.901
 3076SOL     OW26369   2.932   2.901   6.822
 3076SOL    HW126370   2.898   2.965   6.884
 3076SOL    HW226371   2.855   2.849   6.797
 3077SOL     OW26372   3.032   2.649   6.782
 3077SOL    HW126373   3.127   2.655   6.792
 3077SOL    HW226374   3.000   2.738   6.797
 3078SOL     OW26375   5.517   5.085   3.101
 3078SOL    HW126376   5.550   5.085   3.191
 3078SOL    HW226377   5.513   5.178   3.078
 3079SOL     OW26378   6.279   0.533   0.292
 3079SOL    HW126379   6.338   0.595   0.335
 3079SOL    HW226380   6.327   0.504   0.214
 3080SOL     OW26381   2.323   5.511   0.761
 3080SOL    HW126382   2.239   5.491   0.719
 3080SOL    HW226383   2.374   5.554   0.693
 3081SOL     OW26384   3.995   4.510   0.585
 3081SOL    HW126385   4.089   4.491   0.586
 3081SOL    HW226386   3.976   4.535   0.495
 3082SOL     OW26387   6.297   5.634   2.589
 3082SOL    HW126388   6.362   5.705   2.587
 3082SOL    HW226389   6.237   5.656   2.517
 3083SOL     OW26390   2.622   5.992   1.123
 3083SOL    HW126391   2.566   5.958   1.192
 3083SOL    HW226392   2.622   5.924   1.056
 3084SOL     OW26393   3.989   2.026   1.654
 3084SOL    HW126394   3.955   1.996   1.738
 3084SOL    HW226395   3.928   2.094   1.626
 3085SOL     OW26396   2.943   5.977   2.183
 3085SOL    HW126397   2.857   5.934   2.191
 3085SOL    HW226398   2.988   5.928   2.114
 3086SOL     OW26399   2.227   4.956   1.229
 3086SOL    HW126400   2.215   5.051   1.222
 3086SOL    HW226401   2.152   4.926   1.280
 3087SOL     OW26402   3.067   1.845   5.691
 3087SOL    HW126403   3.034   1.784   5.757
 3087SOL    HW226404   3.060   1.796   5.609
 3088SOL     OW26405   4.110   1.128   6.145
 3088SOL    HW126406   4.198   1.091   6.134
 3088SOL    HW226407   4.062   1.063   6.196
 3089SOL     OW26408   4.407   2.935   6.333
 3089SOL    HW126409   4.386   2.902   6.245
 3089SOL    HW226410   4.340   3.001   6.351
 3090SOL     OW26411   2.851   5.184   7.764
 3090SOL    HW126412   2.899   5.143   7.836
 3090SOL    HW226413   2.918   5.217   7.705
 3091SOL     OW26414   1.317   2.004   0.610
 3091SOL    HW126415   1.304   2.053   0.692
 3091SOL    HW226416   1.237   1.952   0.600
 3092SOL     OW26417   1.636   0.006   1.263
 3092SOL    HW126418   1.548   0.011   1.226
 3092SOL    HW226419   1.629   0.052   1.347
 3093SOL     OW26420   2.482   1.341   6.053
 3093SOL    HW126421   2.513   1.357   5.964
 3093SOL    HW226422   2.400   1.390   6.060
 3094SOL     OW26423   1.900   1.996   0.841
 3094SOL    HW126424   1.812   2.033   0.843
 3094SOL    HW226425   1.888   1.903   0.862
 3095SOL     OW26426   3.495   3.886   7.760
 3095SOL    HW126427   3.479   3.847   7.674
 3095SOL    HW226428   3.416   3.934   7.781
 3096SOL     OW26429   5.490   0.946   0.685
 3096SOL    HW126430   5.432   0.957   0.610
 3096SOL    HW226431   5.456   0.870   0.731
 3097SOL     OW26432   0.108   5.339   6.687
 3097SOL    HW126433   0.145   5.279   6.752
 3097SOL    HW226434   0.014   5.340   6.706
 3098SOL     OW26435   2.039   4.591   1.902
 3098SOL    HW126436   1.978   4.556   1.838
 3098SOL    HW226437   1.992   4.587   1.985
 3099SOL     OW26438   1.293   5.685   1.827
 3099SOL    HW126439   1.270   5.657   1.738
 3099SOL    HW226440   1.296   5.604   1.878
 3100SOL     OW26441   3.844   2.511   0.191
 3100SOL    HW126442   3.825   2.575   0.260
 3100SOL    HW226443   3.850   2.428   0.237
 3101SOL     OW26444   2.611   3.176   2.083
 3101SOL    HW126445   2.651   3.263   2.085
 3101SOL    HW226446   2.678   3.117   2.116
 3102SOL     OW26447   0.867   5.709   0.439
 3102SOL    HW126448   0.808   5.651   0.391
 3102SOL    HW226449   0.879   5.666   0.524
 3103SOL     OW26450   4.592   2.786   0.857
 3103SOL    HW126451   4.526   2.844   0.819
 3103SOL    HW226452   4.674   2.836   0.852
 3104SOL     OW26453   4.081   2.231   0.213
 3104SOL    HW126454   4.155   2.170   0.205
 3104SOL    HW226455   4.015   2.196   0.153
 3105SOL     OW26456   5.154   5.171   7.394
 3105SOL    HW126457   5.099   5.101   7.429
 3105SOL    HW226458   5.165   5.232   7.467
 3106SOL     OW26459   2.276   3.942   6.189
 3106SOL    HW126460   2.370   3.930   6.202
 3106SOL    HW226461   2.258   3.901   6.105
 3107SOL     OW26462   4.007   4.028   0.880
 3107SOL    HW126463   3.926   4.022   0.931
 3107SOL    HW226464   4.035   4.119   0.890
 3108SOL     OW26465   1.486   4.668   6.740
 3108SOL    HW126466   1.543   4.715   6.679
 3108SOL    HW226467   1.547   4.617   6.794
 3109SOL     OW26468   5.039   4.585   0.850
 3109SOL    HW126469   4.986   4.626   0.919
 3109SOL    HW226470   5.121   4.634   0.852
 3110SOL     OW26471   5.632   6.279   6.074
 3110SOL    HW126472   5.610   6.355   6.019
 3110SOL    HW226473   5.704   6.310   6.130
 3111SOL     OW26474   5.000   0.554   7.687
 3111SOL    HW126475   4.959   0.568   7.602
 3111SOL    HW226476   5.048   0.472   7.677
 3112SOL     OW26477   0.698   0.286   1.699
 3112SOL    HW126478   0.612   0.321   1.677
 3112SOL    HW226479   0.730   0.342   1.770
 3113SOL     OW26480   1.018   5.666   7.219
 3113SOL    HW126481   1.013   5.570   7.222
 3113SOL    HW226482   1.044   5.686   7.129
 3114SOL     OW26483   1.841   5.306   1.364
 3114SOL    HW126484   1.891   5.310   1.282
 3114SOL    HW226485   1.877   5.377   1.417
 3115SOL     OW26486   4.339   5.020   0.830
 3115SOL    HW126487   4.350   4.998   0.923
 3115SOL    HW226488   4.331   4.936   0.786
 3116SOL     OW26489   3.903   1.033   0.452
 3116SOL    HW126490   3.817   1.057   0.416
 3116SOL    HW226491   3.911   0.939   0.434
 3117SOL     OW26492   5.112   5.656   1.961
 3117SOL    HW126493   5.188   5.603   1.986
 3117SOL    HW226494   5.044   5.631   2.023
 3118SOL     OW26495   2.097   2.919   0.176
 3118SOL    HW126496   2.138   2.837   0.204
 3118SOL    HW226497   2.169   2.970   0.138
 3119SOL     OW26498   1.938   5.431   7.575
 3119SOL    HW126499   1.959   5.502   7.514
 3119SOL    HW226500   1.858   5.392   7.539
 3120SOL     OW26501   2.179   3.966   0.281
 3120SOL    HW126502   2.183   4.024   0.357
 3120SOL    HW226503   2.235   4.008   0.215
 3121SOL     OW26504   1.868   4.758   6.715
 3121SOL    HW126505   1.805   4.718   6.775
 3121SOL    HW226506   1.943   4.780   6.770
 3122SOL     OW26507   1.748   3.161   1.136
 3122SOL    HW126508   1.835   3.178   1.099
 3122SOL    HW226509   1.721   3.079   1.094
 3123SOL     OW26510   0.190   3.763   0.133
 3123SOL    HW126511   0.098   3.746   0.152
 3123SOL    HW226512   0.221   3.682   0.092
 3124SOL     OW26513   0.238   1.969   0.472
 3124SOL    HW126514   0.248   1.922   0.389
 3124SOL    HW226515   0.147   1.956   0.497
 3125SOL     OW26516   5.886   0.198   0.974
 3125SOL    HW126517   5.926   0.154   0.899
 3125SOL    HW226518   5.951   0.264   1.001
 3126SOL     OW26519   5.451   1.073   1.888
 3126SOL    HW126520   5.442   0.981   1.913
 3126SOL    HW226521   5.474   1.118   1.969
 3127SOL     OW26522   6.187   5.135   5.590
 3127SOL    HW126523   6.154   5.046   5.580
 3127SOL    HW226524   6.193   5.169   5.500
 3128SOL     OW26525   0.542   3.435   0.093
 3128SOL    HW126526   0.583   3.441   0.007
 3128SOL    HW226527   0.569   3.350   0.127
 3129SOL     OW26528   2.521   1.656   6.890
 3129SOL    HW126529   2.466   1.600   6.835
 3129SOL    HW226530   2.481   1.653   6.976
 3130SOL     OW26531   0.658   1.692   6.155
 3130SOL    HW126532   0.718   1.761   6.128
 3130SOL    HW226533   0.640   1.642   6.076
 3131SOL     OW26534   6.431   0.955   6.000
 3131SOL    HW126535   6.387   1.040   5.994
 3131SOL    HW226536   6.524   0.975   5.992
 3132SOL     OW26537   2.555   6.348   1.191
 3132SOL    HW126538   2.528   6.271   1.241
 3132SOL    HW226539   2.548   6.420   1.254
 3133SOL     OW26540   6.005   2.760   1.128
 3133SOL    HW126541   6.026   2.784   1.038
 3133SOL    HW226542   6.086   2.722   1.162
 3134SOL     OW26543   4.071   0.768   5.466
 3134SOL    HW126544   4.102   0.678   5.476
 3134SOL    HW226545   3.977   0.760   5.452
 3135SOL     OW26546   3.191   3.631   2.418
 3135SOL    HW126547   3.192   3.701   2.482
 3135SOL    HW226548   3.112   3.647   2.366
 3136SOL     OW26549   4.412   1.881   7.357
 3136SOL    HW126550   4.504   1.873   7.331
 3136SOL    HW226551   4.392   1.974   7.347
 3137SOL     OW26552   1.606   0.599   7.551
 3137SOL    HW126553   1.582   0.623   7.461
 3137SOL    HW226554   1.675   0.660   7.575
 3138SOL     OW26555   3.186   4.298   0.801
 3138SOL    HW126556   3.189   4.277   0.894
 3138SOL    HW226557   3.116   4.363   0.794
 3139SOL     OW26558   3.106   3.920   0.474
 3139SOL    HW126559   3.137   3.936   0.385
 3139SOL    HW226560   3.154   3.983   0.528
 3140SOL     OW26561   3.542   5.614   1.674
 3140SOL    HW126562   3.505   5.612   1.762
 3140SOL    HW226563   3.509   5.535   1.632
 3141SOL     OW26564   2.443   0.847   1.433
 3141SOL    HW126565   2.439   0.902   1.355
 3141SOL    HW226566   2.536   0.843   1.455
 3142SOL     OW26567   4.964   4.703   5.915
 3142SOL    HW126568   5.045   4.652   5.907
 3142SOL    HW226569   4.967   4.765   5.842
 3143SOL     OW26570   4.256   0.591   7.375
 3143SOL    HW126571   4.312   0.603   7.452
 3143SOL    HW226572   4.179   0.544   7.407
 3144SOL     OW26573   1.303   1.815   6.198
 3144SOL    HW126574   1.308   1.850   6.287
 3144SOL    HW226575   1.295   1.892   6.142
 3145SOL     OW26576   3.070   4.087   6.764
 3145SOL    HW126577   2.981   4.057   6.786
 3145SOL    HW226578   3.057   4.157   6.701
 3146SOL     OW26579   2.837   1.054   6.666
 3146SOL    HW126580   2.745   1.056   6.692
 3146SOL    HW226581   2.840   0.994   6.592
 3147SOL     OW26582   4.917   3.768   6.769
 3147SOL    HW126583   4.942   3.763   6.677
 3147SOL    HW226584   4.986   3.721   6.815
 3148SOL     OW26585   0.979   3.244   7.752
 3148SOL    HW126586   0.983   3.282   7.840
 3148SOL    HW226587   0.908   3.180   7.757
 3149SOL     OW26588   0.716   0.930   0.123
 3149SOL    HW126589   0.669   1.001   0.079
 3149SOL    HW226590   0.758   0.971   0.198
 3150SOL     OW26591   4.581   1.486   1.540
 3150SOL    HW126592   4.622   1.565   1.504
 3150SOL    HW226593   4.593   1.420   1.472
 3151SOL     OW26594   0.981   1.195   5.735
 3151SOL    HW126595   0.944   1.134   5.798
 3151SOL    HW226596   0.904   1.229   5.688
 3152SOL     OW26597   0.972   1.010   6.866
 3152SOL    HW126598   0.929   1.038   6.947
 3152SOL    HW226599   1.063   1.036   6.877
 3153SOL     OW26600   3.974   5.325   7.403
 3153SOL    HW126601   3.935   5.393   7.457
 3153SOL    HW226602   4.061   5.311   7.440
 3154SOL     OW26603   2.916   3.580   6.891
 3154SOL    HW126604   3.006   3.608   6.905
 3154SOL    HW226605   2.863   3.657   6.914
 3155SOL     OW26606   0.489   3.396   7.447
 3155SOL    HW126607   0.582   3.376   7.444
 3155SOL    HW226608   0.448   3.313   7.473
 3156SOL     OW26609   5.137   4.232   6.768
 3156SOL    HW126610   5.174   4.244   6.855
 3156SOL    HW226611   5.072   4.163   6.778
 3157SOL     OW26612   2.918   4.313   1.523
 3157SOL    HW126613   2.940   4.379   1.589
 3157SOL    HW226614   2.956   4.232   1.556
 3158SOL     OW26615   3.920   3.479   7.479
 3158SOL    HW126616   3.827   3.477   7.504
 3158SOL    HW226617   3.919   3.506   7.387
 3159SOL     OW26618   2.338   3.156   1.624
 3159SOL    HW126619   2.418   3.193   1.660
 3159SOL    HW226620   2.368   3.089   1.562
 3160SOL     OW26621   1.278   2.797   1.933
 3160SOL    HW126622   1.281   2.704   1.952
 3160SOL    HW226623   1.187   2.822   1.949
 3161SOL     OW26624   4.460   5.110   6.210
 3161SOL    HW126625   4.438   5.101   6.303
 3161SOL    HW226626   4.391   5.167   6.175
 3162SOL     OW26627   5.402   0.780   0.067
 3162SOL    HW126628   5.479   0.764   0.122
 3162SOL    HW226629   5.337   0.716   0.097
 3163SOL     OW26630   4.542   2.009   1.233
 3163SOL    HW126631   4.548   1.966   1.318
 3163SOL    HW226632   4.489   2.087   1.249
 3164SOL     OW26633   0.073   5.361   1.553
 3164SOL    HW126634   0.058   5.315   1.470
 3164SOL    HW226635  -0.010   5.404   1.571
 3165SOL     OW26636   2.730   4.902   0.035
 3165SOL    HW126637   2.784   4.981   0.027
 3165SOL    HW226638   2.680   4.915   0.116
 3166SOL     OW26639   3.545   4.043   1.446
 3166SOL    HW126640   3.639   4.025   1.442
 3166SOL    HW226641   3.508   3.966   1.487
 3167SOL     OW26642   3.671   1.627   5.747
 3167SOL    HW126643   3.708   1.703   5.792
 3167SOL    HW226644   3.725   1.554   5.777
 3168SOL     OW26645   6.301   1.436   6.125
 3168SOL    HW126646   6.295   1.407   6.034
 3168SOL    HW226647   6.353   1.368   6.168
 3169SOL     OW26648   6.112   5.756   7.474
 3169SOL    HW126649   6.163   5.689   7.520
 3169SOL    HW226650   6.088   5.819   7.542
 3170SOL     OW26651   3.742   2.145   1.180
 3170SOL    HW126652   3.680   2.147   1.253
 3170SOL    HW226653   3.753   2.052   1.161
 3171SOL     OW26654   0.827   5.968   2.033
 3171SOL    HW126655   0.908   5.992   2.077
 3171SOL    HW226656   0.854   5.937   1.946
 3172SOL     OW26657   5.743   2.458   0.281
 3172SOL    HW126658   5.724   2.383   0.224
 3172SOL    HW226659   5.838   2.461   0.287
 3173SOL     OW26660   3.451   2.662   6.817
 3173SOL    HW126661   3.397   2.669   6.738
 3173SOL    HW226662   3.529   2.614   6.789
 3174SOL     OW26663   2.701   2.745   6.735
 3174SOL    HW126664   2.636   2.754   6.665
 3174SOL    HW226665   2.667   2.674   6.790
 3175SOL     OW26666   4.923   5.340   1.783
 3175SOL    HW126667   4.845   5.389   1.755
 3175SOL    HW226668   4.995   5.378   1.732
 3176SOL     OW26669   0.732   0.363   0.598
 3176SOL    HW126670   0.770   0.408   0.674
 3176SOL    HW226671   0.775   0.405   0.523
 3177SOL     OW26672   1.734   1.358   0.479
 3177SOL    HW126673   1.651   1.402   0.495
 3177SOL    HW226674   1.760   1.387   0.392
 3178SOL     OW26675   0.447   5.123   1.077
 3178SOL    HW126676   0.438   5.120   0.981
 3178SOL    HW226677   0.497   5.045   1.099
 3179SOL     OW26678   5.580   3.073   1.020
 3179SOL    HW126679   5.639   3.048   1.090
 3179SOL    HW226680   5.578   2.997   0.962
 3180SOL     OW26681   3.058   0.860   2.253
 3180SOL    HW126682   3.149   0.890   2.252
 3180SOL    HW226683   3.060   0.774   2.212
 3181SOL     OW26684   1.240   3.567   2.633
 3181SOL    HW126685   1.224   3.653   2.671
 3181SOL    HW226686   1.175   3.510   2.674
 3182SOL     OW26687   4.520   1.237   0.154
 3182SOL    HW126688   4.464   1.159   0.145
 3182SOL    HW226689   4.544   1.239   0.247
 3183SOL     OW26690   5.178   0.948   0.215
 3183SOL    HW126691   5.125   0.978   0.141
 3183SOL    HW226692   5.121   0.958   0.291
 3184SOL     OW26693   3.967   3.532   7.160
 3184SOL    HW126694   3.978   3.437   7.154
 3184SOL    HW226695   4.054   3.567   7.143
 3185SOL     OW26696   6.327   4.019   7.190
 3185SOL    HW126697   6.233   4.021   7.173
 3185SOL    HW226698   6.335   3.973   7.273
 3186SOL     OW26699   1.351   4.953   6.355
 3186SOL    HW126700   1.315   5.032   6.395
 3186SOL    HW226701   1.274   4.899   6.335
 3187SOL     OW26702   4.055   4.241   6.863
 3187SOL    HW126703   3.992   4.306   6.835
 3187SOL    HW226704   4.008   4.158   6.859
 3188SOL     OW26705   4.178   4.451   1.141
 3188SOL    HW126706   4.168   4.360   1.169
 3188SOL    HW226707   4.204   4.498   1.220
 3189SOL     OW26708   0.422   1.112   7.016
 3189SOL    HW126709   0.344   1.143   7.063
 3189SOL    HW226710   0.388   1.085   6.931
 3190SOL     OW26711   6.259   3.868   1.945
 3190SOL    HW126712   6.348   3.904   1.942
 3190SOL    HW226713   6.268   3.787   1.994
 3191SOL     OW26714   2.103   4.320   0.116
 3191SOL    HW126715   2.186   4.345   0.075
 3191SOL    HW226716   2.113   4.347   0.208
 3192SOL     OW26717   3.320   5.586   0.747
 3192SOL    HW126718   3.344   5.664   0.796
 3192SOL    HW226719   3.276   5.530   0.811
 3193SOL     OW26720   4.167   1.576   1.519
 3193SOL    HW126721   4.166   1.570   1.424
 3193SOL    HW226722   4.221   1.502   1.547
 3194SOL     OW26723   1.084   0.922   7.695
 3194SOL    HW126724   1.085   0.950   7.787
 3194SOL    HW226725   1.124   0.995   7.648
 3195SOL     OW26726   3.542   2.633   0.181
 3195SOL    HW126727   3.625   2.586   0.193
 3195SOL    HW226728   3.475   2.571   0.211
 3196SOL     OW26729   0.087   6.086   1.323
 3196SOL    HW126730   0.112   6.073   1.414
 3196SOL    HW226731   0.112   6.004   1.279
 3197SOL     OW26732   3.121   2.761   5.975
 3197SOL    HW126733   3.160   2.767   6.062
 3197SOL    HW226734   3.182   2.706   5.926
 3198SOL     OW26735   6.365   2.280   7.430
 3198SOL    HW126736   6.321   2.226   7.364
 3198SOL    HW226737   6.439   2.319   7.384
 3199SOL     OW26738   0.933   6.401   0.226
 3199SOL    HW126739   0.947   6.445   0.309
 3199SOL    HW226740   0.945   6.470   0.160
 3200SOL     OW26741   4.165   4.465   2.234
 3200SOL    HW126742   4.160   4.454   2.329
 3200SOL    HW226743   4.224   4.396   2.204
 3201SOL     OW26744   2.007   1.416   6.443
 3201SOL    HW126745   2.082   1.471   6.422
 3201SOL    HW226746   1.933   1.477   6.450
 3202SOL     OW26747   0.873   0.665   6.709
 3202SOL    HW126748   0.777   0.668   6.712
 3202SOL    HW226749   0.893   0.582   6.667
 3203SOL     OW26750   2.578   1.031   0.865
 3203SOL    HW126751   2.488   1.006   0.846
 3203SOL    HW226752   2.576   1.063   0.955
 3204SOL     OW26753   2.538   5.203   1.659
 3204SOL    HW126754   2.562   5.296   1.660
 3204SOL    HW226755   2.482   5.192   1.735
 3205SOL     OW26756   1.565   3.544   0.718
 3205SOL    HW126757   1.639   3.510   0.770
 3205SOL    HW226758   1.558   3.635   0.745
 3206SOL     OW26759   2.370   4.266   6.926
 3206SOL    HW126760   2.340   4.272   6.835
 3206SOL    HW226761   2.332   4.185   6.959
 3207SOL     OW26762   0.526   3.090   6.566
 3207SOL    HW126763   0.538   3.016   6.507
 3207SOL    HW226764   0.573   3.162   6.524
 3208SOL     OW26765   4.938   3.451   6.092
 3208SOL    HW126766   4.960   3.506   6.167
 3208SOL    HW226767   5.004   3.381   6.093
 3209SOL     OW26768   5.564   0.507   7.353
 3209SOL    HW126769   5.549   0.558   7.274
 3209SOL    HW226770   5.491   0.530   7.411
 3210SOL     OW26771   4.749   6.253   0.620
 3210SOL    HW126772   4.764   6.302   0.539
 3210SOL    HW226773   4.812   6.181   0.617
 3211SOL     OW26774   2.903   2.800   7.127
 3211SOL    HW126775   2.863   2.880   7.094
 3211SOL    HW226776   2.925   2.819   7.218
 3212SOL     OW26777   2.974   2.332   1.931
 3212SOL    HW126778   2.935   2.303   1.849
 3212SOL    HW226779   2.903   2.327   1.995
 3213SOL     OW26780   2.224   1.980   1.090
 3213SOL    HW126781   2.247   2.002   1.180
 3213SOL    HW226782   2.139   1.938   1.096
 3214SOL     OW26783   3.602   6.251   7.192
 3214SOL    HW126784   3.580   6.344   7.207
 3214SOL    HW226785   3.566   6.233   7.105
 3215SOL     OW26786   2.552   0.386   6.617
 3215SOL    HW126787   2.492   0.333   6.670
 3215SOL    HW226788   2.575   0.328   6.544
 3216SOL     OW26789   0.635   0.024   0.769
 3216SOL    HW126790   0.582   0.101   0.749
 3216SOL    HW226791   0.572  -0.041   0.801
 3217SOL     OW26792   0.553   1.113   7.756
 3217SOL    HW126793   0.608   1.191   7.769
 3217SOL    HW226794   0.520   1.122   7.666
 3218SOL     OW26795   0.517   5.761   0.604
 3218SOL    HW126796   0.512   5.722   0.516
 3218SOL    HW226797   0.533   5.686   0.662
 3219SOL     OW26798   5.814   3.311   1.194
 3219SOL    HW126799   5.836   3.218   1.190
 3219SOL    HW226800   5.852   3.342   1.277
 3220SOL     OW26801   4.955   2.663   0.364
 3220SOL    HW126802   4.904   2.669   0.445
 3220SOL    HW226803   4.889   2.657   0.295
 3221SOL     OW26804   0.218   6.144   0.272
 3221SOL    HW126805   0.192   6.053   0.291
 3221SOL    HW226806   0.310   6.138   0.247
 3222SOL     OW26807   0.902   2.403   6.851
 3222SOL    HW126808   0.811   2.434   6.848
 3222SOL    HW226809   0.894   2.307   6.854
 3223SOL     OW26810   0.740   5.006   6.001
 3223SOL    HW126811   0.765   4.993   6.092
 3223SOL    HW226812   0.782   5.088   5.975
 3224SOL     OW26813   5.342   1.848   0.189
 3224SOL    HW126814   5.285   1.779   0.222
 3224SOL    HW226815   5.283   1.919   0.165
 3225SOL     OW26816   3.533   4.422   1.506
 3225SOL    HW126817   3.487   4.432   1.589
 3225SOL    HW226818   3.483   4.355   1.459
 3226SOL     OW26819   1.270   1.711   0.927
 3226SOL    HW126820   1.193   1.691   0.874
 3226SOL    HW226821   1.251   1.672   1.012
 3227SOL     OW26822   6.272   5.387   6.744
 3227SOL    HW126823   6.253   5.376   6.651
 3227SOL    HW226824   6.286   5.481   6.754
 3228SOL     OW26825   1.856   1.829   1.375
 3228SOL    HW126826   1.827   1.915   1.405
 3228SOL    HW226827   1.951   1.831   1.384
 3229SOL     OW26828   4.654   0.229   6.415
 3229SOL    HW126829   4.592   0.264   6.351
 3229SOL    HW226830   4.617   0.145   6.441
 3230SOL     OW26831   3.616   3.558   7.508
 3230SOL    HW126832   3.557   3.509   7.451
 3230SOL    HW226833   3.609   3.648   7.477
 3231SOL     OW26834   4.964   0.650   0.672
 3231SOL    HW126835   4.999   0.617   0.755
 3231SOL    HW226836   5.040   0.652   0.613
 3232SOL     OW26837   5.828   0.319   5.710
 3232SOL    HW126838   5.859   0.409   5.700
 3232SOL    HW226839   5.761   0.325   5.778
 3233SOL     OW26840   1.616   1.269   7.072
 3233SOL    HW126841   1.613   1.233   6.984
 3233SOL    HW226842   1.530   1.249   7.109
 3234SOL     OW26843   1.107   6.060   2.046
 3234SOL    HW126844   1.106   6.018   1.960
 3234SOL    HW226845   1.199   6.057   2.072
 3235SOL     OW26846   0.258   2.103   6.186
 3235SOL    HW126847   0.266   2.152   6.267
 3235SOL    HW226848   0.174   2.132   6.149
 3236SOL     OW26849   1.163   6.403   7.536
 3236SOL    HW126850   1.203   6.330   7.489
 3236SOL    HW226851   1.122   6.363   7.613
 3237SOL     OW26852   1.608   1.668   6.774
 3237SOL    HW126853   1.631   1.737   6.712
 3237SOL    HW226854   1.526   1.632   6.742
 3238SOL     OW26855   5.533   4.028   0.498
 3238SOL    HW126856   5.625   4.015   0.477
 3238SOL    HW226857   5.528   4.119   0.528
 3239SOL     OW26858   5.056   6.386   6.526
 3239SOL    HW126859   5.101   6.352   6.603
 3239SOL    HW226860   4.976   6.333   6.520
 3240SOL     OW26861   4.066   4.856   1.390
 3240SOL    HW126862   3.981   4.875   1.351
 3240SOL    HW226863   4.127   4.916   1.348
 3241SOL     OW26864   4.852   4.163   0.016
 3241SOL    HW126865   4.943   4.144  -0.006
 3241SOL    HW226866   4.852   4.253   0.048
 3242SOL     OW26867   1.203   2.428   6.267
 3242SOL    HW126868   1.151   2.472   6.199
 3242SOL    HW226869   1.158   2.449   6.349
 3243SOL     OW26870   0.978   1.447   7.446
 3243SOL    HW126871   0.967   1.352   7.459
 3243SOL    HW226872   0.890   1.478   7.426
 3244SOL     OW26873   5.481   3.946   1.246
 3244SOL    HW126874   5.491   3.851   1.248
 3244SOL    HW226875   5.570   3.981   1.252
 3245SOL     OW26876   5.217   5.699   5.934
 3245SOL    HW126877   5.265   5.649   6.000
 3245SOL    HW226878   5.285   5.741   5.881
 3246SOL     OW26879   3.013   0.987   1.042
 3246SOL    HW126880   2.944   0.921   1.038
 3246SOL    HW226881   2.974   1.060   1.090
 3247SOL     OW26882   2.984   5.916   7.330
 3247SOL    HW126883   3.017   6.001   7.301
 3247SOL    HW226884   2.948   5.931   7.417
 3248SOL     OW26885   6.261   3.533   7.599
 3248SOL    HW126886   6.353   3.526   7.573
 3248SOL    HW226887   6.213   3.479   7.537
 3249SOL     OW26888   2.564   0.083   0.389
 3249SOL    HW126889   2.502   0.120   0.452
 3249SOL    HW226890   2.521   0.003   0.357
 3250SOL     OW26891   5.844   1.655   7.720
 3250SOL    HW126892   5.846   1.659   7.816
 3250SOL    HW226893   5.857   1.563   7.700
 3251SOL     OW26894   3.627   2.363   7.736
 3251SOL    HW126895   3.576   2.302   7.789
 3251SOL    HW226896   3.561   2.415   7.689
 3252SOL     OW26897   4.101   4.715   2.587
 3252SOL    HW126898   4.014   4.739   2.558
 3252SOL    HW226899   4.108   4.621   2.569
 3253SOL     OW26900   5.357   2.485   6.078
 3253SOL    HW126901   5.359   2.550   6.007
 3253SOL    HW226902   5.367   2.401   6.033
 3254SOL     OW26903   0.941   3.365   0.228
 3254SOL    HW126904   0.991   3.301   0.280
 3254SOL    HW226905   0.939   3.443   0.283
 3255SOL     OW26906   6.007   2.942   1.369
 3255SOL    HW126907   6.059   3.001   1.423
 3255SOL    HW226908   6.035   2.854   1.394
 3256SOL     OW26909   5.767   1.955   2.196
 3256SOL    HW126910   5.722   1.985   2.117
 3256SOL    HW226911   5.730   2.009   2.266
 3257SOL     OW26912   3.823   4.710   6.696
 3257SOL    HW126913   3.843   4.801   6.676
 3257SOL    HW226914   3.736   4.713   6.736
 3258SOL     OW26915   3.431   0.926   7.065
 3258SOL    HW126916   3.338   0.944   7.057
 3258SOL    HW226917   3.437   0.855   7.129
 3259SOL     OW26918   5.025   3.853   0.771
 3259SOL    HW126919   4.945   3.831   0.723
 3259SOL    HW226920   5.023   3.949   0.779
 3260SOL     OW26921   0.442   2.864   6.907
 3260SOL    HW126922   0.394   2.826   6.834
 3260SOL    HW226923   0.498   2.793   6.939
 3261SOL     OW26924   1.444   5.956   0.929
 3261SOL    HW126925   1.480   5.943   1.017
 3261SOL    HW226926   1.412   6.046   0.929
 3262SOL     OW26927   4.044   3.971   1.201
 3262SOL    HW126928   4.089   3.887   1.193
 3262SOL    HW226929   3.958   3.956   1.163
 3263SOL     OW26930   5.961   6.126   1.365
 3263SOL    HW126931   5.939   6.086   1.449
 3263SOL    HW226932   5.985   6.216   1.387
 3264SOL     OW26933   2.157   6.312   1.497
 3264SOL    HW126934   2.147   6.216   1.501
 3264SOL    HW226935   2.194   6.336   1.582
 3265SOL     OW26936   1.346   6.448   1.490
 3265SOL    HW126937   1.346   6.469   1.397
 3265SOL    HW226938   1.309   6.526   1.532
 3266SOL     OW26939   3.867   5.998   7.713
 3266SOL    HW126940   3.902   5.998   7.623
 3266SOL    HW226941   3.856   5.905   7.733
 3267SOL     OW26942   5.271   4.611   2.289
 3267SOL    HW126943   5.271   4.692   2.340
 3267SOL    HW226944   5.329   4.553   2.337
 3268SOL     OW26945   1.199   1.169   6.195
 3268SOL    HW126946   1.291   1.154   6.213
 3268SOL    HW226947   1.176   1.105   6.128
 3269SOL     OW26948   0.720   1.040   6.774
 3269SOL    HW126949   0.655   0.989   6.822
 3269SOL    HW226950   0.804   1.006   6.805
 3270SOL     OW26951   0.802   1.604   1.219
 3270SOL    HW126952   0.849   1.523   1.199
 3270SOL    HW226953   0.750   1.583   1.296
 3271SOL     OW26954   2.576   2.415   1.769
 3271SOL    HW126955   2.525   2.478   1.820
 3271SOL    HW226956   2.569   2.447   1.679
 3272SOL     OW26957   1.363   5.279   6.202
 3272SOL    HW126958   1.453   5.258   6.227
 3272SOL    HW226959   1.371   5.354   6.144
 3273SOL     OW26960   5.267   0.765   6.964
 3273SOL    HW126961   5.301   0.749   7.052
 3273SOL    HW226962   5.216   0.687   6.943
 3274SOL     OW26963   3.776   3.997   1.066
 3274SOL    HW126964   3.697   3.944   1.056
 3274SOL    HW226965   3.747   4.077   1.109
 3275SOL     OW26966   5.390   5.562   0.866
 3275SOL    HW126967   5.452   5.633   0.849
 3275SOL    HW226968   5.446   5.487   0.885
 3276SOL     OW26969   2.459   2.807   2.142
 3276SOL    HW126970   2.497   2.856   2.215
 3276SOL    HW226971   2.473   2.715   2.165
 3277SOL     OW26972   3.374   5.626   7.337
 3277SOL    HW126973   3.283   5.653   7.322
 3277SOL    HW226974   3.412   5.697   7.388
 3278SOL     OW26975   5.333   3.620   1.017
 3278SOL    HW126976   5.312   3.534   1.053
 3278SOL    HW226977   5.428   3.621   1.010
 3279SOL     OW26978   5.956   2.815   6.395
 3279SOL    HW126979   6.035   2.764   6.409
 3279SOL    HW226980   5.910   2.769   6.325
 3280SOL     OW26981   2.438   3.517   7.009
 3280SOL    HW126982   2.488   3.543   7.087
 3280SOL    HW226983   2.505   3.501   6.942
 3281SOL     OW26984   5.943   1.619   0.229
 3281SOL    HW126985   5.933   1.617   0.324
 3281SOL    HW226986   6.038   1.625   0.215
 3282SOL     OW26987   3.538   3.041   6.309
 3282SOL    HW126988   3.628   3.012   6.295
 3282SOL    HW226989   3.544   3.137   6.316
 3283SOL     OW26990   2.903   3.049   0.953
 3283SOL    HW126991   2.871   3.127   0.998
 3283SOL    HW226992   2.879   3.062   0.862
 3284SOL     OW26993   3.716   4.274   1.156
 3284SOL    HW126994   3.626   4.240   1.160
 3284SOL    HW226995   3.713   4.354   1.209
 3285SOL     OW26996   6.164   3.515   1.384
 3285SOL    HW126997   6.147   3.605   1.413
 3285SOL    HW226998   6.229   3.481   1.446
 3286SOL     OW26999   1.900   0.540   6.869
 3286SOL    HW127000   1.966   0.609   6.884
 3286SOL    HW227001   1.935   0.490   6.795
 3287SOL     OW27002   1.005   1.275   7.037
 3287SOL    HW127003   1.063   1.330   6.985
 3287SOL    HW227004   0.920   1.319   7.033
 3288SOL     OW27005   3.147   1.639   1.949
 3288SOL    HW127006   3.156   1.723   1.993
 3288SOL    HW227007   3.053   1.620   1.950
 3289SOL     OW27008   3.062   5.205   1.103
 3289SOL    HW127009   3.078   5.164   1.188
 3289SOL    HW227010   3.129   5.273   1.096
 3290SOL     OW27011   5.869   2.859   0.357
 3290SOL    HW127012   5.842   2.776   0.395
 3290SOL    HW227013   5.952   2.879   0.401
 3291SOL     OW27014   2.480   1.122   2.587
 3291SOL    HW127015   2.533   1.198   2.561
 3291SOL    HW227016   2.402   1.127   2.531
 3292SOL     OW27017   4.588   4.235   0.151
 3292SOL    HW127018   4.602   4.236   0.057
 3292SOL    HW227019   4.622   4.151   0.180
 3293SOL     OW27020   0.216   4.085   1.349
 3293SOL    HW127021   0.176   4.103   1.434
 3293SOL    HW227022   0.225   3.990   1.346
 3294SOL     OW27023   6.007   6.395   1.435
 3294SOL    HW127024   6.034   6.409   1.526
 3294SOL    HW227025   5.933   6.453   1.423
 3295SOL     OW27026   2.502   2.223   0.697
 3295SOL    HW127027   2.427   2.227   0.757
 3295SOL    HW227028   2.520   2.314   0.676
 3296SOL     OW27029   0.590   5.356   5.847
 3296SOL    HW127030   0.651   5.293   5.885
 3296SOL    HW227031   0.634   5.385   5.766
 3297SOL     OW27032   0.902   0.185   0.054
 3297SOL    HW127033   0.911   0.222  -0.033
 3297SOL    HW227034   0.839   0.241   0.099
 3298SOL     OW27035   0.457   0.596   0.254
 3298SOL    HW127036   0.440   0.673   0.308
 3298SOL    HW227037   0.544   0.611   0.218
 3299SOL     OW27038   4.019   5.261   7.131
 3299SOL    HW127039   3.982   5.277   7.218
 3299SOL    HW227040   4.102   5.218   7.148
 3300SOL     OW27041   5.263   0.461   5.395
 3300SOL    HW127042   5.189   0.424   5.346
 3300SOL    HW227043   5.242   0.443   5.487
 3301SOL     OW27044   6.379   0.531   1.428
 3301SOL    HW127045   6.361   0.579   1.347
 3301SOL    HW227046   6.445   0.466   1.403
 3302SOL     OW27047   0.752   4.726   1.537
 3302SOL    HW127048   0.820   4.776   1.492
 3302SOL    HW227049   0.737   4.650   1.481
 3303SOL     OW27050   2.102   0.632   6.236
 3303SOL    HW127051   2.107   0.586   6.152
 3303SOL    HW227052   2.175   0.695   6.233
 3304SOL     OW27053   1.312   4.097   6.680
 3304SOL    HW127054   1.383   4.135   6.628
 3304SOL    HW227055   1.337   4.005   6.692
 3305SOL     OW27056   1.951   0.416   0.511
 3305SOL    HW127057   1.943   0.469   0.591
 3305SOL    HW227058   1.871   0.363   0.510
 3306SOL     OW27059   2.404   6.188   1.379
 3306SOL    HW127060   2.325   6.134   1.386
 3306SOL    HW227061   2.476   6.129   1.404
 3307SOL     OW27062   5.957   5.237   5.330
 3307SOL    HW127063   6.052   5.249   5.336
 3307SOL    HW227064   5.941   5.148   5.361
 3308SOL     OW27065   2.052   5.304   2.224
 3308SOL    HW127066   1.965   5.305   2.264
 3308SOL    HW227067   2.063   5.213   2.194
 3309SOL     OW27068   1.597   2.376   0.884
 3309SOL    HW127069   1.603   2.428   0.964
 3309SOL    HW227070   1.677   2.396   0.836
 3310SOL     OW27071   2.383   6.307   6.830
 3310SOL    HW127072   2.386   6.337   6.739
 3310SOL    HW227073   2.343   6.379   6.878
 3311SOL     OW27074   1.169   2.151   0.096
 3311SOL    HW127075   1.197   2.091   0.028
 3311SOL    HW227076   1.073   2.146   0.096
 3312SOL     OW27077   3.636   1.022   1.237
 3312SOL    HW127078   3.658   0.929   1.243
 3312SOL    HW227079   3.655   1.046   1.146
 3313SOL     OW27080   5.008   2.722   2.420
 3313SOL    HW127081   5.006   2.792   2.485
 3313SOL    HW227082   5.062   2.757   2.349
 3314SOL     OW27083   5.194   0.931   1.469
 3314SOL    HW127084   5.122   0.977   1.426
 3314SOL    HW227085   5.155   0.850   1.501
 3315SOL     OW27086   3.134   1.721   6.819
 3315SOL    HW127087   3.163   1.702   6.908
 3315SOL    HW227088   3.042   1.694   6.817
 3316SOL     OW27089   6.032   4.855   1.646
 3316SOL    HW127090   6.048   4.949   1.642
 3316SOL    HW227091   6.104   4.816   1.596
 3317SOL     OW27092   3.649   3.512   6.669
 3317SOL    HW127093   3.693   3.469   6.595
 3317SOL    HW227094   3.573   3.555   6.630
 3318SOL     OW27095   4.589   4.128   6.783
 3318SOL    HW127096   4.524   4.149   6.850
 3318SOL    HW227097   4.639   4.056   6.819
 3319SOL     OW27098   1.760   4.856   1.815
 3319SOL    HW127099   1.852   4.844   1.836
 3319SOL    HW227100   1.716   4.780   1.852
 3320SOL     OW27101   3.565   5.645   6.416
 3320SOL    HW127102   3.655   5.647   6.450
 3320SOL    HW227103   3.526   5.726   6.449
 3321SOL     OW27104   3.702   3.456   0.211
 3321SOL    HW127105   3.647   3.527   0.178
 3321SOL    HW227106   3.682   3.452   0.305
 3322SOL     OW27107   4.263   5.467   0.671
 3322SOL    HW127108   4.351   5.444   0.701
 3322SOL    HW227109   4.236   5.393   0.617
 3323SOL     OW27110   5.969   5.407   0.960
 3323SOL    HW127111   5.976   5.379   0.869
 3323SOL    HW227112   6.040   5.362   1.005
 3324SOL     OW27113   6.035   4.818   0.345
 3324SOL    HW127114   5.984   4.788   0.270
 3324SOL    HW227115   6.065   4.905   0.321
 3325SOL     OW27116   1.650   2.680   7.402
 3325SOL    HW127117   1.719   2.732   7.361
 3325SOL    HW227118   1.603   2.741   7.458
 3326SOL     OW27119   1.527   4.604   7.103
 3326SOL    HW127120   1.540   4.541   7.174
 3326SOL    HW227121   1.566   4.562   7.026
 3327SOL     OW27122   5.392   3.611   1.526
 3327SOL    HW127123   5.342   3.533   1.503
 3327SOL    HW227124   5.325   3.675   1.551
 3328SOL     OW27125   1.836   4.892   1.386
 3328SOL    HW127126   1.848   4.804   1.350
 3328SOL    HW227127   1.867   4.951   1.316
 3329SOL     OW27128   4.031   2.603   7.441
 3329SOL    HW127129   4.061   2.574   7.527
 3329SOL    HW227130   3.952   2.552   7.425
 3330SOL     OW27131   2.218   3.454   0.652
 3330SOL    HW127132   2.258   3.410   0.727
 3330SOL    HW227133   2.245   3.403   0.577
 3331SOL     OW27134   3.111   1.768   1.369
 3331SOL    HW127135   3.084   1.745   1.458
 3331SOL    HW227136   3.190   1.821   1.380
 3332SOL     OW27137   5.419   0.394   1.699
 3332SOL    HW127138   5.337   0.427   1.736
 3332SOL    HW227139   5.425   0.436   1.613
 3333SOL     OW27140   4.456   2.097   1.964
 3333SOL    HW127141   4.547   2.092   1.994
 3333SOL    HW227142   4.404   2.070   2.040
 3334SOL     OW27143   0.736   4.418   6.009
 3334SOL    HW127144   0.667   4.356   5.985
 3334SOL    HW227145   0.818   4.372   5.989
 3335SOL     OW27146   0.220   2.641   2.409
 3335SOL    HW127147   0.155   2.572   2.417
 3335SOL    HW227148   0.283   2.608   2.345
 3336SOL     OW27149   4.767   6.419   7.105
 3336SOL    HW127150   4.805   6.346   7.153
 3336SOL    HW227151   4.728   6.475   7.172
 3337SOL     OW27152   2.122   0.550   7.724
 3337SOL    HW127153   2.111   0.571   7.631
 3337SOL    HW227154   2.041   0.580   7.765
 3338SOL     OW27155   6.449   3.225   2.619
 3338SOL    HW127156   6.486   3.301   2.664
 3338SOL    HW227157   6.481   3.150   2.670
 3339SOL     OW27158   5.422   4.941   7.062
 3339SOL    HW127159   5.464   5.020   7.098
 3339SOL    HW227160   5.416   4.958   6.968
 3340SOL     OW27161   2.210   5.401   6.720
 3340SOL    HW127162   2.304   5.418   6.728
 3340SOL    HW227163   2.173   5.485   6.692
 3341SOL     OW27164   6.242   6.235   2.042
 3341SOL    HW127165   6.330   6.200   2.028
 3341SOL    HW227166   6.184   6.165   2.011
 3342SOL     OW27167   5.856   0.961   7.216
 3342SOL    HW127168   5.801   1.031   7.181
 3342SOL    HW227169   5.943   0.979   7.182
 3343SOL     OW27170   1.737   5.850   0.316
 3343SOL    HW127171   1.689   5.878   0.237
 3343SOL    HW227172   1.822   5.893   0.308
 3344SOL     OW27173   0.656   4.974   6.386
 3344SOL    HW127174   0.683   4.990   6.476
 3344SOL    HW227175   0.560   4.984   6.387
 3345SOL     OW27176   2.512   5.330   6.410
 3345SOL    HW127177   2.557   5.245   6.409
 3345SOL    HW227178   2.438   5.317   6.469
 3346SOL     OW27179   6.023   1.487   6.177
 3346SOL    HW127180   6.005   1.467   6.085
 3346SOL    HW227181   6.118   1.477   6.186
 3347SOL     OW27182   5.086   1.820   6.361
 3347SOL    HW127183   5.068   1.783   6.275
 3347SOL    HW227184   5.089   1.914   6.347
 3348SOL     OW27185   1.323   1.471   6.968
 3348SOL    HW127186   1.358   1.438   6.886
 3348SOL    HW227187   1.346   1.404   7.033
 3349SOL     OW27188   4.665   4.680   7.448
 3349SOL    HW127189   4.675   4.770   7.418
 3349SOL    HW227190   4.724   4.629   7.391
 3350SOL     OW27191   0.115   5.451   7.588
 3350SOL    HW127192   0.211   5.456   7.587
 3350SOL    HW227193   0.096   5.394   7.663
 3351SOL     OW27194   2.985   3.322   1.697
 3351SOL    HW127195   2.902   3.331   1.743
 3351SOL    HW227196   2.978   3.239   1.650
 3352SOL     OW27197   0.750   3.411   5.949
 3352SOL    HW127198   0.657   3.428   5.960
 3352SOL    HW227199   0.754   3.324   5.909
 3353SOL     OW27200   5.430   0.873   6.491
 3353SOL    HW127201   5.473   0.885   6.406
 3353SOL    HW227202   5.345   0.836   6.469
 3354SOL     OW27203   1.350   1.252   7.113
 3354SOL    HW127204   1.315   1.298   7.189
 3354SOL    HW227205   1.296   1.173   7.106
 3355SOL     OW27206   3.520   5.167   2.462
 3355SOL    HW127207   3.602   5.153   2.509
 3355SOL    HW227208   3.465   5.093   2.489
 3356SOL     OW27209   0.392   5.913   1.106
 3356SOL    HW127210   0.429   5.829   1.079
 3356SOL    HW227211   0.468   5.967   1.125
 3357SOL     OW27212   1.504   6.050   7.350
 3357SOL    HW127213   1.453   5.982   7.306
 3357SOL    HW227214   1.573   6.072   7.288
 3358SOL     OW27215   6.130   0.707   1.762
 3358SOL    HW127216   6.180   0.625   1.768
 3358SOL    HW227217   6.115   0.733   1.853
 3359SOL     OW27218   5.527   3.911   1.591
 3359SOL    HW127219   5.470   3.958   1.530
 3359SOL    HW227220   5.471   3.893   1.667
 3360SOL     OW27221   0.186   4.367   1.790
 3360SOL    HW127222   0.165   4.316   1.868
 3360SOL    HW227223   0.281   4.379   1.794
 3361SOL     OW27224   0.118   2.017   7.431
 3361SOL    HW127225   0.172   2.092   7.454
 3361SOL    HW227226   0.038   2.028   7.484
 3362SOL     OW27227   1.609   3.246   0.281
 3362SOL    HW127228   1.674   3.188   0.240
 3362SOL    HW227229   1.660   3.312   0.326
 3363SOL     OW27230   0.375   2.643   0.345
 3363SOL    HW127231   0.330   2.720   0.380
 3363SOL    HW227232   0.394   2.666   0.254
 3364SOL     OW27233   1.553   3.586   5.928
 3364SOL    HW127234   1.464   3.597   5.895
 3364SOL    HW227235   1.545   3.527   6.002
 3365SOL     OW27236   3.362   4.371   1.939
 3365SOL    HW127237   3.345   4.460   1.910
 3365SOL    HW227238   3.390   4.325   1.860
 3366SOL     OW27239   6.199   4.211   2.353
 3366SOL    HW127240   6.243   4.260   2.283
 3366SOL    HW227241   6.148   4.144   2.308
 3367SOL     OW27242   6.312   0.742   6.391
 3367SOL    HW127243   6.350   0.798   6.458
 3367SOL    HW227244   6.379   0.738   6.323
 3368SOL     OW27245   0.554   0.410   7.166
 3368SOL    HW127246   0.639   0.438   7.135
 3368SOL    HW227247   0.571   0.329   7.214
 3369SOL     OW27248   6.262   2.924   1.017
 3369SOL    HW127249   6.197   2.876   0.965
 3369SOL    HW227250   6.285   2.999   0.963
 3370SOL     OW27251   3.844   4.067   1.411
 3370SOL    HW127252   3.921   4.041   1.361
 3370SOL    HW227253   3.831   4.160   1.390
 3371SOL     OW27254   3.880   5.066   0.090
 3371SOL    HW127255   3.827   5.145   0.084
 3371SOL    HW227256   3.900   5.043  -0.001
 3372SOL     OW27257   2.956   3.097   7.300
 3372SOL    HW127258   2.864   3.102   7.326
 3372SOL    HW227259   2.994   3.030   7.357
 3373SOL     OW27260   4.722   5.935   6.572
 3373SOL    HW127261   4.630   5.916   6.553
 3373SOL    HW227262   4.731   5.918   6.665
 3374SOL     OW27263   2.009   3.717   0.251
 3374SOL    HW127264   2.029   3.665   0.329
 3374SOL    HW227265   2.058   3.798   0.262
 3375SOL     OW27266   2.749   1.098   1.866
 3375SOL    HW127267   2.758   1.187   1.900
 3375SOL    HW227268   2.726   1.109   1.774
 3376SOL     OW27269   1.662   2.337   6.156
 3376SOL    HW127270   1.607   2.326   6.233
 3376SOL    HW227271   1.729   2.269   6.165
 3377SOL     OW27272   5.022   1.573   1.380
 3377SOL    HW127273   4.974   1.591   1.298
 3377SOL    HW227274   4.954   1.572   1.447
 3378SOL     OW27275   5.917   5.727   7.271
 3378SOL    HW127276   5.995   5.732   7.327
 3378SOL    HW227277   5.851   5.779   7.317
 3379SOL     OW27278   2.418   5.848   7.744
 3379SOL    HW127279   2.380   5.894   7.670
 3379SOL    HW227280   2.496   5.805   7.709
 3380SOL     OW27281   2.207   3.038   0.837
 3380SOL    HW127282   2.120   3.023   0.874
 3380SOL    HW227283   2.192   3.042   0.742
 3381SOL     OW27284   4.380   3.373   1.596
 3381SOL    HW127285   4.300   3.357   1.546
 3381SOL    HW227286   4.438   3.418   1.534
 3382SOL     OW27287   6.068   1.535   1.505
 3382SOL    HW127288   6.152   1.533   1.460
 3382SOL    HW227289   6.090   1.530   1.598
 3383SOL     OW27290   0.453   2.804   6.219
 3383SOL    HW127291   0.504   2.724   6.232
 3383SOL    HW227292   0.390   2.804   6.292
 3384SOL     OW27293   2.163   0.286   0.039
 3384SOL    HW127294   2.137   0.378   0.027
 3384SOL    HW227295   2.258   0.290   0.050
 3385SOL     OW27296   4.061   1.324   6.355
 3385SOL    HW127297   4.019   1.378   6.288
 3385SOL    HW227298   4.055   1.235   6.320
 3386SOL     OW27299   5.198   5.694   0.164
 3386SOL    HW127300   5.235   5.780   0.187
 3386SOL    HW227301   5.140   5.672   0.237
 3387SOL     OW27302   1.412   5.323   1.946
 3387SOL    HW127303   1.351   5.391   1.917
 3387SOL    HW227304   1.496   5.368   1.953
 3388SOL     OW27305   3.371   6.345   1.898
 3388SOL    HW127306   3.361   6.299   1.982
 3388SOL    HW227307   3.411   6.429   1.922
 3389SOL     OW27308   3.431   5.834   2.768
 3389SOL    HW127309   3.342   5.871   2.774
 3389SOL    HW227310   3.418   5.739   2.774
 3390SOL     OW27311   2.924   5.859   7.618
 3390SOL    HW127312   3.005   5.876   7.665
 3390SOL    HW227313   2.944   5.786   7.560
 3391SOL     OW27314   4.890   6.247   2.045
 3391SOL    HW127315   4.873   6.240   2.138
 3391SOL    HW227316   4.959   6.313   2.038
 3392SOL     OW27317   6.121   2.589   1.959
 3392SOL    HW127318   6.096   2.593   2.052
 3392SOL    HW227319   6.210   2.625   1.956
 3393SOL     OW27320   3.357   0.282   7.695
 3393SOL    HW127321   3.333   0.213   7.633
 3393SOL    HW227322   3.288   0.280   7.761
 3394SOL     OW27323   1.870   1.927   1.914
 3394SOL    HW127324   1.905   1.883   1.837
 3394SOL    HW227325   1.791   1.878   1.936
 3395SOL     OW27326   0.015   5.859   0.643
 3395SOL    HW127327   0.061   5.805   0.707
 3395SOL    HW227328   0.030   5.949   0.673
 3396SOL     OW27329   1.340   3.330   0.154
 3396SOL    HW127330   1.409   3.320   0.219
 3396SOL    HW227331   1.280   3.258   0.171
 3397SOL     OW27332   4.946   3.868   5.615
 3397SOL    HW127333   4.968   3.873   5.708
 3397SOL    HW227334   4.960   3.958   5.583
 3398SOL     OW27335   1.849   2.374   2.251
 3398SOL    HW127336   1.859   2.347   2.342
 3398SOL    HW227337   1.935   2.410   2.227
 3399SOL     OW27338   2.328   4.097   1.634
 3399SOL    HW127339   2.402   4.073   1.578
 3399SOL    HW227340   2.284   4.014   1.652
 3400SOL     OW27341   0.717   3.938   7.371
 3400SOL    HW127342   0.704   3.844   7.362
 3400SOL    HW227343   0.639   3.969   7.417
 3401SOL     OW27344   4.564   0.277   6.832
 3401SOL    HW127345   4.569   0.192   6.789
 3401SOL    HW227346   4.645   0.283   6.883
 3402SOL     OW27347   1.937   0.250   6.284
 3402SOL    HW127348   2.027   0.280   6.293
 3402SOL    HW227349   1.940   0.189   6.210
 3403SOL     OW27350   3.765   4.905   2.022
 3403SOL    HW127351   3.850   4.885   2.061
 3403SOL    HW227352   3.709   4.832   2.049
 3404SOL     OW27353   4.584   4.168   1.604
 3404SOL    HW127354   4.571   4.227   1.678
 3404SOL    HW227355   4.623   4.089   1.643
 3405SOL     OW27356   2.987   3.410   1.219
 3405SOL    HW127357   3.004   3.316   1.215
 3405SOL    HW227358   2.955   3.433   1.132
 3406SOL     OW27359   6.285   4.762   1.095
 3406SOL    HW127360   6.197   4.726   1.086
 3406SOL    HW227361   6.325   4.711   1.165
 3407SOL     OW27362   4.438   6.397   7.478
 3407SOL    HW127363   4.495   6.392   7.555
 3407SOL    HW227364   4.352   6.368   7.510
 3408SOL     OW27365   1.654   4.096   2.657
 3408SOL    HW127366   1.683   4.166   2.598
 3408SOL    HW227367   1.715   4.024   2.643
 3409SOL     OW27368   4.405   6.224   6.464
 3409SOL    HW127369   4.334   6.224   6.527
 3409SOL    HW227370   4.440   6.135   6.467
 3410SOL     OW27371   3.247   4.984   2.048
 3410SOL    HW127372   3.274   4.960   2.137
 3410SOL    HW227373   3.236   5.079   2.052
 3411SOL     OW27374   0.246   1.048   0.734
 3411SOL    HW127375   0.157   1.075   0.755
 3411SOL    HW227376   0.246   1.038   0.638
 3412SOL     OW27377   5.865   0.789   6.435
 3412SOL    HW127378   5.924   0.714   6.442
 3412SOL    HW227379   5.811   0.771   6.358
 3413SOL     OW27380   3.753   0.279   6.866
 3413SOL    HW127381   3.803   0.305   6.789
 3413SOL    HW227382   3.664   0.312   6.849
 3414SOL     OW27383   1.036   4.958   6.589
 3414SOL    HW127384   1.046   4.981   6.496
 3414SOL    HW227385   1.115   4.908   6.610
 3415SOL     OW27386   6.378   5.411   2.687
 3415SOL    HW127387   6.349   5.489   2.640
 3415SOL    HW227388   6.309   5.396   2.752
 3416SOL     OW27389   2.962   4.737   0.528
 3416SOL    HW127390   2.993   4.823   0.557
 3416SOL    HW227391   2.980   4.735   0.434
 3417SOL     OW27392   5.005   3.461   2.329
 3417SOL    HW127393   5.007   3.551   2.295
 3417SOL    HW227394   5.072   3.415   2.279
 3418SOL     OW27395   3.447   2.154   0.037
 3418SOL    HW127396   3.464   2.150  -0.057
 3418SOL    HW227397   3.362   2.111   0.048
 3419SOL     OW27398   5.402   0.929   7.246
 3419SOL    HW127399   5.423   0.996   7.181
 3419SOL    HW227400   5.428   0.846   7.205
 3420SOL     OW27401   5.317   4.085   6.197
 3420SOL    HW127402   5.340   4.116   6.285
 3420SOL    HW227403   5.328   3.990   6.202
 3421SOL     OW27404   1.622   1.926   6.178
 3421SOL    HW127405   1.626   2.007   6.127
 3421SOL    HW227406   1.575   1.950   6.258
 3422SOL     OW27407   4.768   5.029   0.655
 3422SOL    HW127408   4.719   4.947   0.668
 3422SOL    HW227409   4.824   5.012   0.580
 3423SOL     OW27410   5.414   4.466   7.063
 3423SOL    HW127411   5.436   4.475   7.156
 3423SOL    HW227412   5.491   4.425   7.024
 3424SOL     OW27413   4.189   2.269   1.661
 3424SOL    HW127414   4.180   2.218   1.742
 3424SOL    HW227415   4.115   2.242   1.607
 3425SOL     OW27416   6.014   4.443   2.136
 3425SOL    HW127417   6.052   4.434   2.049
 3425SOL    HW227418   5.958   4.366   2.146
 3426SOL     OW27419   3.529   0.483   7.639
 3426SOL    HW127420   3.584   0.462   7.564
 3426SOL    HW227421   3.477   0.404   7.654
 3427SOL     OW27422   2.343   4.961   0.673
 3427SOL    HW127423   2.273   4.899   0.652
 3427SOL    HW227424   2.359   4.948   0.767
 3428SOL     OW27425   5.574   3.165   5.942
 3428SOL    HW127426   5.484   3.137   5.954
 3428SOL    HW227427   5.623   3.084   5.929
 3429SOL     OW27428   2.629   6.281   7.012
 3429SOL    HW127429   2.559   6.287   6.947
 3429SOL    HW227430   2.586   6.299   7.095
 3430SOL     OW27431   4.559   2.212   6.881
 3430SOL    HW127432   4.495   2.218   6.810
 3430SOL    HW227433   4.627   2.276   6.857
 3431SOL     OW27434   1.343   0.162   7.560
 3431SOL    HW127435   1.294   0.084   7.534
 3431SOL    HW227436   1.400   0.132   7.631
 3432SOL     OW27437   3.953   5.335   1.283
 3432SOL    HW127438   3.920   5.413   1.328
 3432SOL    HW227439   4.037   5.363   1.246
 3433SOL     OW27440   6.233   5.821   0.741
 3433SOL    HW127441   6.267   5.795   0.656
 3433SOL    HW227442   6.309   5.852   0.790
 3434SOL     OW27443   5.694   5.121   0.380
 3434SOL    HW127444   5.676   5.211   0.407
 3434SOL    HW227445   5.627   5.069   0.424
 3435SOL     OW27446   3.789   5.789   0.797
 3435SOL    HW127447   3.851   5.826   0.734
 3435SOL    HW227448   3.708   5.838   0.782
 3436SOL     OW27449   0.368   4.977   6.899
 3436SOL    HW127450   0.316   4.896   6.905
 3436SOL    HW227451   0.437   4.966   6.964
 3437SOL     OW27452   3.735   1.165   0.156
 3437SOL    HW127453   3.661   1.172   0.216
 3437SOL    HW227454   3.755   1.255   0.131
 3438SOL     OW27455   0.199   4.979   2.610
 3438SOL    HW127456   0.169   4.948   2.524
 3438SOL    HW227457   0.126   5.031   2.644
 3439SOL     OW27458   1.809   1.388   0.823
 3439SOL    HW127459   1.825   1.336   0.744
 3439SOL    HW227460   1.882   1.450   0.826
 3440SOL     OW27461   2.401   0.183   6.742
 3440SOL    HW127462   2.388   0.102   6.691
 3440SOL    HW227463   2.313   0.213   6.762
 3441SOL     OW27464   2.316   3.032   1.063
 3441SOL    HW127465   2.281   3.034   0.974
 3441SOL    HW227466   2.244   3.061   1.118
 3442SOL     OW27467   4.542   2.967   1.876
 3442SOL    HW127468   4.480   3.005   1.814
 3442SOL    HW227469   4.622   3.018   1.866
 3443SOL     OW27470   3.636   1.834   0.679
 3443SOL    HW127471   3.624   1.881   0.763
 3443SOL    HW227472   3.651   1.743   0.704
 3444SOL     OW27473   0.613   2.727   6.630
 3444SOL    HW127474   0.592   2.638   6.602
 3444SOL    HW227475   0.709   2.731   6.627
 3445SOL     OW27476   4.406   5.856   6.985
 3445SOL    HW127477   4.427   5.804   6.907
 3445SOL    HW227478   4.326   5.816   7.019
 3446SOL     OW27479   3.909   1.246   2.244
 3446SOL    HW127480   3.819   1.278   2.249
 3446SOL    HW227481   3.946   1.265   2.330
 3447SOL     OW27482   5.541   0.895   6.251
 3447SOL    HW127483   5.481   0.869   6.180
 3447SOL    HW227484   5.621   0.846   6.234
 3448SOL     OW27485   4.052   4.950   7.339
 3448SOL    HW127486   4.085   5.006   7.269
 3448SOL    HW227487   4.130   4.929   7.392
 3449SOL     OW27488   6.071   3.242   7.590
 3449SOL    HW127489   6.145   3.183   7.580
 3449SOL    HW227490   6.025   3.210   7.668
 3450SOL     OW27491   2.516   0.059   5.895
 3450SOL    HW127492   2.493   0.023   5.809
 3450SOL    HW227493   2.611   0.050   5.901
 3451SOL     OW27494   3.162   1.796   0.351
 3451SOL    HW127495   3.240   1.842   0.320
 3451SOL    HW227496   3.131   1.850   0.424
 3452SOL     OW27497   1.599   3.426   6.659
 3452SOL    HW127498   1.664   3.373   6.705
 3452SOL    HW227499   1.537   3.453   6.728
 3453SOL     OW27500   1.686   1.951   7.101
 3453SOL    HW127501   1.735   1.887   7.051
 3453SOL    HW227502   1.594   1.936   7.077
 3454SOL     OW27503   2.788   4.541   6.569
 3454SOL    HW127504   2.737   4.561   6.491
 3454SOL    HW227505   2.879   4.541   6.540
 3455SOL     OW27506   6.018   1.457   7.275
 3455SOL    HW127507   6.059   1.422   7.196
 3455SOL    HW227508   5.969   1.533   7.245
 3456SOL     OW27509   1.480   4.062   6.238
 3456SOL    HW127510   1.548   4.046   6.305
 3456SOL    HW227511   1.420   4.124   6.279
 3457SOL     OW27512   1.578   2.008   0.192
 3457SOL    HW127513   1.498   2.009   0.244
 3457SOL    HW227514   1.603   2.100   0.184
 3458SOL     OW27515   5.003   5.578   6.513
 3458SOL    HW127516   5.038   5.636   6.580
 3458SOL    HW227517   4.950   5.635   6.457
 3459SOL     OW27518   0.682   1.158   7.077
 3459SOL    HW127519   0.590   1.134   7.066
 3459SOL    HW227520   0.728   1.074   7.082
 3460SOL     OW27521   6.064   5.029   0.037
 3460SOL    HW127522   6.038   5.032   0.129
 3460SOL    HW227523   6.124   5.103   0.026
 3461SOL     OW27524   2.529   4.901   0.488
 3461SOL    HW127525   2.606   4.860   0.528
 3461SOL    HW227526   2.476   4.931   0.562
 3462SOL     OW27527   3.183   3.312   0.813
 3462SOL    HW127528   3.147   3.339   0.729
 3462SOL    HW227529   3.257   3.256   0.791
 3463SOL     OW27530   4.250   2.369   0.693
 3463SOL    HW127531   4.264   2.321   0.611
 3463SOL    HW227532   4.272   2.460   0.671
 3464SOL     OW27533   6.399   6.038   7.567
 3464SOL    HW127534   6.460   6.096   7.522
 3464SOL    HW227535   6.356   6.093   7.632
 3465SOL     OW27536   4.940   4.124   1.739
 3465SOL    HW127537   4.922   4.173   1.820
 3465SOL    HW227538   4.863   4.069   1.727
 3466SOL     OW27539   5.560   4.962   2.748
 3466SOL    HW127540   5.532   4.928   2.833
 3466SOL    HW227541   5.497   4.924   2.686
 3467SOL     OW27542   2.931   0.630   7.449
 3467SOL    HW127543   2.913   0.610   7.357
 3467SOL    HW227544   2.969   0.549   7.484
 3468SOL     OW27545   6.216   2.908   6.262
 3468SOL    HW127546   6.192   2.930   6.352
 3468SOL    HW227547   6.221   2.993   6.217
 3469SOL     OW27548   2.537   3.059   6.058
 3469SOL    HW127549   2.477   3.133   6.046
 3469SOL    HW227550   2.500   3.011   6.132
 3470SOL     OW27551   0.772   1.752   6.765
 3470SOL    HW127552   0.742   1.667   6.735
 3470SOL    HW227553   0.868   1.744   6.767
 3471SOL     OW27554   0.262   0.071   0.169
 3471SOL    HW127555   0.173   0.048   0.144
 3471SOL    HW227556   0.266   0.054   0.264
 3472SOL     OW27557   3.445   0.275   1.366
 3472SOL    HW127558   3.351   0.269   1.350
 3472SOL    HW227559   3.452   0.313   1.454
 3473SOL     OW27560   3.960   2.527   1.106
 3473SOL    HW127561   3.954   2.515   1.011
 3473SOL    HW227562   3.876   2.565   1.131
 3474SOL     OW27563   2.958   0.942   1.553
 3474SOL    HW127564   3.034   0.980   1.509
 3474SOL    HW227565   2.927   1.010   1.612
 3475SOL     OW27566   4.136   2.853   0.594
 3475SOL    HW127567   4.136   2.944   0.565
 3475SOL    HW227568   4.096   2.856   0.681
 3476SOL     OW27569   0.678   4.094   6.143
 3476SOL    HW127570   0.628   4.122   6.067
 3476SOL    HW227571   0.762   4.064   6.108
 3477SOL     OW27572   5.674   3.960   6.055
 3477SOL    HW127573   5.646   3.924   5.972
 3477SOL    HW227574   5.652   3.893   6.120
 3478SOL     OW27575   5.656   3.106   6.652
 3478SOL    HW127576   5.579   3.110   6.596
 3478SOL    HW227577   5.728   3.085   6.592
 3479SOL     OW27578   6.072   3.269   1.943
 3479SOL    HW127579   6.020   3.290   1.866
 3479SOL    HW227580   6.087   3.353   1.986
 3480SOL     OW27581   0.012   5.135   2.073
 3480SOL    HW127582   0.073   5.154   2.002
 3480SOL    HW227583  -0.032   5.054   2.046
 3481SOL     OW27584   0.493   1.195   7.442
 3481SOL    HW127585   0.563   1.246   7.400
 3481SOL    HW227586   0.413   1.246   7.427
 3482SOL     OW27587   0.269   6.203   5.887
 3482SOL    HW127588   0.316   6.143   5.944
 3482SOL    HW227589   0.295   6.177   5.798
 3483SOL     OW27590   1.379   3.476   7.471
 3483SOL    HW127591   1.362   3.556   7.520
 3483SOL    HW227592   1.327   3.409   7.515
 3484SOL     OW27593   2.738   4.250   6.481
 3484SOL    HW127594   2.715   4.266   6.389
 3484SOL    HW227595   2.722   4.333   6.525
 3485SOL     OW27596   4.326   3.323   1.118
 3485SOL    HW127597   4.370   3.253   1.070
 3485SOL    HW227598   4.386   3.398   1.110
 3486SOL     OW27599   6.011   5.582   0.582
 3486SOL    HW127600   5.997   5.652   0.646
 3486SOL    HW227601   5.925   5.570   0.542
 3487SOL     OW27602   3.424   5.950   0.079
 3487SOL    HW127603   3.450   5.889   0.010
 3487SOL    HW227604   3.441   6.037   0.043
 3488SOL     OW27605   3.686   0.025   0.795
 3488SOL    HW127606   3.771   0.046   0.754
 3488SOL    HW227607   3.673   0.095   0.858
 3489SOL     OW27608   4.505   0.981   5.569
 3489SOL    HW127609   4.587   0.991   5.521
 3489SOL    HW227610   4.471   0.896   5.541
 3490SOL     OW27611   3.197   4.813   6.915
 3490SOL    HW127612   3.160   4.742   6.862
 3490SOL    HW227613   3.167   4.795   7.004
 3491SOL     OW27614   2.188   4.292   0.999
 3491SOL    HW127615   2.186   4.340   1.082
 3491SOL    HW227616   2.102   4.250   0.994
 3492SOL     OW27617   4.796   3.323   6.428
 3492SOL    HW127618   4.806   3.315   6.523
 3492SOL    HW227619   4.877   3.288   6.392
 3493SOL     OW27620   1.653   3.269   7.272
 3493SOL    HW127621   1.596   3.329   7.224
 3493SOL    HW227622   1.739   3.281   7.233
 3494SOL     OW27623   4.675   4.900   6.058
 3494SOL    HW127624   4.765   4.932   6.070
 3494SOL    HW227625   4.627   4.975   6.024
 3495SOL     OW27626   3.962   3.090   6.362
 3495SOL    HW127627   3.926   3.065   6.277
 3495SOL    HW227628   3.899   3.152   6.398
 3496SOL     OW27629   3.261   1.243   0.058
 3496SOL    HW127630   3.201   1.299   0.108
 3496SOL    HW227631   3.205   1.175   0.022
 3497SOL     OW27632   5.365   5.408   5.939
 3497SOL    HW127633   5.408   5.396   6.024
 3497SOL    HW227634   5.398   5.492   5.908
 3498SOL     OW27635   4.758   1.295   1.002
 3498SOL    HW127636   4.773   1.212   0.957
 3498SOL    HW227637   4.797   1.283   1.089
 3499SOL     OW27638   3.409   5.164   1.247
 3499SOL    HW127639   3.338   5.132   1.302
 3499SOL    HW227640   3.452   5.085   1.215
 3500SOL     OW27641   4.681   3.872   2.008
 3500SOL    HW127642   4.603   3.840   2.053
 3500SOL    HW227643   4.752   3.863   2.072
 3501SOL     OW27644   3.002   0.093   0.219
 3501SOL    HW127645   2.936   0.099   0.287
 3501SOL    HW227646   3.084   0.119   0.262
 3502SOL     OW27647   4.831   0.374   0.838
 3502SOL    HW127648   4.868   0.293   0.803
 3502SOL    HW227649   4.906   0.423   0.871
 3503SOL     OW27650   0.417   4.493   2.746
 3503SOL    HW127651   0.464   4.432   2.803
 3503SOL    HW227652   0.458   4.578   2.763
 3504SOL     OW27653   2.799   3.052   0.602
 3504SOL    HW127654   2.867   2.988   0.623
 3504SOL    HW227655   2.782   3.040   0.509
 3505SOL     OW27656   2.422   2.849   7.361
 3505SOL    HW127657   2.509   2.815   7.384
 3505SOL    HW227658   2.370   2.771   7.344
 3506SOL     OW27659   5.436   1.104   7.027
 3506SOL    HW127660   5.517   1.084   6.980
 3506SOL    HW227661   5.367   1.061   6.976
 3507SOL     OW27662   5.178   0.912   2.204
 3507SOL    HW127663   5.183   0.825   2.163
 3507SOL    HW227664   5.085   0.934   2.201
 3508SOL     OW27665   6.232   5.537   7.040
 3508SOL    HW127666   6.242   5.475   7.112
 3508SOL    HW227667   6.283   5.613   7.067
 3509SOL     OW27668   1.917   2.601   1.769
 3509SOL    HW127669   1.870   2.545   1.830
 3509SOL    HW227670   2.005   2.610   1.807
 3510SOL     OW27671   4.137   1.989   6.708
 3510SOL    HW127672   4.143   1.952   6.796
 3510SOL    HW227673   4.195   1.935   6.655
 3511SOL     OW27674   3.540   4.710   1.434
 3511SOL    HW127675   3.454   4.678   1.458
 3511SOL    HW227676   3.591   4.631   1.414
 3512SOL     OW27677   6.161   1.776   0.010
 3512SOL    HW127678   6.120   1.819  -0.066
 3512SOL    HW227679   6.109   1.807   0.085
 3513SOL     OW27680   2.096   2.269   7.720
 3513SOL    HW127681   2.006   2.256   7.690
 3513SOL    HW227682   2.088   2.329   7.794
 3514SOL     OW27683   2.564   5.619   2.683
 3514SOL    HW127684   2.478   5.591   2.714
 3514SOL    HW227685   2.546   5.698   2.632
 3515SOL     OW27686   4.451   0.274   0.566
 3515SOL    HW127687   4.532   0.278   0.515
 3515SOL    HW227688   4.475   0.226   0.646
 3516SOL     OW27689   1.366   3.582   6.828
 3516SOL    HW127690   1.322   3.554   6.748
 3516SOL    HW227691   1.328   3.527   6.897
 3517SOL     OW27692   3.511   0.975   6.402
 3517SOL    HW127693   3.470   1.040   6.345
 3517SOL    HW227694   3.489   1.003   6.491
 3518SOL     OW27695   5.158   1.507   1.162
 3518SOL    HW127696   5.141   1.537   1.251
 3518SOL    HW227697   5.102   1.430   1.151
 3519SOL     OW27698   4.395   5.814   1.960
 3519SOL    HW127699   4.458   5.828   2.031
 3519SOL    HW227700   4.311   5.805   2.004
 3520SOL     OW27701   1.588   6.381   2.055
 3520SOL    HW127702   1.520   6.352   2.116
 3520SOL    HW227703   1.646   6.435   2.108
 3521SOL     OW27704   2.322   0.206   0.612
 3521SOL    HW127705   2.361   0.268   0.673
 3521SOL    HW227706   2.337   0.120   0.652
 3522SOL     OW27707   3.113   5.684   7.271
 3522SOL    HW127708   3.064   5.764   7.290
 3522SOL    HW227709   3.125   5.685   7.177
 3523SOL     OW27710   6.427   2.971   0.046
 3523SOL    HW127711   6.432   2.935  -0.042
 3523SOL    HW227712   6.335   2.961   0.072
 3524SOL     OW27713   4.009   3.555   1.434
 3524SOL    HW127714   3.956   3.523   1.362
 3524SOL    HW227715   4.095   3.571   1.395
 3525SOL     OW27716   6.144   3.149   1.477
 3525SOL    HW127717   6.070   3.209   1.473
 3525SOL    HW227718   6.183   3.164   1.564
 3526SOL     OW27719   1.299   3.960   0.537
 3526SOL    HW127720   1.384   3.996   0.561
 3526SOL    HW227721   1.260   4.025   0.479
 3527SOL     OW27722   3.279   5.164   7.140
 3527SOL    HW127723   3.255   5.100   7.207
 3527SOL    HW227724   3.365   5.136   7.109
 3528SOL     OW27725   3.135   3.526   1.648
 3528SOL    HW127726   3.093   3.446   1.679
 3528SOL    HW227727   3.121   3.525   1.554
 3529SOL     OW27728   3.315   4.785   7.759
 3529SOL    HW127729   3.368   4.764   7.836
 3529SOL    HW227730   3.225   4.764   7.786
 3530SOL     OW27731   4.246   0.829   6.048
 3530SOL    HW127732   4.278   0.919   6.037
 3530SOL    HW227733   4.259   0.789   5.962
 3531SOL     OW27734   6.410   4.648   1.302
 3531SOL    HW127735   6.468   4.676   1.373
 3531SOL    HW227736   6.459   4.580   1.256
 3532SOL     OW27737   2.240   3.100   0.058
 3532SOL    HW127738   2.262   3.191   0.080
 3532SOL    HW227739   2.265   3.091  -0.034
 3533SOL     OW27740   4.143   1.094   0.579
 3533SOL    HW127741   4.061   1.086   0.529
 3533SOL    HW227742   4.115   1.100   0.670
 3534SOL     OW27743   2.220   0.085   1.907
 3534SOL    HW127744   2.249   0.018   1.845
 3534SOL    HW227745   2.260   0.166   1.874
 3535SOL     OW27746   5.972   3.647   1.102
 3535SOL    HW127747   5.905   3.666   1.169
 3535SOL    HW227748   6.033   3.721   1.108
 3536SOL     OW27749   5.671   5.728   0.582
 3536SOL    HW127750   5.606   5.747   0.649
 3536SOL    HW227751   5.740   5.793   0.596
 3537SOL     OW27752   5.976   0.785   2.223
 3537SOL    HW127753   5.918   0.861   2.233
 3537SOL    HW227754   6.027   0.804   2.145
 3538SOL     OW27755   3.407   1.576   7.299
 3538SOL    HW127756   3.328   1.522   7.311
 3538SOL    HW227757   3.480   1.515   7.307
 3539SOL     OW27758   2.979   2.236   1.062
 3539SOL    HW127759   2.946   2.288   0.989
 3539SOL    HW227760   3.056   2.191   1.028
 3540SOL     OW27761   0.279   2.810   2.629
 3540SOL    HW127762   0.264   2.740   2.565
 3540SOL    HW227763   0.373   2.804   2.648
 3541SOL     OW27764   6.052   2.823   0.858
 3541SOL    HW127765   6.012   2.892   0.806
 3541SOL    HW227766   6.041   2.743   0.805
 3542SOL     OW27767   4.046   1.343   6.641
 3542SOL    HW127768   4.093   1.330   6.559
 3542SOL    HW227769   4.114   1.357   6.707
 3543SOL     OW27770   1.558   4.987   7.427
 3543SOL    HW127771   1.522   4.947   7.348
 3543SOL    HW227772   1.509   4.946   7.499
 3544SOL     OW27773   0.916   0.893   5.884
 3544SOL    HW127774   0.866   0.829   5.833
 3544SOL    HW227775   0.852   0.957   5.913
 3545SOL     OW27776   3.106   5.275   7.617
 3545SOL    HW127777   3.169   5.231   7.675
 3545SOL    HW227778   3.148   5.273   7.531
 3546SOL     OW27779   3.124   1.715   7.195
 3546SOL    HW127780   3.184   1.644   7.172
 3546SOL    HW227781   3.040   1.672   7.208
 3547SOL     OW27782   6.165   1.033   7.053
 3547SOL    HW127783   6.252   1.029   7.013
 3547SOL    HW227784   6.107   0.997   6.987
 3548SOL     OW27785   2.678   5.329   0.154
 3548SOL    HW127786   2.717   5.263   0.097
 3548SOL    HW227787   2.695   5.412   0.109
 3549SOL     OW27788   3.647   0.929   0.302
 3549SOL    HW127789   3.607   0.902   0.385
 3549SOL    HW227790   3.573   0.938   0.242
 3550SOL     OW27791   1.544   0.768   6.916
 3550SOL    HW127792   1.619   0.808   6.961
 3550SOL    HW227793   1.468   0.818   6.946
 3551SOL     OW27794   0.290   4.533   6.943
 3551SOL    HW127795   0.368   4.508   6.894
 3551SOL    HW227796   0.323   4.571   7.024
 3552SOL     OW27797   4.785   1.458   0.701
 3552SOL    HW127798   4.696   1.450   0.737
 3552SOL    HW227799   4.841   1.463   0.778
 3553SOL     OW27800   1.114   0.019   1.106
 3553SOL    HW127801   1.053  -0.014   1.173
 3553SOL    HW227802   1.172   0.079   1.154
 3554SOL     OW27803   3.182   5.381   1.347
 3554SOL    HW127804   3.188   5.319   1.420
 3554SOL    HW227805   3.098   5.425   1.360
 3555SOL     OW27806   0.443   2.634   7.540
 3555SOL    HW127807   0.467   2.542   7.553
 3555SOL    HW227808   0.402   2.636   7.454
 3556SOL     OW27809   5.691   4.185   2.389
 3556SOL    HW127810   5.695   4.166   2.483
 3556SOL    HW227811   5.598   4.196   2.371
 3557SOL     OW27812   6.144   4.909   6.784
 3557SOL    HW127813   6.190   4.992   6.792
 3557SOL    HW227814   6.182   4.853   6.852
 3558SOL     OW27815   3.714   6.427   1.787
 3558SOL    HW127816   3.770   6.371   1.733
 3558SOL    HW227817   3.630   6.428   1.742
 3559SOL     OW27818   4.756   6.129   7.271
 3559SOL    HW127819   4.723   6.099   7.186
 3559SOL    HW227820   4.677   6.141   7.324
 3560SOL     OW27821   6.330   1.512   7.450
 3560SOL    HW127822   6.245   1.516   7.495
 3560SOL    HW227823   6.316   1.447   7.381
 3561SOL     OW27824   0.045   3.871   1.707
 3561SOL    HW127825   0.047   3.931   1.781
 3561SOL    HW227826  -0.010   3.914   1.643
 3562SOL     OW27827   5.023   5.394   2.384
 3562SOL    HW127828   5.004   5.327   2.450
 3562SOL    HW227829   4.936   5.422   2.353
 3563SOL     OW27830   2.878   3.758   7.276
 3563SOL    HW127831   2.971   3.781   7.285
 3563SOL    HW227832   2.865   3.685   7.337
 3564SOL     OW27833   6.149   5.051   7.291
 3564SOL    HW127834   6.167   5.068   7.384
 3564SOL    HW227835   6.122   5.135   7.256
 3565SOL     OW27836   3.511   4.573   7.270
 3565SOL    HW127837   3.538   4.646   7.326
 3565SOL    HW227838   3.489   4.502   7.332
 3566SOL     OW27839   3.491   1.523   6.765
 3566SOL    HW127840   3.479   1.587   6.836
 3566SOL    HW227841   3.526   1.446   6.809
 3567SOL     OW27842   3.939   2.523   7.043
 3567SOL    HW127843   3.976   2.467   7.112
 3567SOL    HW227844   3.869   2.572   7.087
 3568SOL     OW27845   5.220   4.271   7.024
 3568SOL    HW127846   5.294   4.331   7.037
 3568SOL    HW227847   5.150   4.308   7.078
 3569SOL     OW27848   1.613   0.534   0.437
 3569SOL    HW127849   1.675   0.607   0.427
 3569SOL    HW227850   1.527   0.575   0.429
 3570SOL     OW27851   0.947   4.556   0.516
 3570SOL    HW127852   0.863   4.510   0.521
 3570SOL    HW227853   0.954   4.603   0.600
 3571SOL     OW27854   5.985   1.952   0.221
 3571SOL    HW127855   5.929   2.027   0.241
 3571SOL    HW227856   6.040   1.942   0.298
 3572SOL     OW27857   1.536   5.684   7.739
 3572SOL    HW127858   1.449   5.643   7.737
 3572SOL    HW227859   1.596   5.614   7.715
 3573SOL     OW27860   6.387   0.379   7.346
 3573SOL    HW127861   6.467   0.369   7.295
 3573SOL    HW227862   6.416   0.380   7.437
 3574SOL     OW27863   2.431   1.284   2.254
 3574SOL    HW127864   2.464   1.373   2.246
 3574SOL    HW227865   2.459   1.255   2.341
 3575SOL     OW27866   0.569   2.129   1.322
 3575SOL    HW127867   0.515   2.202   1.293
 3575SOL    HW227868   0.529   2.102   1.405
 3576SOL     OW27869   2.241   0.320   7.157
 3576SOL    HW127870   2.293   0.352   7.231
 3576SOL    HW227871   2.159   0.370   7.162
 3577SOL     OW27872   4.698   6.319   6.316
 3577SOL    HW127873   4.634   6.366   6.370
 3577SOL    HW227874   4.685   6.353   6.228
 3578SOL     OW27875   3.310   2.969   6.423
 3578SOL    HW127876   3.400   2.991   6.397
 3578SOL    HW227877   3.283   3.042   6.478
 3579SOL     OW27878   4.047   4.606   1.835
 3579SOL    HW127879   3.967   4.657   1.826
 3579SOL    HW227880   4.073   4.619   1.927
 3580SOL     OW27881   3.119   5.032   6.166
 3580SOL    HW127882   3.063   5.038   6.243
 3580SOL    HW227883   3.208   5.046   6.198
 3581SOL     OW27884   0.293   0.255   6.919
 3581SOL    HW127885   0.206   0.292   6.903
 3581SOL    HW227886   0.354   0.325   6.900
 3582SOL     OW27887   0.304   5.893   7.756
 3582SOL    HW127888   0.259   5.969   7.718
 3582SOL    HW227889   0.260   5.879   7.840
 3583SOL     OW27890   3.722   0.547   0.444
 3583SOL    HW127891   3.772   0.473   0.476
 3583SOL    HW227892   3.634   0.535   0.481
 3584SOL     OW27893   0.451   5.173   2.009
 3584SOL    HW127894   0.443   5.268   2.017
 3584SOL    HW227895   0.541   5.154   2.036
 3585SOL     OW27896   2.811   4.322   0.447
 3585SOL    HW127897   2.808   4.227   0.439
 3585SOL    HW227898   2.904   4.343   0.457
 3586SOL     OW27899   3.374   3.766   0.603
 3586SOL    HW127900   3.289   3.777   0.646
 3586SOL    HW227901   3.411   3.855   0.600
 3587SOL     OW27902   6.095   5.277   6.046
 3587SOL    HW127903   6.070   5.185   6.060
 3587SOL    HW227904   6.137   5.277   5.960
 3588SOL     OW27905   5.978   1.651   6.564
 3588SOL    HW127906   5.929   1.635   6.483
 3588SOL    HW227907   5.928   1.721   6.607
 3589SOL     OW27908   3.983   0.265   6.335
 3589SOL    HW127909   3.905   0.261   6.389
 3589SOL    HW227910   4.044   0.318   6.386
 3590SOL     OW27911   1.616   0.123   7.444
 3590SOL    HW127912   1.576   0.038   7.423
 3590SOL    HW227913   1.562   0.187   7.398
 3591SOL     OW27914   2.032   1.248   0.327
 3591SOL    HW127915   1.960   1.295   0.285
 3591SOL    HW227916   2.053   1.301   0.404
 3592SOL     OW27917   2.569   3.905   1.096
 3592SOL    HW127918   2.483   3.912   1.138
 3592SOL    HW227919   2.631   3.924   1.167
 3593SOL     OW27920   4.293   0.282   0.936
 3593SOL    HW127921   4.350   0.298   1.012
 3593SOL    HW227922   4.265   0.191   0.946
 3594SOL     OW27923   5.263   0.807   1.915
 3594SOL    HW127924   5.232   0.747   1.983
 3594SOL    HW227925   5.266   0.753   1.835
 3595SOL     OW27926   4.070   3.203   1.131
 3595SOL    HW127927   4.126   3.280   1.120
 3595SOL    HW227928   4.109   3.137   1.073
 3596SOL     OW27929   5.473   2.490   1.861
 3596SOL    HW127930   5.551   2.527   1.820
 3596SOL    HW227931   5.505   2.414   1.909
 3597SOL     OW27932   1.364   1.407   7.572
 3597SOL    HW127933   1.432   1.359   7.526
 3597SOL    HW227934   1.386   1.396   7.665
 3598SOL     OW27935   1.955   6.311   0.463
 3598SOL    HW127936   2.010   6.283   0.389
 3598SOL    HW227937   2.003   6.283   0.540
 3599SOL     OW27938   2.148   1.202   1.030
 3599SOL    HW127939   2.188   1.261   0.967
 3599SOL    HW227940   2.103   1.136   0.977
 3600SOL     OW27941   5.757   0.928   5.766
 3600SOL    HW127942   5.724   0.859   5.824
 3600SOL    HW227943   5.715   0.911   5.682
 3601SOL     OW27944   4.957   3.629   1.985
 3601SOL    HW127945   4.958   3.676   2.069
 3601SOL    HW227946   5.040   3.653   1.944
 3602SOL     OW27947   3.520   2.840   7.740
 3602SOL    HW127948   3.506   2.794   7.822
 3602SOL    HW227949   3.615   2.853   7.735
 3603SOL     OW27950   2.279   1.142   1.720
 3603SOL    HW127951   2.327   1.160   1.801
 3603SOL    HW227952   2.262   1.228   1.683
 3604SOL     OW27953   1.995   2.415   7.358
 3604SOL    HW127954   1.992   2.322   7.335
 3604SOL    HW227955   1.910   2.449   7.332
 3605SOL     OW27956   4.884   1.701   7.379
 3605SOL    HW127957   4.839   1.691   7.295
 3605SOL    HW227958   4.813   1.707   7.444
 3606SOL     OW27959   5.382   5.649   1.141
 3606SOL    HW127960   5.442   5.584   1.178
 3606SOL    HW227961   5.393   5.642   1.046
 3607SOL     OW27962   2.408   1.678   7.146
 3607SOL    HW127963   2.315   1.658   7.148
 3607SOL    HW227964   2.435   1.678   7.238
 3608SOL     OW27965   0.456   0.203   0.954
 3608SOL    HW127966   0.415   0.145   1.017
 3608SOL    HW227967   0.506   0.266   1.007
 3609SOL     OW27968   5.201   5.253   5.275
 3609SOL    HW127969   5.224   5.211   5.192
 3609SOL    HW227970   5.244   5.339   5.272
 3610SOL     OW27971   6.358   1.442   6.926
 3610SOL    HW127972   6.444   1.406   6.903
 3610SOL    HW227973   6.316   1.372   6.976
 3611SOL     OW27974   4.263   2.556   7.300
 3611SOL    HW127975   4.287   2.638   7.257
 3611SOL    HW227976   4.174   2.571   7.332
 3612SOL     OW27977   5.197   4.655   1.085
 3612SOL    HW127978   5.273   4.680   1.033
 3612SOL    HW227979   5.226   4.578   1.135
 3613SOL     OW27980   2.231   3.371   1.092
 3613SOL    HW127981   2.253   3.463   1.081
 3613SOL    HW227982   2.263   3.349   1.180
 3614SOL     OW27983   2.741   1.407   1.260
 3614SOL    HW127984   2.645   1.413   1.261
 3614SOL    HW227985   2.761   1.334   1.318
 3615SOL     OW27986   3.228   6.010   5.906
 3615SOL    HW127987   3.167   6.043   5.971
 3615SOL    HW227988   3.203   6.053   5.825
 3616SOL     OW27989   3.321   2.326   1.691
 3616SOL    HW127990   3.322   2.236   1.723
 3616SOL    HW227991   3.413   2.348   1.678
 3617SOL     OW27992   3.806   2.671   0.424
 3617SOL    HW127993   3.754   2.742   0.462
 3617SOL    HW227994   3.845   2.627   0.499
 3618SOL     OW27995   2.275   1.107   2.409
 3618SOL    HW127996   2.182   1.086   2.410
 3618SOL    HW227997   2.290   1.147   2.324
 3619SOL     OW27998   2.011   1.815   2.237
 3619SOL    HW127999   2.081   1.804   2.301
 3619SOL    HW228000   1.931   1.791   2.284
 3620SOL     OW28001   2.494   5.534   0.965
 3620SOL    HW128002   2.427   5.578   1.018
 3620SOL    HW228003   2.447   5.504   0.887
 3621SOL     OW28004   1.960   1.991   0.221
 3621SOL    HW128005   2.054   1.983   0.237
 3621SOL    HW228006   1.945   2.084   0.207
 3622SOL     OW28007   1.449   2.306   6.313
 3622SOL    HW128008   1.443   2.284   6.406
 3622SOL    HW228009   1.365   2.347   6.292
 3623SOL     OW28010   0.330   6.023   6.500
 3623SOL    HW128011   0.333   6.058   6.411
 3623SOL    HW228012   0.315   5.929   6.489
 3624SOL     OW28013   1.597   5.235   1.293
 3624SOL    HW128014   1.689   5.251   1.317
 3624SOL    HW228015   1.549   5.307   1.333
 3625SOL     OW28016   0.126   5.587   5.968
 3625SOL    HW128017   0.170   5.502   5.960
 3625SOL    HW228018   0.035   5.564   5.988
 3626SOL     OW28019   2.479   5.259   6.842
 3626SOL    HW128020   2.558   5.277   6.894
 3626SOL    HW228021   2.461   5.341   6.796
 3627SOL     OW28022   6.197   5.883   1.496
 3627SOL    HW128023   6.165   5.869   1.407
 3627SOL    HW228024   6.219   5.976   1.500
 3628SOL     OW28025   5.751   5.418   5.375
 3628SOL    HW128026   5.820   5.354   5.354
 3628SOL    HW228027   5.778   5.498   5.330
 3629SOL     OW28028   3.034   0.054   0.890
 3629SOL    HW128029   3.017   0.137   0.934
 3629SOL    HW228030   2.949   0.026   0.857
 3630SOL     OW28031   4.759   5.335   2.886
 3630SOL    HW128032   4.833   5.308   2.941
 3630SOL    HW228033   4.798   5.391   2.819
 3631SOL     OW28034   5.842   3.447   6.922
 3631SOL    HW128035   5.868   3.359   6.948
 3631SOL    HW228036   5.817   3.490   7.004
 3632SOL     OW28037   0.927   0.910   7.419
 3632SOL    HW128038   0.967   0.824   7.408
 3632SOL    HW228039   0.879   0.903   7.501
 3633SOL     OW28040   2.661   0.347   0.814
 3633SOL    HW128041   2.660   0.360   0.909
 3633SOL    HW228042   2.572   0.367   0.786
 3634SOL     OW28043   5.565   0.327   7.732
 3634SOL    HW128044   5.622   0.303   7.659
 3634SOL    HW228045   5.580   0.420   7.745
 3635SOL     OW28046   2.364   4.161   1.312
 3635SOL    HW128047   2.431   4.185   1.249
 3635SOL    HW228048   2.398   4.192   1.396
 3636SOL     OW28049   6.433   3.224   5.846
 3636SOL    HW128050   6.478   3.307   5.831
 3636SOL    HW228051   6.344   3.249   5.872
 3637SOL     OW28052   2.006   0.411   6.658
 3637SOL    HW128053   2.084   0.373   6.697
 3637SOL    HW228054   2.039   0.469   6.589
 3638SOL     OW28055   4.290   6.378   1.668
 3638SOL    HW128056   4.363   6.440   1.667
 3638SOL    HW228057   4.329   6.294   1.645
 3639SOL     OW28058   4.215   4.947   2.494
 3639SOL    HW128059   4.188   4.856   2.507
 3639SOL    HW228060   4.135   4.993   2.470
 3640SOL     OW28061   2.392   5.704   1.856
 3640SOL    HW128062   2.328   5.699   1.927
 3640SOL    HW228063   2.472   5.734   1.898
 3641SOL     OW28064   5.487   6.403   6.505
 3641SOL    HW128065   5.472   6.425   6.413
 3641SOL    HW228066   5.409   6.437   6.550
 3642SOL     OW28067   6.196   3.191   6.920
 3642SOL    HW128068   6.107   3.222   6.934
 3642SOL    HW228069   6.237   3.259   6.867
 3643SOL     OW28070   1.245   2.679   0.871
 3643SOL    HW128071   1.227   2.703   0.780
 3643SOL    HW228072   1.340   2.686   0.880
 3644SOL     OW28073   4.233   0.879   1.968
 3644SOL    HW128074   4.168   0.809   1.958
 3644SOL    HW228075   4.227   0.929   1.886
 3645SOL     OW28076   1.196   1.283   0.110
 3645SOL    HW128077   1.167   1.249   0.195
 3645SOL    HW228078   1.242   1.210   0.069
 3646SOL     OW28079   0.500   5.344   6.747
 3646SOL    HW128080   0.589   5.355   6.712
 3646SOL    HW228081   0.514   5.328   6.841
 3647SOL     OW28082   3.054   1.152   6.356
 3647SOL    HW128083   3.038   1.183   6.445
 3647SOL    HW228084   3.013   1.066   6.354
 3648SOL     OW28085   3.890   1.467   0.075
 3648SOL    HW128086   3.817   1.502   0.023
 3648SOL    HW228087   3.959   1.534   0.068
 3649SOL     OW28088   0.774   5.956   5.735
 3649SOL    HW128089   0.715   5.974   5.808
 3649SOL    HW228090   0.840   6.026   5.740
 3650SOL     OW28091   6.059   3.997   2.263
 3650SOL    HW128092   6.113   3.920   2.245
 3650SOL    HW228093   6.035   3.988   2.355
 3651SOL     OW28094   0.562   5.678   6.646
 3651SOL    HW128095   0.593   5.748   6.703
 3651SOL    HW228096   0.578   5.598   6.695
 3652SOL     OW28097   1.640   5.760   7.283
 3652SOL    HW128098   1.581   5.774   7.357
 3652SOL    HW228099   1.721   5.727   7.323
 3653SOL     OW28100   5.181   4.618   0.209
 3653SOL    HW128101   5.181   4.657   0.297
 3653SOL    HW228102   5.146   4.688   0.153
 3654SOL     OW28103   4.204   0.822   6.411
 3654SOL    HW128104   4.136   0.864   6.359
 3654SOL    HW228105   4.280   0.820   6.353
 3655SOL     OW28106   1.159   5.544   6.092
 3655SOL    HW128107   1.116   5.508   6.014
 3655SOL    HW228108   1.248   5.510   6.089
 3656SOL     OW28109   0.203   5.454   6.341
 3656SOL    HW128110   0.210   5.371   6.293
 3656SOL    HW228111   0.240   5.435   6.427
 3657SOL     OW28112   6.041   4.177   6.489
 3657SOL    HW128113   5.946   4.180   6.504
 3657SOL    HW228114   6.069   4.094   6.527
 3658SOL     OW28115   0.466   0.235   0.101
 3658SOL    HW128116   0.521   0.157   0.092
 3658SOL    HW228117   0.383   0.203   0.137
 3659SOL     OW28118   6.104   3.920   7.542
 3659SOL    HW128119   6.100   3.902   7.636
 3659SOL    HW228120   6.015   3.946   7.519
 3660SOL     OW28121   2.904   3.666   2.323
 3660SOL    HW128122   2.902   3.743   2.380
 3660SOL    HW228123   2.812   3.639   2.316
 3661SOL     OW28124   3.949   0.267   7.086
 3661SOL    HW128125   3.885   0.275   7.015
 3661SOL    HW228126   3.986   0.179   7.076
 3662SOL     OW28127   2.769   5.138   7.362
 3662SOL    HW128128   2.822   5.063   7.336
 3662SOL    HW228129   2.685   5.101   7.389
 3663SOL     OW28130   5.482   4.578   7.740
 3663SOL    HW128131   5.513   4.669   7.748
 3663SOL    HW228132   5.539   4.539   7.674
 3664SOL     OW28133   1.564   2.859   6.908
 3664SOL    HW128134   1.477   2.851   6.947
 3664SOL    HW228135   1.593   2.947   6.932
 3665SOL     OW28136   4.972   5.047   7.561
 3665SOL    HW128137   4.905   4.979   7.572
 3665SOL    HW228138   4.938   5.121   7.611
 3666SOL     OW28139   4.615   3.046   1.385
 3666SOL    HW128140   4.633   2.973   1.445
 3666SOL    HW228141   4.523   3.035   1.361
 3667SOL     OW28142   0.819   5.815   1.386
 3667SOL    HW128143   0.750   5.846   1.445
 3667SOL    HW228144   0.899   5.854   1.419
 3668SOL     OW28145   3.265   4.649   1.907
 3668SOL    HW128146   3.336   4.690   1.957
 3668SOL    HW228147   3.185   4.677   1.953
 3669SOL     OW28148   5.053   3.407   0.733
 3669SOL    HW128149   4.967   3.375   0.705
 3669SOL    HW228150   5.086   3.457   0.658
 3670SOL     OW28151   4.473   3.154   0.918
 3670SOL    HW128152   4.504   3.071   0.953
 3670SOL    HW228153   4.552   3.206   0.903
 3671SOL     OW28154   4.761   0.075   6.861
 3671SOL    HW128155   4.768  -0.018   6.838
 3671SOL    HW228156   4.764   0.077   6.956
 3672SOL     OW28157   5.001   4.977   1.174
 3672SOL    HW128158   4.940   5.006   1.106
 3672SOL    HW228159   5.010   5.052   1.232
 3673SOL     OW28160   0.672   3.028   2.220
 3673SOL    HW128161   0.760   3.026   2.180
 3673SOL    HW228162   0.651   3.121   2.228
 3674SOL     OW28163   4.045   2.831   6.100
 3674SOL    HW128164   3.984   2.905   6.098
 3674SOL    HW228165   3.995   2.759   6.137
 3675SOL     OW28166   4.899   1.925   7.635
 3675SOL    HW128167   4.953   1.966   7.702
 3675SOL    HW228168   4.885   1.835   7.666
 3676SOL     OW28169   5.149   4.745   6.792
 3676SOL    HW128170   5.225   4.773   6.741
 3676SOL    HW228171   5.124   4.823   6.842
 3677SOL     OW28172   1.139   2.193   6.357
 3677SOL    HW128173   1.129   2.145   6.274
 3677SOL    HW228174   1.153   2.284   6.330
 3678SOL     OW28175   4.427   1.151   0.484
 3678SOL    HW128176   4.343   1.192   0.508
 3678SOL    HW228177   4.415   1.058   0.503
 3679SOL     OW28178   1.333   2.627   1.275
 3679SOL    HW128179   1.305   2.714   1.305
 3679SOL    HW228180   1.332   2.573   1.355
 3680SOL     OW28181   3.954   4.980   6.684
 3680SOL    HW128182   3.926   5.017   6.767
 3680SOL    HW228183   4.044   4.951   6.699
 3681SOL     OW28184   4.695   3.281   7.485
 3681SOL    HW128185   4.650   3.197   7.493
 3681SOL    HW228186   4.782   3.260   7.452
 3682SOL     OW28187   6.108   0.901   1.498
 3682SOL    HW128188   6.122   0.981   1.549
 3682SOL    HW228189   6.147   0.832   1.551
 3683SOL     OW28190   3.084   3.948   2.174
 3683SOL    HW128191   3.041   3.923   2.256
 3683SOL    HW228192   3.176   3.924   2.187
 3684SOL     OW28193   1.906   1.824   7.644
 3684SOL    HW128194   1.885   1.735   7.617
 3684SOL    HW228195   1.820   1.865   7.658
 3685SOL     OW28196   5.982   0.153   7.737
 3685SOL    HW128197   5.995   0.221   7.670
 3685SOL    HW228198   6.041   0.178   7.808
 3686SOL     OW28199   0.436   2.453   6.804
 3686SOL    HW128200   0.383   2.379   6.834
 3686SOL    HW228201   0.442   2.510   6.880
 3687SOL     OW28202   0.990   4.289   6.360
 3687SOL    HW128203   0.912   4.235   6.347
 3687SOL    HW228204   1.030   4.254   6.440
 3688SOL     OW28205   4.253   1.683   0.956
 3688SOL    HW128206   4.321   1.744   0.985
 3688SOL    HW228207   4.287   1.596   0.979
 3689SOL     OW28208   6.425   5.917   0.389
 3689SOL    HW128209   6.334   5.943   0.380
 3689SOL    HW228210   6.439   5.910   0.483
 3690SOL     OW28211   4.733   4.720   5.740
 3690SOL    HW128212   4.682   4.685   5.813
 3690SOL    HW228213   4.814   4.752   5.780
 3691SOL     OW28214   2.255   3.378   0.110
 3691SOL    HW128215   2.201   3.434   0.055
 3691SOL    HW228216   2.336   3.427   0.125
 3692SOL     OW28217   5.687   4.504   5.988
 3692SOL    HW128218   5.721   4.471   5.905
 3692SOL    HW228219   5.703   4.599   5.985
 3693SOL     OW28220   1.612   1.811   7.750
 3693SOL    HW128221   1.527   1.820   7.706
 3693SOL    HW228222   1.608   1.874   7.822
 3694SOL     OW28223   2.863   1.434   7.589
 3694SOL    HW128224   2.873   1.340   7.581
 3694SOL    HW228225   2.792   1.456   7.528
 3695SOL     OW28226   1.372   5.182   0.717
 3695SOL    HW128227   1.423   5.235   0.778
 3695SOL    HW228228   1.358   5.240   0.642
 3696SOL     OW28229   3.175   3.515   1.372
 3696SOL    HW128230   3.253   3.519   1.317
 3696SOL    HW228231   3.103   3.503   1.310
 3697SOL     OW28232   4.346   1.626   7.412
 3697SOL    HW128233   4.372   1.716   7.395
 3697SOL    HW228234   4.310   1.595   7.329
 3698SOL     OW28235   5.103   0.624   6.048
 3698SOL    HW128236   5.186   0.590   6.014
 3698SOL    HW228237   5.116   0.719   6.050
 3699SOL     OW28238   1.634   1.685   1.367
 3699SOL    HW128239   1.716   1.731   1.382
 3699SOL    HW228240   1.569   1.755   1.358
 3700SOL     OW28241   0.627   1.556   1.725
 3700SOL    HW128242   0.550   1.557   1.668
 3700SOL    HW228243   0.645   1.648   1.743
 3701SOL     OW28244   1.614   1.109   6.839
 3701SOL    HW128245   1.566   1.151   6.768
 3701SOL    HW228246   1.706   1.122   6.816
 3702SOL     OW28247   3.307   0.423   1.870
 3702SOL    HW128248   3.307   0.505   1.920
 3702SOL    HW228249   3.276   0.357   1.932
 3703SOL     OW28250   0.198   5.894   7.414
 3703SOL    HW128251   0.190   5.957   7.486
 3703SOL    HW228252   0.168   5.942   7.337
 3704SOL     OW28253   0.816   5.457   7.319
 3704SOL    HW128254   0.881   5.409   7.268
 3704SOL    HW228255   0.785   5.527   7.262
 3705SOL     OW28256   2.415   1.034   0.533
 3705SOL    HW128257   2.392   0.966   0.469
 3705SOL    HW228258   2.495   1.073   0.498
 3706SOL     OW28259   0.519   5.291   7.712
 3706SOL    HW128260   0.556   5.203   7.708
 3706SOL    HW228261   0.539   5.329   7.626
 3707SOL     OW28262   2.218   5.629   7.021
 3707SOL    HW128263   2.229   5.666   6.934
 3707SOL    HW228264   2.200   5.536   7.005
 3708SOL     OW28265   6.307   3.143   1.715
 3708SOL    HW128266   6.389   3.176   1.677
 3708SOL    HW228267   6.317   3.158   1.809
 3709SOL     OW28268   5.477   0.886   1.107
 3709SOL    HW128269   5.542   0.883   1.038
 3709SOL    HW228270   5.465   0.979   1.126
 3710SOL     OW28271   3.433   5.055   7.511
 3710SOL    HW128272   3.417   5.149   7.507
 3710SOL    HW228273   3.349   5.016   7.487
 3711SOL     OW28274   1.829   3.028   7.071
 3711SOL    HW128275   1.746   3.049   7.029
 3711SOL    HW228276   1.839   3.094   7.140
 3712SOL     OW28277   0.287   4.934   7.306
 3712SOL    HW128278   0.192   4.929   7.313
 3712SOL    HW228279   0.304   5.023   7.274
 3713SOL     OW28280   0.136   1.632   0.697
 3713SOL    HW128281   0.053   1.598   0.666
 3713SOL    HW228282   0.112   1.698   0.762
 3714SOL     OW28283   0.333   1.953   7.677
 3714SOL    HW128284   0.354   1.861   7.659
 3714SOL    HW228285   0.290   1.984   7.597
 3715SOL     OW28286   5.269   5.371   7.050
 3715SOL    HW128287   5.285   5.366   6.955
 3715SOL    HW228288   5.352   5.400   7.087
 3716SOL     OW28289   4.812   1.656   2.029
 3716SOL    HW128290   4.776   1.728   2.080
 3716SOL    HW228291   4.851   1.598   2.094
 3717SOL     OW28292   1.278   5.630   7.000
 3717SOL    HW128293   1.260   5.691   6.929
 3717SOL    HW228294   1.226   5.552   6.978
 3718SOL     OW28295   2.112   1.529   1.326
 3718SOL    HW128296   2.028   1.559   1.291
 3718SOL    HW228297   2.132   1.591   1.396
 3719SOL     OW28298   1.713   1.128   0.676
 3719SOL    HW128299   1.626   1.106   0.642
 3719SOL    HW228300   1.755   1.177   0.605
 3720SOL     OW28301   5.410   1.885   2.751
 3720SOL    HW128302   5.435   1.823   2.682
 3720SOL    HW228303   5.470   1.959   2.740
 3721SOL     OW28304   2.558   0.714   0.801
 3721SOL    HW128305   2.489   0.770   0.766
 3721SOL    HW228306   2.527   0.625   0.784
 3722SOL     OW28307   0.952   5.927   7.180
 3722SOL    HW128308   0.966   5.833   7.174
 3722SOL    HW228309   0.945   5.945   7.273
 3723SOL     OW28310   3.526   0.310   7.276
 3723SOL    HW128311   3.546   0.338   7.186
 3723SOL    HW228312   3.433   0.331   7.287
 3724SOL     OW28313   1.462   2.580   6.413
 3724SOL    HW128314   1.388   2.572   6.352
 3724SOL    HW228315   1.536   2.607   6.358
 3725SOL     OW28316   3.471   5.983   1.141
 3725SOL    HW128317   3.443   6.073   1.124
 3725SOL    HW228318   3.518   5.958   1.061
 3726SOL     OW28319   1.747   0.831   7.414
 3726SOL    HW128320   1.826   0.835   7.468
 3726SOL    HW228321   1.757   0.903   7.351
 3727SOL     OW28322   0.460   4.391   1.786
 3727SOL    HW128323   0.549   4.404   1.817
 3727SOL    HW228324   0.464   4.410   1.692
 3728SOL     OW28325   4.560   2.931   1.074
 3728SOL    HW128326   4.572   2.849   1.026
 3728SOL    HW228327   4.509   2.907   1.151
 3729SOL     OW28328   0.408   2.067   7.329
 3729SOL    HW128329   0.462   2.013   7.387
 3729SOL    HW228330   0.365   2.129   7.388
 3730SOL     OW28331   5.069   0.324   7.567
 3730SOL    HW128332   4.978   0.309   7.540
 3730SOL    HW228333   5.120   0.306   7.488
 3731SOL     OW28334   4.882   4.362   6.043
 3731SOL    HW128335   4.898   4.271   6.069
 3731SOL    HW228336   4.788   4.365   6.023
 3732SOL     OW28337   5.387   1.842   1.321
 3732SOL    HW128338   5.322   1.889   1.269
 3732SOL    HW228339   5.461   1.902   1.327
 3733SOL     OW28340   4.845   1.505   6.728
 3733SOL    HW128341   4.845   1.598   6.751
 3733SOL    HW228342   4.788   1.500   6.651
 3734SOL     OW28343   0.364   1.941   0.905
 3734SOL    HW128344   0.392   1.978   0.822
 3734SOL    HW228345   0.371   1.846   0.892
 3735SOL     OW28346   1.561   6.041   7.622
 3735SOL    HW128347   1.547   6.010   7.533
 3735SOL    HW228348   1.540   6.134   7.619
 3736SOL     OW28349   4.134   4.813   0.300
 3736SOL    HW128350   4.111   4.827   0.208
 3736SOL    HW228351   4.200   4.743   0.297
 3737SOL     OW28352   0.594   0.311   6.800
 3737SOL    HW128353   0.609   0.323   6.706
 3737SOL    HW228354   0.572   0.398   6.832
 3738SOL     OW28355   5.049   3.753   1.019
 3738SOL    HW128356   5.107   3.807   1.073
 3738SOL    HW228357   5.034   3.805   0.940
 3739SOL     OW28358   4.013   0.500   7.482
 3739SOL    HW128359   3.959   0.547   7.545
 3739SOL    HW228360   4.018   0.411   7.516
 3740SOL     OW28361   2.352   3.314   0.836
 3740SOL    HW128362   2.312   3.344   0.918
 3740SOL    HW228363   2.420   3.253   0.864
 3741SOL     OW28364   5.217   5.964   0.247
 3741SOL    HW128365   5.128   5.981   0.218
 3741SOL    HW228366   5.245   6.047   0.286
 3742SOL     OW28367   6.118   3.972   5.516
 3742SOL    HW128368   6.163   4.045   5.473
 3742SOL    HW228369   6.058   3.939   5.449
 3743SOL     OW28370   5.278   6.214   1.994
 3743SOL    HW128371   5.262   6.140   1.935
 3743SOL    HW228372   5.309   6.284   1.937
 3744SOL     OW28373   5.449   0.031   6.265
 3744SOL    HW128374   5.453   0.004   6.173
 3744SOL    HW228375   5.409   0.118   6.262
 3745SOL     OW28376   1.172   3.653   7.541
 3745SOL    HW128377   1.157   3.707   7.464
 3745SOL    HW228378   1.085   3.644   7.581
 3746SOL     OW28379   6.203   2.391   1.083
 3746SOL    HW128380   6.153   2.471   1.096
 3746SOL    HW228381   6.137   2.322   1.080
 3747SOL     OW28382   0.154   4.394   7.625
 3747SOL    HW128383   0.100   4.452   7.571
 3747SOL    HW228384   0.091   4.346   7.678
 3748SOL     OW28385   4.819   3.138   2.703
 3748SOL    HW128386   4.759   3.187   2.759
 3748SOL    HW228387   4.875   3.206   2.665
 3749SOL     OW28388   5.931   1.371   1.310
 3749SOL    HW128389   5.974   1.421   1.380
 3749SOL    HW228390   5.837   1.387   1.323
 3750SOL     OW28391   2.248   3.819   2.243
 3750SOL    HW128392   2.333   3.777   2.257
 3750SOL    HW228393   2.208   3.824   2.329
 3751SOL     OW28394   5.718   2.083   7.309
 3751SOL    HW128395   5.680   2.163   7.271
 3751SOL    HW228396   5.786   2.115   7.368
 3752SOL     OW28397   4.790   4.278   7.028
 3752SOL    HW128398   4.784   4.361   6.980
 3752SOL    HW228399   4.705   4.236   7.014
 3753SOL     OW28400   4.668   0.710   1.157
 3753SOL    HW128401   4.666   0.794   1.203
 3753SOL    HW228402   4.697   0.647   1.223
 3754SOL     OW28403   2.508   0.066   2.457
 3754SOL    HW128404   2.457   0.144   2.435
 3754SOL    HW228405   2.491   0.052   2.550
 3755SOL     OW28406   3.098   3.153   1.195
 3755SOL    HW128407   3.081   3.059   1.207
 3755SOL    HW228408   3.190   3.164   1.218
 3756SOL     OW28409   0.146   4.471   5.909
 3756SOL    HW128410   0.111   4.491   5.996
 3756SOL    HW228411   0.072   4.431   5.863
 3757SOL     OW28412   5.343   1.018   0.468
 3757SOL    HW128413   5.286   1.095   0.475
 3757SOL    HW228414   5.287   0.951   0.430
 3758SOL     OW28415   1.292   3.031   1.069
 3758SOL    HW128416   1.232   2.958   1.083
 3758SOL    HW228417   1.271   3.094   1.139
 3759SOL     OW28418   0.944   1.472   0.068
 3759SOL    HW128419   0.990   1.541   0.021
 3759SOL    HW228420   1.012   1.407   0.088
 3760SOL     OW28421   3.593   0.130   7.754
 3760SOL    HW128422   3.499   0.141   7.741
 3760SOL    HW228423   3.632   0.155   7.670
 3761SOL     OW28424   5.071   5.842   7.543
 3761SOL    HW128425   4.991   5.840   7.596
 3761SOL    HW228426   5.046   5.890   7.464
 3762SOL     OW28427   1.433   2.062   1.025
 3762SOL    HW128428   1.433   2.096   1.115
 3762SOL    HW228429   1.360   2.105   0.983
 3763SOL     OW28430   1.247   0.524   6.411
 3763SOL    HW128431   1.273   0.532   6.503
 3763SOL    HW228432   1.152   0.513   6.414
 3764SOL     OW28433   3.918   2.352   6.678
 3764SOL    HW128434   3.983   2.292   6.640
 3764SOL    HW228435   3.966   2.399   6.746
 3765SOL     OW28436   2.462   1.067   7.128
 3765SOL    HW128437   2.500   1.049   7.214
 3765SOL    HW228438   2.379   1.111   7.148
 3766SOL     OW28439   2.521   2.505   1.188
 3766SOL    HW128440   2.449   2.473   1.133
 3766SOL    HW228441   2.513   2.600   1.184
 3767SOL     OW28442   4.863   5.508   2.706
 3767SOL    HW128443   4.934   5.565   2.676
 3767SOL    HW228444   4.815   5.485   2.626
 3768SOL     OW28445   0.713   4.986   1.052
 3768SOL    HW128446   0.735   4.990   0.959
 3768SOL    HW228447   0.780   5.038   1.096
 3769SOL     OW28448   4.420   5.115   1.567
 3769SOL    HW128449   4.349   5.066   1.608
 3769SOL    HW228450   4.382   5.201   1.547
 3770SOL     OW28451   2.927   5.038   1.423
 3770SOL    HW128452   2.843   5.010   1.386
 3770SOL    HW228453   2.985   4.964   1.410
 3771SOL     OW28454   5.540   5.342   6.131
 3771SOL    HW128455   5.630   5.369   6.151
 3771SOL    HW228456   5.540   5.247   6.143
 3772SOL     OW28457   1.073   5.879   0.440
 3772SOL    HW128458   1.128   5.862   0.364
 3772SOL    HW228459   1.000   5.817   0.432
 3773SOL     OW28460   3.967   3.713   1.821
 3773SOL    HW128461   3.959   3.692   1.914
 3773SOL    HW228462   3.936   3.634   1.776
 3774SOL     OW28463   0.147   5.211   6.230
 3774SOL    HW128464   0.212   5.149   6.263
 3774SOL    HW228465   0.154   5.205   6.135
 3775SOL     OW28466   3.497   2.768   0.450
 3775SOL    HW128467   3.533   2.710   0.382
 3775SOL    HW228468   3.451   2.708   0.509
 3776SOL     OW28469   3.714   3.819   7.416
 3776SOL    HW128470   3.752   3.868   7.343
 3776SOL    HW228471   3.656   3.881   7.460
 3777SOL     OW28472   4.438   6.143   0.944
 3777SOL    HW128473   4.386   6.141   0.863
 3777SOL    HW228474   4.522   6.179   0.917
 3778SOL     OW28475   2.323   4.316   7.447
 3778SOL    HW128476   2.403   4.367   7.439
 3778SOL    HW228477   2.254   4.380   7.465
 3779SOL     OW28478   1.044   4.267   0.196
 3779SOL    HW128479   0.950   4.270   0.214
 3779SOL    HW228480   1.053   4.202   0.126
 3780SOL     OW28481   0.620   1.766   1.452
 3780SOL    HW128482   0.587   1.831   1.514
 3780SOL    HW228483   0.569   1.687   1.470
 3781SOL     OW28484   3.878   2.037   1.909
 3781SOL    HW128485   3.930   2.012   1.985
 3781SOL    HW228486   3.887   2.132   1.904
 3782SOL     OW28487   3.704   0.481   2.055
 3782SOL    HW128488   3.766   0.496   2.126
 3782SOL    HW228489   3.661   0.566   2.042
 3783SOL     OW28490   6.239   3.166   6.181
 3783SOL    HW128491   6.208   3.229   6.116
 3783SOL    HW228492   6.221   3.209   6.265
 3784SOL     OW28493   6.029   6.164   0.067
 3784SOL    HW128494   5.964   6.120   0.123
 3784SOL    HW228495   6.061   6.236   0.120
 3785SOL     OW28496   6.090   1.544   7.540
 3785SOL    HW128497   6.028   1.612   7.565
 3785SOL    HW228498   6.051   1.504   7.462
 3786SOL     OW28499   3.509   0.697   0.978
 3786SOL    HW128500   3.446   0.769   0.980
 3786SOL    HW228501   3.562   0.713   0.900
 3787SOL     OW28502   4.983   2.940   1.965
 3787SOL    HW128503   4.983   3.032   1.940
 3787SOL    HW228504   4.913   2.901   1.913
 3788SOL     OW28505   6.038   1.992   1.890
 3788SOL    HW128506   6.016   1.932   1.818
 3788SOL    HW228507   5.981   2.068   1.876
 3789SOL     OW28508   5.663   2.592   0.038
 3789SOL    HW128509   5.632   2.512  -0.005
 3789SOL    HW228510   5.672   2.567   0.131
 3790SOL     OW28511   3.770   3.203   0.160
 3790SOL    HW128512   3.713   3.151   0.104
 3790SOL    HW228513   3.737   3.293   0.151
 3791SOL     OW28514   2.173   4.600   5.983
 3791SOL    HW128515   2.098   4.573   6.034
 3791SOL    HW228516   2.239   4.533   5.998
 3792SOL     OW28517   5.805   0.163   2.485
 3792SOL    HW128518   5.878   0.126   2.435
 3792SOL    HW228519   5.798   0.253   2.454
 3793SOL     OW28520   1.326   5.420   5.788
 3793SOL    HW128521   1.355   5.460   5.870
 3793SOL    HW228522   1.252   5.474   5.760
 3794SOL     OW28523   5.621   0.602   7.721
 3794SOL    HW128524   5.707   0.644   7.724
 3794SOL    HW228525   5.559   0.671   7.743
 3795SOL     OW28526   1.497   0.960   1.763
 3795SOL    HW128527   1.555   0.908   1.819
 3795SOL    HW228528   1.484   1.042   1.812
 3796SOL     OW28529   4.739   0.866   7.122
 3796SOL    HW128530   4.664   0.861   7.181
 3796SOL    HW228531   4.701   0.865   7.034
 3797SOL     OW28532   2.715   0.061   0.811
 3797SOL    HW128533   2.654   0.052   0.884
 3797SOL    HW228534   2.719   0.156   0.795
 3798SOL     OW28535   1.646   5.848   0.763
 3798SOL    HW128536   1.633   5.882   0.674
 3798SOL    HW228537   1.564   5.868   0.808
 3799SOL     OW28538   1.210   2.076   1.362
 3799SOL    HW128539   1.125   2.119   1.374
 3799SOL    HW228540   1.273   2.148   1.366
 3800SOL     OW28541   1.747   0.323   6.672
 3800SOL    HW128542   1.714   0.275   6.596
 3800SOL    HW228543   1.840   0.333   6.656
 3801SOL     OW28544   0.512   1.755   0.621
 3801SOL    HW128545   0.471   1.836   0.654
 3801SOL    HW228546   0.534   1.705   0.700
 3802SOL     OW28547   5.296   6.385   2.448
 3802SOL    HW128548   5.340   6.368   2.531
 3802SOL    HW228549   5.240   6.307   2.434
 3803SOL     OW28550   1.046   6.170   1.559
 3803SOL    HW128551   1.132   6.172   1.600
 3803SOL    HW228552   0.987   6.144   1.629
 3804SOL     OW28553   0.900   5.941   6.290
 3804SOL    HW128554   0.869   6.025   6.258
 3804SOL    HW228555   0.878   5.879   6.220
 3805SOL     OW28556   4.852   0.646   1.806
 3805SOL    HW128557   4.849   0.701   1.884
 3805SOL    HW228558   4.944   0.621   1.799
 3806SOL     OW28559   0.767   3.020   0.054
 3806SOL    HW128560   0.672   3.024   0.046
 3806SOL    HW228561   0.782   2.996   0.145
 3807SOL     OW28562   3.770   5.658   6.672
 3807SOL    HW128563   3.836   5.702   6.618
 3807SOL    HW228564   3.811   5.575   6.697
 3808SOL     OW28565   5.091   5.652   0.409
 3808SOL    HW128566   5.122   5.725   0.463
 3808SOL    HW228567   5.023   5.610   0.463
 3809SOL     OW28568   2.577   6.065   2.327
 3809SOL    HW128569   2.612   6.117   2.399
 3809SOL    HW228570   2.492   6.035   2.358
 3810SOL     OW28571   0.780   0.703   7.012
 3810SOL    HW128572   0.800   0.622   7.059
 3810SOL    HW228573   0.831   0.696   6.931
 3811SOL     OW28574   4.831   0.257   6.656
 3811SOL    HW128575   4.816   0.179   6.709
 3811SOL    HW228576   4.804   0.232   6.568
 3812SOL     OW28577   3.768   0.343   6.494
 3812SOL    HW128578   3.752   0.366   6.402
 3812SOL    HW228579   3.738   0.420   6.543
 3813SOL     OW28580   0.403   0.137   1.596
 3813SOL    HW128581   0.380   0.216   1.547
 3813SOL    HW228582   0.338   0.072   1.568
 3814SOL     OW28583   1.255   5.749   0.212
 3814SOL    HW128584   1.238   5.675   0.154
 3814SOL    HW228585   1.338   5.786   0.181
 3815SOL     OW28586   5.779   5.596   6.399
 3815SOL    HW128587   5.788   5.565   6.309
 3815SOL    HW228588   5.867   5.623   6.424
 3816SOL     OW28589   1.690   1.021   7.218
 3816SOL    HW128590   1.692   0.975   7.134
 3816SOL    HW228591   1.652   1.107   7.198
 3817SOL     OW28592   4.901   1.978   0.438
 3817SOL    HW128593   4.867   2.044   0.378
 3817SOL    HW228594   4.859   1.896   0.410
 3818SOL     OW28595   0.406   0.835   0.359
 3818SOL    HW128596   0.466   0.833   0.433
 3818SOL    HW228597   0.437   0.909   0.305
 3819SOL     OW28598   3.435   5.328   2.778
 3819SOL    HW128599   3.374   5.278   2.833
 3819SOL    HW228600   3.508   5.267   2.763
 3820SOL     OW28601   4.598   3.489   7.623
 3820SOL    HW128602   4.511   3.453   7.639
 3820SOL    HW228603   4.648   3.416   7.587
 3821SOL     OW28604   0.741   1.114   5.907
 3821SOL    HW128605   0.696   1.132   5.824
 3821SOL    HW228606   0.711   1.182   5.966
 3822SOL     OW28607   4.066   0.567   1.164
 3822SOL    HW128608   4.107   0.582   1.078
 3822SOL    HW228609   4.101   0.483   1.193
 3823SOL     OW28610   1.640   5.184   0.614
 3823SOL    HW128611   1.599   5.175   0.700
 3823SOL    HW228612   1.568   5.182   0.552
 3824SOL     OW28613   2.532   5.370   5.654
 3824SOL    HW128614   2.534   5.459   5.689
 3824SOL    HW228615   2.594   5.371   5.581
 3825SOL     OW28616   3.416   2.452   1.404
 3825SOL    HW128617   3.349   2.455   1.335
 3825SOL    HW228618   3.456   2.539   1.402
 3826SOL     OW28619   3.964   3.777   6.881
 3826SOL    HW128620   4.006   3.720   6.817
 3826SOL    HW228621   3.872   3.751   6.880
 3827SOL     OW28622   2.180   0.355   6.851
 3827SOL    HW128623   2.196   0.409   6.928
 3827SOL    HW228624   2.127   0.282   6.882
 3828SOL     OW28625   5.351   2.117   1.959
 3828SOL    HW128626   5.296   2.039   1.966
 3828SOL    HW228627   5.439   2.085   1.979
 3829SOL     OW28628   3.922   6.410   7.709
 3829SOL    HW128629   3.983   6.465   7.757
 3829SOL    HW228630   3.977   6.351   7.658
 3830SOL     OW28631   5.148   1.547   6.683
 3830SOL    HW128632   5.177   1.638   6.678
 3830SOL    HW228633   5.069   1.544   6.628
 3831SOL     OW28634   5.905   5.613   0.020
 3831SOL    HW128635   5.813   5.639   0.033
 3831SOL    HW228636   5.942   5.683  -0.034
 3832SOL     OW28637   1.922   2.288   6.968
 3832SOL    HW128638   1.999   2.341   6.987
 3832SOL    HW228639   1.889   2.324   6.885
 3833SOL     OW28640   6.238   5.083   1.747
 3833SOL    HW128641   6.239   5.089   1.843
 3833SOL    HW228642   6.264   4.992   1.729
 3834SOL     OW28643   1.226   5.204   5.160
 3834SOL    HW128644   1.141   5.243   5.180
 3834SOL    HW228645   1.274   5.209   5.243
 3835SOL     OW28646   1.696   3.808   1.673
 3835SOL    HW128647   1.624   3.839   1.617
 3835SOL    HW228648   1.694   3.713   1.664
 3836SOL     OW28649   6.098   0.285   1.332
 3836SOL    HW128650   6.065   0.375   1.341
 3836SOL    HW228651   6.139   0.266   1.416
 3837SOL     OW28652   1.446   0.485   1.706
 3837SOL    HW128653   1.472   0.414   1.766
 3837SOL    HW228654   1.375   0.530   1.752
 3838SOL     OW28655   5.775   4.061   2.661
 3838SOL    HW128656   5.806   4.149   2.683
 3838SOL    HW228657   5.753   4.022   2.746
 3839SOL     OW28658   6.192   3.497   0.560
 3839SOL    HW128659   6.160   3.551   0.488
 3839SOL    HW228660   6.114   3.453   0.593
 3840SOL     OW28661   5.335   1.467   0.031
 3840SOL    HW128662   5.374   1.388  -0.008
 3840SOL    HW228663   5.296   1.436   0.113
 3841SOL     OW28664   1.123   2.414   7.102
 3841SOL    HW128665   1.061   2.350   7.068
 3841SOL    HW228666   1.143   2.383   7.191
 3842SOL     OW28667   6.354   5.138   0.312
 3842SOL    HW128668   6.386   5.048   0.324
 3842SOL    HW228669   6.325   5.142   0.221
 3843SOL     OW28670   1.312   2.444   6.894
 3843SOL    HW128671   1.269   2.428   6.978
 3843SOL    HW228672   1.397   2.482   6.918
 3844SOL     OW28673   4.687   5.194   1.328
 3844SOL    HW128674   4.730   5.186   1.413
 3844SOL    HW228675   4.644   5.109   1.315
 3845SOL     OW28676   4.523   6.200   0.225
 3845SOL    HW128677   4.570   6.121   0.248
 3845SOL    HW228678   4.590   6.269   0.222
 3846SOL     OW28679   2.591   3.498   6.523
 3846SOL    HW128680   2.658   3.496   6.455
 3846SOL    HW228681   2.534   3.424   6.502
 3847SOL     OW28682   3.873   1.939   7.453
 3847SOL    HW128683   3.823   2.015   7.482
 3847SOL    HW228684   3.808   1.881   7.412
 3848SOL     OW28685   5.503   1.715   7.671
 3848SOL    HW128686   5.566   1.688   7.604
 3848SOL    HW228687   5.480   1.635   7.717
 3849SOL     OW28688   1.028   0.319   6.877
 3849SOL    HW128689   1.022   0.226   6.899
 3849SOL    HW228690   0.966   0.329   6.804
 3850SOL     OW28691   1.956   1.555   7.485
 3850SOL    HW128692   1.991   1.503   7.413
 3850SOL    HW228693   2.002   1.638   7.479
 3851SOL     OW28694   5.300   2.360   0.535
 3851SOL    HW128695   5.259   2.429   0.587
 3851SOL    HW228696   5.228   2.306   0.505
 3852SOL     OW28697   5.279   2.736   5.976
 3852SOL    HW128698   5.186   2.725   5.997
 3852SOL    HW228699   5.288   2.701   5.888
 3853SOL     OW28700   6.376   5.065   0.668
 3853SOL    HW128701   6.424   5.059   0.585
 3853SOL    HW228702   6.294   5.108   0.644
 3854SOL     OW28703   4.293   3.059   1.485
 3854SOL    HW128704   4.346   3.096   1.555
 3854SOL    HW228705   4.240   2.992   1.527
 3855SOL     OW28706   1.010   3.418   1.277
 3855SOL    HW128707   1.044   3.342   1.231
 3855SOL    HW228708   0.963   3.468   1.211
 3856SOL     OW28709   0.492   0.237   0.584
 3856SOL    HW128710   0.586   0.253   0.585
 3856SOL    HW228711   0.460   0.281   0.505
 3857SOL     OW28712   5.163   2.898   6.770
 3857SOL    HW128713   5.206   2.833   6.714
 3857SOL    HW228714   5.090   2.929   6.717
 3858SOL     OW28715   5.207   6.126   2.340
 3858SOL    HW128716   5.207   6.142   2.246
 3858SOL    HW228717   5.163   6.041   2.350
 3859SOL     OW28718   4.793   4.944   1.789
 3859SOL    HW128719   4.883   4.937   1.755
 3859SOL    HW228720   4.792   4.887   1.865
 3860SOL     OW28721   4.303   1.406   0.667
 3860SOL    HW128722   4.215   1.438   0.648
 3860SOL    HW228723   4.295   1.311   0.669
 3861SOL     OW28724   5.560   1.561   1.583
 3861SOL    HW128725   5.510   1.629   1.629
 3861SOL    HW228726   5.596   1.607   1.506
 3862SOL     OW28727   5.105   3.345   6.488
 3862SOL    HW128728   5.146   3.301   6.562
 3862SOL    HW228729   5.127   3.291   6.412
 3863SOL     OW28730   1.806   5.127   1.997
 3863SOL    HW128731   1.894   5.098   2.018
 3863SOL    HW228732   1.763   5.050   1.961
 3864SOL     OW28733   2.855   3.365   6.579
 3864SOL    HW128734   2.778   3.365   6.636
 3864SOL    HW228735   2.847   3.445   6.527
 3865SOL     OW28736   4.981   0.829   6.965
 3865SOL    HW128737   4.977   0.779   7.046
 3865SOL    HW228738   5.052   0.892   6.978
 3866SOL     OW28739   3.197   2.108   0.983
 3866SOL    HW128740   3.290   2.098   1.004
 3866SOL    HW228741   3.190   2.082   0.891
 3867SOL     OW28742   3.776   1.670   0.956
 3867SOL    HW128743   3.709   1.652   0.890
 3867SOL    HW228744   3.840   1.726   0.910
 3868SOL     OW28745   2.317   5.738   1.542
 3868SOL    HW128746   2.339   5.700   1.627
 3868SOL    HW228747   2.272   5.668   1.495
 3869SOL     OW28748   0.216   5.689   6.763
 3869SOL    HW128749   0.263   5.739   6.697
 3869SOL    HW228750   0.197   5.605   6.721
 3870SOL     OW28751   1.479   1.908   1.311
 3870SOL    HW128752   1.486   1.993   1.266
 3870SOL    HW228753   1.385   1.892   1.319
 3871SOL     OW28754   5.236   3.823   1.537
 3871SOL    HW128755   5.161   3.816   1.478
 3871SOL    HW228756   5.215   3.897   1.594
 3872SOL     OW28757   1.962   3.377   6.891
 3872SOL    HW128758   1.933   3.329   6.814
 3872SOL    HW228759   2.048   3.411   6.867
 3873SOL     OW28760   3.035   4.971   7.546
 3873SOL    HW128761   2.947   4.961   7.582
 3873SOL    HW228762   3.088   5.000   7.620
 3874SOL     OW28763   1.292   6.187   6.352
 3874SOL    HW128764   1.346   6.118   6.390
 3874SOL    HW228765   1.353   6.257   6.332
 3875SOL     OW28766   2.869   0.470   1.958
 3875SOL    HW128767   2.776   0.447   1.964
 3875SOL    HW228768   2.910   0.421   2.029
 3876SOL     OW28769   2.747   5.446   7.500
 3876SOL    HW128770   2.746   5.456   7.595
 3876SOL    HW228771   2.670   5.392   7.480
 3877SOL     OW28772   0.005   3.649   2.324
 3877SOL    HW128773  -0.068   3.676   2.268
 3877SOL    HW228774   0.018   3.557   2.303
 3878SOL     OW28775   4.157   5.700   5.783
 3878SOL    HW128776   4.190   5.620   5.741
 3878SOL    HW228777   4.110   5.745   5.713
 3879SOL     OW28778   4.457   1.696   1.215
 3879SOL    HW128779   4.490   1.689   1.304
 3879SOL    HW228780   4.368   1.730   1.224
 3880SOL     OW28781   5.266   3.116   6.885
 3880SOL    HW128782   5.297   3.097   6.973
 3880SOL    HW228783   5.228   3.033   6.854
 3881SOL     OW28784   3.256   0.875   1.044
 3881SOL    HW128785   3.165   0.894   1.067
 3881SOL    HW228786   3.290   0.959   1.013
 3882SOL     OW28787   1.870   0.877   0.645
 3882SOL    HW128788   1.947   0.883   0.589
 3882SOL    HW228789   1.810   0.943   0.611
 3883SOL     OW28790   5.586   2.962   7.129
 3883SOL    HW128791   5.667   2.991   7.087
 3883SOL    HW228792   5.523   3.032   7.111
 3884SOL     OW28793   5.855   3.223   7.389
 3884SOL    HW128794   5.947   3.209   7.411
 3884SOL    HW228795   5.810   3.229   7.473
 3885SOL     OW28796   5.930   5.037   2.060
 3885SOL    HW128797   5.870   4.963   2.056
 3885SOL    HW228798   5.897   5.098   1.995
 3886SOL     OW28799   4.157   3.507   7.671
 3886SOL    HW128800   4.094   3.513   7.599
 3886SOL    HW228801   4.104   3.512   7.750
 3887SOL     OW28802   4.636   2.873   6.449
 3887SOL    HW128803   4.613   2.782   6.429
 3887SOL    HW228804   4.561   2.924   6.420
 3888SOL     OW28805   0.024   0.733   6.183
 3888SOL    HW128806   0.077   0.811   6.168
 3888SOL    HW228807   0.028   0.685   6.100
 3889SOL     OW28808   3.287   1.120   6.259
 3889SOL    HW128809   3.240   1.104   6.177
 3889SOL    HW228810   3.218   1.126   6.325
 3890SOL     OW28811   0.433   5.776   7.299
 3890SOL    HW128812   0.348   5.777   7.342
 3890SOL    HW228813   0.413   5.767   7.206
 3891SOL     OW28814   3.685   1.853   1.166
 3891SOL    HW128815   3.706   1.780   1.109
 3891SOL    HW228816   3.615   1.820   1.223
 3892SOL     OW28817   1.115   1.213   0.362
 3892SOL    HW128818   1.086   1.164   0.439
 3892SOL    HW228819   1.155   1.292   0.398
 3893SOL     OW28820   1.190   4.922   0.191
 3893SOL    HW128821   1.210   4.832   0.165
 3893SOL    HW228822   1.094   4.923   0.199
 3894SOL     OW28823   5.027   5.508   6.843
 3894SOL    HW128824   5.035   5.551   6.928
 3894SOL    HW228825   5.114   5.518   6.803
 3895SOL     OW28826   5.888   2.198   1.802
 3895SOL    HW128827   5.849   2.201   1.715
 3895SOL    HW228828   5.834   2.257   1.854
 3896SOL     OW28829   0.799   5.999   0.444
 3896SOL    HW128830   0.892   5.996   0.467
 3896SOL    HW228831   0.776   5.908   0.425
 3897SOL     OW28832   2.119   5.479   2.393
 3897SOL    HW128833   2.120   5.407   2.329
 3897SOL    HW228834   2.040   5.529   2.371
 3898SOL     OW28835   2.149   1.202   6.498
 3898SOL    HW128836   2.216   1.261   6.464
 3898SOL    HW228837   2.074   1.258   6.516
 3899SOL     OW28838   2.801   1.705   2.215
 3899SOL    HW128839   2.814   1.693   2.121
 3899SOL    HW228840   2.723   1.654   2.236
 3900SOL     OW28841   5.917   4.899   2.294
 3900SOL    HW128842   5.933   4.964   2.225
 3900SOL    HW228843   5.862   4.833   2.252
 3901SOL     OW28844   1.089   5.167   7.649
 3901SOL    HW128845   1.032   5.113   7.705
 3901SOL    HW228846   1.126   5.105   7.586
 3902SOL     OW28847   3.573   4.688   0.844
 3902SOL    HW128848   3.633   4.631   0.892
 3902SOL    HW228849   3.500   4.630   0.822
 3903SOL     OW28850   1.957   3.832   1.909
 3903SOL    HW128851   2.048   3.844   1.882
 3903SOL    HW228852   1.917   3.919   1.897
 3904SOL     OW28853   4.779   3.433   1.965
 3904SOL    HW128854   4.734   3.441   2.049
 3904SOL    HW228855   4.855   3.490   1.972
 3905SOL     OW28856   0.223   0.652   6.756
 3905SOL    HW128857   0.229   0.685   6.667
 3905SOL    HW228858   0.193   0.562   6.746
 3906SOL     OW28859   4.386   4.074   6.429
 3906SOL    HW128860   4.435   4.133   6.487
 3906SOL    HW228861   4.420   3.987   6.451
 3907SOL     OW28862   5.594   1.350   6.968
 3907SOL    HW128863   5.567   1.263   6.997
 3907SOL    HW228864   5.528   1.375   6.903
 3908SOL     OW28865   5.420   5.207   0.114
 3908SOL    HW128866   5.465   5.126   0.137
 3908SOL    HW228867   5.449   5.226   0.024
 3909SOL     OW28868   5.273   5.236   1.799
 3909SOL    HW128869   5.228   5.292   1.736
 3909SOL    HW228870   5.300   5.296   1.869
 3910SOL     OW28871   6.099   5.448   7.743
 3910SOL    HW128872   6.016   5.496   7.743
 3910SOL    HW228873   6.157   5.499   7.686
 3911SOL     OW28874   4.536   3.240   0.424
 3911SOL    HW128875   4.586   3.314   0.389
 3911SOL    HW228876   4.516   3.265   0.514
 3912SOL     OW28877   1.080   4.548   7.623
 3912SOL    HW128878   1.131   4.468   7.615
 3912SOL    HW228879   1.114   4.591   7.701
 3913SOL     OW28880   5.203   3.108   0.425
 3913SOL    HW128881   5.248   3.190   0.444
 3913SOL    HW228882   5.182   3.113   0.332
 3914SOL     OW28883   2.419   5.841   1.269
 3914SOL    HW128884   2.409   5.816   1.361
 3914SOL    HW228885   2.354   5.910   1.255
 3915SOL     OW28886   3.960   1.477   6.152
 3915SOL    HW128887   3.883   1.533   6.145
 3915SOL    HW228888   4.031   1.530   6.117
 3916SOL     OW28889   5.280   3.254   0.774
 3916SOL    HW128890   5.200   3.304   0.755
 3916SOL    HW228891   5.275   3.178   0.715
 3917SOL     OW28892   1.339   3.703   1.608
 3917SOL    HW128893   1.288   3.632   1.568
 3917SOL    HW228894   1.388   3.741   1.536
 3918SOL     OW28895   0.881   3.051   1.838
 3918SOL    HW128896   0.849   3.129   1.883
 3918SOL    HW228897   0.976   3.052   1.853
 3919SOL     OW28898   5.599   5.687   6.714
 3919SOL    HW128899   5.650   5.690   6.795
 3919SOL    HW228900   5.522   5.740   6.732
 3920SOL     OW28901   5.221   0.382   5.868
 3920SOL    HW128902   5.304   0.346   5.900
 3920SOL    HW228903   5.245   0.430   5.789
 3921SOL     OW28904   0.543   5.967   7.642
 3921SOL    HW128905   0.568   6.044   7.692
 3921SOL    HW228906   0.458   5.941   7.678
 3922SOL     OW28907   1.295   0.294   0.973
 3922SOL    HW128908   1.379   0.265   0.936
 3922SOL    HW228909   1.232   0.281   0.902
 3923SOL     OW28910   4.645   3.372   5.742
 3923SOL    HW128911   4.687   3.429   5.677
 3923SOL    HW228912   4.681   3.402   5.826
 3924SOL     OW28913   3.610   3.371   6.927
 3924SOL    HW128914   3.624   3.425   6.849
 3924SOL    HW228915   3.635   3.282   6.899
 3925SOL     OW28916   4.592   0.051   1.071
 3925SOL    HW128917   4.650  -0.008   1.119
 3925SOL    HW228918   4.504   0.015   1.085
 3926SOL     OW28919   4.221   4.571   3.059
 3926SOL    HW128920   4.133   4.535   3.068
 3926SOL    HW228921   4.208   4.666   3.065
 3927SOL     OW28922   6.013   6.398   7.566
 3927SOL    HW128923   6.064   6.439   7.497
 3927SOL    HW228924   6.012   6.463   7.637
 3928SOL     OW28925   2.233   0.274   1.211
 3928SOL    HW128926   2.140   0.262   1.192
 3928SOL    HW228927   2.260   0.193   1.254
 3929SOL     OW28928   0.205   1.774   7.375
 3929SOL    HW128929   0.165   1.728   7.449
 3929SOL    HW228930   0.172   1.864   7.381
 3930SOL     OW28931   4.228   6.036   7.101
 3930SOL    HW128932   4.226   6.132   7.094
 3930SOL    HW228933   4.165   6.006   7.036
 3931SOL     OW28934   5.174   1.933   2.604
 3931SOL    HW128935   5.228   1.883   2.666
 3931SOL    HW228936   5.157   1.872   2.532
 3932SOL     OW28937   0.236   4.959   1.580
 3932SOL    HW128938   0.295   4.987   1.510
 3932SOL    HW228939   0.262   5.012   1.656
 3933SOL     OW28940   1.194   0.917   0.244
 3933SOL    HW128941   1.265   0.979   0.223
 3933SOL    HW228942   1.228   0.832   0.218
 3934SOL     OW28943   1.003   5.018   1.625
 3934SOL    HW128944   1.039   4.988   1.542
 3934SOL    HW228945   0.965   4.940   1.664
 3935SOL     OW28946   0.961   2.858   0.803
 3935SOL    HW128947   0.883   2.853   0.859
 3935SOL    HW228948   1.019   2.790   0.836
 3936SOL     OW28949   3.356   3.897   2.182
 3936SOL    HW128950   3.402   3.813   2.185
 3936SOL    HW228951   3.414   3.954   2.131
 3937SOL     OW28952   3.062   5.671   5.464
 3937SOL    HW128953   3.088   5.740   5.525
 3937SOL    HW228954   2.993   5.623   5.509
 3938SOL     OW28955   4.191   5.604   0.208
 3938SOL    HW128956   4.253   5.550   0.258
 3938SOL    HW228957   4.128   5.635   0.273
 3939SOL     OW28958   1.172   2.670   7.184
 3939SOL    HW128959   1.150   2.583   7.151
 3939SOL    HW228960   1.142   2.670   7.275
 3940SOL     OW28961   4.886   4.462   5.765
 3940SOL    HW128962   4.897   4.511   5.847
 3940SOL    HW228963   4.806   4.497   5.727
 3941SOL     OW28964   3.258   2.425   6.853
 3941SOL    HW128965   3.246   2.422   6.948
 3941SOL    HW228966   3.335   2.481   6.840
 3942SOL     OW28967   2.712   0.091   7.222
 3942SOL    HW128968   2.747   0.006   7.197
 3942SOL    HW228969   2.657   0.117   7.148
 3943SOL     OW28970   5.060   4.572   7.286
 3943SOL    HW128971   5.001   4.645   7.300
 3943SOL    HW228972   5.117   4.601   7.214
 3944SOL     OW28973   4.128   4.479   7.720
 3944SOL    HW128974   4.212   4.453   7.759
 3944SOL    HW228975   4.106   4.562   7.763
 3945SOL     OW28976   1.774   2.706   0.700
 3945SOL    HW128977   1.805   2.675   0.615
 3945SOL    HW228978   1.798   2.636   0.761
 3946SOL     OW28979   3.612   3.010   1.348
 3946SOL    HW128980   3.703   3.017   1.318
 3946SOL    HW228981   3.614   3.046   1.437
 3947SOL     OW28982   4.866   1.084   0.881
 3947SOL    HW128983   4.927   1.156   0.864
 3947SOL    HW228984   4.871   1.029   0.803
 3948SOL     OW28985   5.852   0.400   0.192
 3948SOL    HW128986   5.855   0.453   0.113
 3948SOL    HW228987   5.910   0.446   0.253
 3949SOL     OW28988   1.643   0.643   7.256
 3949SOL    HW128989   1.693   0.700   7.314
 3949SOL    HW228990   1.570   0.697   7.225
 3950SOL     OW28991   1.255   4.710   6.898
 3950SOL    HW128992   1.267   4.799   6.865
 3950SOL    HW228993   1.333   4.663   6.870
 3951SOL     OW28994   5.453   1.952   6.129
 3951SOL    HW128995   5.446   1.874   6.184
 3951SOL    HW228996   5.539   1.943   6.086
 3952SOL     OW28997   4.794   1.221   6.765
 3952SOL    HW128998   4.830   1.309   6.749
 3952SOL    HW228999   4.838   1.165   6.700
 3953SOL     OW29000   0.688   4.713   7.723
 3953SOL    HW129001   0.767   4.726   7.670
 3953SOL    HW229002   0.705   4.763   7.803
 3954SOL     OW29003   6.015   1.691   6.995
 3954SOL    HW129004   5.965   1.761   6.953
 3954SOL    HW229005   5.966   1.670   7.075
 3955SOL     OW29006   0.970   3.465   2.200
 3955SOL    HW129007   0.876   3.481   2.199
 3955SOL    HW229008   0.996   3.476   2.291
 3956SOL     OW29009   3.135   2.747   7.585
 3956SOL    HW129010   3.158   2.817   7.647
 3956SOL    HW229011   3.180   2.670   7.620
 3957SOL     OW29012   0.061   4.531   0.656
 3957SOL    HW129013   0.063   4.585   0.577
 3957SOL    HW229014   0.000   4.460   0.636
 3958SOL     OW29015   5.199   0.033   1.558
 3958SOL    HW129016   5.255  -0.025   1.506
 3958SOL    HW229017   5.197   0.114   1.507
 3959SOL     OW29018   2.766   3.923   1.318
 3959SOL    HW129019   2.794   3.844   1.272
 3959SOL    HW229020   2.773   3.900   1.411
 3960SOL     OW29021   3.361   4.384   7.741
 3960SOL    HW129022   3.423   4.324   7.700
 3960SOL    HW229023   3.371   4.368   7.835
 3961SOL     OW29024   4.890   1.633   0.495
 3961SOL    HW129025   4.826   1.699   0.471
 3961SOL    HW229026   4.855   1.593   0.574
 3962SOL     OW29027   5.056   5.115   0.160
 3962SOL    HW129028   5.145   5.138   0.133
 3962SOL    HW229029   5.024   5.192   0.207
 3963SOL     OW29030   5.958   2.195   0.393
 3963SOL    HW129031   5.985   2.122   0.449
 3963SOL    HW229032   6.007   2.270   0.426
 3964SOL     OW29033   0.966   2.520   1.357
 3964SOL    HW129034   0.877   2.507   1.324
 3964SOL    HW229035   0.957   2.586   1.425
 3965SOL     OW29036   2.624   0.580   1.259
 3965SOL    HW129037   2.581   0.581   1.344
 3965SOL    HW229038   2.562   0.622   1.200
 3966SOL     OW29039   3.249   6.345   0.293
 3966SOL    HW129040   3.231   6.439   0.291
 3966SOL    HW229041   3.193   6.311   0.362
 3967SOL     OW29042   5.496   3.769   0.614
 3967SOL    HW129043   5.414   3.750   0.659
 3967SOL    HW229044   5.481   3.853   0.572
 3968SOL     OW29045   2.441   0.230   0.078
 3968SOL    HW129046   2.493   0.272   0.146
 3968SOL    HW229047   2.505   0.193   0.018
 3969SOL     OW29048   5.028   4.316   7.371
 3969SOL    HW129049   5.044   4.334   7.464
 3969SOL    HW229050   5.046   4.400   7.328
 3970SOL     OW29051   1.835   1.811   0.567
 3970SOL    HW129052   1.817   1.789   0.475
 3970SOL    HW229053   1.930   1.805   0.574
 3971SOL     OW29054   1.115   4.473   7.302
 3971SOL    HW129055   1.101   4.551   7.249
 3971SOL    HW229056   1.182   4.423   7.255
 3972SOL     OW29057   5.658   4.014   0.787
 3972SOL    HW129058   5.586   4.049   0.734
 3972SOL    HW229059   5.616   3.968   0.859
 3973SOL     OW29060   2.171   2.617   2.642
 3973SOL    HW129061   2.243   2.636   2.582
 3973SOL    HW229062   2.104   2.576   2.587
 3974SOL     OW29063   6.061   6.056   6.655
 3974SOL    HW129064   5.971   6.057   6.622
 3974SOL    HW229065   6.052   6.037   6.749
 3975SOL     OW29066   5.495   3.691   7.469
 3975SOL    HW129067   5.498   3.768   7.525
 3975SOL    HW229068   5.436   3.715   7.398
 3976SOL     OW29069   1.112   5.126   0.696
 3976SOL    HW129070   1.197   5.144   0.735
 3976SOL    HW229071   1.059   5.203   0.715
 3977SOL     OW29072   5.323   6.192   0.380
 3977SOL    HW129073   5.289   6.274   0.342
 3977SOL    HW229074   5.405   6.217   0.423
 3978SOL     OW29075   2.524   4.638   6.855
 3978SOL    HW129076   2.615   4.664   6.846
 3978SOL    HW229077   2.504   4.591   6.773
 3979SOL     OW29078   4.325   2.110   0.185
 3979SOL    HW129079   4.344   2.023   0.218
 3979SOL    HW229080   4.333   2.102   0.090
 3980SOL     OW29081   4.377   6.081   6.824
 3980SOL    HW129082   4.426   6.160   6.846
 3980SOL    HW229083   4.375   6.030   6.905
 3981SOL     OW29084   5.704   1.632   6.784
 3981SOL    HW129085   5.682   1.604   6.873
 3981SOL    HW229086   5.757   1.711   6.796
 3982SOL     OW29087   3.403   4.004   0.333
 3982SOL    HW129088   3.345   3.987   0.258
 3982SOL    HW229089   3.483   3.956   0.312
 3983SOL     OW29090   1.324   6.056   0.427
 3983SOL    HW129091   1.248   6.029   0.478
 3983SOL    HW229092   1.393   5.994   0.452
 3984SOL     OW29093   4.369   5.132   2.180
 3984SOL    HW129094   4.364   5.071   2.106
 3984SOL    HW229095   4.459   5.162   2.180
 3985SOL     OW29096   3.071   4.773   2.081
 3985SOL    HW129097   3.040   4.764   2.171
 3985SOL    HW229098   3.135   4.844   2.084
 3986SOL     OW29099   2.383   3.603   6.668
 3986SOL    HW129100   2.416   3.669   6.729
 3986SOL    HW229101   2.462   3.570   6.624
 3987SOL     OW29102   5.144   0.155   6.508
 3987SOL    HW129103   5.068   0.209   6.488
 3987SOL    HW229104   5.110   0.066   6.513
 3988SOL     OW29105   1.606   0.338   0.601
 3988SOL    HW129106   1.512   0.331   0.619
 3988SOL    HW229107   1.612   0.399   0.528
 3989SOL     OW29108   1.046   0.865   0.671
 3989SOL    HW129109   1.014   0.944   0.627
 3989SOL    HW229110   1.037   0.885   0.764
 3990SOL     OW29111   1.881   5.680   1.105
 3990SOL    HW129112   1.920   5.753   1.058
 3990SOL    HW229113   1.921   5.602   1.066
 3991SOL     OW29114   3.971   5.401   0.389
 3991SOL    HW129115   4.021   5.390   0.469
 3991SOL    HW229116   4.005   5.333   0.330
 3992SOL     OW29117   5.010   4.991   2.135
 3992SOL    HW129118   5.027   4.935   2.060
 3992SOL    HW229119   4.976   5.073   2.098
 3993SOL     OW29120   4.646   2.936   6.885
 3993SOL    HW129121   4.615   2.847   6.866
 3993SOL    HW229122   4.642   2.981   6.801
 3994SOL     OW29123   4.455   2.519   0.308
 3994SOL    HW129124   4.459   2.538   0.402
 3994SOL    HW229125   4.383   2.574   0.276
 3995SOL     OW29126   4.741   2.420   1.230
 3995SOL    HW129127   4.785   2.342   1.264
 3995SOL    HW229128   4.802   2.456   1.167
 3996SOL     OW29129   0.780   2.131   0.911
 3996SOL    HW129130   0.717   2.103   0.978
 3996SOL    HW229131   0.853   2.167   0.961
 3997SOL     OW29132   6.171   1.933   1.090
 3997SOL    HW129133   6.101   1.869   1.096
 3997SOL    HW229134   6.128   2.017   1.104
 3998SOL     OW29135   0.886   4.242   1.317
 3998SOL    HW129136   0.949   4.313   1.307
 3998SOL    HW229137   0.931   4.165   1.280
 3999SOL     OW29138   1.113   0.526   0.616
 3999SOL    HW129139   1.030   0.563   0.587
 3999SOL    HW229140   1.119   0.548   0.708
 4000SOL     OW29141   4.131   5.694   0.679
 4000SOL    HW129142   4.076   5.721   0.606
 4000SOL    HW229143   4.160   5.606   0.656
 4001SOL     OW29144   0.300   6.048   0.869
 4001SOL    HW129145   0.297   6.004   0.954
 4001SOL    HW229146   0.386   6.026   0.833
 4002SOL     OW29147   1.395   0.304   0.056
 4002SOL    HW129148   1.331   0.233   0.058
 4002SOL    HW229149   1.479   0.260   0.041
 4003SOL     OW29150   6.289   6.244   7.721
 4003SOL    HW129151   6.299   6.249   7.816
 4003SOL    HW229152   6.197   6.221   7.708
 4004SOL     OW29153   3.163   1.389   6.809
 4004SOL    HW129154   3.101   1.444   6.858
 4004SOL    HW229155   3.223   1.356   6.876
 4005SOL     OW29156   0.243   0.945   2.188
 4005SOL    HW129157   0.161   0.910   2.223
 4005SOL    HW229158   0.217   1.006   2.120
 4006SOL     OW29159   2.582   4.855   6.602
 4006SOL    HW129160   2.511   4.918   6.620
 4006SOL    HW229161   2.626   4.845   6.687
 4007SOL     OW29162   0.973   0.066   7.379
 4007SOL    HW129163   1.040   0.039   7.441
 4007SOL    HW229164   0.960  -0.009   7.322
 4008SOL     OW29165   4.598   1.592   6.918
 4008SOL    HW129166   4.640   1.666   6.872
 4008SOL    HW229167   4.671   1.546   6.960
 4009SOL     OW29168   2.067   5.545   0.946
 4009SOL    HW129169   2.160   5.563   0.960
 4009SOL    HW229170   2.050   5.576   0.857
 4010SOL     OW29171   2.560   4.241   1.922
 4010SOL    HW129172   2.567   4.272   2.013
 4010SOL    HW229173   2.650   4.239   1.890
 4011SOL     OW29174   4.779   0.893   1.498
 4011SOL    HW129175   4.751   0.915   1.410
 4011SOL    HW229176   4.697   0.882   1.547
 4012SOL     OW29177   1.102   3.429   0.494
 4012SOL    HW129178   1.193   3.458   0.505
 4012SOL    HW229179   1.070   3.417   0.583
 4013SOL     OW29180   4.338   4.457   5.761
 4013SOL    HW129181   4.428   4.449   5.730
 4013SOL    HW229182   4.346   4.460   5.857
 4014SOL     OW29183   5.057   3.187   1.890
 4014SOL    HW129184   5.052   3.213   1.798
 4014SOL    HW229185   5.150   3.192   1.912
 4015SOL     OW29186   3.020   4.015   1.649
 4015SOL    HW129187   3.075   3.942   1.676
 4015SOL    HW229188   3.042   4.086   1.710
 4016SOL     OW29189   4.973   5.533   6.014
 4016SOL    HW129190   5.042   5.558   5.952
 4016SOL    HW229191   4.901   5.592   5.995
 4017SOL     OW29192   0.860   5.319   6.220
 4017SOL    HW129193   0.873   5.224   6.231
 4017SOL    HW229194   0.831   5.329   6.129
 4018SOL     OW29195   1.634   2.329   7.018
 4018SOL    HW129196   1.720   2.295   6.992
 4018SOL    HW229197   1.626   2.412   6.972
 4019SOL     OW29198   5.430   5.397   7.580
 4019SOL    HW129199   5.433   5.491   7.598
 4019SOL    HW229200   5.448   5.391   7.486
 4020SOL     OW29201   0.739   5.731   7.141
 4020SOL    HW129202   0.786   5.731   7.058
 4020SOL    HW229203   0.753   5.819   7.177
 4021SOL     OW29204   3.373   3.602   1.777
 4021SOL    HW129205   3.381   3.580   1.870
 4021SOL    HW229206   3.290   3.563   1.750
 4022SOL     OW29207   3.864   3.015   0.881
 4022SOL    HW129208   3.899   3.080   0.820
 4022SOL    HW229209   3.802   3.065   0.936
 4023SOL     OW29210   3.487   5.674   0.533
 4023SOL    HW129211   3.503   5.733   0.606
 4023SOL    HW229212   3.444   5.598   0.573
 4024SOL     OW29213   5.633   3.089   1.387
 4024SOL    HW129214   5.690   3.164   1.405
 4024SOL    HW229215   5.681   3.037   1.323
 4025SOL     OW29216   5.250   6.035   5.911
 4025SOL    HW129217   5.162   6.058   5.881
 4025SOL    HW229218   5.289   5.986   5.839
 4026SOL     OW29219   1.506   4.385   1.073
 4026SOL    HW129220   1.434   4.342   1.027
 4026SOL    HW229221   1.482   4.379   1.166
 4027SOL     OW29222   5.591   0.879   5.543
 4027SOL    HW129223   5.515   0.841   5.587
 4027SOL    HW229224   5.568   0.879   5.450
 4028SOL     OW29225   5.974   2.009   7.174
 4028SOL    HW129226   5.969   2.042   7.085
 4028SOL    HW229227   5.886   2.020   7.209
 4029SOL     OW29228   5.853   2.650   5.963
 4029SOL    HW129229   5.930   2.654   5.906
 4029SOL    HW229230   5.826   2.558   5.961
 4030SOL     OW29231   2.684   4.588   0.436
 4030SOL    HW129232   2.744   4.609   0.508
 4030SOL    HW229233   2.709   4.500   0.410
 4031SOL     OW29234   5.144   3.353   1.218
 4031SOL    HW129235   5.099   3.387   1.141
 4031SOL    HW229236   5.219   3.304   1.183
 4032SOL     OW29237   5.066   4.325   0.969
 4032SOL    HW129238   5.072   4.401   0.911
 4032SOL    HW229239   5.155   4.311   0.999
 4033SOL     OW29240   2.120   0.473   5.995
 4033SOL    HW129241   2.160   0.410   6.055
 4033SOL    HW229242   2.041   0.430   5.963
 4034SOL     OW29243   1.576   4.647   1.131
 4034SOL    HW129244   1.569   4.555   1.105
 4034SOL    HW229245   1.577   4.694   1.048
 4035SOL     OW29246   6.228   4.858   0.845
 4035SOL    HW129247   6.280   4.824   0.918
 4035SOL    HW229248   6.269   4.942   0.823
 4036SOL     OW29249   1.284   0.910   2.120
 4036SOL    HW129250   1.317   0.972   2.055
 4036SOL    HW229251   1.307   0.949   2.205
 4037SOL     OW29252   2.018   4.216   7.149
 4037SOL    HW129253   2.081   4.281   7.177
 4037SOL    HW229254   2.018   4.222   7.053
 4038SOL     OW29255   1.512   6.045   6.431
 4038SOL    HW129256   1.556   6.019   6.512
 4038SOL    HW229257   1.583   6.064   6.370
 4039SOL     OW29258   2.682   2.683   0.010
 4039SOL    HW129259   2.613   2.625   0.044
 4039SOL    HW229260   2.758   2.665   0.066
 4040SOL     OW29261   2.065   5.779   6.712
 4040SOL    HW129262   1.976   5.747   6.700
 4040SOL    HW229263   2.057   5.852   6.774
 4041SOL     OW29264   4.635   5.978   6.266
 4041SOL    HW129265   4.649   5.950   6.176
 4041SOL    HW229266   4.719   6.018   6.291
 4042SOL     OW29267   2.565   3.095   0.919
 4042SOL    HW129268   2.515   3.072   0.998
 4042SOL    HW229269   2.514   3.058   0.847
 4043SOL     OW29270   3.367   6.343   6.018
 4043SOL    HW129271   3.331   6.342   6.107
 4043SOL    HW229272   3.363   6.251   5.990
 4044SOL     OW29273   5.754   5.212   0.723
 4044SOL    HW129274   5.819   5.261   0.672
 4044SOL    HW229275   5.793   5.125   0.735
 4045SOL     OW29276   2.305   4.035   7.034
 4045SOL    HW129277   2.273   4.040   7.124
 4045SOL    HW229278   2.245   3.974   6.991
 4046SOL     OW29279   1.636   5.936   7.077
 4046SOL    HW129280   1.730   5.953   7.087
 4046SOL    HW229281   1.615   5.876   7.148
 4047SOL     OW29282   1.985   3.239   1.034
 4047SOL    HW129283   2.013   3.155   1.069
 4047SOL    HW229284   2.067   3.285   1.015
 4048SOL     OW29285   3.346   2.351   5.713
 4048SOL    HW129286   3.342   2.256   5.713
 4048SOL    HW229287   3.432   2.372   5.750
 4049SOL     OW29288   1.120   2.847   6.444
 4049SOL    HW129289   1.178   2.807   6.509
 4049SOL    HW229290   1.147   2.939   6.440
 4050SOL     OW29291   2.272   5.679   2.356
 4050SOL    HW129292   2.226   5.759   2.382
 4050SOL    HW229293   2.214   5.609   2.385
 4051SOL     OW29294   4.327   0.006   1.133
 4051SOL    HW129295   4.254   0.013   1.195
 4051SOL    HW229296   4.288  -0.030   1.054
 4052SOL     OW29297   4.921   5.184   2.525
 4052SOL    HW129298   4.903   5.120   2.457
 4052SOL    HW229299   4.836   5.223   2.544
 4053SOL     OW29300   1.032   2.271   6.639
 4053SOL    HW129301   1.000   2.361   6.628
 4053SOL    HW229302   1.056   2.243   6.551
 4054SOL     OW29303   6.357   0.178   0.444
 4054SOL    HW129304   6.342   0.249   0.507
 4054SOL    HW229305   6.440   0.201   0.401
 4055SOL     OW29306   1.216   2.109   7.148
 4055SOL    HW129307   1.229   2.074   7.060
 4055SOL    HW229308   1.301   2.147   7.172
 4056SOL     OW29309   3.475   0.739   1.432
 4056SOL    HW129310   3.388   0.714   1.462
 4056SOL    HW229311   3.531   0.664   1.451
 4057SOL     OW29312   3.375   5.784   5.659
 4057SOL    HW129313   3.411   5.815   5.742
 4057SOL    HW229314   3.437   5.718   5.628
 4058SOL     OW29315   3.152   2.524   1.066
 4058SOL    HW129316   3.110   2.553   1.147
 4058SOL    HW229317   3.092   2.551   0.997
 4059SOL     OW29318   4.585   4.653   5.978
 4059SOL    HW129319   4.628   4.729   6.016
 4059SOL    HW229320   4.492   4.665   5.998
 4060SOL     OW29321   1.924   4.589   2.156
 4060SOL    HW129322   2.001   4.548   2.196
 4060SOL    HW229323   1.915   4.672   2.202
 4061SOL     OW29324   6.028   0.393   7.599
 4061SOL    HW129325   6.026   0.410   7.505
 4061SOL    HW229326   5.981   0.467   7.638
 4062SOL     OW29327   6.318   0.114   2.287
 4062SOL    HW129328   6.279   0.028   2.302
 4062SOL    HW229329   6.255   0.160   2.232
 4063SOL     OW29330   4.624   2.612   6.475
 4063SOL    HW129331   4.546   2.559   6.459
 4063SOL    HW229332   4.688   2.580   6.412
 4064SOL     OW29333   4.740   5.716   0.851
 4064SOL    HW129334   4.771   5.802   0.878
 4064SOL    HW229335   4.651   5.709   0.887
 4065SOL     OW29336   2.338   0.770   6.797
 4065SOL    HW129337   2.333   0.780   6.702
 4065SOL    HW229338   2.412   0.825   6.823
 4066SOL     OW29339   6.216   4.801   1.461
 4066SOL    HW129340   6.195   4.733   1.398
 4066SOL    HW229341   6.301   4.775   1.498
 4067SOL     OW29342   5.491   6.146   6.797
 4067SOL    HW129343   5.564   6.199   6.765
 4067SOL    HW229344   5.499   6.147   6.892
 4068SOL     OW29345   1.463   1.437   6.023
 4068SOL    HW129346   1.491   1.525   5.997
 4068SOL    HW229347   1.544   1.394   6.050
 4069SOL     OW29348   4.527   3.390   6.324
 4069SOL    HW129349   4.492   3.324   6.383
 4069SOL    HW229350   4.622   3.378   6.328
 4070SOL     OW29351   2.023   1.403   0.551
 4070SOL    HW129352   1.931   1.404   0.524
 4070SOL    HW229353   2.032   1.478   0.610
 4071SOL     OW29354   3.608   2.359   1.055
 4071SOL    HW129355   3.664   2.291   1.093
 4071SOL    HW229356   3.604   2.338   0.962
 4072SOL     OW29357   0.649   1.820   1.775
 4072SOL    HW129358   0.599   1.885   1.824
 4072SOL    HW229359   0.740   1.833   1.804
 4073SOL     OW29360   0.156   2.418   6.922
 4073SOL    HW129361   0.166   2.486   6.855
 4073SOL    HW229362   0.102   2.350   6.881
 4074SOL     OW29363   4.315   2.354   7.489
 4074SOL    HW129364   4.313   2.443   7.454
 4074SOL    HW229365   4.290   2.364   7.581
 4075SOL     OW29366   2.158   6.127   7.558
 4075SOL    HW129367   2.184   6.048   7.511
 4075SOL    HW229368   2.183   6.199   7.501
 4076SOL     OW29369   0.863   5.043   2.721
 4076SOL    HW129370   0.921   5.111   2.687
 4076SOL    HW229371   0.834   5.076   2.806
 4077SOL     OW29372   2.013   0.815   0.153
 4077SOL    HW129373   2.102   0.846   0.134
 4077SOL    HW229374   2.023   0.721   0.167
 4078SOL     OW29375   1.034   6.172   5.635
 4078SOL    HW129376   1.065   6.086   5.605
 4078SOL    HW229377   1.112   6.215   5.669
 4079SOL     OW29378   5.391   0.086   2.238
 4079SOL    HW129379   5.358   0.172   2.265
 4079SOL    HW229380   5.357   0.026   2.304
 4080SOL     OW29381   2.147   2.764   7.579
 4080SOL    HW129382   2.118   2.673   7.580
 4080SOL    HW229383   2.201   2.773   7.657
 4081SOL     OW29384   2.316   3.059   0.505
 4081SOL    HW129385   2.399   3.070   0.551
 4081SOL    HW229386   2.336   2.998   0.433
 4082SOL     OW29387   0.226   3.852   7.528
 4082SOL    HW129388   0.302   3.818   7.480
 4082SOL    HW229389   0.168   3.885   7.459
 4083SOL     OW29390   0.151   3.952   7.282
 4083SOL    HW129391   0.062   3.985   7.269
 4083SOL    HW229392   0.191   3.956   7.195
 4084SOL     OW29393   2.725   5.484   1.148
 4084SOL    HW129394   2.684   5.561   1.187
 4084SOL    HW229395   2.668   5.461   1.075
 4085SOL     OW29396   3.036   1.249   6.607
 4085SOL    HW129397   2.990   1.179   6.655
 4085SOL    HW229398   3.077   1.301   6.676
 4086SOL     OW29399   5.972   4.618   1.138
 4086SOL    HW129400   5.977   4.586   1.228
 4086SOL    HW229401   5.912   4.692   1.143
 4087SOL     OW29402   0.048   6.351   0.223
 4087SOL    HW129403   0.085   6.263   0.230
 4087SOL    HW229404   0.006   6.366   0.307
 4088SOL     OW29405   4.027   3.991   0.601
 4088SOL    HW129406   4.030   3.984   0.696
 4088SOL    HW229407   4.075   4.071   0.581
 4089SOL     OW29408   5.473   2.642   0.904
 4089SOL    HW129409   5.489   2.548   0.913
 4089SOL    HW229410   5.392   2.647   0.854
 4090SOL     OW29411   3.156   2.175   0.340
 4090SOL    HW129412   3.179   2.261   0.377
 4090SOL    HW229413   3.222   2.116   0.377
 4091SOL     OW29414   2.652   2.486   6.529
 4091SOL    HW129415   2.627   2.408   6.480
 4091SOL    HW229416   2.747   2.482   6.533
 4092SOL     OW29417   4.185   2.848   0.020
 4092SOL    HW129418   4.163   2.912  -0.048
 4092SOL    HW229419   4.249   2.790  -0.022
 4093SOL     OW29420   0.851   5.604   5.889
 4093SOL    HW129421   0.782   5.572   5.830
 4093SOL    HW229422   0.910   5.530   5.898
 4094SOL     OW29423   3.290   4.893   2.294
 4094SOL    HW129424   3.351   4.913   2.364
 4094SOL    HW229425   3.217   4.848   2.337
 4095SOL     OW29426   4.216   5.405   7.529
 4095SOL    HW129427   4.194   5.497   7.514
 4095SOL    HW229428   4.232   5.399   7.623
 4096SOL     OW29429   0.371   2.145   1.075
 4096SOL    HW129430   0.382   2.084   1.002
 4096SOL    HW229431   0.432   2.216   1.056
 4097SOL     OW29432   4.453   3.901   6.979
 4097SOL    HW129433   4.390   3.954   7.027
 4097SOL    HW229434   4.427   3.910   6.887
 4098SOL     OW29435   0.872   4.793   0.190
 4098SOL    HW129436   0.822   4.805   0.270
 4098SOL    HW229437   0.908   4.705   0.197
 4099SOL     OW29438   2.608   0.511   6.085
 4099SOL    HW129439   2.619   0.578   6.154
 4099SOL    HW229440   2.664   0.541   6.014
 4100SOL     OW29441   0.715   3.953   2.404
 4100SOL    HW129442   0.668   4.031   2.434
 4100SOL    HW229443   0.656   3.880   2.422
 4101SOL     OW29444   1.522   4.085   0.615
 4101SOL    HW129445   1.598   4.125   0.657
 4101SOL    HW229446   1.540   4.090   0.522
 4102SOL     OW29447   0.237   1.757   7.090
 4102SOL    HW129448   0.326   1.721   7.085
 4102SOL    HW229449   0.211   1.743   7.181
 4103SOL     OW29450   3.894   1.242   1.730
 4103SOL    HW129451   3.987   1.254   1.711
 4103SOL    HW229452   3.892   1.190   1.810
 4104SOL     OW29453   1.568   3.936   7.617
 4104SOL    HW129454   1.559   3.969   7.527
 4104SOL    HW229455   1.507   3.863   7.622
 4105SOL     OW29456   0.698   4.399   2.325
 4105SOL    HW129457   0.641   4.337   2.372
 4105SOL    HW229458   0.712   4.470   2.387
 4106SOL     OW29459   4.687   0.328   5.996
 4106SOL    HW129460   4.619   0.275   5.955
 4106SOL    HW229461   4.762   0.321   5.937
 4107SOL     OW29462   1.232   1.825   1.268
 4107SOL    HW129463   1.163   1.799   1.208
 4107SOL    HW229464   1.214   1.917   1.288
 4108SOL     OW29465   5.564   4.230   2.127
 4108SOL    HW129466   5.531   4.234   2.217
 4108SOL    HW229467   5.612   4.312   2.115
 4109SOL     OW29468   6.223   4.102   5.731
 4109SOL    HW129469   6.266   4.022   5.760
 4109SOL    HW229470   6.205   4.087   5.638
 4110SOL     OW29471   0.950   4.764   7.581
 4110SOL    HW129472   1.013   4.692   7.581
 4110SOL    HW229473   1.004   4.843   7.569
 4111SOL     OW29474   6.414   1.635   6.694
 4111SOL    HW129475   6.485   1.584   6.656
 4111SOL    HW229476   6.396   1.592   6.778
 4112SOL     OW29477   4.529   5.077   1.814
 4112SOL    HW129478   4.613   5.031   1.806
 4112SOL    HW229479   4.489   5.067   1.727
 4113SOL     OW29480   4.869   6.360   5.789
 4113SOL    HW129481   4.895   6.451   5.778
 4113SOL    HW229482   4.774   6.362   5.789
 4114SOL     OW29483   4.941   6.059   0.673
 4114SOL    HW129484   4.984   6.124   0.729
 4114SOL    HW229485   4.977   5.975   0.701
 4115SOL     OW29486   3.075   2.565   7.146
 4115SOL    HW129487   3.044   2.479   7.117
 4115SOL    HW229488   3.016   2.627   7.104
 4116SOL     OW29489   0.734   1.304   7.314
 4116SOL    HW129490   0.731   1.398   7.299
 4116SOL    HW229491   0.710   1.265   7.230
 4117SOL     OW29492   2.994   0.208   6.980
 4117SOL    HW129493   3.073   0.237   6.934
 4117SOL    HW229494   2.944   0.159   6.914
 4118SOL     OW29495   6.122   6.328   1.199
 4118SOL    HW129496   6.095   6.345   1.289
 4118SOL    HW229497   6.048   6.355   1.145
 4119SOL     OW29498   6.446   3.537   0.702
 4119SOL    HW129499   6.373   3.500   0.654
 4119SOL    HW229500   6.405   3.587   0.773
 4120SOL     OW29501   1.306   4.062   1.414
 4120SOL    HW129502   1.220   4.023   1.428
 4120SOL    HW229503   1.327   4.041   1.323
 4121SOL     OW29504   3.747   2.216   5.715
 4121SOL    HW129505   3.709   2.152   5.776
 4121SOL    HW229506   3.727   2.180   5.628
 4122SOL     OW29507   3.808   4.168   0.307
 4122SOL    HW129508   3.903   4.172   0.314
 4122SOL    HW229509   3.786   4.077   0.325
 4123SOL     OW29510   4.997   3.233   1.626
 4123SOL    HW129511   4.964   3.235   1.536
 4123SOL    HW229512   5.087   3.199   1.618
 4124SOL     OW29513   2.113   2.274   2.821
 4124SOL    HW129514   2.190   2.248   2.770
 4124SOL    HW229515   2.148   2.296   2.907
 4125SOL     OW29516   6.142   6.137   0.866
 4125SOL    HW129517   6.203   6.174   0.802
 4125SOL    HW229518   6.082   6.084   0.815
 4126SOL     OW29519   5.762   2.625   1.115
 4126SOL    HW129520   5.823   2.692   1.145
 4126SOL    HW229521   5.676   2.664   1.125
 4127SOL     OW29522   5.397   2.983   6.154
 4127SOL    HW129523   5.362   3.050   6.095
 4127SOL    HW229524   5.481   3.018   6.184
 4128SOL     OW29525   6.031   5.668   2.470
 4128SOL    HW129526   5.938   5.684   2.453
 4128SOL    HW229527   6.034   5.586   2.518
 4129SOL     OW29528   5.749   5.584   2.752
 4129SOL    HW129529   5.830   5.550   2.714
 4129SOL    HW229530   5.729   5.522   2.823
 4130SOL     OW29531   0.437   3.436   0.611
 4130SOL    HW129532   0.344   3.443   0.630
 4130SOL    HW229533   0.449   3.488   0.531
 4131SOL     OW29534   1.661   4.219   1.896
 4131SOL    HW129535   1.593   4.238   1.960
 4131SOL    HW229536   1.672   4.124   1.899
 4132SOL     OW29537   1.529   4.441   7.322
 4132SOL    HW129538   1.512   4.479   7.409
 4132SOL    HW229539   1.454   4.382   7.307
 4133SOL     OW29540   0.355   5.596   7.640
 4133SOL    HW129541   0.407   5.594   7.720
 4133SOL    HW229542   0.321   5.685   7.635
 4134SOL     OW29543   5.361   5.799   7.354
 4134SOL    HW129544   5.442   5.756   7.379
 4134SOL    HW229545   5.297   5.771   7.420
 4135SOL     OW29546   4.400   5.388   7.295
 4135SOL    HW129547   4.399   5.483   7.294
 4135SOL    HW229548   4.332   5.364   7.358
 4136SOL     OW29549   6.235   4.186   5.421
 4136SOL    HW129550   6.330   4.185   5.411
 4136SOL    HW229551   6.208   4.272   5.388
 4137SOL     OW29552   1.046   1.324   6.645
 4137SOL    HW129553   1.131   1.301   6.684
 4137SOL    HW229554   1.067   1.358   6.559
 4138SOL     OW29555   6.351   5.677   1.443
 4138SOL    HW129556   6.324   5.627   1.519
 4138SOL    HW229557   6.295   5.755   1.444
 4139SOL     OW29558   5.882   4.117   5.374
 4139SOL    HW129559   5.915   4.108   5.285
 4139SOL    HW229560   5.866   4.027   5.403
 4140SOL     OW29561   3.628   0.225   2.149
 4140SOL    HW129562   3.716   0.200   2.177
 4140SOL    HW229563   3.640   0.310   2.107
 4141SOL     OW29564   1.609   2.975   1.572
 4141SOL    HW129565   1.611   2.916   1.497
 4141SOL    HW229566   1.678   2.943   1.630
 4142SOL     OW29567   0.309   6.274   0.560
 4142SOL    HW129568   0.332   6.227   0.480
 4142SOL    HW229569   0.309   6.367   0.534
 4143SOL     OW29570   3.396   6.181   7.543
 4143SOL    HW129571   3.426   6.243   7.609
 4143SOL    HW229572   3.471   6.170   7.485
 4144SOL     OW29573   1.235   4.625   1.078
 4144SOL    HW129574   1.219   4.716   1.053
 4144SOL    HW229575   1.312   4.629   1.135
 4145SOL     OW29576   2.793   2.520   1.226
 4145SOL    HW129577   2.833   2.438   1.256
 4145SOL    HW229578   2.704   2.496   1.200
 4146SOL     OW29579   3.910   0.361   0.770
 4146SOL    HW129580   3.926   0.287   0.829
 4146SOL    HW229581   3.878   0.431   0.826
 4147SOL     OW29582   5.062   4.855   0.312
 4147SOL    HW129583   5.065   4.920   0.241
 4147SOL    HW229584   5.092   4.903   0.389
 4148SOL     OW29585   1.454   5.396   0.854
 4148SOL    HW129586   1.513   5.434   0.918
 4148SOL    HW229587   1.431   5.468   0.796
 4149SOL     OW29588   4.171   3.748   1.106
 4149SOL    HW129589   4.186   3.702   1.024
 4149SOL    HW229590   4.215   3.695   1.172
 4150SOL     OW29591   5.475   0.068   7.101
 4150SOL    HW129592   5.503   0.123   7.175
 4150SOL    HW229593   5.537  -0.005   7.102
 4151SOL     OW29594   2.332   6.067   6.942
 4151SOL    HW129595   2.362   6.149   6.904
 4151SOL    HW229596   2.307   6.089   7.031
 4152SOL     OW29597   0.042   1.525   5.507
 4152SOL    HW129598  -0.032   1.518   5.446
 4152SOL    HW229599   0.119   1.528   5.450
 4153SOL     OW29600   2.058   3.691   1.014
 4153SOL    HW129601   2.017   3.694   0.928
 4153SOL    HW229602   2.038   3.777   1.053
 4154SOL     OW29603   4.809   2.042   7.174
 4154SOL    HW129604   4.833   2.024   7.083
 4154SOL    HW229605   4.761   1.965   7.203
 4155SOL     OW29606   2.981   5.117   6.400
 4155SOL    HW129607   3.040   5.192   6.404
 4155SOL    HW229608   2.955   5.102   6.491
 4156SOL     OW29609   5.176   5.219   5.990
 4156SOL    HW129610   5.135   5.241   6.073
 4156SOL    HW229611   5.249   5.280   5.982
 4157SOL     OW29612   1.755   1.833   0.300
 4157SOL    HW129613   1.829   1.890   0.277
 4157SOL    HW229614   1.679   1.878   0.265
 4158SOL     OW29615   0.978   5.655   0.699
 4158SOL    HW129616   0.946   5.645   0.789
 4158SOL    HW229617   1.051   5.716   0.706
 4159SOL     OW29618   6.138   1.862   2.601
 4159SOL    HW129619   6.051   1.859   2.641
 4159SOL    HW229620   6.124   1.837   2.510
 4160SOL     OW29621   2.099   2.982   1.972
 4160SOL    HW129622   2.050   3.064   1.970
 4160SOL    HW229623   2.191   3.009   1.977
 4161SOL     OW29624   1.721   1.633   2.145
 4161SOL    HW129625   1.749   1.564   2.085
 4161SOL    HW229626   1.704   1.709   2.088
 4162SOL     OW29627   2.681   2.653   7.183
 4162SOL    HW129628   2.637   2.621   7.104
 4162SOL    HW229629   2.756   2.703   7.149
 4163SOL     OW29630   4.859   2.291   6.782
 4163SOL    HW129631   4.857   2.310   6.875
 4163SOL    HW229632   4.919   2.356   6.746
 4164SOL     OW29633   3.628   3.882   0.270
 4164SOL    HW129634   3.646   3.889   0.176
 4164SOL    HW229635   3.715   3.886   0.311
 4165SOL     OW29636   5.688   4.979   1.744
 4165SOL    HW129637   5.642   4.941   1.670
 4165SOL    HW229638   5.695   5.072   1.723
 4166SOL     OW29639   4.830   4.770   1.316
 4166SOL    HW129640   4.845   4.681   1.285
 4166SOL    HW229641   4.907   4.819   1.285
 4167SOL     OW29642   0.245   5.996   6.226
 4167SOL    HW129643   0.291   6.018   6.145
 4167SOL    HW229644   0.154   6.023   6.209
 4168SOL     OW29645   2.319   0.283   7.464
 4168SOL    HW129646   2.250   0.238   7.513
 4168SOL    HW229647   2.367   0.213   7.420
 4169SOL     OW29648   1.414   3.083   1.753
 4169SOL    HW129649   1.470   3.039   1.689
 4169SOL    HW229650   1.474   3.136   1.805
 4170SOL     OW29651   0.672   2.421   7.070
 4170SOL    HW129652   0.637   2.337   7.040
 4170SOL    HW229653   0.680   2.411   7.165
 4171SOL     OW29654   0.227   2.955   1.793
 4171SOL    HW129655   0.236   2.963   1.698
 4171SOL    HW229656   0.251   3.041   1.827
 4172SOL     OW29657   3.644   6.369   0.137
 4172SOL    HW129658   3.656   6.462   0.117
 4172SOL    HW229659   3.700   6.323   0.074
 4173SOL     OW29660   5.739   5.129   1.432
 4173SOL    HW129661   5.749   5.034   1.438
 4173SOL    HW229662   5.777   5.151   1.348
 4174SOL     OW29663   0.520   2.389   7.625
 4174SOL    HW129664   0.561   2.396   7.711
 4174SOL    HW229665   0.455   2.320   7.636
 4175SOL     OW29666   5.726   5.868   7.421
 4175SOL    HW129667   5.634   5.872   7.447
 4175SOL    HW229668   5.757   5.958   7.428
 4176SOL     OW29669   4.544   0.314   1.092
 4176SOL    HW129670   4.620   0.366   1.065
 4176SOL    HW229671   4.572   0.223   1.082
 4177SOL     OW29672   2.743   4.833   6.381
 4177SOL    HW129673   2.834   4.809   6.396
 4177SOL    HW229674   2.699   4.821   6.465
 4178SOL     OW29675   2.878   0.127   1.530
 4178SOL    HW129676   2.906   0.216   1.508
 4178SOL    HW229677   2.952   0.072   1.503
 4179SOL     OW29678   5.050   5.514   1.439
 4179SOL    HW129679   4.986   5.585   1.440
 4179SOL    HW229680   5.089   5.518   1.352
 4180SOL     OW29681   3.694   5.664   1.397
 4180SOL    HW129682   3.635   5.712   1.455
 4180SOL    HW229683   3.646   5.584   1.375
 4181SOL     OW29684   1.827   6.321   6.341
 4181SOL    HW129685   1.835   6.374   6.261
 4181SOL    HW229686   1.768   6.249   6.316
 4182SOL     OW29687   6.054   0.687   7.550
 4182SOL    HW129688   5.972   0.676   7.599
 4182SOL    HW229689   6.120   0.705   7.617
 4183SOL     OW29690   5.514   4.665   1.450
 4183SOL    HW129691   5.593   4.612   1.461
 4183SOL    HW229692   5.462   4.618   1.385
 4184SOL     OW29693   0.793   1.584   7.230
 4184SOL    HW129694   0.806   1.534   7.150
 4184SOL    HW229695   0.764   1.670   7.201
 4185SOL     OW29696   2.131   1.731   7.374
 4185SOL    HW129697   2.100   1.820   7.395
 4185SOL    HW229698   2.087   1.709   7.292
 4186SOL     OW29699   2.347   1.635   5.446
 4186SOL    HW129700   2.296   1.671   5.519
 4186SOL    HW229701   2.342   1.540   5.458
 4187SOL     OW29702   6.124   2.603   2.229
 4187SOL    HW129703   6.198   2.620   2.287
 4187SOL    HW229704   6.049   2.593   2.287
 4188SOL     OW29705   3.535   3.770   1.946
 4188SOL    HW129706   3.561   3.730   2.030
 4188SOL    HW229707   3.554   3.703   1.881
 4189SOL     OW29708   5.701   5.153   2.532
 4189SOL    HW129709   5.788   5.177   2.564
 4189SOL    HW229710   5.675   5.080   2.588
 4190SOL     OW29711   2.836   0.050   0.451
 4190SOL    HW129712   2.806  -0.005   0.378
 4190SOL    HW229713   2.756   0.087   0.488
 4191SOL     OW29714   3.714   4.500   1.790
 4191SOL    HW129715   3.762   4.544   1.720
 4191SOL    HW229716   3.625   4.534   1.783
 4192SOL     OW29717   4.970   4.549   1.199
 4192SOL    HW129718   4.932   4.512   1.120
 4192SOL    HW229719   5.039   4.607   1.168
 4193SOL     OW29720   1.634   0.142   0.024
 4193SOL    HW129721   1.652   0.091  -0.055
 4193SOL    HW229722   1.720   0.172   0.054
 4194SOL     OW29723   3.314   5.067   0.299
 4194SOL    HW129724   3.358   5.103   0.376
 4194SOL    HW229725   3.346   4.977   0.292
 4195SOL     OW29726   3.816   1.888   0.088
 4195SOL    HW129727   3.823   1.982   0.103
 4195SOL    HW229728   3.757   1.880   0.013
 4196SOL     OW29729   4.735   3.922   6.918
 4196SOL    HW129730   4.791   3.849   6.893
 4196SOL    HW229731   4.648   3.883   6.926
 4197SOL     OW29732   3.080   5.404   6.810
 4197SOL    HW129733   3.144   5.341   6.777
 4197SOL    HW229734   3.077   5.388   6.904
 4198SOL     OW29735   3.190   3.619   6.932
 4198SOL    HW129736   3.248   3.543   6.937
 4198SOL    HW229737   3.248   3.695   6.940
 4199SOL     OW29738   1.884   5.780   1.391
 4199SOL    HW129739   1.880   5.690   1.424
 4199SOL    HW229740   1.890   5.771   1.296
 4200SOL     OW29741   1.036   4.758   1.467
 4200SOL    HW129742   1.098   4.747   1.394
 4200SOL    HW229743   1.025   4.669   1.502
 4201SOL     OW29744   4.477   0.857   7.240
 4201SOL    HW129745   4.453   0.928   7.300
 4201SOL    HW229746   4.410   0.791   7.252
 4202SOL     OW29747   2.117   3.044   6.793
 4202SOL    HW129748   2.105   2.954   6.824
 4202SOL    HW229749   2.112   3.098   6.871
 4203SOL     OW29750   2.118   0.672   1.262
 4203SOL    HW129751   2.048   0.623   1.219
 4203SOL    HW229752   2.178   0.696   1.192
 4204SOL     OW29753   0.740   0.551   7.563
 4204SOL    HW129754   0.651   0.545   7.599
 4204SOL    HW229755   0.753   0.644   7.545
 4205SOL     OW29756   3.959   4.906   2.232
 4205SOL    HW129757   4.005   4.963   2.294
 4205SOL    HW229758   3.874   4.890   2.273
 4206SOL     OW29759   1.158   6.316   0.467
 4206SOL    HW129760   1.218   6.383   0.435
 4206SOL    HW229761   1.200   6.233   0.446
 4207SOL     OW29762   4.231   0.641   7.091
 4207SOL    HW129763   4.279   0.605   7.166
 4207SOL    HW229764   4.140   0.619   7.109
 4208SOL     OW29765   2.775   6.228   1.098
 4208SOL    HW129766   2.737   6.141   1.094
 4208SOL    HW229767   2.702   6.285   1.123
 4209SOL     OW29768   3.676   6.191   7.679
 4209SOL    HW129769   3.747   6.131   7.703
 4209SOL    HW229770   3.631   6.148   7.606
 4210SOL     OW29771   0.022   5.399   2.186
 4210SOL    HW129772  -0.002   5.313   2.150
 4210SOL    HW229773   0.117   5.396   2.195
 4211SOL     OW29774   2.691   5.839   2.229
 4211SOL    HW129775   2.668   5.763   2.284
 4211SOL    HW229776   2.662   5.915   2.280
 4212SOL     OW29777   1.480   4.439   7.663
 4212SOL    HW129778   1.451   4.523   7.629
 4212SOL    HW229779   1.532   4.461   7.740
 4213SOL     OW29780   6.084   2.347   7.306
 4213SOL    HW129781   6.040   2.356   7.221
 4213SOL    HW229782   6.171   2.383   7.292
 4214SOL     OW29783   1.667   2.250   1.960
 4214SOL    HW129784   1.592   2.302   1.929
 4214SOL    HW229785   1.644   2.159   1.937
 4215SOL     OW29786   2.212   0.350   0.914
 4215SOL    HW129787   2.256   0.339   0.999
 4215SOL    HW229788   2.174   0.264   0.896
 4216SOL     OW29789   6.342   5.143   6.806
 4216SOL    HW129790   6.422   5.156   6.856
 4216SOL    HW229791   6.298   5.228   6.807
 4217SOL     OW29792   6.327   3.849   7.417
 4217SOL    HW129793   6.242   3.881   7.446
 4217SOL    HW229794   6.327   3.757   7.443
 4218SOL     OW29795   1.051   3.899   0.904
 4218SOL    HW129796   1.061   3.952   0.983
 4218SOL    HW229797   0.962   3.916   0.875
 4219SOL     OW29798   5.761   3.460   7.190
 4219SOL    HW129799   5.820   3.386   7.205
 4219SOL    HW229800   5.756   3.504   7.275
 4220SOL     OW29801   4.216   4.107   7.411
 4220SOL    HW129802   4.225   4.202   7.421
 4220SOL    HW229803   4.209   4.074   7.500
 4221SOL     OW29804   5.206   5.724   6.373
 4221SOL    HW129805   5.153   5.680   6.439
 4221SOL    HW229806   5.238   5.654   6.316
 4222SOL     OW29807   2.237   3.658   1.337
 4222SOL    HW129808   2.196   3.591   1.391
 4222SOL    HW229809   2.193   3.740   1.362
 4223SOL     OW29810   4.517   6.268   6.939
 4223SOL    HW129811   4.560   6.222   7.011
 4223SOL    HW229812   4.585   6.323   6.901
 4224SOL     OW29813   0.636   4.647   7.187
 4224SOL    HW129814   0.554   4.607   7.218
 4224SOL    HW229815   0.661   4.707   7.257
 4225SOL     OW29816   0.011   0.347   6.937
 4225SOL    HW129817  -0.078   0.332   6.970
 4225SOL    HW229818   0.028   0.439   6.955
 4226SOL     OW29819   4.834   0.312   2.606
 4226SOL    HW129820   4.905   0.253   2.580
 4226SOL    HW229821   4.878   0.396   2.623
 4227SOL     OW29822   1.359   4.964   0.419
 4227SOL    HW129823   1.382   4.885   0.468
 4227SOL    HW229824   1.334   4.932   0.332
 4228SOL     OW29825   0.576   1.200   1.284
 4228SOL    HW129826   0.654   1.199   1.228
 4228SOL    HW229827   0.554   1.108   1.296
 4229SOL     OW29828   0.922   3.801   2.280
 4229SOL    HW129829   0.841   3.835   2.317
 4229SOL    HW229830   0.988   3.866   2.302
 4230SOL     OW29831   6.053   0.902   1.238
 4230SOL    HW129832   6.056   0.921   1.332
 4230SOL    HW229833   6.039   0.988   1.198
 4231SOL     OW29834   0.062   4.439   1.562
 4231SOL    HW129835   0.097   4.529   1.561
 4231SOL    HW229836   0.084   4.406   1.649
 4232SOL     OW29837   5.051   0.134   7.146
 4232SOL    HW129838   5.064   0.053   7.194
 4232SOL    HW229839   5.021   0.106   7.059
 4233SOL     OW29840   0.420   4.445   0.176
 4233SOL    HW129841   0.477   4.417   0.248
 4233SOL    HW229842   0.335   4.404   0.196
 4234SOL     OW29843   3.678   4.801   7.706
 4234SOL    HW129844   3.638   4.715   7.712
 4234SOL    HW229845   3.710   4.807   7.616
 4235SOL     OW29846   2.312   2.446   6.213
 4235SOL    HW129847   2.338   2.537   6.229
 4235SOL    HW229848   2.278   2.447   6.124
 4236SOL     OW29849   4.444   5.960   6.595
 4236SOL    HW129850   4.411   6.013   6.667
 4236SOL    HW229851   4.365   5.927   6.551
 4237SOL     OW29852   4.639   1.797   0.755
 4237SOL    HW129853   4.568   1.859   0.735
 4237SOL    HW229854   4.633   1.784   0.849
 4238SOL     OW29855   3.264   5.314   7.376
 4238SOL    HW129856   3.318   5.373   7.324
 4238SOL    HW229857   3.187   5.297   7.321
 4239SOL     OW29858   0.303   3.233   1.861
 4239SOL    HW129859   0.296   3.262   1.952
 4239SOL    HW229860   0.395   3.209   1.850
 4240SOL     OW29861   4.737   3.712   7.710
 4240SOL    HW129862   4.706   3.626   7.680
 4240SOL    HW229863   4.747   3.701   7.805
 4241SOL     OW29864   5.761   4.175   7.159
 4241SOL    HW129865   5.704   4.102   7.182
 4241SOL    HW229866   5.786   4.213   7.243
 4242SOL     OW29867   1.670   1.863   6.580
 4242SOL    HW129868   1.659   1.955   6.557
 4242SOL    HW229869   1.701   1.822   6.499
 4243SOL     OW29870   1.459   2.477   0.224
 4243SOL    HW129871   1.483   2.535   0.297
 4243SOL    HW229872   1.459   2.535   0.147
 4244SOL     OW29873   5.403   0.555   6.630
 4244SOL    HW129874   5.375   0.580   6.542
 4244SOL    HW229875   5.483   0.606   6.645
 4245SOL     OW29876   0.552   1.737   1.176
 4245SOL    HW129877   0.610   1.668   1.143
 4245SOL    HW229878   0.585   1.757   1.264
 4246SOL     OW29879   4.680   1.316   1.734
 4246SOL    HW129880   4.675   1.332   1.828
 4246SOL    HW229881   4.608   1.368   1.698
 4247SOL     OW29882   0.683   3.484   2.280
 4247SOL    HW129883   0.644   3.407   2.239
 4247SOL    HW229884   0.661   3.476   2.373
 4248SOL     OW29885   4.792   0.269   7.538
 4248SOL    HW129886   4.703   0.300   7.549
 4248SOL    HW229887   4.819   0.304   7.452
 4249SOL     OW29888   5.330   1.550   7.030
 4249SOL    HW129889   5.318   1.488   6.958
 4249SOL    HW229890   5.260   1.614   7.019
 4250SOL     OW29891   4.719   3.599   2.591
 4250SOL    HW129892   4.738   3.581   2.499
 4250SOL    HW229893   4.623   3.597   2.597
 4251SOL     OW29894   3.303   1.810   7.451
 4251SOL    HW129895   3.254   1.767   7.521
 4251SOL    HW229896   3.335   1.739   7.396
 4252SOL     OW29897   4.466   0.217   1.488
 4252SOL    HW129898   4.468   0.147   1.553
 4252SOL    HW229899   4.542   0.200   1.432
 4253SOL     OW29900   1.741   2.786   1.741
 4253SOL    HW129901   1.800   2.711   1.750
 4253SOL    HW229902   1.654   2.751   1.761
 4254SOL     OW29903   4.274   1.139   1.710
 4254SOL    HW129904   4.355   1.158   1.758
 4254SOL    HW229905   4.283   1.048   1.683
 4255SOL     OW29906   5.457   3.119   6.475
 4255SOL    HW129907   5.439   3.179   6.403
 4255SOL    HW229908   5.414   3.037   6.449
 4256SOL     OW29909   2.553   0.744   0.409
 4256SOL    HW129910   2.636   0.791   0.417
 4256SOL    HW229911   2.576   0.653   0.426
 4257SOL     OW29912   1.090   0.720   7.227
 4257SOL    HW129913   1.099   0.767   7.144
 4257SOL    HW229914   1.079   0.628   7.201
 4258SOL     OW29915   4.002   4.996   0.656
 4258SOL    HW129916   4.028   4.911   0.692
 4258SOL    HW229917   3.920   4.978   0.610
 4259SOL     OW29918   5.602   2.006   1.970
 4259SOL    HW129919   5.630   2.015   1.879
 4259SOL    HW229920   5.535   1.939   1.968
 4260SOL     OW29921   2.332   1.395   5.566
 4260SOL    HW129922   2.277   1.317   5.563
 4260SOL    HW229923   2.383   1.386   5.646
 4261SOL     OW29924   1.313   1.288   0.794
 4261SOL    HW129925   1.347   1.375   0.773
 4261SOL    HW229926   1.376   1.227   0.754
 4262SOL     OW29927   5.472   4.376   6.630
 4262SOL    HW129928   5.475   4.299   6.688
 4262SOL    HW229929   5.556   4.373   6.584
 4263SOL     OW29930   4.903   2.696   1.324
 4263SOL    HW129931   4.930   2.622   1.378
 4263SOL    HW229932   4.879   2.658   1.240
 4264SOL     OW29933   0.398   0.754   6.139
 4264SOL    HW129934   0.477   0.802   6.116
 4264SOL    HW229935   0.334   0.822   6.161
 4265SOL     OW29936   5.314   0.539   0.885
 4265SOL    HW129937   5.231   0.520   0.927
 4265SOL    HW229938   5.334   0.460   0.835
 4266SOL     OW29939   3.657   5.187   1.602
 4266SOL    HW129940   3.719   5.255   1.629
 4266SOL    HW229941   3.580   5.234   1.572
 4267SOL     OW29942   3.934   1.639   1.630
 4267SOL    HW129943   4.013   1.624   1.577
 4267SOL    HW229944   3.927   1.561   1.684
 4268SOL     OW29945   4.350   0.891   1.656
 4268SOL    HW129946   4.440   0.869   1.682
 4268SOL    HW229947   4.324   0.819   1.599
 4269SOL     OW29948   0.663   0.072   6.147
 4269SOL    HW129949   0.598   0.036   6.087
 4269SOL    HW229950   0.643   0.165   6.152
 4270SOL     OW29951   4.706   0.819   7.523
 4270SOL    HW129952   4.758   0.882   7.473
 4270SOL    HW229953   4.753   0.736   7.513
 4271SOL     OW29954   6.099   3.849   6.883
 4271SOL    HW129955   6.159   3.874   6.812
 4271SOL    HW229956   6.093   3.753   6.876
 4272SOL     OW29957   0.872   5.615   6.530
 4272SOL    HW129958   0.878   5.707   6.559
 4272SOL    HW229959   0.906   5.617   6.440
 4273SOL     OW29960   5.625   1.670   7.043
 4273SOL    HW129961   5.537   1.630   7.042
 4273SOL    HW229962   5.612   1.755   7.085
 4274SOL     OW29963   1.892   4.031   1.530
 4274SOL    HW129964   1.943   4.093   1.478
 4274SOL    HW229965   1.812   4.078   1.553
 4275SOL     OW29966   1.567   3.133   6.976
 4275SOL    HW129967   1.489   3.144   7.029
 4275SOL    HW229968   1.595   3.222   6.955
 4276SOL     OW29969   0.238   2.568   6.452
 4276SOL    HW129970   0.164   2.507   6.457
 4276SOL    HW229971   0.315   2.514   6.466
 4277SOL     OW29972   2.122   6.457   6.207
 4277SOL    HW129973   2.212   6.479   6.182
 4277SOL    HW229974   2.070   6.479   6.130
 4278SOL     OW29975   0.180   1.287   7.089
 4278SOL    HW129976   0.125   1.237   7.029
 4278SOL    HW229977   0.221   1.354   7.033
 4279SOL     OW29978   4.312   4.294   6.947
 4279SOL    HW129979   4.249   4.289   6.876
 4279SOL    HW229980   4.272   4.352   7.012
 4280SOL     OW29981   1.303   5.587   7.668
 4280SOL    HW129982   1.217   5.590   7.709
 4280SOL    HW229983   1.292   5.531   7.592
 4281SOL     OW29984   6.226   1.788   0.342
 4281SOL    HW129985   6.274   1.865   0.373
 4281SOL    HW229986   6.294   1.730   0.308
 4282SOL     OW29987   3.375   1.833   1.357
 4282SOL    HW129988   3.452   1.778   1.365
 4282SOL    HW229989   3.379   1.891   1.433
 4283SOL     OW29990   1.174   1.772   5.580
 4283SOL    HW129991   1.147   1.744   5.492
 4283SOL    HW229992   1.115   1.844   5.600
 4284SOL     OW29993   4.806   5.865   2.695
 4284SOL    HW129994   4.791   5.803   2.624
 4284SOL    HW229995   4.894   5.900   2.679
 4285SOL     OW29996   4.021   0.936   2.755
 4285SOL    HW129997   3.953   0.926   2.689
 4285SOL    HW229998   3.974   0.964   2.834
 4286SOL     OW29999   3.116   1.490   1.295
 4286SOL    HW130000   3.135   1.584   1.293
 4286SOL    HW230001   3.194   1.449   1.257
 4287SOL     OW30002   5.160   5.740   6.672
 4287SOL    HW130003   5.128   5.797   6.742
 4287SOL    HW230004   5.255   5.751   6.674
 4288SOL     OW30005   1.550   2.125   0.507
 4288SOL    HW130006   1.471   2.087   0.544
 4288SOL    HW230007   1.543   2.109   0.413
 4289SOL     OW30008   4.125   4.546   6.975
 4289SOL    HW130009   4.095   4.537   7.065
 4289SOL    HW230010   4.048   4.524   6.922
 4290SOL     OW30011   6.007   3.659   6.631
 4290SOL    HW130012   6.072   3.676   6.563
 4290SOL    HW230013   6.058   3.645   6.711
 4291SOL     OW30014   3.388   2.716   5.662
 4291SOL    HW130015   3.463   2.661   5.639
 4291SOL    HW230016   3.352   2.675   5.740
 4292SOL     OW30017   5.002   2.978   2.613
 4292SOL    HW130018   4.926   3.019   2.654
 4292SOL    HW230019   5.042   3.049   2.563
 4293SOL     OW30020   1.320   4.961   2.417
 4293SOL    HW130021   1.234   4.948   2.378
 4293SOL    HW230022   1.305   5.024   2.487
 4294SOL     OW30023   2.634   5.793   0.933
 4294SOL    HW130024   2.701   5.785   0.865
 4294SOL    HW230025   2.602   5.703   0.945
 4295SOL     OW30026   5.946   3.119   6.038
 4295SOL    HW130027   5.952   3.206   5.999
 4295SOL    HW230028   6.029   3.107   6.083
 4296SOL     OW30029   4.840   0.751   0.953
 4296SOL    HW130030   4.774   0.732   1.020
 4296SOL    HW230031   4.790   0.791   0.881
 4297SOL     OW30032   4.899   3.664   1.246
 4297SOL    HW130033   4.846   3.584   1.247
 4297SOL    HW230034   4.953   3.657   1.167
 4298SOL     OW30035   5.233   2.388   1.150
 4298SOL    HW130036   5.286   2.385   1.229
 4298SOL    HW230037   5.283   2.340   1.085
 4299SOL     OW30038   5.606   4.317   6.948
 4299SOL    HW130039   5.649   4.245   6.995
 4299SOL    HW230040   5.562   4.275   6.874
 4300SOL     OW30041   2.532   5.907   6.674
 4300SOL    HW130042   2.620   5.882   6.701
 4300SOL    HW230043   2.544   5.989   6.626
 4301SOL     OW30044   6.446   4.879   0.344
 4301SOL    HW130045   6.522   4.868   0.402
 4301SOL    HW230046   6.402   4.794   0.347
 4302SOL     OW30047   3.870   5.409   6.656
 4302SOL    HW130048   3.914   5.411   6.571
 4302SOL    HW230049   3.834   5.321   6.663
 4303SOL     OW30050   6.108   0.304   1.072
 4303SOL    HW130051   6.201   0.307   1.053
 4303SOL    HW230052   6.103   0.302   1.168
 4304SOL     OW30053   1.301   0.850   0.592
 4304SOL    HW130054   1.216   0.832   0.633
 4304SOL    HW230055   1.315   0.776   0.533
 4305SOL     OW30056   1.302   4.251   6.341
 4305SOL    HW130057   1.284   4.329   6.393
 4305SOL    HW230058   1.227   4.243   6.282
 4306SOL     OW30059   2.356   5.265   5.835
 4306SOL    HW130060   2.407   5.187   5.858
 4306SOL    HW230061   2.406   5.306   5.764
 4307SOL     OW30062   3.857   0.269   0.032
 4307SOL    HW130063   3.768   0.237   0.040
 4307SOL    HW230064   3.881   0.295   0.122
 4308SOL     OW30065   4.323   4.622   0.250
 4308SOL    HW130066   4.409   4.661   0.265
 4308SOL    HW230067   4.338   4.555   0.183
 4309SOL     OW30068   3.797   1.109   5.552
 4309SOL    HW130069   3.775   1.199   5.528
 4309SOL    HW230070   3.714   1.063   5.552
 4310SOL     OW30071   4.415   5.002   6.464
 4310SOL    HW130072   4.335   4.978   6.511
 4310SOL    HW230073   4.456   4.918   6.443
 4311SOL     OW30074   4.584   4.117   7.667
 4311SOL    HW130075   4.612   4.127   7.577
 4311SOL    HW230076   4.665   4.119   7.718
 4312SOL     OW30077   0.344   2.629   7.282
 4312SOL    HW130078   0.259   2.666   7.258
 4312SOL    HW230079   0.349   2.547   7.233
 4313SOL     OW30080   3.411   0.316   5.891
 4313SOL    HW130081   3.501   0.349   5.892
 4313SOL    HW230082   3.357   0.394   5.908
 4314SOL     OW30083   0.942   1.792   2.001
 4314SOL    HW130084   0.925   1.883   2.028
 4314SOL    HW230085   1.005   1.800   1.929
 4315SOL     OW30086   5.511   2.740   6.135
 4315SOL    HW130087   5.495   2.834   6.143
 4315SOL    HW230088   5.435   2.708   6.087
 4316SOL     OW30089   0.997   3.798   6.631
 4316SOL    HW130090   0.915   3.751   6.647
 4316SOL    HW230091   1.059   3.761   6.694
 4317SOL     OW30092   0.834   1.873   0.731
 4317SOL    HW130093   0.825   1.934   0.804
 4317SOL    HW230094   0.758   1.815   0.739
 4318SOL     OW30095   5.547   3.251   5.652
 4318SOL    HW130096   5.484   3.190   5.613
 4318SOL    HW230097   5.562   3.217   5.740
 4319SOL     OW30098   4.258   5.542   0.918
 4319SOL    HW130099   4.252   5.521   0.825
 4319SOL    HW230100   4.169   5.569   0.943
 4320SOL     OW30101   0.166   6.206   6.835
 4320SOL    HW130102   0.179   6.210   6.740
 4320SOL    HW230103   0.228   6.269   6.871
 4321SOL     OW30104   4.929   2.480   7.727
 4321SOL    HW130105   4.866   2.543   7.694
 4321SOL    HW230106   4.889   2.445   7.806
 4322SOL     OW30107   1.372   2.167   1.765
 4322SOL    HW130108   1.390   2.253   1.804
 4322SOL    HW230109   1.425   2.106   1.816
 4323SOL     OW30110   4.000   4.497   7.230
 4323SOL    HW130111   3.990   4.402   7.228
 4323SOL    HW230112   3.986   4.521   7.322
 4324SOL     OW30113   0.688   1.801   0.411
 4324SOL    HW130114   0.639   1.788   0.492
 4324SOL    HW230115   0.639   1.751   0.345
 4325SOL     OW30116   4.417   0.669   2.438
 4325SOL    HW130117   4.443   0.730   2.507
 4325SOL    HW230118   4.469   0.591   2.454
 4326SOL     OW30119   2.359   3.276   7.581
 4326SOL    HW130120   2.303   3.221   7.526
 4326SOL    HW230121   2.298   3.331   7.631
 4327SOL     OW30122   1.163   5.878   6.812
 4327SOL    HW130123   1.127   5.950   6.863
 4327SOL    HW230124   1.258   5.889   6.816
 4328SOL     OW30125   5.043   1.695   0.139
 4328SOL    HW130126   4.962   1.694   0.089
 4328SOL    HW230127   5.111   1.717   0.074
 4329SOL     OW30128   3.256   5.574   7.629
 4329SOL    HW130129   3.248   5.478   7.632
 4329SOL    HW230130   3.170   5.605   7.602
 4330SOL     OW30131   2.945   2.304   0.266
 4330SOL    HW130132   2.885   2.236   0.235
 4330SOL    HW230133   3.021   2.255   0.299
 4331SOL     OW30134   5.599   4.809   0.469
 4331SOL    HW130135   5.611   4.813   0.564
 4331SOL    HW230136   5.541   4.882   0.449
 4332SOL     OW30137   5.059   0.109   6.821
 4332SOL    HW130138   4.993   0.176   6.837
 4332SOL    HW230139   5.101   0.135   6.739
 4333SOL     OW30140   3.874   2.299   1.939
 4333SOL    HW130141   3.878   2.386   1.898
 4333SOL    HW230142   3.849   2.317   2.030
 4334SOL     OW30143   2.544   2.363   6.305
 4334SOL    HW130144   2.625   2.398   6.269
 4334SOL    HW230145   2.475   2.406   6.253
 4335SOL     OW30146   2.378   1.722   7.725
 4335SOL    HW130147   2.452   1.775   7.756
 4335SOL    HW230148   2.373   1.649   7.787
 4336SOL     OW30149   5.128   3.748   0.261
 4336SOL    HW130150   5.058   3.695   0.223
 4336SOL    HW230151   5.082   3.816   0.311
 4337SOL     OW30152   3.243   2.669   7.353
 4337SOL    HW130153   3.214   2.717   7.431
 4337SOL    HW230154   3.162   2.633   7.316
 4338SOL     OW30155   5.075   4.504   2.871
 4338SOL    HW130156   5.129   4.502   2.792
 4338SOL    HW230157   4.998   4.556   2.846
 4339SOL     OW30158   3.102   3.406   0.587
 4339SOL    HW130159   3.098   3.484   0.532
 4339SOL    HW230160   3.051   3.340   0.539
 4340SOL     OW30161   0.077   2.932   1.421
 4340SOL    HW130162   0.126   3.008   1.454
 4340SOL    HW230163   0.001   2.970   1.377
 4341SOL     OW30164   5.924   5.252   7.266
 4341SOL    HW130165   5.890   5.193   7.199
 4341SOL    HW230166   5.881   5.223   7.347
 4342SOL     OW30167   5.256   2.841   7.556
 4342SOL    HW130168   5.313   2.870   7.485
 4342SOL    HW230169   5.168   2.848   7.521
 4343SOL     OW30170   0.081   1.501   0.377
 4343SOL    HW130171   0.061   1.567   0.311
 4343SOL    HW230172   0.172   1.520   0.402
 4344SOL     OW30173   5.273   5.096   6.342
 4344SOL    HW130174   5.177   5.095   6.351
 4344SOL    HW230175   5.298   5.186   6.365
 4345SOL     OW30176   0.556   4.912   0.502
 4345SOL    HW130177   0.569   5.001   0.533
 4345SOL    HW230178   0.644   4.878   0.487
 4346SOL     OW30179   3.889   0.305   6.079
 4346SOL    HW130180   3.960   0.328   6.019
 4346SOL    HW230181   3.929   0.312   6.166
 4347SOL     OW30182   2.863   6.081   6.419
 4347SOL    HW130183   2.788   6.134   6.392
 4347SOL    HW230184   2.871   6.014   6.352
 4348SOL     OW30185   4.189   5.457   1.271
 4348SOL    HW130186   4.272   5.501   1.291
 4348SOL    HW230187   4.125   5.528   1.268
 4349SOL     OW30188   4.570   5.933   1.758
 4349SOL    HW130189   4.546   5.872   1.827
 4349SOL    HW230190   4.657   5.905   1.731
 4350SOL     OW30191   4.627   1.839   7.181
 4350SOL    HW130192   4.595   1.751   7.197
 4350SOL    HW230193   4.586   1.865   7.098
 4351SOL     OW30194   5.665   6.339   0.311
 4351SOL    HW130195   5.575   6.370   0.305
 4351SOL    HW230196   5.713   6.391   0.247
 4352SOL     OW30197   6.381   4.668   6.778
 4352SOL    HW130198   6.299   4.635   6.816
 4352SOL    HW230199   6.377   4.642   6.687
 4353SOL     OW30200   2.525   5.478   1.704
 4353SOL    HW130201   2.604   5.501   1.654
 4353SOL    HW230202   2.517   5.547   1.770
 4354SOL     OW30203   0.414   1.304   0.307
 4354SOL    HW130204   0.403   1.211   0.286
 4354SOL    HW230205   0.329   1.344   0.286
 4355SOL     OW30206   0.967   1.006   0.918
 4355SOL    HW130207   1.053   0.996   0.960
 4355SOL    HW230208   0.966   1.098   0.889
 4356SOL     OW30209   1.125   2.947   7.657
 4356SOL    HW130210   1.152   3.029   7.699
 4356SOL    HW230211   1.044   2.969   7.610
 4357SOL     OW30212   4.030   1.253   7.756
 4357SOL    HW130213   4.056   1.232   7.846
 4357SOL    HW230214   3.959   1.316   7.765
 4358SOL     OW30215   3.394   1.322   7.041
 4358SOL    HW130216   3.429   1.275   7.117
 4358SOL    HW230217   3.450   1.296   6.969
 4359SOL     OW30218   2.015   4.849   1.929
 4359SOL    HW130219   1.968   4.847   2.012
 4359SOL    HW230220   2.049   4.760   1.918
 4360SOL     OW30221   5.031   1.222   7.147
 4360SOL    HW130222   5.056   1.292   7.208
 4360SOL    HW230223   4.987   1.268   7.075
 4361SOL     OW30224   0.394   0.963   1.084
 4361SOL    HW130225   0.405   0.917   1.001
 4361SOL    HW230226   0.480   0.955   1.126
 4362SOL     OW30227   5.034   2.367   0.433
 4362SOL    HW130228   5.048   2.460   0.419
 4362SOL    HW230229   4.967   2.362   0.501
 4363SOL     OW30230   0.777   2.783   1.223
 4363SOL    HW130231   0.768   2.688   1.224
 4363SOL    HW230232   0.736   2.811   1.142
 4364SOL     OW30233   1.087   5.881   6.523
 4364SOL    HW130234   1.032   5.891   6.445
 4364SOL    HW230235   1.028   5.902   6.596
 4365SOL     OW30236   0.654   1.994   1.097
 4365SOL    HW130237   0.616   1.908   1.112
 4365SOL    HW230238   0.620   2.048   1.168
 4366SOL     OW30239   5.208   2.404   6.536
 4366SOL    HW130240   5.260   2.324   6.542
 4366SOL    HW230241   5.117   2.373   6.528
 4367SOL     OW30242   4.586   4.684   0.343
 4367SOL    HW130243   4.638   4.608   0.367
 4367SOL    HW230244   4.649   4.756   0.341
 4368SOL     OW30245   6.157   5.613   2.130
 4368SOL    HW130246   6.234   5.630   2.185
 4368SOL    HW230247   6.126   5.699   2.103
 4369SOL     OW30248   2.696   5.432   6.586
 4369SOL    HW130249   2.626   5.420   6.522
 4369SOL    HW230250   2.766   5.477   6.536
 4370SOL     OW30251   2.766   2.299   0.026
 4370SOL    HW130252   2.830   2.287  -0.044
 4370SOL    HW230253   2.682   2.304  -0.018
 4371SOL     OW30254   5.956   3.808   0.818
 4371SOL    HW130255   5.933   3.743   0.884
 4371SOL    HW230256   6.048   3.793   0.800
 4372SOL     OW30257   1.614   3.636   6.925
 4372SOL    HW130258   1.610   3.730   6.943
 4372SOL    HW230259   1.529   3.616   6.884
 4373SOL     OW30260   1.388   0.541   0.993
 4373SOL    HW130261   1.364   0.449   0.993
 4373SOL    HW230262   1.321   0.584   0.940
 4374SOL     OW30263   3.813   0.186   1.644
 4374SOL    HW130264   3.759   0.264   1.653
 4374SOL    HW230265   3.778   0.124   1.707
 4375SOL     OW30266   1.393   4.894   7.666
 4375SOL    HW130267   1.367   4.818   7.718
 4375SOL    HW230268   1.451   4.944   7.724
 4376SOL     OW30269   1.049   1.386   0.601
 4376SOL    HW130270   1.135   1.410   0.567
 4376SOL    HW230271   1.045   1.426   0.688
 4377SOL     OW30272   6.057   3.665   6.312
 4377SOL    HW130273   6.055   3.572   6.290
 4377SOL    HW230274   5.965   3.692   6.312
 4378SOL     OW30275   4.261   6.291   0.217
 4378SOL    HW130276   4.346   6.247   0.223
 4378SOL    HW230277   4.278   6.380   0.249
 4379SOL     OW30278   5.625   0.727   6.630
 4379SOL    HW130279   5.707   0.717   6.582
 4379SOL    HW230280   5.573   0.787   6.576
 4380SOL     OW30281   3.147   1.395   5.627
 4380SOL    HW130282   3.181   1.340   5.698
 4380SOL    HW230283   3.133   1.481   5.667
 4381SOL     OW30284   3.181   2.400   0.504
 4381SOL    HW130285   3.120   2.398   0.578
 4381SOL    HW230286   3.265   2.425   0.543
 4382SOL     OW30287   2.593   5.585   0.329
 4382SOL    HW130288   2.610   5.509   0.385
 4382SOL    HW230289   2.559   5.548   0.248
 4383SOL     OW30290   3.052   4.761   0.098
 4383SOL    HW130291   3.056   4.686   0.157
 4383SOL    HW230292   3.024   4.833   0.154
 4384SOL     OW30293   5.771   2.696   6.222
 4384SOL    HW130294   5.798   2.676   6.133
 4384SOL    HW230295   5.677   2.710   6.216
 4385SOL     OW30296   0.439   5.346   0.313
 4385SOL    HW130297   0.397   5.354   0.399
 4385SOL    HW230298   0.533   5.346   0.332
 4386SOL     OW30299   0.735   2.899   1.462
 4386SOL    HW130300   0.757   2.874   1.372
 4386SOL    HW230301   0.640   2.891   1.467
 4387SOL     OW30302   0.585   6.306   5.631
 4387SOL    HW130303   0.585   6.396   5.663
 4387SOL    HW230304   0.507   6.267   5.670
 4388SOL     OW30305   0.115   1.745   1.316
 4388SOL    HW130306   0.162   1.730   1.398
 4388SOL    HW230307   0.175   1.797   1.263
 4389SOL     OW30308   2.126   5.697   0.297
 4389SOL    HW130309   2.076   5.756   0.241
 4389SOL    HW230310   2.201   5.670   0.244
 4390SOL     OW30311   2.180   0.007   0.134
 4390SOL    HW130312   2.247   0.003   0.065
 4390SOL    HW230313   2.148   0.097   0.131
 4391SOL     OW30314   6.045   0.878   1.980
 4391SOL    HW130315   6.139   0.892   1.992
 4391SOL    HW230316   6.019   0.945   1.916
 4392SOL     OW30317   2.871   0.137   6.164
 4392SOL    HW130318   2.775   0.134   6.154
 4392SOL    HW230319   2.899   0.205   6.103
 4393SOL     OW30320   1.036   5.998   0.858
 4393SOL    HW130321   1.098   5.936   0.819
 4393SOL    HW230322   1.035   6.072   0.797
 4394SOL     OW30323   5.784   0.156   7.549
 4394SOL    HW130324   5.858   0.133   7.606
 4394SOL    HW230325   5.825   0.182   7.466
 4395SOL     OW30326   3.843   4.241   7.282
 4395SOL    HW130327   3.833   4.157   7.236
 4395SOL    HW230328   3.842   4.219   7.375
 4396SOL     OW30329   3.329   4.057   6.705
 4396SOL    HW130330   3.234   4.061   6.702
 4396SOL    HW230331   3.357   4.148   6.703
 4397SOL     OW30332   3.311   1.658   1.726
 4397SOL    HW130333   3.276   1.671   1.814
 4397SOL    HW230334   3.402   1.631   1.739
 4398SOL     OW30335   3.228   0.518   5.912
 4398SOL    HW130336   3.143   0.554   5.888
 4398SOL    HW230337   3.270   0.586   5.964
 4399SOL     OW30338   0.580   3.011   1.146
 4399SOL    HW130339   0.544   2.985   1.231
 4399SOL    HW230340   0.605   3.103   1.157
 4400SOL     OW30341   6.442   0.905   6.582
 4400SOL    HW130342   6.418   0.997   6.594
 4400SOL    HW230343   6.478   0.879   6.667
 4401SOL     OW30344   4.533   1.180   6.666
 4401SOL    HW130345   4.622   1.171   6.699
 4401SOL    HW230346   4.544   1.201   6.574
 4402SOL     OW30347   0.680   3.341   0.737
 4402SOL    HW130348   0.651   3.251   0.753
 4402SOL    HW230349   0.661   3.357   0.645
 4403SOL     OW30350   5.501   0.698   0.793
 4403SOL    HW130351   5.441   0.626   0.812
 4403SOL    HW230352   5.576   0.656   0.750
 4404SOL     OW30353   4.357   1.375   6.718
 4404SOL    HW130354   4.342   1.419   6.802
 4404SOL    HW230355   4.433   1.319   6.734
 4405SOL     OW30356   4.244   4.979   6.654
 4405SOL    HW130357   4.308   4.986   6.725
 4405SOL    HW230358   4.203   5.066   6.650
 4406SOL     OW30359   3.878   5.098   6.940
 4406SOL    HW130360   3.915   5.165   6.997
 4406SOL    HW230361   3.923   5.017   6.965
 4407SOL     OW30362   5.384   1.436   6.771
 4407SOL    HW130363   5.343   1.349   6.779
 4407SOL    HW230364   5.321   1.488   6.722
 4408SOL     OW30365   5.064   1.301   0.189
 4408SOL    HW130366   5.037   1.259   0.108
 4408SOL    HW230367   5.016   1.384   0.192
 4409SOL     OW30368   3.442   5.379   1.553
 4409SOL    HW130369   3.463   5.378   1.460
 4409SOL    HW230370   3.379   5.307   1.565
 4410SOL     OW30371   6.057   4.283   7.050
 4410SOL    HW130372   6.098   4.331   7.121
 4410SOL    HW230373   6.046   4.194   7.084
 4411SOL     OW30374   1.312   3.565   0.638
 4411SOL    HW130375   1.405   3.553   0.656
 4411SOL    HW230376   1.288   3.643   0.688
 4412SOL     OW30377   3.729   4.507   7.580
 4412SOL    HW130378   3.769   4.426   7.611
 4412SOL    HW230379   3.790   4.540   7.513
 4413SOL     OW30380   2.834   0.895   7.758
 4413SOL    HW130381   2.835   0.809   7.799
 4413SOL    HW230382   2.803   0.879   7.669
 4414SOL     OW30383   5.802   3.234   0.651
 4414SOL    HW130384   5.783   3.230   0.745
 4414SOL    HW230385   5.716   3.234   0.609
 4415SOL     OW30386   6.406   2.841   6.922
 4415SOL    HW130387   6.457   2.855   6.843
 4415SOL    HW230388   6.471   2.835   6.992
 4416SOL     OW30389   3.698   2.607   1.180
 4416SOL    HW130390   3.680   2.543   1.112
 4416SOL    HW230391   3.627   2.670   1.174
 4417SOL     OW30392   3.324   2.662   6.580
 4417SOL    HW130393   3.296   2.607   6.507
 4417SOL    HW230394   3.389   2.720   6.542
 4418SOL     OW30395   1.708   6.200   1.916
 4418SOL    HW130396   1.691   6.281   1.963
 4418SOL    HW230397   1.714   6.226   1.824
 4419SOL     OW30398   5.467   0.593   1.112
 4419SOL    HW130399   5.418   0.578   1.031
 4419SOL    HW230400   5.458   0.687   1.128
 4420SOL     OW30401   1.514   4.157   2.354
 4420SOL    HW130402   1.424   4.131   2.373
 4420SOL    HW230403   1.548   4.190   2.438
 4421SOL     OW30404   2.746   6.224   0.810
 4421SOL    HW130405   2.735   6.220   0.905
 4421SOL    HW230406   2.758   6.318   0.791
 4422SOL     OW30407   4.989   1.053   1.321
 4422SOL    HW130408   4.894   1.043   1.320
 4422SOL    HW230409   5.019   0.997   1.249
 4423SOL     OW30410   3.521   5.878   1.555
 4423SOL    HW130411   3.478   5.932   1.620
 4423SOL    HW230412   3.531   5.792   1.597
 4424SOL     OW30413   2.812   6.360   6.566
 4424SOL    HW130414   2.769   6.333   6.485
 4424SOL    HW230415   2.889   6.304   6.573
 4425SOL     OW30416   3.123   2.938   2.538
 4425SOL    HW130417   3.085   2.998   2.602
 4425SOL    HW230418   3.049   2.913   2.482
 4426SOL     OW30419   1.712   5.526   6.786
 4426SOL    HW130420   1.630   5.552   6.829
 4426SOL    HW230421   1.738   5.446   6.832
 4427SOL     OW30422   0.193   5.580   0.163
 4427SOL    HW130423   0.160   5.526   0.091
 4427SOL    HW230424   0.288   5.577   0.154
 4428SOL     OW30425   2.932   5.511   1.345
 4428SOL    HW130426   2.934   5.570   1.420
 4428SOL    HW230427   2.846   5.525   1.305
 4429SOL     OW30428   4.744   3.150   1.823
 4429SOL    HW130429   4.746   3.158   1.728
 4429SOL    HW230430   4.821   3.197   1.854
 4430SOL     OW30431   3.956   2.807   0.261
 4430SOL    HW130432   4.029   2.750   0.239
 4430SOL    HW230433   3.890   2.749   0.297
 4431SOL     OW30434   0.052   1.311   1.702
 4431SOL    HW130435  -0.010   1.383   1.689
 4431SOL    HW230436   0.122   1.327   1.638
 4432SOL     OW30437   2.365   1.544   0.595
 4432SOL    HW130438   2.427   1.513   0.529
 4432SOL    HW230439   2.402   1.514   0.678
 4433SOL     OW30440   6.153   5.355   2.870
 4433SOL    HW130441   6.150   5.265   2.836
 4433SOL    HW230442   6.123   5.348   2.961
 4434SOL     OW30443   0.148   2.685   1.478
 4434SOL    HW130444   0.105   2.771   1.477
 4434SOL    HW230445   0.215   2.693   1.546
 4435SOL     OW30446   1.953   5.099   6.847
 4435SOL    HW130447   2.014   5.057   6.908
 4435SOL    HW230448   2.008   5.134   6.778
 4436SOL     OW30449   0.604   3.531   6.388
 4436SOL    HW130450   0.680   3.508   6.334
 4436SOL    HW230451   0.543   3.570   6.326
 4437SOL     OW30452   3.778   4.579   1.066
 4437SOL    HW130453   3.789   4.673   1.081
 4437SOL    HW230454   3.740   4.545   1.147
 4438SOL     OW30455   1.243   0.886   1.710
 4438SOL    HW130456   1.275   0.830   1.639
 4438SOL    HW230457   1.322   0.913   1.756
 4439SOL     OW30458   6.260   0.025   6.465
 4439SOL    HW130459   6.351   0.034   6.437
 4439SOL    HW230460   6.260  -0.051   6.522
 4440SOL     OW30461   1.100   5.016   6.852
 4440SOL    HW130462   1.043   5.001   6.776
 4440SOL    HW230463   1.174   5.066   6.817
 4441SOL     OW30464   5.258   1.882   1.603
 4441SOL    HW130465   5.326   1.843   1.658
 4441SOL    HW230466   5.300   1.894   1.518
 4442SOL     OW30467   3.210   5.860   2.081
 4442SOL    HW130468   3.176   5.772   2.094
 4442SOL    HW230469   3.261   5.878   2.160
 4443SOL     OW30470   3.620   3.274   0.407
 4443SOL    HW130471   3.649   3.249   0.319
 4443SOL    HW230472   3.531   3.308   0.395
 4444SOL     OW30473   3.776   5.333   0.089
 4444SOL    HW130474   3.703   5.350   0.149
 4444SOL    HW230475   3.839   5.402   0.108
 4445SOL     OW30476   1.291   0.361   1.263
 4445SOL    HW130477   1.206   0.324   1.241
 4445SOL    HW230478   1.307   0.426   1.194
 4446SOL     OW30479   0.597   3.873   1.277
 4446SOL    HW130480   0.578   3.851   1.186
 4446SOL    HW230481   0.602   3.969   1.277
 4447SOL     OW30482   4.431   4.745   1.514
 4447SOL    HW130483   4.518   4.716   1.539
 4447SOL    HW230484   4.382   4.747   1.596
 4448SOL     OW30485   2.687   1.257   7.253
 4448SOL    HW130486   2.731   1.177   7.281
 4448SOL    HW230487   2.673   1.246   7.159
 4449SOL     OW30488   0.557   0.820   2.039
 4449SOL    HW130489   0.620   0.855   1.976
 4449SOL    HW230490   0.561   0.879   2.114
 4450SOL     OW30491   0.552   4.766   1.056
 4450SOL    HW130492   0.552   4.791   0.963
 4450SOL    HW230493   0.635   4.800   1.089
 4451SOL     OW30494   3.080   5.211   0.374
 4451SOL    HW130495   3.156   5.171   0.331
 4451SOL    HW230496   3.064   5.291   0.325
 4452SOL     OW30497   4.727   3.267   7.019
 4452SOL    HW130498   4.799   3.244   6.960
 4452SOL    HW230499   4.717   3.361   7.009
 4453SOL     OW30500   2.698   2.123   0.349
 4453SOL    HW130501   2.613   2.081   0.336
 4453SOL    HW230502   2.759   2.072   0.297
 4454SOL     OW30503   4.784   2.134   6.590
 4454SOL    HW130504   4.806   2.192   6.663
 4454SOL    HW230505   4.707   2.085   6.621
 4455SOL     OW30506   2.370   5.263   7.220
 4455SOL    HW130507   2.399   5.172   7.221
 4455SOL    HW230508   2.422   5.304   7.151
 4456SOL     OW30509   0.693   3.822   0.370
 4456SOL    HW130510   0.616   3.836   0.315
 4456SOL    HW230511   0.761   3.874   0.329
 4457SOL     OW30512   4.561   0.125   0.774
 4457SOL    HW130513   4.559   0.136   0.870
 4457SOL    HW230514   4.635   0.178   0.746
 4458SOL     OW30515   5.892   4.129   0.345
 4458SOL    HW130516   5.894   4.034   0.357
 4458SOL    HW230517   5.961   4.147   0.281
 4459SOL     OW30518   1.697   4.670   6.078
 4459SOL    HW130519   1.714   4.752   6.031
 4459SOL    HW230520   1.648   4.696   6.155
 4460SOL     OW30521   5.062   5.625   2.537
 4460SOL    HW130522   5.139   5.676   2.511
 4460SOL    HW230523   5.049   5.564   2.465
 4461SOL     OW30524   1.369   1.082   0.012
 4461SOL    HW130525   1.352   1.126  -0.071
 4461SOL    HW230526   1.399   0.995  -0.014
 4462SOL     OW30527   4.391   1.680   0.397
 4462SOL    HW130528   4.436   1.620   0.337
 4462SOL    HW230529   4.425   1.656   0.483
 4463SOL     OW30530   2.570   2.988   2.343
 4463SOL    HW130531   2.623   2.957   2.416
 4463SOL    HW230532   2.634   3.009   2.275
 4464SOL     OW30533   0.432   6.288   1.350
 4464SOL    HW130534   0.356   6.318   1.300
 4464SOL    HW230535   0.421   6.328   1.437
 4465SOL     OW30536   2.018   2.530   2.831
 4465SOL    HW130537   2.055   2.443   2.818
 4465SOL    HW230538   2.086   2.589   2.798
 4466SOL     OW30539   5.903   0.660   1.592
 4466SOL    HW130540   5.977   0.695   1.642
 4466SOL    HW230541   5.861   0.737   1.554
 4467SOL     OW30542   4.164   3.786   0.336
 4467SOL    HW130543   4.118   3.703   0.343
 4467SOL    HW230544   4.199   3.787   0.247
 4468SOL     OW30545   5.081   2.732   7.030
 4468SOL    HW130546   5.165   2.767   7.000
 4468SOL    HW230547   5.105   2.668   7.098
 4469SOL     OW30548   1.517   3.267   0.744
 4469SOL    HW130549   1.498   3.281   0.836
 4469SOL    HW230550   1.532   3.354   0.708
 4470SOL     OW30551   1.633   1.539   7.720
 4470SOL    HW130552   1.569   1.501   7.781
 4470SOL    HW230553   1.626   1.633   7.734
 4471SOL     OW30554   4.656   3.616   0.476
 4471SOL    HW130555   4.689   3.544   0.422
 4471SOL    HW230556   4.563   3.596   0.489
 4472SOL     OW30557   4.566   3.656   6.213
 4472SOL    HW130558   4.557   3.743   6.175
 4472SOL    HW230559   4.636   3.665   6.278
 4473SOL     OW30560   0.497   4.071   7.605
 4473SOL    HW130561   0.441   4.096   7.531
 4473SOL    HW230562   0.575   4.125   7.596
 4474SOL     OW30563   4.411   3.706   5.908
 4474SOL    HW130564   4.333   3.699   5.854
 4474SOL    HW230565   4.393   3.778   5.968
 4475SOL     OW30566   1.205   6.021   7.057
 4475SOL    HW130567   1.264   5.952   7.088
 4475SOL    HW230568   1.121   5.999   7.096
 4476SOL     OW30569   1.508   2.789   7.645
 4476SOL    HW130570   1.530   2.848   7.717
 4476SOL    HW230571   1.546   2.705   7.671
 4477SOL     OW30572   2.039   4.419   6.172
 4477SOL    HW130573   1.960   4.411   6.225
 4477SOL    HW230574   2.090   4.340   6.191
 4478SOL     OW30575   2.346   4.980   2.830
 4478SOL    HW130576   2.287   4.909   2.802
 4478SOL    HW230577   2.385   4.948   2.911
 4479SOL     OW30578   2.839   0.445   0.643
 4479SOL    HW130579   2.817   0.412   0.730
 4479SOL    HW230580   2.770   0.412   0.586
 4480SOL     OW30581   3.519   5.347   7.726
 4480SOL    HW130582   3.473   5.396   7.794
 4480SOL    HW230583   3.605   5.328   7.764
 4481SOL     OW30584   0.063   1.034   7.330
 4481SOL    HW130585   0.129   0.979   7.373
 4481SOL    HW230586   0.003   0.972   7.289
 4482SOL     OW30587   2.912   4.339   0.095
 4482SOL    HW130588   2.825   4.311   0.124
 4482SOL    HW230589   2.900   4.360   0.002
 4483SOL     OW30590   3.651   4.365   7.113
 4483SOL    HW130591   3.695   4.328   7.190
 4483SOL    HW230592   3.657   4.459   7.125
 4484SOL     OW30593   3.543   5.222   2.179
 4484SOL    HW130594   3.572   5.173   2.256
 4484SOL    HW230595   3.592   5.183   2.107
 4485SOL     OW30596   4.829   1.752   6.815
 4485SOL    HW130597   4.889   1.820   6.845
 4485SOL    HW230598   4.774   1.795   6.750
 4486SOL     OW30599   2.517   1.956   0.805
 4486SOL    HW130600   2.525   2.037   0.756
 4486SOL    HW230601   2.446   1.908   0.762
 4487SOL     OW30602   5.387   1.033   7.499
 4487SOL    HW130603   5.412   0.999   7.413
 4487SOL    HW230604   5.332   0.965   7.537
 4488SOL     OW30605   5.320   4.267   0.309
 4488SOL    HW130606   5.400   4.320   0.312
 4488SOL    HW230607   5.351   4.177   0.303
 4489SOL     OW30608   1.413   5.425   0.194
 4489SOL    HW130609   1.397   5.335   0.163
 4489SOL    HW230610   1.440   5.472   0.116
 4490SOL     OW30611   2.350   4.114   0.829
 4490SOL    HW130612   2.307   4.151   0.906
 4490SOL    HW230613   2.442   4.106   0.855
 4491SOL     OW30614   2.345   4.938   0.954
 4491SOL    HW130615   2.430   4.967   0.987
 4491SOL    HW230616   2.285   4.951   1.027
 4492SOL     OW30617   3.211   2.610   2.689
 4492SOL    HW130618   3.166   2.686   2.726
 4492SOL    HW230619   3.240   2.640   2.603
 4493SOL     OW30620   2.504   5.959   1.726
 4493SOL    HW130621   2.530   6.003   1.806
 4493SOL    HW230622   2.485   5.869   1.752
 4494SOL     OW30623   4.209   4.458   2.778
 4494SOL    HW130624   4.281   4.422   2.830
 4494SOL    HW230625   4.221   4.553   2.783
 4495SOL     OW30626   3.071   3.017   0.413
 4495SOL    HW130627   3.050   2.935   0.369
 4495SOL    HW230628   3.094   2.992   0.502
 4496SOL     OW30629   2.436   1.392   7.195
 4496SOL    HW130630   2.499   1.443   7.145
 4496SOL    HW230631   2.489   1.342   7.257
 4497SOL     OW30632   1.086   2.587   6.792
 4497SOL    HW130633   1.019   2.526   6.822
 4497SOL    HW230634   1.165   2.533   6.782
 4498SOL     OW30635   0.208   3.094   0.044
 4498SOL    HW130636   0.122   3.054   0.043
 4498SOL    HW230637   0.197   3.175  -0.007
 4499SOL     OW30638   6.107   5.912   7.712
 4499SOL    HW130639   6.083   6.004   7.728
 4499SOL    HW230640   6.194   5.903   7.752
 4500SOL     OW30641   2.751   3.012   7.035
 4500SOL    HW130642   2.674   3.016   6.977
 4500SOL    HW230643   2.730   3.072   7.107
 4501SOL     OW30644   1.808   4.480   0.148
 4501SOL    HW130645   1.845   4.518   0.228
 4501SOL    HW230646   1.777   4.394   0.174
 4502SOL     OW30647   2.200   0.813   1.022
 4502SOL    HW130648   2.155   0.780   0.944
 4502SOL    HW230649   2.163   0.900   1.035
 4503SOL     OW30650   3.675   0.720   0.733
 4503SOL    HW130651   3.653   0.627   0.730
 4503SOL    HW230652   3.771   0.721   0.729
 4504SOL     OW30653   6.150   1.033   7.705
 4504SOL    HW130654   6.112   1.050   7.619
 4504SOL    HW230655   6.075   1.026   7.764
 4505SOL     OW30656   4.489   3.604   0.738
 4505SOL    HW130657   4.503   3.613   0.833
 4505SOL    HW230658   4.533   3.680   0.700
 4506SOL     OW30659   1.920   6.436   1.440
 4506SOL    HW130660   1.897   6.425   1.348
 4506SOL    HW230661   2.001   6.386   1.451
 4507SOL     OW30662   2.139   5.149   7.300
 4507SOL    HW130663   2.207   5.210   7.270
 4507SOL    HW230664   2.137   5.159   7.395
 4508SOL     OW30665   2.385   5.344   0.440
 4508SOL    HW130666   2.348   5.432   0.437
 4508SOL    HW230667   2.309   5.286   0.442
 4509SOL     OW30668   1.497   6.345   7.631
 4509SOL    HW130669   1.586   6.372   7.652
 4509SOL    HW230670   1.490   6.357   7.536
 4510SOL     OW30671   4.538   4.879   1.017
 4510SOL    HW130672   4.543   4.921   1.104
 4510SOL    HW230673   4.519   4.787   1.036
 4511SOL     OW30674   3.688   3.404   2.003
 4511SOL    HW130675   3.710   3.480   2.056
 4511SOL    HW230676   3.772   3.368   1.975
 4512SOL     OW30677   4.961   3.214   1.361
 4512SOL    HW130678   4.958   3.134   1.307
 4512SOL    HW230679   5.030   3.266   1.321
 4513SOL     OW30680   5.306   3.370   0.448
 4513SOL    HW130681   5.381   3.426   0.427
 4513SOL    HW230682   5.250   3.425   0.504
 4514SOL     OW30683   5.413   0.287   6.161
 4514SOL    HW130684   5.436   0.380   6.159
 4514SOL    HW230685   5.417   0.258   6.070
 4515SOL     OW30686   5.966   0.867   6.921
 4515SOL    HW130687   5.948   0.905   6.835
 4515SOL    HW230688   5.892   0.809   6.937
 4516SOL     OW30689   1.237   3.916   7.390
 4516SOL    HW130690   1.294   3.906   7.313
 4516SOL    HW230691   1.149   3.919   7.354
 4517SOL     OW30692   0.602   4.892   5.804
 4517SOL    HW130693   0.586   4.809   5.850
 4517SOL    HW230694   0.684   4.924   5.842
 4518SOL     OW30695   4.650   5.978   7.064
 4518SOL    HW130696   4.694   5.959   6.981
 4518SOL    HW230697   4.562   5.942   7.053
 4519SOL     OW30698   4.400   3.123   7.157
 4519SOL    HW130699   4.376   3.061   7.226
 4519SOL    HW230700   4.479   3.167   7.190
 4520SOL     OW30701   3.471   0.642   7.287
 4520SOL    HW130702   3.505   0.556   7.313
 4520SOL    HW230703   3.530   0.704   7.329
 4521SOL     OW30704   1.619   2.083   5.957
 4521SOL    HW130705   1.603   1.997   5.919
 4521SOL    HW230706   1.702   2.110   5.920
 4522SOL     OW30707   3.024   4.219   2.068
 4522SOL    HW130708   3.070   4.154   2.121
 4522SOL    HW230709   2.949   4.244   2.122
 4523SOL     OW30710   0.921   0.117   0.435
 4523SOL    HW130711   0.886   0.206   0.427
 4523SOL    HW230712   1.016   0.128   0.426
 4524SOL     OW30713   1.005   3.565   2.451
 4524SOL    HW130714   1.047   3.605   2.527
 4524SOL    HW230715   0.961   3.637   2.407
 4525SOL     OW30716   2.717   2.010   1.631
 4525SOL    HW130717   2.782   2.067   1.672
 4525SOL    HW230718   2.763   1.972   1.556
 4526SOL     OW30719   4.712   4.959   7.634
 4526SOL    HW130720   4.732   5.043   7.674
 4526SOL    HW230721   4.627   4.935   7.671
 4527SOL     OW30722   3.242   2.264   2.001
 4527SOL    HW130723   3.154   2.278   1.967
 4527SOL    HW230724   3.266   2.348   2.041
 4528SOL     OW30725   3.474   3.599   6.472
 4528SOL    HW130726   3.390   3.594   6.516
 4528SOL    HW230727   3.453   3.630   6.383
 4529SOL     OW30728   3.695   5.461   0.364
 4529SOL    HW130729   3.788   5.444   0.378
 4529SOL    HW230730   3.652   5.429   0.443
 4530SOL     OW30731   0.175   6.255   6.561
 4530SOL    HW130732   0.150   6.288   6.475
 4530SOL    HW230733   0.226   6.176   6.542
 4531SOL     OW30734   0.603   6.045   7.119
 4531SOL    HW130735   0.508   6.046   7.108
 4531SOL    HW230736   0.616   6.038   7.213
 4532SOL     OW30737   1.665   4.130   0.023
 4532SOL    HW130738   1.761   4.127   0.027
 4532SOL    HW230739   1.643   4.070  -0.048
 4533SOL     OW30740   5.698   2.121   0.398
 4533SOL    HW130741   5.787   2.151   0.376
 4533SOL    HW230742   5.653   2.201   0.424
 4534SOL     OW30743   0.762   2.953   7.453
 4534SOL    HW130744   0.772   2.917   7.540
 4534SOL    HW230745   0.729   2.881   7.400
 4535SOL     OW30746   2.162   6.074   7.268
 4535SOL    HW130747   2.096   6.123   7.218
 4535SOL    HW230748   2.152   5.983   7.238
 4536SOL     OW30749   3.216   0.268   6.853
 4536SOL    HW130750   3.197   0.236   6.765
 4536SOL    HW230751   3.274   0.202   6.891
 4537SOL     OW30752   2.330   0.976   0.785
 4537SOL    HW130753   2.238   0.979   0.809
 4537SOL    HW230754   2.330   0.978   0.689
 4538SOL     OW30755   2.681   3.030   7.346
 4538SOL    HW130756   2.696   2.937   7.356
 4538SOL    HW230757   2.628   3.055   7.421
 4539SOL     OW30758   4.327   0.086   0.335
 4539SOL    HW130759   4.374   0.106   0.416
 4539SOL    HW230760   4.394   0.095   0.267
 4540SOL     OW30761   0.018   2.978   6.105
 4540SOL    HW130762   0.048   3.025   6.028
 4540SOL    HW230763  -0.059   3.028   6.135
 4541SOL     OW30764   6.299   4.439   0.215
 4541SOL    HW130765   6.303   4.514   0.275
 4541SOL    HW230766   6.254   4.371   0.265
 4542SOL     OW30767   0.260   0.641   0.828
 4542SOL    HW130768   0.190   0.585   0.794
 4542SOL    HW230769   0.266   0.617   0.921
 4543SOL     OW30770   3.005   5.608   7.512
 4543SOL    HW130771   2.918   5.569   7.506
 4543SOL    HW230772   3.029   5.628   7.422
 4544SOL     OW30773   5.099   1.696   6.972
 4544SOL    HW130774   5.046   1.643   6.912
 4544SOL    HW230775   5.044   1.771   6.994
 4545SOL     OW30776   2.394   6.251   1.986
 4545SOL    HW130777   2.426   6.312   2.053
 4545SOL    HW230778   2.466   6.191   1.972
 4546SOL     OW30779   0.432   2.518   0.894
 4546SOL    HW130780   0.500   2.460   0.861
 4546SOL    HW230781   0.376   2.536   0.819
 4547SOL     OW30782   0.024   1.147   0.943
 4547SOL    HW130783  -0.048   1.127   0.883
 4547SOL    HW230784  -0.018   1.191   1.017
 4548SOL     OW30785   4.710   5.618   1.909
 4548SOL    HW130786   4.710   5.547   1.845
 4548SOL    HW230787   4.663   5.582   1.984
 4549SOL     OW30788   0.237   0.515   0.087
 4549SOL    HW130789   0.305   0.538   0.152
 4549SOL    HW230790   0.177   0.589   0.088
 4550SOL     OW30791   5.711   1.034   1.303
 4550SOL    HW130792   5.664   1.065   1.381
 4550SOL    HW230793   5.723   1.113   1.250
 4551SOL     OW30794   2.597   6.048   1.494
 4551SOL    HW130795   2.686   6.030   1.523
 4551SOL    HW230796   2.542   6.024   1.568
 4552SOL     OW30797   2.122   2.707   1.986
 4552SOL    HW130798   2.176   2.700   1.908
 4552SOL    HW230799   2.117   2.802   2.002
 4553SOL     OW30800   3.012   1.034   0.636
 4553SOL    HW130801   3.063   1.112   0.616
 4553SOL    HW230802   2.985   1.045   0.727
 4554SOL     OW30803   2.348   5.148   7.685
 4554SOL    HW130804   2.369   5.188   7.770
 4554SOL    HW230805   2.274   5.199   7.653
 4555SOL     OW30806   4.591   2.291   0.233
 4555SOL    HW130807   4.567   2.292   0.140
 4555SOL    HW230808   4.550   2.369   0.269
 4556SOL     OW30809   4.176   4.198   1.544
 4556SOL    HW130810   4.252   4.256   1.553
 4556SOL    HW230811   4.114   4.231   1.609
 4557SOL     OW30812   0.213   1.902   0.189
 4557SOL    HW130813   0.288   1.895   0.130
 4557SOL    HW230814   0.170   1.983   0.164
 4558SOL     OW30815   0.940   4.828   1.170
 4558SOL    HW130816   1.024   4.804   1.210
 4558SOL    HW230817   0.944   4.923   1.162
 4559SOL     OW30818   6.285   0.261   7.622
 4559SOL    HW130819   6.297   0.189   7.560
 4559SOL    HW230820   6.216   0.315   7.584
 4560SOL     OW30821   1.245   4.941   5.502
 4560SOL    HW130822   1.165   4.907   5.542
 4560SOL    HW230823   1.231   4.932   5.408
 4561SOL     OW30824   3.613   1.617   0.290
 4561SOL    HW130825   3.547   1.687   0.290
 4561SOL    HW230826   3.696   1.662   0.300
 4562SOL     OW30827   5.432   1.188   1.185
 4562SOL    HW130828   5.471   1.239   1.114
 4562SOL    HW230829   5.339   1.183   1.164
 4563SOL     OW30830   1.093   1.083   7.186
 4563SOL    HW130831   1.055   1.140   7.118
 4563SOL    HW230832   1.053   1.112   7.267
 4564SOL     OW30833   0.104   1.943   6.502
 4564SOL    HW130834   0.197   1.933   6.480
 4564SOL    HW230835   0.095   2.034   6.528
 4565SOL     OW30836   3.686   1.392   1.611
 4565SOL    HW130837   3.753   1.339   1.654
 4565SOL    HW230838   3.687   1.362   1.520
 4566SOL     OW30839   3.943   1.075   6.655
 4566SOL    HW130840   3.981   1.160   6.634
 4566SOL    HW230841   3.894   1.050   6.577
 4567SOL     OW30842   3.583   1.010   6.843
 4567SOL    HW130843   3.515   0.979   6.903
 4567SOL    HW230844   3.656   0.949   6.855
 4568SOL     OW30845   0.764   0.164   6.992
 4568SOL    HW130846   0.703   0.152   7.065
 4568SOL    HW230847   0.723   0.231   6.937
 4569SOL     OW30848   3.769   1.574   2.318
 4569SOL    HW130849   3.729   1.487   2.320
 4569SOL    HW230850   3.742   1.611   2.234
 4570SOL     OW30851   5.758   2.705   0.592
 4570SOL    HW130852   5.676   2.704   0.543
 4570SOL    HW230853   5.756   2.788   0.641
 4571SOL     OW30854   1.998   0.588   7.469
 4571SOL    HW130855   2.000   0.626   7.381
 4571SOL    HW230856   1.958   0.502   7.457
 4572SOL     OW30857   1.621   1.586   5.649
 4572SOL    HW130858   1.541   1.626   5.683
 4572SOL    HW230859   1.681   1.659   5.635
 4573SOL     OW30860   5.961   2.982   0.659
 4573SOL    HW130861   5.919   3.068   0.656
 4573SOL    HW230862   6.021   2.982   0.584
 4574SOL     OW30863   5.443   5.014   0.418
 4574SOL    HW130864   5.408   5.037   0.504
 4574SOL    HW230865   5.367   5.018   0.359
 4575SOL     OW30866   3.013   0.386   6.081
 4575SOL    HW130867   2.966   0.461   6.043
 4575SOL    HW230868   3.102   0.393   6.048
 4576SOL     OW30869   2.287   4.819   1.778
 4576SOL    HW130870   2.227   4.882   1.738
 4576SOL    HW230871   2.372   4.840   1.739
 4577SOL     OW30872   2.063   3.172   1.550
 4577SOL    HW130873   2.147   3.158   1.594
 4577SOL    HW230874   2.014   3.091   1.564
 4578SOL     OW30875   6.336   0.940   5.735
 4578SOL    HW130876   6.304   1.029   5.719
 4578SOL    HW230877   6.366   0.940   5.826
 4579SOL     OW30878   2.438   1.793   0.584
 4579SOL    HW130879   2.419   1.820   0.495
 4579SOL    HW230880   2.402   1.705   0.591
 4580SOL     OW30881   5.820   6.357   6.231
 4580SOL    HW130882   5.826   6.441   6.187
 4580SOL    HW230883   5.905   6.346   6.273
 4581SOL     OW30884   2.535   6.349   1.547
 4581SOL    HW130885   2.484   6.288   1.494
 4581SOL    HW230886   2.554   6.422   1.488
 4582SOL     OW30887   1.831   2.592   6.344
 4582SOL    HW130888   1.860   2.647   6.271
 4582SOL    HW230889   1.798   2.513   6.302
 4583SOL     OW30890   4.605   0.788   1.697
 4583SOL    HW130891   4.645   0.850   1.759
 4583SOL    HW230892   4.669   0.718   1.690
 4584SOL     OW30893   0.599   4.451   7.741
 4584SOL    HW130894   0.536   4.452   7.812
 4584SOL    HW230895   0.634   4.541   7.738
 4585SOL     OW30896   3.304   4.943   1.583
 4585SOL    HW130897   3.383   4.968   1.632
 4585SOL    HW230898   3.281   4.857   1.616
 4586SOL     OW30899   4.535   0.632   0.430
 4586SOL    HW130900   4.450   0.591   0.421
 4586SOL    HW230901   4.583   0.576   0.491
 4587SOL     OW30902   2.425   0.852   1.753
 4587SOL    HW130903   2.442   0.812   1.668
 4587SOL    HW230904   2.386   0.937   1.731
 4588SOL     OW30905   5.705   4.888   6.433
 4588SOL    HW130906   5.709   4.887   6.528
 4588SOL    HW230907   5.650   4.814   6.410
 4589SOL     OW30908   1.291   2.467   7.577
 4589SOL    HW130909   1.361   2.402   7.570
 4589SOL    HW230910   1.336   2.552   7.571
 4590SOL     OW30911   4.816   2.740   7.609
 4590SOL    HW130912   4.796   2.712   7.519
 4590SOL    HW230913   4.893   2.797   7.599
 4591SOL     OW30914   2.588   1.331   6.308
 4591SOL    HW130915   2.599   1.240   6.334
 4591SOL    HW230916   2.530   1.327   6.232
 4592SOL     OW30917   0.482   3.684   0.996
 4592SOL    HW130918   0.517   3.598   0.975
 4592SOL    HW230919   0.530   3.744   0.938
 4593SOL     OW30920   3.083   0.941   0.386
 4593SOL    HW130921   3.059   0.956   0.477
 4593SOL    HW230922   3.160   0.996   0.373
 4594SOL     OW30923   0.590   0.773   0.564
 4594SOL    HW130924   0.528   0.700   0.562
 4594SOL    HW230925   0.561   0.826   0.639
 4595SOL     OW30926   2.664   4.315   1.430
 4595SOL    HW130927   2.622   4.392   1.468
 4595SOL    HW230928   2.751   4.312   1.472
 4596SOL     OW30929   5.544   4.350   1.048
 4596SOL    HW130930   5.588   4.310   0.973
 4596SOL    HW230931   5.575   4.441   1.048
 4597SOL     OW30932   0.458   4.342   7.194
 4597SOL    HW130933   0.431   4.433   7.200
 4597SOL    HW230934   0.527   4.333   7.260
 4598SOL     OW30935   5.135   0.587   1.174
 4598SOL    HW130936   5.110   0.672   1.139
 4598SOL    HW230937   5.160   0.605   1.264
 4599SOL     OW30938   2.491   4.606   6.578
 4599SOL    HW130939   2.515   4.699   6.575
 4599SOL    HW230940   2.527   4.569   6.497
 4600SOL     OW30941   1.925   0.084   0.324
 4600SOL    HW130942   2.014   0.115   0.336
 4600SOL    HW230943   1.917   0.010   0.383
 4601SOL     OW30944   0.177   0.728   6.508
 4601SOL    HW130945   0.135   0.813   6.522
 4601SOL    HW230946   0.134   0.693   6.430
 4602SOL     OW30947   5.082   0.448   2.444
 4602SOL    HW130948   5.163   0.435   2.394
 4602SOL    HW230949   5.013   0.453   2.378
 4603SOL     OW30950   6.386   4.196   7.009
 4603SOL    HW130951   6.341   4.144   7.076
 4603SOL    HW230952   6.467   4.224   7.051
 4604SOL     OW30953   5.174   0.708   1.671
 4604SOL    HW130954   5.099   0.695   1.614
 4604SOL    HW230955   5.198   0.620   1.700
 4605SOL     OW30956   0.094   3.004   2.730
 4605SOL    HW130957   0.137   2.929   2.690
 4605SOL    HW230958   0.042   2.966   2.801
 4606SOL     OW30959   4.657   5.620   2.177
 4606SOL    HW130960   4.636   5.714   2.173
 4606SOL    HW230961   4.746   5.617   2.211
 4607SOL     OW30962   6.353   2.065   7.619
 4607SOL    HW130963   6.346   2.113   7.701
 4607SOL    HW230964   6.360   2.134   7.552
 4608SOL     OW30965   4.749   3.953   2.326
 4608SOL    HW130966   4.725   4.041   2.353
 4608SOL    HW230967   4.666   3.910   2.305
 4609SOL     OW30968   0.171   1.270   5.499
 4609SOL    HW130969   0.104   1.334   5.524
 4609SOL    HW230970   0.130   1.185   5.517
 4610SOL     OW30971   2.629   5.749   7.583
 4610SOL    HW130972   2.608   5.749   7.489
 4610SOL    HW230973   2.713   5.795   7.588
 4611SOL     OW30974   4.278   5.922   7.596
 4611SOL    HW130975   4.267   5.985   7.667
 4611SOL    HW230976   4.344   5.861   7.629
 4612SOL     OW30977   4.480   3.585   6.515
 4612SOL    HW130978   4.462   3.549   6.602
 4612SOL    HW230979   4.488   3.507   6.458
 4613SOL     OW30980   5.830   3.039   1.181
 4613SOL    HW130981   5.897   3.016   1.246
 4613SOL    HW230982   5.826   2.963   1.123
 4614SOL     OW30983   3.606   1.987   0.894
 4614SOL    HW130984   3.620   2.019   0.983
 4614SOL    HW230985   3.614   2.064   0.839
 4615SOL     OW30986   3.575   5.912   0.668
 4615SOL    HW130987   3.598   5.962   0.747
 4615SOL    HW230988   3.493   5.951   0.638
 4616SOL     OW30989   5.115   4.093   7.728
 4616SOL    HW130990   5.197   4.113   7.773
 4616SOL    HW230991   5.143   4.057   7.643
 4617SOL     OW30992   3.002   1.662   5.473
 4617SOL    HW130993   2.928   1.640   5.416
 4617SOL    HW230994   3.078   1.620   5.432
 4618SOL     OW30995   2.631   3.288   6.740
 4618SOL    HW130996   2.591   3.294   6.653
 4618SOL    HW230997   2.565   3.243   6.793
 4619SOL     OW30998   2.101   1.495   5.770
 4619SOL    HW130999   2.152   1.419   5.798
 4619SOL    HW231000   2.084   1.543   5.851
 4620SOL     OW31001   4.977   0.426   6.165
 4620SOL    HW131002   4.928   0.384   6.094
 4620SOL    HW231003   5.026   0.496   6.122
 4621SOL     OW31004   5.088   0.983   7.246
 4621SOL    HW131005   5.175   0.953   7.220
 4621SOL    HW231006   5.082   1.071   7.209
 4622SOL     OW31007   6.286   2.201   0.684
 4622SOL    HW131008   6.274   2.123   0.739
 4622SOL    HW231009   6.202   2.246   0.688
 4623SOL     OW31010   1.021   1.382   1.287
 4623SOL    HW131011   0.994   1.297   1.252
 4623SOL    HW231012   1.002   1.375   1.381
 4624SOL     OW31013   5.746   0.611   1.043
 4624SOL    HW131014   5.782   0.674   1.106
 4624SOL    HW231015   5.657   0.595   1.074
 4625SOL     OW31016   1.481   1.653   7.387
 4625SOL    HW131017   1.566   1.613   7.403
 4625SOL    HW231018   1.441   1.600   7.318
 4626SOL     OW31019   1.591   5.948   0.521
 4626SOL    HW131020   1.607   5.893   0.443
 4626SOL    HW231021   1.613   6.037   0.492
 4627SOL     OW31022   2.467   4.834   7.744
 4627SOL    HW131023   2.562   4.845   7.748
 4627SOL    HW231024   2.454   4.756   7.690
 4628SOL     OW31025   0.076   2.641   7.266
 4628SOL    HW131026  -0.005   2.595   7.241
 4628SOL    HW231027   0.098   2.692   7.188
 4629SOL     OW31028   6.443   0.684   0.501
 4629SOL    HW131029   6.513   0.749   0.514
 4629SOL    HW231030   6.470   0.609   0.554
 4630SOL     OW31031   4.991   4.666   2.392
 4630SOL    HW131032   4.959   4.669   2.302
 4630SOL    HW231033   5.083   4.691   2.385
 4631SOL     OW31034   2.409   1.175   1.470
 4631SOL    HW131035   2.358   1.121   1.530
 4631SOL    HW231036   2.350   1.190   1.395
 4632SOL     OW31037   4.598   1.083   0.723
 4632SOL    HW131038   4.655   1.158   0.707
 4632SOL    HW231039   4.582   1.046   0.636
 4633SOL     OW31040   3.953   0.636   0.175
 4633SOL    HW131041   3.914   0.689   0.244
 4633SOL    HW231042   3.880   0.611   0.119
 4634SOL     OW31043   3.793   3.763   5.814
 4634SOL    HW131044   3.820   3.675   5.788
 4634SOL    HW231045   3.867   3.819   5.791
 4635SOL     OW31046   2.885   2.276   2.902
 4635SOL    HW131047   2.931   2.353   2.867
 4635SOL    HW231048   2.847   2.306   2.984
 4636SOL     OW31049   3.639   1.695   6.585
 4636SOL    HW131050   3.708   1.629   6.584
 4636SOL    HW231051   3.560   1.647   6.610
 4637SOL     OW31052   4.747   1.143   7.047
 4637SOL    HW131053   4.780   1.054   7.064
 4637SOL    HW231054   4.774   1.161   6.957
 4638SOL     OW31055   4.627   4.811   2.739
 4638SOL    HW131056   4.553   4.859   2.701
 4638SOL    HW231057   4.655   4.865   2.813
 4639SOL     OW31058   5.637   4.150   1.788
 4639SOL    HW131059   5.671   4.222   1.735
 4639SOL    HW231060   5.612   4.190   1.871
 4640SOL     OW31061   5.691   5.461   7.632
 4640SOL    HW131062   5.689   5.540   7.686
 4640SOL    HW231063   5.611   5.414   7.654
 4641SOL     OW31064   5.724   3.469   5.670
 4641SOL    HW131065   5.721   3.488   5.764
 4641SOL    HW231066   5.669   3.390   5.661
 4642SOL     OW31067   4.540   2.910   0.462
 4642SOL    HW131068   4.463   2.913   0.406
 4642SOL    HW231069   4.601   2.973   0.423
 4643SOL     OW31070   4.798   5.317   0.645
 4643SOL    HW131071   4.776   5.224   0.644
 4643SOL    HW231072   4.718   5.361   0.674
 4644SOL     OW31073   1.505   2.198   1.261
 4644SOL    HW131074   1.530   2.219   1.351
 4644SOL    HW231075   1.489   2.283   1.220
 4645SOL     OW31076   3.274   5.239   6.018
 4645SOL    HW131077   3.304   5.291   6.093
 4645SOL    HW231078   3.345   5.178   6.000
 4646SOL     OW31079   4.918   0.429   1.461
 4646SOL    HW131080   4.984   0.423   1.531
 4646SOL    HW231081   4.933   0.352   1.407
 4647SOL     OW31082   5.574   2.348   0.482
 4647SOL    HW131083   5.596   2.419   0.422
 4647SOL    HW231084   5.480   2.355   0.495
 4648SOL     OW31085   1.349   4.660   0.479
 4648SOL    HW131086   1.337   4.566   0.497
 4648SOL    HW231087   1.335   4.702   0.563
 4649SOL     OW31088   1.015   3.610   6.883
 4649SOL    HW131089   1.002   3.529   6.833
 4649SOL    HW231090   1.048   3.580   6.968
 4650SOL     OW31091   3.811   4.811   0.195
 4650SOL    HW131092   3.834   4.890   0.244
 4650SOL    HW231093   3.756   4.843   0.123
 4651SOL     OW31094   0.568   5.428   2.127
 4651SOL    HW131095   0.601   5.466   2.045
 4651SOL    HW231096   0.613   5.344   2.134
 4652SOL     OW31097   4.033   5.143   0.295
 4652SOL    HW131098   3.971   5.112   0.230
 4652SOL    HW231099   4.026   5.080   0.367
 4653SOL     OW31100   1.919   6.394   2.127
 4653SOL    HW131101   1.840   6.437   2.159
 4653SOL    HW231102   1.981   6.402   2.200
 4654SOL     OW31103   2.981   0.684   1.572
 4654SOL    HW131104   2.900   0.654   1.612
 4654SOL    HW231105   2.977   0.780   1.579
 4655SOL     OW31106   4.353   1.636   7.061
 4655SOL    HW131107   4.301   1.558   7.044
 4655SOL    HW231108   4.442   1.612   7.032
 4656SOL     OW31109   5.866   4.304   1.683
 4656SOL    HW131110   5.940   4.251   1.654
 4656SOL    HW231111   5.895   4.395   1.669
 4657SOL     OW31112   3.320   5.497   7.022
 4657SOL    HW131113   3.256   5.451   7.076
 4657SOL    HW231114   3.293   5.589   7.025
 4658SOL     OW31115   2.240   3.036   7.479
 4658SOL    HW131116   2.184   2.961   7.497
 4658SOL    HW231117   2.324   2.998   7.452
 4659SOL     OW31118   6.003   0.265   0.605
 4659SOL    HW131119   5.927   0.319   0.585
 4659SOL    HW231120   6.077   0.325   0.597
 4660SOL     OW31121   0.164   3.495   1.409
 4660SOL    HW131122   0.070   3.481   1.413
 4660SOL    HW231123   0.186   3.535   1.494
 4661SOL     OW31124   2.427   4.671   0.390
 4661SOL    HW131125   2.422   4.766   0.399
 4661SOL    HW231126   2.519   4.650   0.406
 4662SOL     OW31127   2.821   2.323   0.845
 4662SOL    HW131128   2.831   2.287   0.757
 4662SOL    HW231129   2.728   2.342   0.852
 4663SOL     OW31130   3.445   4.763   2.067
 4663SOL    HW131131   3.438   4.822   2.143
 4663SOL    HW231132   3.536   4.733   2.068
 4664SOL     OW31133   1.433   4.324   1.329
 4664SOL    HW131134   1.435   4.405   1.381
 4664SOL    HW231135   1.424   4.254   1.393
 4665SOL     OW31136   3.814   0.795   7.160
 4665SOL    HW131137   3.853   0.708   7.161
 4665SOL    HW231138   3.852   0.838   7.083
 4666SOL     OW31139   2.620   5.102   6.407
 4666SOL    HW131140   2.617   5.018   6.361
 4666SOL    HW231141   2.668   5.083   6.488
 4667SOL     OW31142   0.409   1.860   5.703
 4667SOL    HW131143   0.414   1.945   5.658
 4667SOL    HW231144   0.500   1.835   5.716
 4668SOL     OW31145   3.091   0.372   0.698
 4668SOL    HW131146   2.999   0.399   0.706
 4668SOL    HW231147   3.132   0.398   0.780
 4669SOL     OW31148   0.961   1.179   7.401
 4669SOL    HW131149   0.874   1.211   7.376
 4669SOL    HW231150   0.948   1.086   7.421
 4670SOL     OW31151   3.537   0.128   0.315
 4670SOL    HW131152   3.539   0.111   0.409
 4670SOL    HW231153   3.562   0.044   0.275
 4671SOL     OW31154   2.996   1.773   0.150
 4671SOL    HW131155   3.056   1.779   0.224
 4671SOL    HW231156   3.050   1.742   0.077
 4672SOL     OW31157   4.637   2.250   7.211
 4672SOL    HW131158   4.554   2.218   7.247
 4672SOL    HW231159   4.698   2.177   7.221
 4673SOL     OW31160   6.313   5.453   5.501
 4673SOL    HW131161   6.275   5.467   5.587
 4673SOL    HW231162   6.337   5.541   5.471
 4674SOL     OW31163   4.902   5.494   0.957
 4674SOL    HW131164   4.843   5.559   0.918
 4674SOL    HW231165   4.904   5.516   1.050
 4675SOL     OW31166   2.677   4.265   0.193
 4675SOL    HW131167   2.656   4.176   0.221
 4675SOL    HW231168   2.703   4.309   0.273
 4676SOL     OW31169   0.949   5.691   6.933
 4676SOL    HW131170   0.961   5.599   6.910
 4676SOL    HW231171   1.006   5.739   6.874
 4677SOL     OW31172   4.195   5.242   6.377
 4677SOL    HW131173   4.112   5.288   6.391
 4677SOL    HW231174   4.219   5.261   6.286
 4678SOL     OW31175   5.377   3.574   1.950
 4678SOL    HW131176   5.452   3.570   1.891
 4678SOL    HW231177   5.330   3.653   1.924
 4679SOL     OW31178   1.673   3.746   0.094
 4679SOL    HW131179   1.577   3.742   0.094
 4679SOL    HW231180   1.693   3.834   0.061
 4680SOL     OW31181   3.511   2.026   7.533
 4680SOL    HW131182   3.504   1.954   7.596
 4680SOL    HW231183   3.479   1.990   7.451
 4681SOL     OW31184   5.847   0.015   2.046
 4681SOL    HW131185   5.935   0.039   2.015
 4681SOL    HW231186   5.809   0.097   2.075
 4682SOL     OW31187   0.913   0.975   1.521
 4682SOL    HW131188   0.818   0.983   1.530
 4682SOL    HW231189   0.948   1.021   1.597
 4683SOL     OW31190   4.353   3.351   7.572
 4683SOL    HW131191   4.337   3.273   7.625
 4683SOL    HW231192   4.281   3.411   7.595
 4684SOL     OW31193   4.934   0.302   2.075
 4684SOL    HW131194   4.982   0.265   2.150
 4684SOL    HW231195   4.903   0.387   2.106
 4685SOL     OW31196   4.702   4.651   1.968
 4685SOL    HW131197   4.741   4.571   1.932
 4685SOL    HW231198   4.608   4.634   1.967
 4686SOL     OW31199   3.985   0.354   0.254
 4686SOL    HW131200   3.966   0.351   0.348
 4686SOL    HW231201   3.990   0.447   0.233
 4687SOL     OW31202   2.043   0.553   7.167
 4687SOL    HW131203   1.970   0.504   7.130
 4687SOL    HW231204   2.064   0.619   7.101
 4688SOL     OW31205   3.729   6.319   2.367
 4688SOL    HW131206   3.657   6.320   2.430
 4688SOL    HW231207   3.689   6.345   2.284
 4689SOL     OW31208   4.420   5.060   6.831
 4689SOL    HW131209   4.453   5.131   6.775
 4689SOL    HW231210   4.459   5.078   6.917
 4690SOL     OW31211   2.444   0.318   1.427
 4690SOL    HW131212   2.375   0.275   1.478
 4690SOL    HW231213   2.396   0.365   1.358
 4691SOL     OW31214   5.317   1.992   7.239
 4691SOL    HW131215   5.254   1.941   7.291
 4691SOL    HW231216   5.273   2.004   7.155
 4692SOL     OW31217   3.921   4.712   2.848
 4692SOL    HW131218   3.920   4.762   2.766
 4692SOL    HW231219   4.014   4.709   2.873
 4693SOL     OW31220   3.650   5.488   2.121
 4693SOL    HW131221   3.616   5.405   2.156
 4693SOL    HW231222   3.576   5.549   2.130
 4694SOL     OW31223   5.803   4.847   1.175
 4694SOL    HW131224   5.818   4.927   1.125
 4694SOL    HW231225   5.756   4.876   1.253
 4695SOL     OW31226   2.371   4.612   7.069
 4695SOL    HW131227   2.414   4.637   7.151
 4695SOL    HW231228   2.441   4.611   7.004
 4696SOL     OW31229   4.508   3.950   1.399
 4696SOL    HW131230   4.530   3.953   1.306
 4696SOL    HW231231   4.525   4.039   1.431
 4697SOL     OW31232   0.782   0.294   1.404
 4697SOL    HW131233   0.727   0.218   1.422
 4697SOL    HW231234   0.746   0.363   1.461
 4698SOL     OW31235   3.251   3.269   0.192
 4698SOL    HW131236   3.330   3.216   0.181
 4698SOL    HW231237   3.258   3.306   0.280
 4699SOL     OW31238   5.962   6.352   0.958
 4699SOL    HW131239   6.020   6.408   0.907
 4699SOL    HW231240   5.971   6.265   0.919
 4700SOL     OW31241   0.670   2.071   0.499
 4700SOL    HW131242   0.697   1.992   0.452
 4700SOL    HW231243   0.750   2.103   0.539
 4701SOL     OW31244   4.154   4.814   1.037
 4701SOL    HW131245   4.185   4.734   1.079
 4701SOL    HW231246   4.183   4.885   1.095
 4702SOL     OW31247   4.397   1.045   7.403
 4702SOL    HW131248   4.432   1.035   7.492
 4702SOL    HW231249   4.379   1.139   7.396
 4703SOL     OW31250   3.453   1.465   0.471
 4703SOL    HW131251   3.488   1.541   0.423
 4703SOL    HW231252   3.404   1.503   0.543
 4704SOL     OW31253   1.535   0.768   0.202
 4704SOL    HW131254   1.618   0.720   0.203
 4704SOL    HW231255   1.468   0.700   0.210
 4705SOL     OW31256   3.548   5.036   0.018
 4705SOL    HW131257   3.521   5.088  -0.058
 4705SOL    HW231258   3.574   4.951  -0.019
 4706SOL     OW31259   0.991   2.518   6.432
 4706SOL    HW131260   0.965   2.595   6.483
 4706SOL    HW231261   0.911   2.492   6.386
 4707SOL     OW31262   2.058   0.768   2.156
 4707SOL    HW131263   2.100   0.847   2.121
 4707SOL    HW231264   1.986   0.750   2.097
 4708SOL     OW31265   3.838   0.453   1.034
 4708SOL    HW131266   3.911   0.484   1.088
 4708SOL    HW231267   3.760   0.471   1.086
 4709SOL     OW31268   5.272   2.208   0.234
 4709SOL    HW131269   5.243   2.210   0.142
 4709SOL    HW231270   5.341   2.274   0.238
 4710SOL     OW31271   0.239   2.070   7.113
 4710SOL    HW131272   0.226   1.979   7.085
 4710SOL    HW231273   0.293   2.064   7.191
 4711SOL     OW31274   5.503   5.652   2.138
 4711SOL    HW131275   5.493   5.718   2.206
 4711SOL    HW231276   5.594   5.623   2.145
 4712SOL     OW31277   3.523   2.550   7.363
 4712SOL    HW131278   3.438   2.591   7.349
 4712SOL    HW231279   3.521   2.520   7.454
 4713SOL     OW31280   3.760   1.299   7.095
 4713SOL    HW131281   3.844   1.255   7.087
 4713SOL    HW231282   3.705   1.237   7.144
 4714SOL     OW31283   5.948   2.965   7.544
 4714SOL    HW131284   5.924   2.916   7.623
 4714SOL    HW231285   5.877   2.946   7.482
 4715SOL     OW31286   0.063   0.859   6.857
 4715SOL    HW131287   0.026   0.792   6.915
 4715SOL    HW231288   0.147   0.823   6.829
 4716SOL     OW31289   1.157   2.828   2.208
 4716SOL    HW131290   1.131   2.750   2.256
 4716SOL    HW231291   1.236   2.858   2.253
 4717SOL     OW31292   0.671   3.619   2.027
 4717SOL    HW131293   0.590   3.570   2.011
 4717SOL    HW231294   0.687   3.606   2.121
 4718SOL     OW31295   2.143   4.809   1.430
 4718SOL    HW131296   2.178   4.725   1.460
 4718SOL    HW231297   2.126   4.857   1.511
 4719SOL     OW31298   4.455   2.587   0.576
 4719SOL    HW131299   4.515   2.532   0.625
 4719SOL    HW231300   4.415   2.644   0.641
 4720SOL     OW31301   2.845   1.512   1.010
 4720SOL    HW131302   2.850   1.597   1.054
 4720SOL    HW231303   2.781   1.462   1.061
 4721SOL     OW31304   0.346   4.896   6.575
 4721SOL    HW131305   0.260   4.861   6.598
 4721SOL    HW231306   0.382   4.927   6.658
 4722SOL     OW31307   3.791   5.776   1.958
 4722SOL    HW131308   3.849   5.772   2.034
 4722SOL    HW231309   3.753   5.689   1.952
 4723SOL     OW31310   0.201   2.106   1.719
 4723SOL    HW131311   0.243   2.051   1.654
 4723SOL    HW231312   0.189   2.190   1.675
 4724SOL     OW31313   6.279   0.907   0.138
 4724SOL    HW131314   6.265   0.974   0.205
 4724SOL    HW231315   6.264   0.952   0.055
 4725SOL     OW31316   0.766   4.589   6.944
 4725SOL    HW131317   0.716   4.598   7.025
 4725SOL    HW231318   0.837   4.653   6.952
 4726SOL     OW31319   5.696   5.810   2.890
 4726SOL    HW131320   5.734   5.728   2.857
 4726SOL    HW231321   5.730   5.878   2.832
 4727SOL     OW31322   4.112   2.450   6.833
 4727SOL    HW131323   4.060   2.445   6.913
 4727SOL    HW231324   4.202   2.461   6.864
 4728SOL     OW31325   5.307   0.509   1.437
 4728SOL    HW131326   5.328   0.596   1.404
 4728SOL    HW231327   5.370   0.451   1.393
 4729SOL     OW31328   1.683   4.347   2.525
 4729SOL    HW131329   1.650   4.412   2.587
 4729SOL    HW231330   1.686   4.393   2.441
 4730SOL     OW31331   4.258   4.091   1.976
 4730SOL    HW131332   4.254   4.044   1.893
 4730SOL    HW231333   4.323   4.043   2.028
 4731SOL     OW31334   4.864   2.195   0.278
 4731SOL    HW131335   4.938   2.246   0.309
 4731SOL    HW231336   4.791   2.257   0.273
 4732SOL     OW31337   5.799   0.671   2.413
 4732SOL    HW131338   5.787   0.732   2.485
 4732SOL    HW231339   5.890   0.682   2.387
 4733SOL     OW31340   4.447   5.376   2.399
 4733SOL    HW131341   4.435   5.405   2.490
 4733SOL    HW231342   4.362   5.341   2.373
 4734SOL     OW31343   1.970   1.690   0.218
 4734SOL    HW131344   1.955   1.683   0.124
 4734SOL    HW231345   1.886   1.719   0.254
 4735SOL     OW31346   5.413   2.143   7.443
 4735SOL    HW131347   5.365   2.100   7.372
 4735SOL    HW231348   5.484   2.082   7.464
 4736SOL     OW31349   3.065   3.158   7.601
 4736SOL    HW131350   3.126   3.129   7.533
 4736SOL    HW231351   3.104   3.127   7.683
 4737SOL     OW31352   1.860   4.475   7.077
 4737SOL    HW131353   1.881   4.496   7.168
 4737SOL    HW231354   1.943   4.448   7.039
 4738SOL     OW31355   1.010   4.146   7.063
 4738SOL    HW131356   1.076   4.077   7.056
 4738SOL    HW231357   0.977   4.139   7.153
 4739SOL     OW31358   5.538   6.023   0.762
 4739SOL    HW131359   5.585   6.030   0.679
 4739SOL    HW231360   5.579   6.088   0.819
 4740SOL     OW31361   4.170   5.965   6.055
 4740SOL    HW131362   4.148   5.873   6.071
 4740SOL    HW231363   4.261   5.964   6.026
 4741SOL     OW31364   3.317   2.913   0.277
 4741SOL    HW131365   3.242   2.940   0.329
 4741SOL    HW231366   3.377   2.872   0.339
 4742SOL     OW31367   2.798   3.028   0.077
 4742SOL    HW131368   2.888   2.996   0.070
 4742SOL    HW231369   2.798   3.111   0.028
 4743SOL     OW31370   3.434   2.769   7.104
 4743SOL    HW131371   3.351   2.726   7.128
 4743SOL    HW231372   3.436   2.764   7.009
 4744SOL     OW31373   4.908   1.056   7.444
 4744SOL    HW131374   4.976   1.046   7.378
 4744SOL    HW231375   4.951   1.100   7.517
 4745SOL     OW31376   2.850   6.252   1.513
 4745SOL    HW131377   2.839   6.346   1.499
 4745SOL    HW231378   2.760   6.219   1.524
 4746SOL     OW31379   3.865   5.365   0.750
 4746SOL    HW131380   3.931   5.429   0.722
 4746SOL    HW231381   3.910   5.280   0.746
 4747SOL     OW31382   5.776   5.488   7.183
 4747SOL    HW131383   5.825   5.563   7.216
 4747SOL    HW231384   5.829   5.412   7.209
 4748SOL     OW31385   2.827   2.571   1.850
 4748SOL    HW131386   2.779   2.489   1.842
 4748SOL    HW231387   2.858   2.571   1.941
 4749SOL     OW31388   3.999   5.614   1.590
 4749SOL    HW131389   4.028   5.697   1.627
 4749SOL    HW231390   4.057   5.598   1.516
 4750SOL     OW31391   2.497   0.540   1.585
 4750SOL    HW131392   2.408   0.567   1.564
 4750SOL    HW231393   2.511   0.461   1.533
 4751SOL     OW31394   6.459   3.770   7.011
 4751SOL    HW131395   6.436   3.859   7.039
 4751SOL    HW231396   6.471   3.776   6.916
 4752SOL     OW31397   4.833   2.171   0.903
 4752SOL    HW131398   4.902   2.208   0.849
 4752SOL    HW231399   4.823   2.081   0.871
 4753SOL     OW31400   1.161   0.526   6.682
 4753SOL    HW131401   1.091   0.472   6.646
 4753SOL    HW231402   1.184   0.484   6.764
 4754SOL     OW31403   0.914   2.751   6.995
 4754SOL    HW131404   0.946   2.666   6.963
 4754SOL    HW231405   0.974   2.775   7.065
 4755SOL     OW31406   4.648   1.197   6.384
 4755SOL    HW131407   4.593   1.206   6.307
 4755SOL    HW231408   4.715   1.134   6.358
 4756SOL     OW31409   4.006   0.713   1.956
 4756SOL    HW131410   3.963   0.680   2.035
 4756SOL    HW231411   4.006   0.638   1.897
 4757SOL     OW31412   4.883   0.309   7.284
 4757SOL    HW131413   4.854   0.361   7.210
 4757SOL    HW231414   4.959   0.260   7.252
 4758SOL     OW31415   2.776   3.353   6.993
 4758SOL    HW131416   2.747   3.323   6.907
 4758SOL    HW231417   2.820   3.436   6.976
 4759SOL     OW31418   1.891   5.951   7.107
 4759SOL    HW131419   1.941   5.966   7.026
 4759SOL    HW231420   1.925   5.868   7.140
 4760SOL     OW31421   4.257   1.819   6.546
 4760SOL    HW131422   4.295   1.776   6.623
 4760SOL    HW231423   4.239   1.747   6.485
 4761SOL     OW31424   3.227   1.647   7.741
 4761SOL    HW131425   3.162   1.648   7.670
 4761SOL    HW231426   3.279   1.569   7.723
 4762SOL     OW31427   2.089   4.722   0.105
 4762SOL    HW131428   2.032   4.759   0.173
 4762SOL    HW231429   2.166   4.779   0.104
 4763SOL     OW31430   1.233   4.670   0.120
 4763SOL    HW131431   1.172   4.616   0.170
 4763SOL    HW231432   1.319   4.629   0.135
 4764SOL     OW31433   1.711   3.622   0.364
 4764SOL    HW131434   1.746   3.653   0.280
 4764SOL    HW231435   1.620   3.652   0.364
 4765SOL     OW31436   4.385   4.452   0.939
 4765SOL    HW131437   4.451   4.511   0.974
 4765SOL    HW231438   4.305   4.473   0.987
 4766SOL     OW31439   2.448   4.089   7.583
 4766SOL    HW131440   2.493   4.057   7.505
 4766SOL    HW231441   2.426   4.180   7.563
 4767SOL     OW31442   5.334   0.438   7.568
 4767SOL    HW131443   5.290   0.357   7.595
 4767SOL    HW231444   5.398   0.454   7.638
 4768SOL     OW31445   4.468   0.200   0.116
 4768SOL    HW131446   4.474   0.174   0.024
 4768SOL    HW231447   4.452   0.295   0.113
 4769SOL     OW31448   2.930   2.490   6.562
 4769SOL    HW131449   2.959   2.527   6.645
 4769SOL    HW231450   3.010   2.479   6.510
 4770SOL     OW31451   5.036   0.881   1.122
 4770SOL    HW131452   5.075   0.939   1.057
 4770SOL    HW231453   4.972   0.829   1.073
 4771SOL     OW31454   1.071   4.530   0.273
 4771SOL    HW131455   1.074   4.435   0.260
 4771SOL    HW231456   1.041   4.541   0.363
 4772SOL     OW31457   6.051   1.751   0.694
 4772SOL    HW131458   6.084   1.668   0.729
 4772SOL    HW231459   6.001   1.725   0.617
 4773SOL     OW31460   3.398   5.803   0.886
 4773SOL    HW131461   3.320   5.858   0.888
 4773SOL    HW231462   3.470   5.863   0.868
 4774SOL     OW31463   6.147   3.255   7.301
 4774SOL    HW131464   6.164   3.254   7.396
 4774SOL    HW231465   6.139   3.347   7.279
 4775SOL     OW31466   6.364   0.800   7.148
 4775SOL    HW131467   6.361   0.723   7.092
 4775SOL    HW231468   6.285   0.849   7.127
 4776SOL     OW31469   6.436   1.888   1.057
 4776SOL    HW131470   6.486   1.968   1.071
 4776SOL    HW231471   6.349   1.908   1.091
 4777SOL     OW31472   3.174   0.260   5.724
 4777SOL    HW131473   3.223   0.266   5.642
 4777SOL    HW231474   3.240   0.273   5.792
 4778SOL     OW31475   6.437   4.258   0.033
 4778SOL    HW131476   6.402   4.170   0.018
 4778SOL    HW231477   6.388   4.291   0.108
 4779SOL     OW31478   5.928   4.963   7.588
 4779SOL    HW131479   5.980   4.967   7.669
 4779SOL    HW231480   5.933   5.052   7.553
 4780SOL     OW31481   4.356   0.475   5.813
 4780SOL    HW131482   4.359   0.470   5.908
 4780SOL    HW231483   4.369   0.385   5.784
 4781SOL     OW31484   2.869   5.320   5.755
 4781SOL    HW131485   2.802   5.345   5.818
 4781SOL    HW231486   2.914   5.247   5.797
 4782SOL     OW31487   2.745   3.043   5.895
 4782SOL    HW131488   2.668   3.030   5.951
 4782SOL    HW231489   2.782   3.126   5.924
 4783SOL     OW31490   2.226   5.115   6.910
 4783SOL    HW131491   2.297   5.144   6.852
 4783SOL    HW231492   2.260   5.034   6.950
 4784SOL     OW31493   0.213   4.878   0.516
 4784SOL    HW131494   0.204   4.895   0.609
 4784SOL    HW231495   0.274   4.805   0.510
 4785SOL     OW31496   3.415   2.089   1.801
 4785SOL    HW131497   3.357   2.121   1.869
 4785SOL    HW231498   3.503   2.095   1.839
 4786SOL     OW31499   0.532   1.695   0.223
 4786SOL    HW131500   0.503   1.617   0.175
 4786SOL    HW231501   0.467   1.705   0.292
 4787SOL     OW31502   4.007   4.362   1.698
 4787SOL    HW131503   3.994   4.443   1.747
 4787SOL    HW231504   3.937   4.304   1.728
 4788SOL     OW31505   5.086   0.162   2.262
 4788SOL    HW131506   5.167   0.205   2.289
 4788SOL    HW231507   5.042   0.140   2.345
 4789SOL     OW31508   6.370   1.136   7.557
 4789SOL    HW131509   6.397   1.056   7.512
 4789SOL    HW231510   6.289   1.113   7.602
 4790SOL     OW31511   0.976   5.551   6.293
 4790SOL    HW131512   1.041   5.550   6.222
 4790SOL    HW231513   0.931   5.467   6.285
 4791SOL     OW31514   2.032   5.066   0.856
 4791SOL    HW131515   2.115   5.078   0.810
 4791SOL    HW231516   1.969   5.046   0.787
 4792SOL     OW31517   0.653   6.210   1.973
 4792SOL    HW131518   0.686   6.273   2.037
 4792SOL    HW231519   0.677   6.125   2.009
 4793SOL     OW31520   6.386   5.642   2.276
 4793SOL    HW131521   6.448   5.658   2.348
 4793SOL    HW231522   6.426   5.571   2.226
 4794SOL     OW31523   2.523   2.946   0.051
 4794SOL    HW131524   2.615   2.944   0.076
 4794SOL    HW231525   2.522   2.984  -0.037
 4795SOL     OW31526   1.951   2.461   1.075
 4795SOL    HW131527   2.001   2.520   1.133
 4795SOL    HW231528   2.008   2.385   1.065
 4796SOL     OW31529   0.997   0.670   7.750
 4796SOL    HW131530   0.910   0.679   7.711
 4796SOL    HW231531   1.037   0.756   7.739
 4797SOL     OW31532   4.436   0.698   7.560
 4797SOL    HW131533   4.376   0.765   7.527
 4797SOL    HW231534   4.522   0.727   7.529
 4798SOL     OW31535   3.810   3.403   2.413
 4798SOL    HW131536   3.899   3.431   2.433
 4798SOL    HW231537   3.784   3.457   2.339
 4799SOL     OW31538   2.881   1.155   7.602
 4799SOL    HW131539   2.834   1.113   7.674
 4799SOL    HW231540   2.885   1.089   7.533
 4800SOL     OW31541   3.110   3.053   0.078
 4800SOL    HW131542   3.181   2.991   0.060
 4800SOL    HW231543   3.143   3.104   0.153
 4801SOL     OW31544   4.595   4.158   2.140
 4801SOL    HW131545   4.611   4.184   2.231
 4801SOL    HW231546   4.527   4.090   2.147
 4802SOL     OW31547   3.971   4.107   6.528
 4802SOL    HW131548   4.005   4.023   6.559
 4802SOL    HW231549   4.023   4.127   6.451
 4803SOL     OW31550   4.972   0.686   1.492
 4803SOL    HW131551   4.933   0.606   1.457
 4803SOL    HW231552   4.905   0.753   1.479
 4804SOL     OW31553   1.796   1.434   6.751
 4804SOL    HW131554   1.846   1.492   6.694
 4804SOL    HW231555   1.705   1.458   6.736
 4805SOL     OW31556   2.938   1.419   7.149
 4805SOL    HW131557   2.988   1.339   7.169
 4805SOL    HW231558   2.853   1.405   7.190
 4806SOL     OW31559   2.531   0.743   0.074
 4806SOL    HW131560   2.466   0.797   0.121
 4806SOL    HW231561   2.487   0.659   0.062
 4807SOL     OW31562   1.303   5.655   1.159
 4807SOL    HW131563   1.269   5.744   1.156
 4807SOL    HW231564   1.397   5.665   1.169
 4808SOL     OW31565   5.096   5.439   0.102
 4808SOL    HW131566   5.004   5.447   0.128
 4808SOL    HW231567   5.143   5.498   0.161
 4809SOL     OW31568   6.078   4.297   0.971
 4809SOL    HW131569   6.022   4.230   0.932
 4809SOL    HW231570   6.089   4.269   1.062
 4810SOL     OW31571   0.242   4.916   0.080
 4810SOL    HW131572   0.273   5.006   0.084
 4810SOL    HW231573   0.266   4.878   0.164
 4811SOL     OW31574   3.171   3.811   7.326
 4811SOL    HW131575   3.134   3.746   7.386
 4811SOL    HW231576   3.166   3.770   7.240
 4812SOL     OW31577   2.681   0.328   1.121
 4812SOL    HW131578   2.679   0.413   1.165
 4812SOL    HW231579   2.774   0.306   1.117
 4813SOL     OW31580   5.816   0.776   1.243
 4813SOL    HW131581   5.908   0.800   1.254
 4813SOL    HW231582   5.770   0.859   1.230
 4814SOL     OW31583   2.461   1.761   0.294
 4814SOL    HW131584   2.439   1.682   0.246
 4814SOL    HW231585   2.556   1.768   0.288
 4815SOL     OW31586   0.591   1.318   6.400
 4815SOL    HW131587   0.640   1.301   6.480
 4815SOL    HW231588   0.642   1.385   6.355
 4816SOL     OW31589   5.436   2.340   5.646
 4816SOL    HW131590   5.493   2.264   5.658
 4816SOL    HW231591   5.347   2.306   5.657
 4817SOL     OW31592   3.212   4.776   0.364
 4817SOL    HW131593   3.197   4.684   0.384
 4817SOL    HW231594   3.305   4.781   0.342
 4818SOL     OW31595   3.386   4.409   7.450
 4818SOL    HW131596   3.352   4.428   7.537
 4818SOL    HW231597   3.318   4.355   7.409
 4819SOL     OW31598   4.675   6.230   0.863
 4819SOL    HW131599   4.749   6.273   0.906
 4819SOL    HW231600   4.700   6.228   0.770
 4820SOL     OW31601   0.796   2.577   0.265
 4820SOL    HW131602   0.844   2.595   0.346
 4820SOL    HW231603   0.800   2.660   0.216
 4821SOL     OW31604   5.765   6.293   6.488
 4821SOL    HW131605   5.817   6.305   6.408
 4821SOL    HW231606   5.674   6.307   6.460
 4822SOL     OW31607   4.932   2.543   6.642
 4822SOL    HW131608   4.954   2.609   6.576
 4822SOL    HW231609   4.934   2.460   6.594
 4823SOL     OW31610   3.003   2.027   1.879
 4823SOL    HW131611   3.019   2.060   1.791
 4823SOL    HW231612   2.958   2.098   1.924
 4824SOL     OW31613   5.938   4.785   6.340
 4824SOL    HW131614   5.999   4.774   6.413
 4824SOL    HW231615   5.869   4.842   6.375
 4825SOL     OW31616   4.959   6.027   0.146
 4825SOL    HW131617   4.935   5.974   0.222
 4825SOL    HW231618   4.930   5.975   0.071
 4826SOL     OW31619   3.566   1.592   1.765
 4826SOL    HW131620   3.640   1.653   1.771
 4826SOL    HW231621   3.607   1.507   1.751
 4827SOL     OW31622   2.306   6.025   0.185
 4827SOL    HW131623   2.349   5.997   0.104
 4827SOL    HW231624   2.350   5.974   0.254
 4828SOL     OW31625   5.950   3.352   1.437
 4828SOL    HW131626   5.919   3.407   1.510
 4828SOL    HW231627   6.025   3.400   1.401
 4829SOL     OW31628   0.377   3.509   6.599
 4829SOL    HW131629   0.429   3.473   6.671
 4829SOL    HW231630   0.442   3.531   6.532
 4830SOL     OW31631   4.765   2.552   1.748
 4830SOL    HW131632   4.769   2.473   1.801
 4830SOL    HW231633   4.675   2.557   1.717
 4831SOL     OW31634   6.389   0.741   7.421
 4831SOL    HW131635   6.308   0.788   7.442
 4831SOL    HW231636   6.404   0.760   7.328
 4832SOL     OW31637   3.311   1.202   0.789
 4832SOL    HW131638   3.267   1.198   0.704
 4832SOL    HW231639   3.403   1.183   0.769
 4833SOL     OW31640   1.884   3.308   7.159
 4833SOL    HW131641   1.921   3.376   7.216
 4833SOL    HW231642   1.914   3.331   7.071
 4834SOL     OW31643   4.404   2.154   7.338
 4834SOL    HW131644   4.358   2.173   7.256
 4834SOL    HW231645   4.378   2.226   7.396
 4835SOL     OW31646   4.340   0.400   5.237
 4835SOL    HW131647   4.328   0.328   5.299
 4835SOL    HW231648   4.373   0.472   5.290
 4836SOL     OW31649   1.275   1.135   6.798
 4836SOL    HW131650   1.302   1.114   6.888
 4836SOL    HW231651   1.325   1.075   6.743
 4837SOL     OW31652   4.283   0.706   1.458
 4837SOL    HW131653   4.321   0.637   1.513
 4837SOL    HW231654   4.346   0.718   1.387
 4838SOL     OW31655   3.568   2.282   2.113
 4838SOL    HW131656   3.649   2.322   2.145
 4838SOL    HW231657   3.499   2.343   2.139
 4839SOL     OW31658   0.081   4.682   2.127
 4839SOL    HW131659   0.025   4.631   2.067
 4839SOL    HW231660   0.023   4.703   2.200
 4840SOL     OW31661   4.169   3.428   0.549
 4840SOL    HW131662   4.187   3.522   0.552
 4840SOL    HW231663   4.248   3.387   0.586
 4841SOL     OW31664   3.498   3.636   0.394
 4841SOL    HW131665   3.546   3.706   0.349
 4841SOL    HW231666   3.460   3.679   0.471
 4842SOL     OW31667   5.035   1.293   0.488
 4842SOL    HW131668   5.027   1.340   0.405
 4842SOL    HW231669   5.094   1.348   0.541
 4843SOL     OW31670   5.818   4.334   5.806
 4843SOL    HW131671   5.890   4.298   5.858
 4843SOL    HW231672   5.788   4.260   5.752
 4844SOL     OW31673   2.672   1.174   1.413
 4844SOL    HW131674   2.668   1.092   1.363
 4844SOL    HW231675   2.581   1.189   1.440
 4845SOL     OW31676   1.417   3.714   7.705
 4845SOL    HW131677   1.322   3.717   7.693
 4845SOL    HW231678   1.437   3.620   7.710
 4846SOL     OW31679   1.947   0.049   1.886
 4846SOL    HW131680   2.039   0.059   1.909
 4846SOL    HW231681   1.905   0.021   1.967
 4847SOL     OW31682   5.785   4.521   0.198
 4847SOL    HW131683   5.793   4.613   0.222
 4847SOL    HW231684   5.845   4.475   0.256
 4848SOL     OW31685   3.545   5.372   0.614
 4848SOL    HW131686   3.566   5.369   0.707
 4848SOL    HW231687   3.548   5.280   0.586
 4849SOL     OW31688   1.747   0.679   5.991
 4849SOL    HW131689   1.652   0.670   5.986
 4849SOL    HW231690   1.776   0.601   6.038
 4850SOL     OW31691   4.001   1.354   2.485
 4850SOL    HW131692   4.005   1.281   2.547
 4850SOL    HW231693   3.980   1.430   2.540
 4851SOL     OW31694   1.121   0.678   1.145
 4851SOL    HW131695   1.207   0.715   1.163
 4851SOL    HW231696   1.070   0.698   1.224
 4852SOL     OW31697   2.949   2.519   2.162
 4852SOL    HW131698   2.874   2.460   2.169
 4852SOL    HW231699   2.954   2.562   2.247
 4853SOL     OW31700   4.770   3.603   6.559
 4853SOL    HW131701   4.804   3.535   6.616
 4853SOL    HW231702   4.676   3.586   6.553
 4854SOL     OW31703   4.555   5.191   6.623
 4854SOL    HW131704   4.649   5.180   6.606
 4854SOL    HW231705   4.512   5.133   6.561
 4855SOL     OW31706   2.093   0.700   1.832
 4855SOL    HW131707   2.014   0.718   1.883
 4855SOL    HW231708   2.063   0.640   1.763
 4856SOL     OW31709   0.095   1.577   7.562
 4856SOL    HW131710   0.039   1.630   7.620
 4856SOL    HW231711   0.038   1.555   7.488
 4857SOL     OW31712   4.007   6.026   2.135
 4857SOL    HW131713   3.980   6.060   2.049
 4857SOL    HW231714   4.004   5.931   2.125
 4858SOL     OW31715   6.195   4.166   0.318
 4858SOL    HW131716   6.233   4.091   0.272
 4858SOL    HW231717   6.239   4.167   0.403
 4859SOL     OW31718   5.334   6.325   7.619
 4859SOL    HW131719   5.384   6.396   7.661
 4859SOL    HW231720   5.390   6.296   7.547
 4860SOL     OW31721   2.531   5.673   7.349
 4860SOL    HW131722   2.508   5.581   7.363
 4860SOL    HW231723   2.547   5.679   7.255
 4861SOL     OW31724   0.095   0.367   7.576
 4861SOL    HW131725   0.185   0.334   7.580
 4861SOL    HW231726   0.044   0.303   7.626
 4862SOL     OW31727   5.850   3.332   6.413
 4862SOL    HW131728   5.803   3.371   6.486
 4862SOL    HW231729   5.833   3.238   6.421
 4863SOL     OW31730   6.055   6.317   6.337
 4863SOL    HW131731   6.065   6.222   6.343
 4863SOL    HW231732   6.144   6.351   6.349
 4864SOL     OW31733   2.932   1.353   0.781
 4864SOL    HW131734   2.843   1.344   0.747
 4864SOL    HW231735   2.921   1.384   0.870
 4865SOL     OW31736   1.597   5.512   1.963
 4865SOL    HW131737   1.682   5.469   1.968
 4865SOL    HW231738   1.607   5.593   2.012
 4866SOL     OW31739   0.710   1.997   6.346
 4866SOL    HW131740   0.615   1.986   6.358
 4866SOL    HW231741   0.717   2.048   6.265
 4867SOL     OW31742   5.915   0.215   7.325
 4867SOL    HW131743   5.902   0.308   7.342
 4867SOL    HW231744   6.010   0.207   7.310
 4868SOL     OW31745   4.575   5.892   0.090
 4868SOL    HW131746   4.488   5.906   0.128
 4868SOL    HW231747   4.615   5.826   0.147
 4869SOL     OW31748   0.473   1.310   2.156
 4869SOL    HW131749   0.426   1.391   2.173
 4869SOL    HW231750   0.559   1.323   2.196
 4870SOL     OW31751   3.176   2.046   7.381
 4870SOL    HW131752   3.104   2.022   7.323
 4870SOL    HW231753   3.217   1.963   7.404
 4871SOL     OW31754   2.356   2.606   6.818
 4871SOL    HW131755   2.366   2.662   6.741
 4871SOL    HW231756   2.305   2.660   6.880
 4872SOL     OW31757   3.716   6.107   0.488
 4872SOL    HW131758   3.634   6.130   0.444
 4872SOL    HW231759   3.712   6.012   0.498
 4873SOL     OW31760   2.535   4.547   1.535
 4873SOL    HW131761   2.505   4.482   1.599
 4873SOL    HW231762   2.466   4.613   1.534
 4874SOL     OW31763   2.410   0.660   1.062
 4874SOL    HW131764   2.469   0.681   0.990
 4874SOL    HW231765   2.331   0.712   1.044
 4875SOL     OW31766   4.238   4.570   1.391
 4875SOL    HW131767   4.264   4.661   1.410
 4875SOL    HW231768   4.303   4.517   1.439
 4876SOL     OW31769   4.006   0.970   5.657
 4876SOL    HW131770   3.927   1.019   5.631
 4876SOL    HW231771   4.018   0.905   5.588
 4877SOL     OW31772   0.330   0.547   7.152
 4877SOL    HW131773   0.365   0.626   7.192
 4877SOL    HW231774   0.400   0.483   7.160
 4878SOL     OW31775   4.968   3.869   1.415
 4878SOL    HW131776   4.967   3.792   1.358
 4878SOL    HW231777   4.890   3.859   1.470
 4879SOL     OW31778   4.813   2.835   1.770
 4879SOL    HW131779   4.762   2.874   1.699
 4879SOL    HW231780   4.819   2.742   1.748
 4880SOL     OW31781   2.423   4.885   6.993
 4880SOL    HW131782   2.485   4.881   6.920
 4880SOL    HW231783   2.413   4.794   7.021
 4881SOL     OW31784   1.655   3.818   0.733
 4881SOL    HW131785   1.699   3.786   0.655
 4881SOL    HW231786   1.615   3.901   0.706
 4882SOL     OW31787   4.625   3.072   6.643
 4882SOL    HW131788   4.609   3.025   6.561
 4882SOL    HW231789   4.569   3.150   6.637
 4883SOL     OW31790   0.525   4.890   7.101
 4883SOL    HW131791   0.450   4.899   7.159
 4883SOL    HW231792   0.571   4.812   7.134
 4884SOL     OW31793   4.902   0.753   6.343
 4884SOL    HW131794   4.821   0.711   6.313
 4884SOL    HW231795   4.916   0.719   6.431
 4885SOL     OW31796   4.976   1.979   6.686
 4885SOL    HW131797   5.036   2.042   6.646
 4885SOL    HW231798   4.890   2.004   6.653
 4886SOL     OW31799   5.741   5.485   1.486
 4886SOL    HW131800   5.811   5.514   1.545
 4886SOL    HW231801   5.767   5.519   1.400
 4887SOL     OW31802   3.596   0.526   1.170
 4887SOL    HW131803   3.531   0.514   1.240
 4887SOL    HW231804   3.550   0.579   1.104
 4888SOL     OW31805   5.573   5.411   0.378
 4888SOL    HW131806   5.510   5.439   0.444
 4888SOL    HW231807   5.520   5.391   0.301
 4889SOL     OW31808   5.837   1.291   6.885
 4889SOL    HW131809   5.756   1.323   6.924
 4889SOL    HW231810   5.897   1.365   6.891
 4890SOL     OW31811   0.631   2.815   0.605
 4890SOL    HW131812   0.649   2.724   0.629
 4890SOL    HW231813   0.557   2.810   0.545
 4891SOL     OW31814   3.473   4.026   0.625
 4891SOL    HW131815   3.564   4.024   0.657
 4891SOL    HW231816   3.481   4.042   0.531
 4892SOL     OW31817   4.332   2.688   7.620
 4892SOL    HW131818   4.377   2.716   7.540
 4892SOL    HW231819   4.385   2.615   7.652
 4893SOL     OW31820   2.933   0.739   2.014
 4893SOL    HW131821   2.848   0.782   2.004
 4893SOL    HW231822   2.913   0.645   2.014
 4894SOL     OW31823   4.558   5.093   5.886
 4894SOL    HW131824   4.620   5.084   5.814
 4894SOL    HW231825   4.479   5.048   5.857
 4895SOL     OW31826   1.325   4.612   7.514
 4895SOL    HW131827   1.241   4.567   7.507
 4895SOL    HW231828   1.323   4.677   7.443
 4896SOL     OW31829   0.702   5.692   0.182
 4896SOL    HW131830   0.734   5.607   0.152
 4896SOL    HW231831   0.761   5.755   0.141
 4897SOL     OW31832   2.807   5.495   7.204
 4897SOL    HW131833   2.809   5.441   7.282
 4897SOL    HW231834   2.897   5.528   7.195
 4898SOL     OW31835   4.626   0.758   6.892
 4898SOL    HW131836   4.537   0.728   6.875
 4898SOL    HW231837   4.677   0.727   6.817
 4899SOL     OW31838   1.275   1.359   7.335
 4899SOL    HW131839   1.179   1.358   7.344
 4899SOL    HW231840   1.307   1.376   7.424
 4900SOL     OW31841   3.633   1.802   7.631
 4900SOL    HW131842   3.618   1.716   7.672
 4900SOL    HW231843   3.626   1.785   7.537
 4901SOL     OW31844   4.106   3.403   2.135
 4901SOL    HW131845   4.061   3.325   2.101
 4901SOL    HW231846   4.195   3.372   2.154
 4902SOL     OW31847   5.977   6.230   7.219
 4902SOL    HW131848   5.921   6.285   7.165
 4902SOL    HW231849   6.035   6.187   7.156
 4903SOL     OW31850   1.664   2.257   0.251
 4903SOL    HW131851   1.589   2.317   0.255
 4903SOL    HW231852   1.720   2.283   0.324
 4904SOL     OW31853   5.916   4.108   0.813
 4904SOL    HW131854   5.981   4.038   0.805
 4904SOL    HW231855   5.832   4.064   0.811
 4905SOL     OW31856   5.109   5.828   1.470
 4905SOL    HW131857   5.018   5.840   1.442
 4905SOL    HW231858   5.102   5.798   1.560
 4906SOL     OW31859   0.085   5.053   7.619
 4906SOL    HW131860   0.118   5.127   7.670
 4906SOL    HW231861   0.152   4.985   7.629
 4907SOL     OW31862   3.533   5.936   7.001
 4907SOL    HW131863   3.499   5.847   7.005
 4907SOL    HW231864   3.457   5.992   7.013
 4908SOL     OW31865   1.169   1.285   1.979
 4908SOL    HW131866   1.098   1.251   2.034
 4908SOL    HW231867   1.145   1.259   1.890
 4909SOL     OW31868   4.761   1.242   7.318
 4909SOL    HW131869   4.766   1.217   7.225
 4909SOL    HW231870   4.810   1.174   7.364
 4910SOL     OW31871   2.951   1.164   6.906
 4910SOL    HW131872   2.917   1.108   6.837
 4910SOL    HW231873   2.873   1.195   6.952
 4911SOL     OW31874   1.722   6.315   1.648
 4911SOL    HW131875   1.659   6.291   1.580
 4911SOL    HW231876   1.795   6.354   1.599
 4912SOL     OW31877   4.459   5.269   0.060
 4912SOL    HW131878   4.367   5.244   0.063
 4912SOL    HW231879   4.461   5.349   0.007
 4913SOL     OW31880   0.464   1.931   6.237
 4913SOL    HW131881   0.495   1.878   6.163
 4913SOL    HW231882   0.390   1.980   6.202
 4914SOL     OW31883   1.195   0.106   0.102
 4914SOL    HW131884   1.193   0.132   0.194
 4914SOL    HW231885   1.128   0.160   0.060
 4915SOL     OW31886   1.570   5.745   1.534
 4915SOL    HW131887   1.594   5.781   1.619
 4915SOL    HW231888   1.483   5.781   1.516
 4916SOL     OW31889   6.260   6.266   6.606
 4916SOL    HW131890   6.323   6.265   6.679
 4916SOL    HW231891   6.194   6.201   6.631
 4917SOL     OW31892   2.507   4.626   2.504
 4917SOL    HW131893   2.502   4.587   2.591
 4917SOL    HW231894   2.441   4.579   2.452
 4918SOL     OW31895   0.478   0.528   0.673
 4918SOL    HW131896   0.414   0.554   0.739
 4918SOL    HW231897   0.478   0.432   0.677
 4919SOL     OW31898   2.684   5.896   0.509
 4919SOL    HW131899   2.735   5.904   0.590
 4919SOL    HW231900   2.745   5.858   0.446
 4920SOL     OW31901   1.121   4.421   1.255
 4920SOL    HW131902   1.187   4.352   1.258
 4920SOL    HW231903   1.142   4.471   1.176
 4921SOL     OW31904   0.730   1.234   0.684
 4921SOL    HW131905   0.698   1.265   0.599
 4921SOL    HW231906   0.660   1.255   0.745
 4922SOL     OW31907   3.395   2.075   1.150
 4922SOL    HW131908   3.398   2.002   1.212
 4922SOL    HW231909   3.432   2.149   1.198
 4923SOL     OW31910   3.569   6.255   6.924
 4923SOL    HW131911   3.632   6.316   6.885
 4923SOL    HW231912   3.565   6.182   6.861
 4924SOL     OW31913   2.095   0.936   7.090
 4924SOL    HW131914   2.113   0.918   7.182
 4924SOL    HW231915   2.125   1.026   7.077
 4925SOL     OW31916   2.854   1.709   7.321
 4925SOL    HW131917   2.833   1.802   7.334
 4925SOL    HW231918   2.792   1.680   7.255
 4926SOL     OW31919   1.764   2.359   6.758
 4926SOL    HW131920   1.751   2.452   6.777
 4926SOL    HW231921   1.686   2.333   6.709
 4927SOL     OW31922   5.640   5.623   7.000
 4927SOL    HW131923   5.654   5.589   7.089
 4927SOL    HW231924   5.653   5.547   6.943
 4928SOL     OW31925   0.866   0.381   0.357
 4928SOL    HW131926   0.797   0.382   0.291
 4928SOL    HW231927   0.927   0.449   0.329
 4929SOL     OW31928   5.785   6.053   6.585
 4929SOL    HW131929   5.728   5.982   6.556
 4929SOL    HW231930   5.763   6.127   6.528
 4930SOL     OW31931   0.941   2.172   1.315
 4930SOL    HW131932   0.876   2.102   1.310
 4930SOL    HW231933   0.900   2.246   1.270
 4931SOL     OW31934   1.830   1.015   0.359
 4931SOL    HW131935   1.907   1.071   0.350
 4931SOL    HW231936   1.866   0.927   0.372
 4932SOL     OW31937   4.172   2.798   1.632
 4932SOL    HW131938   4.120   2.828   1.558
 4932SOL    HW231939   4.183   2.704   1.618
 4933SOL     OW31940   6.193   4.211   7.587
 4933SOL    HW131941   6.142   4.195   7.507
 4933SOL    HW231942   6.165   4.298   7.615
 4934SOL     OW31943   3.225   4.672   1.631
 4934SOL    HW131944   3.158   4.617   1.591
 4934SOL    HW231945   3.203   4.674   1.724
 4935SOL     OW31946   2.856   2.332   7.510
 4935SOL    HW131947   2.930   2.393   7.511
 4935SOL    HW231948   2.816   2.346   7.424
 4936SOL     OW31949   5.011   2.733   6.393
 4936SOL    HW131950   4.979   2.789   6.464
 4936SOL    HW231951   5.067   2.790   6.341
 4937SOL     OW31952   5.129   3.585   0.519
 4937SOL    HW131953   5.145   3.609   0.428
 4937SOL    HW231954   5.173   3.652   0.571
 4938SOL     OW31955   4.051   5.530   6.360
 4938SOL    HW131956   4.118   5.578   6.409
 4938SOL    HW231957   4.094   5.508   6.277
 4939SOL     OW31958   3.584   2.991   0.609
 4939SOL    HW131959   3.554   2.923   0.549
 4939SOL    HW231960   3.679   2.980   0.613
 4940SOL     OW31961   5.993   2.252   0.720
 4940SOL    HW131962   5.937   2.303   0.779
 4940SOL    HW231963   6.014   2.313   0.649
 4941SOL     OW31964   1.812   1.201   7.627
 4941SOL    HW131965   1.800   1.142   7.702
 4941SOL    HW231966   1.854   1.278   7.665
 4942SOL     OW31967   3.935   6.084   6.015
 4942SOL    HW131968   4.004   6.020   6.031
 4942SOL    HW231969   3.856   6.031   6.002
 4943SOL     OW31970   4.017   5.136   0.918
 4943SOL    HW131971   3.958   5.105   0.849
 4943SOL    HW231972   4.105   5.117   0.885
 4944SOL     OW31973   5.953   5.447   2.675
 4944SOL    HW131974   6.038   5.449   2.718
 4944SOL    HW231975   5.934   5.354   2.661
 4945SOL     OW31976   1.731   1.471   6.443
 4945SOL    HW131977   1.689   1.393   6.408
 4945SOL    HW231978   1.705   1.541   6.383
 4946SOL     OW31979   2.542   3.220   0.399
 4946SOL    HW131980   2.451   3.247   0.386
 4946SOL    HW231981   2.593   3.302   0.393
 4947SOL     OW31982   5.415   5.075   1.615
 4947SOL    HW131983   5.328   5.084   1.655
 4947SOL    HW231984   5.473   5.125   1.672
 4948SOL     OW31985   1.244   1.976   6.915
 4948SOL    HW131986   1.321   2.006   6.866
 4948SOL    HW231987   1.212   1.901   6.865
 4949SOL     OW31988   6.298   5.471   1.616
 4949SOL    HW131989   6.242   5.402   1.580
 4949SOL    HW231990   6.259   5.491   1.702
 4950SOL     OW31991   3.049   6.212   0.089
 4950SOL    HW131992   3.058   6.136   0.147
 4950SOL    HW231993   3.109   6.277   0.124
 4951SOL     OW31994   0.318   6.431   6.900
 4951SOL    HW131995   0.350   6.432   6.991
 4951SOL    HW231996   0.305   6.524   6.879
 4952SOL     OW31997   4.518   0.194   5.829
 4952SOL    HW131998   4.532   0.135   5.755
 4952SOL    HW231999   4.424   0.207   5.831
 4953SOL     OW32000   3.957   0.543   7.198
 4953SOL    HW132001   3.969   0.508   7.287
 4953SOL    HW232002   3.932   0.467   7.146
 4954SOL     OW32003   5.363   6.087  -0.001
 4954SOL    HW132004   5.313   6.093   0.080
 4954SOL    HW232005   5.357   6.174  -0.040
 4955SOL     OW32006   5.572   0.000   1.664
 4955SOL    HW132007   5.594   0.082   1.710
 4955SOL    HW232008   5.559   0.026   1.573
 4956SOL     OW32009   5.756   0.863   7.499
 4956SOL    HW132010   5.680   0.920   7.493
 4956SOL    HW232011   5.760   0.819   7.414
 4957SOL     OW32012   2.810   3.830   7.007
 4957SOL    HW132013   2.851   3.824   7.093
 4957SOL    HW232014   2.733   3.886   7.021
 4958SOL     OW32015   2.479   6.349   2.264
 4958SOL    HW132016   2.498   6.423   2.322
 4958SOL    HW232017   2.493   6.271   2.317
 4959SOL     OW32018   4.465   3.493   7.340
 4959SOL    HW132019   4.428   3.454   7.419
 4959SOL    HW232020   4.555   3.460   7.336
 4960SOL     OW32021   0.934   5.659   0.973
 4960SOL    HW132022   0.888   5.719   1.031
 4960SOL    HW232023   1.023   5.654   1.009
 4961SOL     OW32024   4.721   3.759   1.557
 4961SOL    HW132025   4.745   3.668   1.574
 4961SOL    HW232026   4.647   3.754   1.497
 4962SOL     OW32027   4.986   3.302   6.893
 4962SOL    HW132028   4.992   3.397   6.905
 4962SOL    HW232029   5.077   3.272   6.893
 4963SOL     OW32030   2.683   5.409   2.801
 4963SOL    HW132031   2.660   5.491   2.758
 4963SOL    HW232032   2.600   5.378   2.838
 4964SOL     OW32033   5.785   2.389   5.900
 4964SOL    HW132034   5.741   2.402   5.816
 4964SOL    HW232035   5.772   2.296   5.920
 4965SOL     OW32036   1.555   4.796   6.291
 4965SOL    HW132037   1.634   4.838   6.325
 4965SOL    HW232038   1.483   4.850   6.323
 4966SOL     OW32039   0.204   1.790   5.369
 4966SOL    HW132040   0.284   1.830   5.335
 4966SOL    HW232041   0.213   1.697   5.349
 4967SOL     OW32042   5.190   6.099   6.995
 4967SOL    HW132043   5.166   6.189   6.972
 4967SOL    HW232044   5.238   6.107   7.077
 4968SOL     OW32045   1.792   4.433   6.659
 4968SOL    HW132046   1.764   4.455   6.570
 4968SOL    HW232047   1.795   4.337   6.661
 4969SOL     OW32048   6.246   3.050   0.714
 4969SOL    HW132049   6.227   2.963   0.679
 4969SOL    HW232050   6.246   3.107   0.637
 4970SOL     OW32051   3.034   5.624   1.647
 4970SOL    HW132052   3.094   5.627   1.722
 4970SOL    HW232053   3.072   5.683   1.583
 4971SOL     OW32054   5.844   3.482   7.553
 4971SOL    HW132055   5.804   3.408   7.599
 4971SOL    HW232056   5.938   3.467   7.562
 4972SOL     OW32057   3.212   0.530   6.741
 4972SOL    HW132058   3.126   0.534   6.699
 4972SOL    HW232059   3.217   0.441   6.777
 4973SOL     OW32060   5.475   5.905   7.613
 4973SOL    HW132061   5.400   5.850   7.632
 4973SOL    HW232062   5.450   5.992   7.646
 4974SOL     OW32063   4.116   1.932   6.236
 4974SOL    HW132064   4.101   1.853   6.287
 4974SOL    HW232065   4.129   1.901   6.146
 4975SOL     OW32066   5.921   1.470   5.912
 4975SOL    HW132067   5.855   1.538   5.894
 4975SOL    HW232068   6.001   1.504   5.873
 4976SOL     OW32069   3.117   6.158   2.308
 4976SOL    HW132070   3.123   6.142   2.402
 4976SOL    HW232071   3.055   6.092   2.277
 4977SOL     OW32072   1.030   1.597   0.803
 4977SOL    HW132073   1.032   1.567   0.894
 4977SOL    HW232074   0.944   1.638   0.793
 4978SOL     OW32075   1.113   1.495   1.044
 4978SOL    HW132076   1.206   1.493   1.066
 4978SOL    HW232077   1.069   1.466   1.124
 4979SOL     OW32078   5.566   5.088   1.127
 4979SOL    HW132079   5.528   5.024   1.067
 4979SOL    HW232080   5.522   5.071   1.211
 4980SOL     OW32081   5.378   1.722   6.471
 4980SOL    HW132082   5.398   1.737   6.379
 4980SOL    HW232083   5.450   1.668   6.503
 4981SOL     OW32084   1.573   4.903   0.912
 4981SOL    HW132085   1.483   4.923   0.938
 4981SOL    HW232086   1.627   4.963   0.965
 4982SOL     OW32087   5.485   4.986   0.884
 4982SOL    HW132088   5.403   4.964   0.840
 4982SOL    HW232089   5.547   5.001   0.813
 4983SOL     OW32090   5.046   4.539   5.552
 4983SOL    HW132091   5.082   4.623   5.580
 4983SOL    HW232092   4.973   4.523   5.612
 4984SOL     OW32093   5.999   4.581   6.764
 4984SOL    HW132094   5.938   4.515   6.732
 4984SOL    HW232095   6.073   4.531   6.797
 4985SOL     OW32096   3.465   5.885   7.477
 4985SOL    HW132097   3.504   5.828   7.544
 4985SOL    HW232098   3.514   5.967   7.484
 4986SOL     OW32099   3.841   0.910   0.086
 4986SOL    HW132100   3.778   0.842   0.065
 4986SOL    HW232101   3.788   0.985   0.113
 4987SOL     OW32102   1.118   5.583   5.759
 4987SOL    HW132103   1.060   5.619   5.692
 4987SOL    HW232104   1.062   5.525   5.811
 4988SOL     OW32105   0.717   2.541   0.708
 4988SOL    HW132106   0.702   2.446   0.706
 4988SOL    HW232107   0.764   2.556   0.790
 4989SOL     OW32108   2.252   5.191   6.528
 4989SOL    HW132109   2.239   5.148   6.444
 4989SOL    HW232110   2.165   5.195   6.568
 4990SOL     OW32111   6.077   2.944   7.272
 4990SOL    HW132112   6.069   2.960   7.366
 4990SOL    HW232113   6.107   3.027   7.236
 4991SOL     OW32114   5.701   6.170   0.931
 4991SOL    HW132115   5.741   6.136   1.012
 4991SOL    HW232116   5.686   6.263   0.949
 4992SOL     OW32117   4.221   4.378   7.446
 4992SOL    HW132118   4.304   4.417   7.417
 4992SOL    HW232119   4.201   4.422   7.528
 4993SOL     OW32120   0.525   3.967   1.031
 4993SOL    HW132121   0.443   3.964   0.982
 4993SOL    HW232122   0.524   4.053   1.073
 4994SOL     OW32123   4.533   3.809   7.520
 4994SOL    HW132124   4.585   3.806   7.600
 4994SOL    HW232125   4.442   3.808   7.550
 4995SOL     OW32126   3.442   3.029   7.222
 4995SOL    HW132127   3.392   3.002   7.299
 4995SOL    HW232128   3.456   2.948   7.173
 4996SOL     OW32129   0.620   6.236   1.021
 4996SOL    HW132130   0.677   6.171   0.980
 4996SOL    HW232131   0.548   6.247   0.958
 4997SOL     OW32132   0.474   3.128   7.601
 4997SOL    HW132133   0.565   3.123   7.570
 4997SOL    HW232134   0.478   3.093   7.691
 4998SOL     OW32135   3.772   3.696   1.401
 4998SOL    HW132136   3.846   3.670   1.457
 4998SOL    HW232137   3.796   3.663   1.314
 4999SOL     OW32138   5.203   6.403   7.259
 4999SOL    HW132139   5.281   6.363   7.298
 4999SOL    HW232140   5.219   6.400   7.165
 5000SOL     OW32141   2.243   2.732   1.744
 5000SOL    HW132142   2.248   2.679   1.664
 5000SOL    HW232143   2.334   2.746   1.769
 5001SOL     OW32144   5.555   6.019   1.163
 5001SOL    HW132145   5.471   5.978   1.179
 5001SOL    HW232146   5.573   6.003   1.070
 5002SOL     OW32147   4.480   4.787   6.820
 5002SOL    HW132148   4.494   4.880   6.837
 5002SOL    HW232149   4.407   4.763   6.877
 5003SOL     OW32150   6.366   5.541   0.851
 5003SOL    HW132151   6.397   5.492   0.928
 5003SOL    HW232152   6.340   5.626   0.887
 5004SOL     OW32153   5.055   4.768   7.526
 5004SOL    HW132154   5.100   4.815   7.455
 5004SOL    HW232155   5.039   4.680   7.489
 5005SOL     OW32156   2.770   0.834   0.938
 5005SOL    HW132157   2.693   0.858   0.887
 5005SOL    HW232158   2.817   0.771   0.882
 5006SOL     OW32159   0.538   1.876   7.462
 5006SOL    HW132160   0.622   1.845   7.495
 5006SOL    HW232161   0.503   1.801   7.413
 5007SOL     OW32162   4.736   4.759   0.651
 5007SOL    HW132163   4.653   4.717   0.672
 5007SOL    HW232164   4.794   4.687   0.625
 5008SOL     OW32165   3.959   5.856   6.929
 5008SOL    HW132166   3.982   5.763   6.936
 5008SOL    HW232167   3.974   5.878   6.837
 5009SOL     OW32168   4.557   1.376   0.846
 5009SOL    HW132169   4.622   1.327   0.897
 5009SOL    HW232170   4.493   1.406   0.911
 5010SOL     OW32171   5.247   2.643   0.763
 5010SOL    HW132172   5.163   2.607   0.792
 5010SOL    HW232173   5.239   2.650   0.668
 5011SOL     OW32174   5.021   6.249   2.540
 5011SOL    HW132175   5.004   6.176   2.599
 5011SOL    HW232176   4.975   6.226   2.459
 5012SOL     OW32177   2.238   3.851   1.686
 5012SOL    HW132178   2.248   3.859   1.781
 5012SOL    HW232179   2.184   3.774   1.673
 5013SOL     OW32180   3.308   2.560   5.891
 5013SOL    HW132181   3.292   2.484   5.836
 5013SOL    HW232182   3.290   2.529   5.980
 5014SOL     OW32183   0.249   4.513   1.005
 5014SOL    HW132184   0.299   4.569   1.064
 5014SOL    HW232185   0.256   4.425   1.044
 5015SOL     OW32186   2.065   4.327   6.901
 5015SOL    HW132187   2.121   4.404   6.907
 5015SOL    HW232188   2.104   4.275   6.830
 5016SOL     OW32189   5.891   3.453   0.503
 5016SOL    HW132190   5.884   3.368   0.546
 5016SOL    HW232191   5.811   3.499   0.528
 5017SOL     OW32192   3.474   5.700   7.733
 5017SOL    HW132193   3.482   5.647   7.812
 5017SOL    HW232194   3.388   5.678   7.698
 5018SOL     OW32195   5.859   3.872   7.180
 5018SOL    HW132196   5.842   3.803   7.244
 5018SOL    HW232197   5.802   3.944   7.205
 5019SOL     OW32198   1.549   2.588   6.113
 5019SOL    HW132199   1.544   2.633   6.029
 5019SOL    HW232200   1.592   2.505   6.093
 5020SOL     OW32201   0.095   3.560   1.710
 5020SOL    HW132202   0.109   3.655   1.713
 5020SOL    HW232203   0.053   3.539   1.794
 5021SOL     OW32204   6.300   4.072   6.063
 5021SOL    HW132205   6.246   4.149   6.046
 5021SOL    HW232206   6.312   4.032   5.976
 5022SOL     OW32207   6.012   5.750   6.482
 5022SOL    HW132208   6.016   5.845   6.470
 5022SOL    HW232209   6.085   5.716   6.430
 5023SOL     OW32210   6.096   4.206   1.579
 5023SOL    HW132211   6.121   4.120   1.613
 5023SOL    HW232212   6.172   4.233   1.527
 5024SOL     OW32213   0.629   1.336   0.463
 5024SOL    HW132214   0.549   1.352   0.412
 5024SOL    HW232215   0.697   1.384   0.417
 5025SOL     OW32216   2.212   5.307   2.588
 5025SOL    HW132217   2.142   5.258   2.631
 5025SOL    HW232218   2.169   5.354   2.517
 5026SOL     OW32219   2.604   6.143   6.567
 5026SOL    HW132220   2.652   6.207   6.621
 5026SOL    HW232221   2.577   6.192   6.490
 5027SOL     OW32222   3.075   2.590   1.306
 5027SOL    HW132223   2.982   2.569   1.309
 5027SOL    HW232224   3.105   2.581   1.396
 5028SOL     OW32225   5.624   4.461   7.550
 5028SOL    HW132226   5.561   4.487   7.483
 5028SOL    HW232227   5.709   4.485   7.512
 5029SOL     OW32228   0.810   6.218   6.435
 5029SOL    HW132229   0.819   6.264   6.352
 5029SOL    HW232230   0.898   6.214   6.471
 5030SOL     OW32231   6.342   1.764   5.679
 5030SOL    HW132232   6.433   1.790   5.664
 5030SOL    HW232233   6.300   1.772   5.594
 5031SOL     OW32234   3.126   2.271   1.491
 5031SOL    HW132235   3.199   2.290   1.549
 5031SOL    HW232236   3.164   2.272   1.403
 5032SOL     OW32237   4.799   5.504   0.184
 5032SOL    HW132238   4.725   5.558   0.213
 5032SOL    HW232239   4.788   5.495   0.090
 5033SOL     OW32240   4.470   6.335   7.217
 5033SOL    HW132241   4.443   6.373   7.301
 5033SOL    HW232242   4.387   6.323   7.170
 5034SOL     OW32243   3.031   4.525   0.727
 5034SOL    HW132244   3.009   4.584   0.655
 5034SOL    HW232245   2.947   4.503   0.766
 5035SOL     OW32246   6.049   4.372   2.783
 5035SOL    HW132247   6.114   4.335   2.724
 5035SOL    HW232248   6.093   4.445   2.826
 5036SOL     OW32249   2.099   3.364   2.725
 5036SOL    HW132250   2.061   3.385   2.810
 5036SOL    HW232251   2.146   3.443   2.698
 5037SOL     OW32252   6.077   0.187   6.795
 5037SOL    HW132253   5.983   0.188   6.812
 5037SOL    HW232254   6.102   0.096   6.809
 5038SOL     OW32255   4.249   0.355   7.662
 5038SOL    HW132256   4.199   0.286   7.706
 5038SOL    HW232257   4.213   0.436   7.698
 5039SOL     OW32258   3.257   2.806   6.217
 5039SOL    HW132259   3.268   2.860   6.294
 5039SOL    HW232260   3.333   2.748   6.216
 5040SOL     OW32261   2.924   5.704   0.487
 5040SOL    HW132262   2.941   5.657   0.405
 5040SOL    HW232263   3.008   5.744   0.510
 5041SOL     OW32264   2.344   5.365   2.091
 5041SOL    HW132265   2.249   5.373   2.094
 5041SOL    HW232266   2.371   5.370   2.183
 5042SOL     OW32267   1.205   3.772   1.317
 5042SOL    HW132268   1.241   3.711   1.252
 5042SOL    HW232269   1.117   3.739   1.334
 5043SOL     OW32270   5.128   5.864   7.215
 5043SOL    HW132271   5.213   5.868   7.258
 5043SOL    HW232272   5.080   5.939   7.250
 5044SOL     OW32273   6.419   1.306   0.054
 5044SOL    HW132274   6.429   1.261  -0.030
 5044SOL    HW232275   6.324   1.318   0.062
 5045SOL     OW32276   2.554   5.625   2.350
 5045SOL    HW132277   2.536   5.585   2.435
 5045SOL    HW232278   2.472   5.666   2.324
 5046SOL     OW32279   5.879   2.292   1.280
 5046SOL    HW132280   5.822   2.364   1.255
 5046SOL    HW232281   5.947   2.333   1.334
 5047SOL     OW32282   5.835   2.684   5.642
 5047SOL    HW132283   5.798   2.596   5.630
 5047SOL    HW232284   5.924   2.668   5.673
 5048SOL     OW32285   5.378   2.679   2.076
 5048SOL    HW132286   5.374   2.611   2.143
 5048SOL    HW232287   5.403   2.632   1.996
 5049SOL     OW32288   1.034   4.369   6.910
 5049SOL    HW132289   0.989   4.430   6.968
 5049SOL    HW232290   1.030   4.285   6.955
 5050SOL     OW32291   0.378   1.665   7.636
 5050SOL    HW132292   0.436   1.589   7.633
 5050SOL    HW232293   0.301   1.638   7.585
 5051SOL     OW32294   0.085   5.556   7.076
 5051SOL    HW132295   0.028   5.628   7.049
 5051SOL    HW232296   0.111   5.578   7.165
 5052SOL     OW32297   5.163   2.968   7.292
 5052SOL    HW132298   5.123   3.035   7.236
 5052SOL    HW232299   5.122   2.886   7.264
 5053SOL     OW32300   1.564   3.712   7.291
 5053SOL    HW132301   1.619   3.780   7.253
 5053SOL    HW232302   1.604   3.693   7.376
 5054SOL     OW32303   2.395   2.695   2.471
 5054SOL    HW132304   2.469   2.752   2.491
 5054SOL    HW232305   2.434   2.609   2.458
 5055SOL     OW32306   4.525   1.567   0.603
 5055SOL    HW132307   4.579   1.614   0.666
 5055SOL    HW232308   4.479   1.501   0.654
 5056SOL     OW32309   3.499   0.131   1.724
 5056SOL    HW132310   3.454   0.130   1.808
 5056SOL    HW232311   3.431   0.113   1.659
 5057SOL     OW32312   2.753   2.759   2.091
 5057SOL    HW132313   2.734   2.844   2.131
 5057SOL    HW232314   2.711   2.695   2.149
 5058SOL     OW32315   4.166   3.896   1.805
 5058SOL    HW132316   4.085   3.844   1.811
 5058SOL    HW232317   4.206   3.869   1.722
 5059SOL     OW32318   4.332   2.108   6.268
 5059SOL    HW132319   4.255   2.051   6.272
 5059SOL    HW232320   4.301   2.193   6.300
 5060SOL     OW32321   4.346   1.007   0.156
 5060SOL    HW132322   4.268   0.984   0.104
 5060SOL    HW232323   4.380   0.922   0.185
 5061SOL     OW32324   0.102   3.395   2.220
 5061SOL    HW132325   0.057   3.381   2.137
 5061SOL    HW232326   0.193   3.372   2.202
 5062SOL     OW32327   1.598   6.233   1.336
 5062SOL    HW132328   1.619   6.322   1.309
 5062SOL    HW232329   1.504   6.234   1.351
 5063SOL     OW32330   6.403   3.885   1.440
 5063SOL    HW132331   6.439   3.974   1.442
 5063SOL    HW232332   6.403   3.862   1.347
 5064SOL     OW32333   2.013   3.972   7.224
 5064SOL    HW132334   2.101   3.985   7.257
 5064SOL    HW232335   1.988   4.057   7.188
 5065SOL     OW32336   1.280   3.360   7.024
 5065SOL    HW132337   1.334   3.416   7.080
 5065SOL    HW232338   1.294   3.271   7.057
 5066SOL     OW32339   2.169   0.792   7.355
 5066SOL    HW132340   2.147   0.711   7.402
 5066SOL    HW232341   2.129   0.862   7.406
 5067SOL     OW32342   0.375   2.361   1.619
 5067SOL    HW132343   0.350   2.450   1.646
 5067SOL    HW232344   0.298   2.328   1.572
 5068SOL     OW32345   5.604   3.216   0.435
 5068SOL    HW132346   5.521   3.264   0.445
 5068SOL    HW232347   5.582   3.143   0.376
 5069SOL     OW32348   5.303   3.709   2.398
 5069SOL    HW132349   5.338   3.630   2.356
 5069SOL    HW232350   5.260   3.757   2.327
 5070SOL     OW32351   5.227   0.232   1.386
 5070SOL    HW132352   5.305   0.192   1.347
 5070SOL    HW232353   5.262   0.302   1.442
 5071SOL     OW32354   3.760   5.189   5.613
 5071SOL    HW132355   3.747   5.239   5.532
 5071SOL    HW232356   3.727   5.247   5.682
 5072SOL     OW32357   4.828   2.546   6.330
 5072SOL    HW132358   4.901   2.605   6.346
 5072SOL    HW232359   4.843   2.511   6.242
 5073SOL     OW32360   1.013   0.397   2.299
 5073SOL    HW132361   0.945   0.335   2.323
 5073SOL    HW232362   0.966   0.480   2.285
 5074SOL     OW32363   4.966   0.184   1.317
 5074SOL    HW132364   4.951   0.149   1.229
 5074SOL    HW232365   5.060   0.202   1.320
 5075SOL     OW32366   0.454   2.984   1.421
 5075SOL    HW132367   0.394   3.059   1.422
 5075SOL    HW232368   0.472   2.966   1.513
 5076SOL     OW32369   0.803   3.333   1.897
 5076SOL    HW132370   0.728   3.278   1.873
 5076SOL    HW232371   0.771   3.389   1.967
 5077SOL     OW32372   1.540   2.594   1.787
 5077SOL    HW132373   1.540   2.511   1.835
 5077SOL    HW232374   1.448   2.615   1.774
 5078SOL     OW32375   2.310   3.627   1.049
 5078SOL    HW132376   2.217   3.645   1.031
 5078SOL    HW232377   2.323   3.658   1.138
 5079SOL     OW32378   1.954   2.913   0.731
 5079SOL    HW132379   1.915   2.981   0.676
 5079SOL    HW232380   1.880   2.874   0.777
 5080SOL     OW32381   5.744   3.743   1.649
 5080SOL    HW132382   5.695   3.807   1.598
 5080SOL    HW232383   5.748   3.781   1.737
 5081SOL     OW32384   4.554   0.288   5.106
 5081SOL    HW132385   4.530   0.198   5.128
 5081SOL    HW232386   4.482   0.341   5.141
 5082SOL     OW32387   2.131   4.505   0.827
 5082SOL    HW132388   2.207   4.530   0.774
 5082SOL    HW232389   2.167   4.445   0.893
 5083SOL     OW32390   2.762   0.852   7.507
 5083SOL    HW132391   2.821   0.785   7.473
 5083SOL    HW232392   2.677   0.808   7.513
 5084SOL     OW32393   5.129   1.709   0.380
 5084SOL    HW132394   5.048   1.700   0.429
 5084SOL    HW232395   5.103   1.708   0.288
 5085SOL     OW32396   3.373   0.571   6.485
 5085SOL    HW132397   3.390   0.528   6.401
 5085SOL    HW232398   3.308   0.638   6.465
 5086SOL     OW32399   1.581   5.010   6.805
 5086SOL    HW132400   1.596   4.938   6.744
 5086SOL    HW232401   1.611   4.977   6.890
 5087SOL     OW32402   0.739   5.517   5.668
 5087SOL    HW132403   0.781   5.462   5.601
 5087SOL    HW232404   0.734   5.603   5.627
 5088SOL     OW32405   5.390   3.512   6.682
 5088SOL    HW132406   5.372   3.418   6.676
 5088SOL    HW232407   5.368   3.546   6.595
 5089SOL     OW32408   3.301   6.055   6.289
 5089SOL    HW132409   3.286   6.142   6.251
 5089SOL    HW232410   3.396   6.045   6.290
 5090SOL     OW32411   3.742   5.904   7.233
 5090SOL    HW132412   3.758   5.810   7.227
 5090SOL    HW232413   3.681   5.922   7.162
 5091SOL     OW32414   0.647   0.997   1.533
 5091SOL    HW132415   0.559   0.966   1.557
 5091SOL    HW232416   0.639   1.092   1.529
 5092SOL     OW32417   1.825   2.085   0.556
 5092SOL    HW132418   1.821   1.989   0.549
 5092SOL    HW232419   1.733   2.112   0.556
 5093SOL     OW32420   2.715   0.833   7.128
 5093SOL    HW132421   2.748   0.744   7.134
 5093SOL    HW232422   2.621   0.825   7.147
 5094SOL     OW32423   6.272   3.245   0.527
 5094SOL    HW132424   6.265   3.327   0.576
 5094SOL    HW232425   6.283   3.273   0.436
 5095SOL     OW32426   0.079   1.001   5.564
 5095SOL    HW132427   0.156   0.951   5.591
 5095SOL    HW232428   0.006   0.956   5.607
 5096SOL     OW32429   5.996   4.285   7.391
 5096SOL    HW132430   6.047   4.352   7.347
 5096SOL    HW232431   5.951   4.331   7.462
 5097SOL     OW32432   4.733   5.633   0.569
 5097SOL    HW132433   4.735   5.714   0.620
 5097SOL    HW232434   4.801   5.578   0.608
 5098SOL     OW32435   0.265   2.462   0.669
 5098SOL    HW132436   0.187   2.468   0.724
 5098SOL    HW232437   0.244   2.393   0.606
 5099SOL     OW32438   4.771   4.414   0.347
 5099SOL    HW132439   4.857   4.373   0.354
 5099SOL    HW232440   4.748   4.408   0.255
 5100SOL     OW32441   4.075   1.514   0.544
 5100SOL    HW132442   4.016   1.442   0.520
 5100SOL    HW232443   4.102   1.552   0.460
 5101SOL     OW32444   6.358   4.086   0.999
 5101SOL    HW132445   6.336   4.048   0.914
 5101SOL    HW232446   6.447   4.119   0.988
 5102SOL     OW32447   6.437   6.325   1.584
 5102SOL    HW132448   6.390   6.243   1.594
 5102SOL    HW232449   6.409   6.359   1.499
 5103SOL     OW32450   0.631   0.303   2.114
 5103SOL    HW132451   0.586   0.234   2.065
 5103SOL    HW232452   0.597   0.385   2.077
 5104SOL     OW32453   3.607   1.284   6.852
 5104SOL    HW132454   3.675   1.277   6.919
 5104SOL    HW232455   3.601   1.196   6.815
 5105SOL     OW32456   5.907   2.382   6.682
 5105SOL    HW132457   5.972   2.359   6.616
 5105SOL    HW232458   5.921   2.475   6.698
 5106SOL     OW32459   3.949   0.268   7.544
 5106SOL    HW132460   3.959   0.175   7.523
 5106SOL    HW232461   3.902   0.269   7.627
 5107SOL     OW32462   2.549   1.938   0.021
 5107SOL    HW132463   2.601   1.980  -0.047
 5107SOL    HW232464   2.486   2.004   0.048
 5108SOL     OW32465   3.708   0.404   7.466
 5108SOL    HW132466   3.665   0.360   7.393
 5108SOL    HW232467   3.802   0.387   7.452
 5109SOL     OW32468   3.348   2.459   7.122
 5109SOL    HW132469   3.374   2.381   7.171
 5109SOL    HW232470   3.292   2.507   7.183
 5110SOL     OW32471   2.002   5.985   0.347
 5110SOL    HW132472   2.057   5.993   0.269
 5110SOL    HW232473   2.062   5.999   0.420
 5111SOL     OW32474   5.546   1.360   0.984
 5111SOL    HW132475   5.524   1.341   0.893
 5111SOL    HW232476   5.585   1.448   0.981
 5112SOL     OW32477   5.156   0.776   6.340
 5112SOL    HW132478   5.191   0.788   6.252
 5112SOL    HW232479   5.063   0.758   6.326
 5113SOL     OW32480   2.978   1.446   1.550
 5113SOL    HW132481   3.005   1.533   1.578
 5113SOL    HW232482   2.976   1.451   1.455
 5114SOL     OW32483   0.141   3.517   0.441
 5114SOL    HW132484   0.226   3.527   0.397
 5114SOL    HW232485   0.096   3.449   0.392
 5115SOL     OW32486   4.267   4.368   1.911
 5115SOL    HW132487   4.266   4.275   1.935
 5115SOL    HW232488   4.179   4.399   1.931
 5116SOL     OW32489   3.927   6.145   1.880
 5116SOL    HW132490   3.910   6.080   1.812
 5116SOL    HW232491   3.977   6.214   1.836
 5117SOL     OW32492   4.421   1.038   1.399
 5117SOL    HW132493   4.358   1.041   1.327
 5117SOL    HW232494   4.386   0.972   1.459
 5118SOL     OW32495   4.338   5.844   0.206
 5118SOL    HW132496   4.295   5.762   0.181
 5118SOL    HW232497   4.354   5.836   0.299
 5119SOL     OW32498   1.183   1.250   1.549
 5119SOL    HW132499   1.104   1.296   1.519
 5119SOL    HW232500   1.159   1.216   1.635
 5120SOL     OW32501   4.266   5.295   7.005
 5120SOL    HW132502   4.199   5.318   6.941
 5120SOL    HW232503   4.314   5.377   7.020
 5121SOL     OW32504   5.380   1.800   6.820
 5121SOL    HW132505   5.413   1.715   6.791
 5121SOL    HW232506   5.295   1.810   6.775
 5122SOL     OW32507   2.039   0.709   5.867
 5122SOL    HW132508   2.090   0.631   5.888
 5122SOL    HW232509   1.949   0.687   5.893
 5123SOL     OW32510   3.440   5.544   1.062
 5123SOL    HW132511   3.397   5.475   1.012
 5123SOL    HW232512   3.462   5.611   0.997
 5124SOL     OW32513   0.632   1.481   6.741
 5124SOL    HW132514   0.649   1.405   6.686
 5124SOL    HW232515   0.587   1.543   6.684
 5125SOL     OW32516   3.358   4.230   1.454
 5125SOL    HW132517   3.425   4.171   1.420
 5125SOL    HW232518   3.276   4.198   1.417
 5126SOL     OW32519   6.228   4.150   1.223
 5126SOL    HW132520   6.270   4.143   1.137
 5126SOL    HW232521   6.291   4.198   1.277
 5127SOL     OW32522   5.300   0.530   7.125
 5127SOL    HW132523   5.312   0.438   7.103
 5127SOL    HW232524   5.267   0.529   7.214
 5128SOL     OW32525   1.468   0.390   6.699
 5128SOL    HW132526   1.483   0.407   6.792
 5128SOL    HW232527   1.554   0.364   6.665
 5129SOL     OW32528   1.271   2.873   1.387
 5129SOL    HW132529   1.276   2.862   1.482
 5129SOL    HW232530   1.209   2.945   1.375
 5130SOL     OW32531   0.996   6.026   7.693
 5130SOL    HW132532   0.976   6.104   7.745
 5130SOL    HW232533   1.091   6.017   7.699
 5131SOL     OW32534   2.352   6.415   6.582
 5131SOL    HW132535   2.270   6.414   6.533
 5131SOL    HW232536   2.420   6.424   6.516
 5132SOL     OW32537   0.760   1.837   0.094
 5132SOL    HW132538   0.827   1.831   0.162
 5132SOL    HW232539   0.679   1.812   0.139
 5133SOL     OW32540   5.059   2.235   7.063
 5133SOL    HW132541   4.971   2.267   7.079
 5133SOL    HW232542   5.106   2.252   7.145
 5134SOL     OW32543   4.651   5.110   0.352
 5134SOL    HW132544   4.724   5.170   0.332
 5134SOL    HW232545   4.580   5.167   0.380
 5135SOL     OW32546   5.254   2.273   1.664
 5135SOL    HW132547   5.164   2.246   1.685
 5135SOL    HW232548   5.309   2.205   1.704
 5136SOL     OW32549   5.117   2.826   2.181
 5136SOL    HW132550   5.079   2.867   2.103
 5136SOL    HW232551   5.201   2.792   2.151
 5137SOL     OW32552   3.061   3.686   7.542
 5137SOL    HW132553   3.083   3.595   7.562
 5137SOL    HW232554   2.977   3.701   7.587
 5138SOL     OW32555   4.430   5.457   2.082
 5138SOL    HW132556   4.373   5.438   2.157
 5138SOL    HW232557   4.498   5.514   2.118
 5139SOL     OW32558   5.262   4.197   0.576
 5139SOL    HW132559   5.322   4.239   0.637
 5139SOL    HW232560   5.298   4.218   0.489
 5140SOL     OW32561   0.058   2.809   7.604
 5140SOL    HW132562   0.124   2.866   7.564
 5140SOL    HW232563   0.002   2.782   7.531
 5141SOL     OW32564   3.967   0.583   2.206
 5141SOL    HW132565   3.972   0.488   2.200
 5141SOL    HW232566   3.970   0.602   2.299
 5142SOL     OW32567   0.936   2.880   0.524
 5142SOL    HW132568   0.917   2.884   0.618
 5142SOL    HW232569   0.918   2.789   0.500
 5143SOL     OW32570   4.741   3.275   1.469
 5143SOL    HW132571   4.684   3.201   1.453
 5143SOL    HW232572   4.826   3.249   1.434
 5144SOL     OW32573   6.352   3.625   6.631
 5144SOL    HW132574   6.387   3.706   6.667
 5144SOL    HW232575   6.338   3.644   6.538
 5145SOL     OW32576   6.102   3.330   0.867
 5145SOL    HW132577   6.116   3.338   0.961
 5145SOL    HW232578   6.144   3.247   0.843
 5146SOL     OW32579   2.537   6.246   0.151
 5146SOL    HW132580   2.487   6.172   0.185
 5146SOL    HW232581   2.506   6.257   0.061
 5147SOL     OW32582   3.805   2.438   7.418
 5147SOL    HW132583   3.787   2.344   7.420
 5147SOL    HW232584   3.719   2.478   7.408
 5148SOL     OW32585   2.014   5.311   1.162
 5148SOL    HW132586   2.025   5.359   1.080
 5148SOL    HW232587   1.973   5.228   1.136
 5149SOL     OW32588   1.849   0.497   1.526
 5149SOL    HW132589   1.803   0.466   1.448
 5149SOL    HW232590   1.794   0.566   1.561
 5150SOL     OW32591   3.268   1.165   1.052
 5150SOL    HW132592   3.174   1.161   1.067
 5150SOL    HW232593   3.277   1.171   0.957
 5151SOL     OW32594   2.598   6.285   7.575
 5151SOL    HW132595   2.674   6.299   7.519
 5151SOL    HW232596   2.618   6.204   7.623
 5152SOL     OW32597   1.275   5.946   7.709
 5152SOL    HW132598   1.370   5.951   7.698
 5152SOL    HW232599   1.261   5.963   7.803
 5153SOL     OW32600   3.712   1.105   0.955
 5153SOL    HW132601   3.729   1.193   0.920
 5153SOL    HW232602   3.641   1.071   0.901
 5154SOL     OW32603   2.762   6.350   0.266
 5154SOL    HW132604   2.802   6.310   0.190
 5154SOL    HW232605   2.671   6.321   0.264
 5155SOL     OW32606   1.589   5.908   0.109
 5155SOL    HW132607   1.553   5.827   0.074
 5155SOL    HW232608   1.568   5.974   0.043
 5156SOL     OW32609   3.953   5.634   1.273
 5156SOL    HW132610   3.862   5.642   1.304
 5156SOL    HW232611   3.948   5.656   1.180
 5157SOL     OW32612   1.226   1.810   6.477
 5157SOL    HW132613   1.278   1.856   6.542
 5157SOL    HW232614   1.151   1.869   6.461
 5158SOL     OW32615   5.076   4.975   6.521
 5158SOL    HW132616   5.058   4.994   6.612
 5158SOL    HW232617   5.166   4.943   6.520
 5159SOL     OW32618   5.197   4.725   6.359
 5159SOL    HW132619   5.122   4.742   6.302
 5159SOL    HW232620   5.204   4.629   6.361
 5160SOL     OW32621   1.278   6.276   7.122
 5160SOL    HW132622   1.284   6.188   7.085
 5160SOL    HW232623   1.291   6.334   7.048
 5161SOL     OW32624   3.380   2.039   6.826
 5161SOL    HW132625   3.313   2.098   6.791
 5161SOL    HW232626   3.333   1.987   6.892
 5162SOL     OW32627   3.273   5.603   6.347
 5162SOL    HW132628   3.206   5.670   6.328
 5162SOL    HW232629   3.312   5.632   6.429
 5163SOL     OW32630   3.780   5.624   7.189
 5163SOL    HW132631   3.706   5.603   7.132
 5163SOL    HW232632   3.857   5.617   7.133
 5164SOL     OW32633   6.409   4.317   5.775
 5164SOL    HW132634   6.353   4.240   5.759
 5164SOL    HW232635   6.347   4.388   5.789
 5165SOL     OW32636   0.761   1.527   6.331
 5165SOL    HW132637   0.721   1.587   6.267
 5165SOL    HW232638   0.836   1.576   6.365
 5166SOL     OW32639   6.413   0.075   0.057
 5166SOL    HW132640   6.412  -0.016   0.087
 5166SOL    HW232641   6.367   0.073  -0.027
 5167SOL     OW32642   5.678   1.764   1.174
 5167SOL    HW132643   5.641   1.829   1.115
 5167SOL    HW232644   5.629   1.684   1.155
 5168SOL     OW32645   2.723   1.798   6.381
 5168SOL    HW132646   2.743   1.709   6.409
 5168SOL    HW232647   2.783   1.853   6.432
 5169SOL     OW32648   3.876   6.321   1.574
 5169SOL    HW132649   3.804   6.337   1.513
 5169SOL    HW232650   3.930   6.255   1.531
 5170SOL     OW32651   3.034   1.706   1.630
 5170SOL    HW132652   3.122   1.687   1.661
 5170SOL    HW232653   3.001   1.774   1.689
 5171SOL     OW32654   3.325   3.884   6.917
 5171SOL    HW132655   3.255   3.925   6.969
 5171SOL    HW232656   3.330   3.936   6.837
 5172SOL     OW32657   1.926   3.863   7.561
 5172SOL    HW132658   1.852   3.826   7.513
 5172SOL    HW232659   1.922   3.957   7.543
 5173SOL     OW32660   2.793   2.165   0.615
 5173SOL    HW132661   2.721   2.126   0.664
 5173SOL    HW232662   2.757   2.181   0.528
 5174SOL     OW32663   5.514   1.822   0.939
 5174SOL    HW132664   5.535   1.811   0.846
 5174SOL    HW232665   5.450   1.754   0.957
 5175SOL     OW32666   5.151   5.440   1.673
 5175SOL    HW132667   5.122   5.452   1.583
 5175SOL    HW232668   5.235   5.486   1.678
 5176SOL     OW32669   4.058   6.356   1.777
 5176SOL    HW132670   4.002   6.363   1.699
 5176SOL    HW232671   4.147   6.364   1.743
 5177SOL     OW32672   2.640   0.969   6.882
 5177SOL    HW132673   2.706   0.930   6.939
 5177SOL    HW232674   2.566   0.987   6.940
 5178SOL     OW32675   5.226   0.629   7.378
 5178SOL    HW132676   5.203   0.700   7.438
 5178SOL    HW232677   5.256   0.559   7.435
 5179SOL     OW32678   2.529   3.468   0.706
 5179SOL    HW132679   2.576   3.452   0.788
 5179SOL    HW232680   2.455   3.408   0.708
 5180SOL     OW32681   0.669   3.248   0.241
 5180SOL    HW132682   0.630   3.226   0.325
 5180SOL    HW232683   0.759   3.274   0.262
 5181SOL     OW32684   0.636   4.918   1.720
 5181SOL    HW132685   0.619   4.862   1.796
 5181SOL    HW232686   0.665   4.858   1.652
 5182SOL     OW32687   6.275   1.662   0.975
 5182SOL    HW132688   6.230   1.625   1.051
 5182SOL    HW232689   6.336   1.726   1.011
 5183SOL     OW32690   6.136   4.828   7.068
 5183SOL    HW132691   6.167   4.898   7.126
 5183SOL    HW232692   6.049   4.806   7.101
 5184SOL     OW32693   4.146   1.424   6.969
 5184SOL    HW132694   4.136   1.329   6.965
 5184SOL    HW232695   4.059   1.458   6.946
 5185SOL     OW32696   6.266   5.818   7.111
 5185SOL    HW132697   6.334   5.844   7.049
 5185SOL    HW232698   6.200   5.887   7.106
 5186SOL     OW32699   6.291   4.630   1.986
 5186SOL    HW132700   6.245   4.548   1.966
 5186SOL    HW232701   6.250   4.661   2.067
 5187SOL     OW32702   3.439   5.333   5.634
 5187SOL    HW132703   3.513   5.379   5.674
 5187SOL    HW232704   3.409   5.391   5.565
 5188SOL     OW32705   3.505   1.806   2.158
 5188SOL    HW132706   3.553   1.872   2.108
 5188SOL    HW232707   3.559   1.727   2.151
 5189SOL     OW32708   1.348   0.771   1.233
 5189SOL    HW132709   1.388   0.816   1.159
 5189SOL    HW232710   1.421   0.729   1.278
 5190SOL     OW32711   6.320   6.185   1.067
 5190SOL    HW132712   6.275   6.221   1.143
 5190SOL    HW232713   6.258   6.194   0.995
 5191SOL     OW32714   0.322   2.996   0.695
 5191SOL    HW132715   0.300   3.079   0.652
 5191SOL    HW232716   0.262   2.933   0.656
 5192SOL     OW32717   4.227   2.208   5.523
 5192SOL    HW132718   4.305   2.168   5.483
 5192SOL    HW232719   4.160   2.140   5.518
 5193SOL     OW32720   5.821   4.771   6.077
 5193SOL    HW132721   5.858   4.761   6.165
 5193SOL    HW232722   5.893   4.749   6.018
 5194SOL     OW32723   3.170   2.197   6.725
 5194SOL    HW132724   3.076   2.197   6.708
 5194SOL    HW232725   3.183   2.270   6.785
 5195SOL     OW32726   3.498   3.729   1.406
 5195SOL    HW132727   3.469   3.675   1.331
 5195SOL    HW232728   3.591   3.711   1.413
 5196SOL     OW32729   0.017   4.556   7.423
 5196SOL    HW132730  -0.004   4.634   7.372
 5196SOL    HW232731  -0.002   4.483   7.365
 5197SOL     OW32732   2.024   2.440   0.162
 5197SOL    HW132733   1.977   2.401   0.236
 5197SOL    HW232734   2.090   2.496   0.202
 5198SOL     OW32735   4.598   1.460   1.976
 5198SOL    HW132736   4.676   1.506   2.008
 5198SOL    HW232737   4.584   1.390   2.040
 5199SOL     OW32738   4.318   6.446   7.750
 5199SOL    HW132739   4.266   6.384   7.802
 5199SOL    HW232740   4.283   6.532   7.774
 5200SOL     OW32741   4.609   6.046   1.383
 5200SOL    HW132742   4.605   6.142   1.385
 5200SOL    HW232743   4.576   6.022   1.297
 5201SOL     OW32744   1.649   4.182   1.597
 5201SOL    HW132745   1.666   4.212   1.687
 5201SOL    HW232746   1.579   4.117   1.607
 5202SOL     OW32747   3.378   2.510   0.647
 5202SOL    HW132748   3.451   2.566   0.674
 5202SOL    HW232749   3.337   2.482   0.729
 5203SOL     OW32750   1.644   5.379   7.202
 5203SOL    HW132751   1.727   5.371   7.155
 5203SOL    HW232752   1.595   5.444   7.153
 5204SOL     OW32753   1.602   2.583   0.012
 5204SOL    HW132754   1.686   2.606   0.051
 5204SOL    HW232755   1.617   2.498  -0.030
 5205SOL     OW32756   5.486   3.316   6.278
 5205SOL    HW132757   5.512   3.276   6.195
 5205SOL    HW232758   5.544   3.391   6.288
 5206SOL     OW32759   0.641   2.775   7.253
 5206SOL    HW132760   0.711   2.710   7.258
 5206SOL    HW232761   0.562   2.726   7.277
 5207SOL     OW32762   5.304   4.872   0.147
 5207SOL    HW132763   5.300   4.777   0.139
 5207SOL    HW232764   5.367   4.900   0.081
 5208SOL     OW32765   1.777   3.656   6.644
 5208SOL    HW132766   1.739   3.570   6.662
 5208SOL    HW232767   1.730   3.688   6.567
 5209SOL     OW32768   5.786   4.849   7.389
 5209SOL    HW132769   5.693   4.867   7.400
 5209SOL    HW232770   5.827   4.887   7.467
 5210SOL     OW32771   3.376   1.425   7.645
 5210SOL    HW132772   3.329   1.360   7.698
 5210SOL    HW232773   3.368   1.392   7.555
 5211SOL     OW32774   1.399   6.392   0.382
 5211SOL    HW132775   1.460   6.466   0.386
 5211SOL    HW232776   1.414   6.354   0.295
 5212SOL     OW32777   4.071   2.332   7.219
 5212SOL    HW132778   4.139   2.288   7.167
 5212SOL    HW232779   4.118   2.372   7.291
 5213SOL     OW32780   3.510   4.546   6.873
 5213SOL    HW132781   3.480   4.477   6.814
 5213SOL    HW232782   3.455   4.538   6.950
 5214SOL     OW32783   0.334   2.584   1.905
 5214SOL    HW132784   0.252   2.587   1.955
 5214SOL    HW232785   0.402   2.573   1.971
 5215SOL     OW32786   6.318   4.316   1.432
 5215SOL    HW132787   6.344   4.378   1.499
 5215SOL    HW232788   6.377   4.333   1.358
 5216SOL     OW32789   4.522   3.076   7.507
 5216SOL    HW132790   4.498   3.140   7.574
 5216SOL    HW232791   4.438   3.048   7.470
 5217SOL     OW32792   0.447   4.075   2.651
 5217SOL    HW132793   0.500   4.075   2.730
 5217SOL    HW232794   0.398   3.992   2.655
 5218SOL     OW32795   1.852   3.097   0.145
 5218SOL    HW132796   1.932   3.142   0.171
 5218SOL    HW232797   1.872   3.004   0.157
 5219SOL     OW32798   6.167   5.951   0.453
 5219SOL    HW132799   6.123   6.016   0.507
 5219SOL    HW232800   6.097   5.915   0.398
 5220SOL     OW32801   1.074   2.577   0.013
 5220SOL    HW132802   1.069   2.509  -0.055
 5220SOL    HW232803   1.026   2.540   0.087
 5221SOL     OW32804   5.981   5.102   0.289
 5221SOL    HW132805   5.892   5.115   0.323
 5221SOL    HW232806   6.007   5.189   0.257
 5222SOL     OW32807   3.391   5.415   6.212
 5222SOL    HW132808   3.443   5.356   6.266
 5222SOL    HW232809   3.348   5.473   6.275
 5223SOL     OW32810   1.435   3.450   1.822
 5223SOL    HW132811   1.416   3.509   1.749
 5223SOL    HW232812   1.445   3.364   1.781
 5224SOL     OW32813   5.782   3.830   0.599
 5224SOL    HW132814   5.818   3.819   0.687
 5224SOL    HW232815   5.687   3.825   0.610
 5225SOL     OW32816   6.419   3.174   0.870
 5225SOL    HW132817   6.359   3.143   0.803
 5225SOL    HW232818   6.475   3.237   0.825
 5226SOL     OW32819   1.516   3.157   6.018
 5226SOL    HW132820   1.592   3.179   5.964
 5226SOL    HW232821   1.494   3.067   5.994
 5227SOL     OW32822   1.346   3.925   0.205
 5227SOL    HW132823   1.356   3.920   0.110
 5227SOL    HW232824   1.315   4.014   0.221
 5228SOL     OW32825   3.547   5.223   5.873
 5228SOL    HW132826   3.508   5.185   5.795
 5228SOL    HW232827   3.593   5.301   5.842
 5229SOL     OW32828   1.956   3.805   6.009
 5229SOL    HW132829   1.893   3.876   5.998
 5229SOL    HW232830   1.902   3.727   6.021
 5230SOL     OW32831   3.824   3.940   7.169
 5230SOL    HW132832   3.889   3.910   7.106
 5230SOL    HW232833   3.742   3.944   7.120
 5231SOL     OW32834   1.678   2.120   0.880
 5231SOL    HW132835   1.647   2.208   0.898
 5231SOL    HW232836   1.601   2.064   0.892
 5232SOL     OW32837   0.125   5.238   1.825
 5232SOL    HW132838   0.186   5.173   1.790
 5232SOL    HW232839   0.075   5.266   1.748
 5233SOL     OW32840   2.507   2.449   5.695
 5233SOL    HW132841   2.599   2.451   5.666
 5233SOL    HW232842   2.491   2.536   5.731
 5234SOL     OW32843   0.321   5.432   2.189
 5234SOL    HW132844   0.411   5.420   2.159
 5234SOL    HW232845   0.328   5.436   2.285
 5235SOL     OW32846   0.378   3.758   0.661
 5235SOL    HW132847   0.322   3.814   0.608
 5235SOL    HW232848   0.321   3.726   0.730
 5236SOL     OW32849   4.219   3.752   6.298
 5236SOL    HW132850   4.210   3.686   6.229
 5236SOL    HW232851   4.296   3.802   6.273
 5237SOL     OW32852   1.267   4.476   6.474
 5237SOL    HW132853   1.258   4.555   6.420
 5237SOL    HW232854   1.202   4.488   6.544
 5238SOL     OW32855   0.093   0.108   6.636
 5238SOL    HW132856   0.104   0.116   6.541
 5238SOL    HW232857   0.112   0.016   6.655
 5239SOL     OW32858   3.502   0.412   0.563
 5239SOL    HW132859   3.439   0.427   0.492
 5239SOL    HW232860   3.490   0.320   0.586
 5240SOL     OW32861   6.081   4.291   5.918
 5240SOL    HW132862   6.122   4.377   5.903
 5240SOL    HW232863   6.127   4.232   5.858
 5241SOL     OW32864   3.587   4.783   6.804
 5241SOL    HW132865   3.540   4.860   6.835
 5241SOL    HW232866   3.539   4.709   6.840
 5242SOL     OW32867   1.917   5.420   6.516
 5242SOL    HW132868   1.878   5.474   6.584
 5242SOL    HW232869   1.931   5.335   6.557
 5243SOL     OW32870   6.339   1.160   6.675
 5243SOL    HW132871   6.270   1.189   6.734
 5243SOL    HW232872   6.314   1.194   6.590
 5244SOL     OW32873   0.167   4.589   0.380
 5244SOL    HW132874   0.256   4.621   0.398
 5244SOL    HW232875   0.180   4.501   0.346
 5245SOL     OW32876   4.593   4.630   7.708
 5245SOL    HW132877   4.648   4.640   7.630
 5245SOL    HW232878   4.641   4.676   7.777
 5246SOL     OW32879   4.595   6.318   1.409
 5246SOL    HW132880   4.585   6.407   1.374
 5246SOL    HW232881   4.585   6.328   1.504
 5247SOL     OW32882   4.868   5.921   5.862
 5247SOL    HW132883   4.788   5.903   5.912
 5247SOL    HW232884   4.939   5.900   5.922
 5248SOL     OW32885   2.580   3.991   7.068
 5248SOL    HW132886   2.574   3.935   7.145
 5248SOL    HW232887   2.489   4.000   7.038
 5249SOL     OW32888   3.021   0.693   5.910
 5249SOL    HW132889   2.958   0.666   5.978
 5249SOL    HW232890   2.966   0.727   5.840
 5250SOL     OW32891   4.990   6.033   7.373
 5250SOL    HW132892   4.902   6.058   7.344
 5250SOL    HW232893   5.031   6.115   7.399
 5251SOL     OW32894   6.441   5.465   0.590
 5251SOL    HW132895   6.425   5.481   0.683
 5251SOL    HW232896   6.362   5.421   0.559
 5252SOL     OW32897   1.883   1.588   6.058
 5252SOL    HW132898   1.838   1.599   5.974
 5252SOL    HW232899   1.971   1.620   6.043
 5253SOL     OW32900   2.960   0.576   0.444
 5253SOL    HW132901   2.922   0.527   0.516
 5253SOL    HW232902   2.921   0.538   0.365
 5254SOL     OW32903   2.610   2.529   6.932
 5254SOL    HW132904   2.522   2.556   6.905
 5254SOL    HW232905   2.603   2.434   6.945
 5255SOL     OW32906   5.072   6.290   7.497
 5255SOL    HW132907   5.095   6.318   7.408
 5255SOL    HW232908   5.141   6.326   7.552
 5256SOL     OW32909   5.761   1.692   1.435
 5256SOL    HW132910   5.729   1.744   1.362
 5256SOL    HW232911   5.779   1.606   1.398
 5257SOL     OW32912   0.845   0.095   0.984
 5257SOL    HW132913   0.819   0.007   0.957
 5257SOL    HW232914   0.772   0.150   0.958
 5258SOL     OW32915   1.459   3.982   1.617
 5258SOL    HW132916   1.417   4.017   1.696
 5258SOL    HW232917   1.389   3.977   1.552
 5259SOL     OW32918   1.661   5.436   0.022
 5259SOL    HW132919   1.726   5.369   0.044
 5259SOL    HW232920   1.673   5.503   0.089
 5260SOL     OW32921   5.669   6.411   7.427
 5260SOL    HW132922   5.701   6.480   7.485
 5260SOL    HW232923   5.711   6.331   7.457
 5261SOL     OW32924   4.358   2.919   2.101
 5261SOL    HW132925   4.315   3.004   2.093
 5261SOL    HW232926   4.364   2.886   2.012
 5262SOL     OW32927   3.355   2.385   0.941
 5262SOL    HW132928   3.438   2.373   0.988
 5262SOL    HW232929   3.304   2.443   0.998
 5263SOL     OW32930   0.741   5.426   6.687
 5263SOL    HW132931   0.802   5.392   6.752
 5263SOL    HW232932   0.797   5.457   6.615
 5264SOL     OW32933   5.170   6.016   0.532
 5264SOL    HW132934   5.093   5.991   0.483
 5264SOL    HW232935   5.212   6.084   0.479
 5265SOL     OW32936   3.278   5.454   0.360
 5265SOL    HW132937   3.189   5.483   0.343
 5265SOL    HW232938   3.270   5.393   0.433
 5266SOL     OW32939   2.788   0.444   2.310
 5266SOL    HW132940   2.764   0.360   2.350
 5266SOL    HW232941   2.865   0.425   2.257
 5267SOL     OW32942   5.053   4.270   5.844
 5267SOL    HW132943   4.978   4.328   5.828
 5267SOL    HW232944   5.043   4.243   5.935
 5268SOL     OW32945   0.721   4.794   7.398
 5268SOL    HW132946   0.653   4.835   7.452
 5268SOL    HW232947   0.787   4.764   7.461
 5269SOL     OW32948   1.856   3.763   0.570
 5269SOL    HW132949   1.919   3.711   0.619
 5269SOL    HW232950   1.836   3.710   0.493
 5270SOL     OW32951   4.821   2.942   0.912
 5270SOL    HW132952   4.819   3.012   0.847
 5270SOL    HW232953   4.913   2.918   0.919
 5271SOL     OW32954   3.664   0.389   5.950
 5271SOL    HW132955   3.736   0.362   6.007
 5271SOL    HW232956   3.670   0.484   5.947
 5272SOL     OW32957   1.900   4.405   1.773
 5272SOL    HW132958   1.954   4.387   1.696
 5272SOL    HW232959   1.897   4.323   1.821
 5273SOL     OW32960   0.596   0.670   6.678
 5273SOL    HW132961   0.582   0.592   6.625
 5273SOL    HW232962   0.569   0.743   6.622
 5274SOL     OW32963   3.506   2.745   2.100
 5274SOL    HW132964   3.492   2.795   2.019
 5274SOL    HW232965   3.599   2.759   2.120
 5275SOL     OW32966   6.226   1.249   0.913
 5275SOL    HW132967   6.161   1.203   0.859
 5275SOL    HW232968   6.218   1.210   1.000
 5276SOL     OW32969   2.981   5.441   0.286
 5276SOL    HW132970   2.996   5.478   0.199
 5276SOL    HW232971   2.889   5.417   0.287
 5277SOL     OW32972   1.223   3.543   0.249
 5277SOL    HW132973   1.133   3.517   0.235
 5277SOL    HW232974   1.276   3.473   0.210
 5278SOL     OW32975   1.980   3.618   0.764
 5278SOL    HW132976   1.900   3.580   0.800
 5278SOL    HW232977   2.021   3.547   0.715
 5279SOL     OW32978   0.357   2.648   1.642
 5279SOL    HW132979   0.340   2.643   1.736
 5279SOL    HW232980   0.448   2.679   1.636
 5280SOL     OW32981   2.741   4.860   7.538
 5280SOL    HW132982   2.751   4.862   7.633
 5280SOL    HW232983   2.661   4.909   7.521
 5281SOL     OW32984   0.821   0.460   7.115
 5281SOL    HW132985   0.879   0.457   7.039
 5281SOL    HW232986   0.873   0.424   7.187
 5282SOL     OW32987   5.016   0.131   0.832
 5282SOL    HW132988   5.108   0.130   0.856
 5282SOL    HW232989   4.971   0.096   0.910
 5283SOL     OW32990   1.122   5.479   1.232
 5283SOL    HW132991   1.179   5.552   1.207
 5283SOL    HW232992   1.133   5.415   1.161
 5284SOL     OW32993   0.659   2.161   5.750
 5284SOL    HW132994   0.617   2.220   5.812
 5284SOL    HW232995   0.736   2.128   5.797
 5285SOL     OW32996   0.285   3.949   7.053
 5285SOL    HW132997   0.298   3.873   6.996
 5285SOL    HW232998   0.355   4.009   7.029
 5286SOL     OW32999   1.830   2.644   0.139
 5286SOL    HW133000   1.857   2.731   0.111
 5286SOL    HW233001   1.910   2.592   0.138
 5287SOL     OW33002   4.699   1.785   0.424
 5287SOL    HW133003   4.669   1.868   0.386
 5287SOL    HW233004   4.635   1.767   0.493
 5288SOL     OW33005   1.312   2.774   6.647
 5288SOL    HW133006   1.384   2.712   6.661
 5288SOL    HW233007   1.247   2.751   6.713
 5289SOL     OW33008   2.988   5.867   6.917
 5289SOL    HW133009   2.921   5.830   6.975
 5289SOL    HW233010   2.943   5.936   6.870
 5290SOL     OW33011   1.596   0.023   7.108
 5290SOL    HW133012   1.524   0.059   7.160
 5290SOL    HW233013   1.600  -0.069   7.135
 5291SOL     OW33014   5.840   3.409   0.942
 5291SOL    HW133015   5.924   3.371   0.915
 5291SOL    HW233016   5.815   3.359   1.019
 5292SOL     OW33017   5.219   4.687   7.077
 5292SOL    HW133018   5.302   4.641   7.066
 5292SOL    HW233019   5.183   4.695   6.989
 5293SOL     OW33020   4.785   3.563   0.846
 5293SOL    HW133021   4.787   3.617   0.926
 5293SOL    HW233022   4.768   3.625   0.776
 5294SOL     OW33023   0.078   3.025   0.277
 5294SOL    HW133024   0.140   3.093   0.248
 5294SOL    HW233025   0.045   2.987   0.196
 5295SOL     OW33026   6.190   4.418   7.253
 5295SOL    HW133027   6.222   4.507   7.239
 5295SOL    HW233028   6.269   4.364   7.258
 5296SOL     OW33029   4.792   6.203   6.820
 5296SOL    HW133030   4.785   6.216   6.725
 5296SOL    HW233031   4.802   6.109   6.831
 5297SOL     OW33032   0.521   2.217   0.284
 5297SOL    HW133033   0.489   2.291   0.334
 5297SOL    HW233034   0.585   2.174   0.341
 5298SOL     OW33035   2.617   2.049   7.525
 5298SOL    HW133036   2.661   2.132   7.506
 5298SOL    HW233037   2.587   2.018   7.439
 5299SOL     OW33038   0.590   0.539   1.997
 5299SOL    HW133039   0.583   0.634   2.005
 5299SOL    HW233040   0.674   0.525   1.954
 5300SOL     OW33041   0.622   5.017   7.723
 5300SOL    HW133042   0.588   5.008   7.811
 5300SOL    HW233043   0.575   4.951   7.672
 5301SOL     OW33044   3.911   2.534   1.809
 5301SOL    HW133045   3.834   2.584   1.837
 5301SOL    HW233046   3.979   2.600   1.794
 5302SOL     OW33047   2.217   6.435   6.988
 5302SOL    HW133048   2.168   6.516   6.974
 5302SOL    HW233049   2.170   6.391   7.059
 5303SOL     OW33050   2.486   1.506   0.818
 5303SOL    HW133051   2.562   1.449   0.812
 5303SOL    HW233052   2.512   1.575   0.879
 5304SOL     OW33053   4.369   3.444   6.714
 5304SOL    HW133054   4.363   3.525   6.765
 5304SOL    HW233055   4.380   3.375   6.780
 5305SOL     OW33056   2.432   4.796   1.344
 5305SOL    HW133057   2.452   4.837   1.428
 5305SOL    HW233058   2.366   4.853   1.305
 5306SOL     OW33059   0.943   4.828   1.792
 5306SOL    HW133060   0.899   4.851   1.874
 5306SOL    HW233061   0.914   4.739   1.775
 5307SOL     OW33062   0.353   2.711   6.706
 5307SOL    HW133063   0.336   2.627   6.663
 5307SOL    HW233064   0.446   2.729   6.689
 5308SOL     OW33065   6.041   4.747   7.494
 5308SOL    HW133066   6.006   4.829   7.529
 5308SOL    HW233067   6.135   4.754   7.506
 5309SOL     OW33068   3.116   6.172   5.684
 5309SOL    HW133069   3.024   6.197   5.697
 5309SOL    HW233070   3.165   6.253   5.694
 5310SOL     OW33071   4.555   5.171   7.329
 5310SOL    HW133072   4.506   5.232   7.274
 5310SOL    HW233073   4.586   5.224   7.403
 5311SOL     OW33074   2.540   2.990   0.665
 5311SOL    HW133075   2.564   2.898   0.655
 5311SOL    HW233076   2.620   3.039   0.647
 5312SOL     OW33077   3.515   1.775   6.920
 5312SOL    HW133078   3.544   1.856   6.962
 5312SOL    HW233079   3.466   1.803   6.843
 5313SOL     OW33080   3.204   5.232   1.573
 5313SOL    HW133081   3.207   5.136   1.567
 5313SOL    HW233082   3.162   5.250   1.657
 5314SOL     OW33083   1.519   2.984   0.122
 5314SOL    HW133084   1.496   3.066   0.164
 5314SOL    HW233085   1.508   2.918   0.190
 5315SOL     OW33086   0.460   3.232   1.575
 5315SOL    HW133087   0.529   3.281   1.530
 5315SOL    HW233088   0.501   3.147   1.595
 5316SOL     OW33089   4.108   4.935   7.632
 5316SOL    HW133090   4.195   4.902   7.610
 5316SOL    HW233091   4.120   5.030   7.641
 5317SOL     OW33092   3.366   0.590   0.373
 5317SOL    HW133093   3.422   0.534   0.320
 5317SOL    HW233094   3.305   0.630   0.311
 5318SOL     OW33095   1.857   6.328   6.942
 5318SOL    HW133096   1.774   6.288   6.968
 5318SOL    HW233097   1.835   6.387   6.870
 5319SOL     OW33098   0.720   2.886   0.961
 5319SOL    HW133099   0.682   2.947   1.023
 5319SOL    HW233100   0.667   2.896   0.882
 5320SOL     OW33101   5.787   0.073   6.040
 5320SOL    HW133102   5.852   0.103   5.976
 5320SOL    HW233103   5.704   0.073   5.992
 5321SOL     OW33104   4.546   4.916   2.033
 5321SOL    HW133105   4.525   4.961   1.951
 5321SOL    HW233106   4.610   4.973   2.076
 5322SOL     OW33107   0.328   5.199   0.101
 5322SOL    HW133108   0.395   5.215   0.035
 5322SOL    HW233109   0.362   5.239   0.181
 5323SOL     OW33110   0.058   0.790   1.812
 5323SOL    HW133111   0.038   0.715   1.867
 5323SOL    HW233112   0.152   0.805   1.824
 5324SOL     OW33113   4.280   1.076   1.136
 5324SOL    HW133114   4.282   1.005   1.071
 5324SOL    HW233115   4.187   1.087   1.155
 5325SOL     OW33116   0.487   1.634   7.060
 5325SOL    HW133117   0.566   1.679   7.031
 5325SOL    HW233118   0.474   1.564   6.996
 5326SOL     OW33119   5.080   6.438   2.047
 5326SOL    HW133120   5.167   6.398   2.051
 5326SOL    HW233121   5.080   6.503   2.116
 5327SOL     OW33122   0.598   3.067   0.724
 5327SOL    HW133123   0.502   3.063   0.726
 5327SOL    HW233124   0.624   2.980   0.694
 5328SOL     OW33125   1.580   4.427   0.617
 5328SOL    HW133126   1.649   4.364   0.639
 5328SOL    HW233127   1.602   4.505   0.669
 5329SOL     OW33128   3.542   4.569   0.042
 5329SOL    HW133129   3.629   4.531   0.052
 5329SOL    HW233130   3.492   4.502  -0.004
 5330SOL     OW33131   4.163   3.288   7.180
 5330SOL    HW133132   4.208   3.372   7.177
 5330SOL    HW233133   4.228   3.224   7.150
 5331SOL     OW33134   6.146   0.782   0.877
 5331SOL    HW133135   6.150   0.782   0.973
 5331SOL    HW233136   6.237   0.794   0.849
 5332SOL     OW33137   3.687   1.763   7.353
 5332SOL    HW133138   3.618   1.812   7.310
 5332SOL    HW233139   3.657   1.672   7.353
 5333SOL     OW33140   2.707   3.908   6.656
 5333SOL    HW133141   2.642   3.952   6.601
 5333SOL    HW233142   2.742   3.978   6.712
 5334SOL     OW33143   3.990   5.674   0.405
 5334SOL    HW133144   3.913   5.723   0.377
 5334SOL    HW233145   3.964   5.582   0.397
 5335SOL     OW33146   0.916   1.098   1.964
 5335SOL    HW133147   0.865   1.132   2.037
 5335SOL    HW233148   0.856   1.041   1.916
 5336SOL     OW33149   5.359   3.263   1.766
 5336SOL    HW133150   5.361   3.230   1.856
 5336SOL    HW233151   5.346   3.357   1.775
 5337SOL     OW33152   0.033   3.856   6.741
 5337SOL    HW133153   0.097   3.822   6.679
 5337SOL    HW233154   0.066   3.943   6.765
 5338SOL     OW33155   2.348   4.557   0.649
 5338SOL    HW133156   2.367   4.467   0.622
 5338SOL    HW233157   2.428   4.585   0.693
 5339SOL     OW33158   6.293   1.675   7.064
 5339SOL    HW133159   6.323   1.594   7.023
 5339SOL    HW233160   6.199   1.663   7.076
 5340SOL     OW33161   1.292   4.059   7.633
 5340SOL    HW133162   1.380   4.047   7.669
 5340SOL    HW233163   1.288   4.000   7.558
 5341SOL     OW33164   6.201   3.888   0.536
 5341SOL    HW133165   6.206   3.977   0.500
 5341SOL    HW233166   6.126   3.848   0.491
 5342SOL     OW33167   4.077   0.340   1.326
 5342SOL    HW133168   4.072   0.265   1.267
 5342SOL    HW233169   4.170   0.364   1.327
 5343SOL     OW33170   4.876   1.527   1.611
 5343SOL    HW133171   4.870   1.608   1.662
 5343SOL    HW233172   4.820   1.466   1.659
 5344SOL     OW33173   1.840   6.357   2.410
 5344SOL    HW133174   1.896   6.426   2.446
 5344SOL    HW233175   1.780   6.403   2.352
 5345SOL     OW33176   4.420   3.239   6.507
 5345SOL    HW133177   4.355   3.204   6.446
 5345SOL    HW233178   4.370   3.294   6.567
 5346SOL     OW33179   0.693   3.789   6.166
 5346SOL    HW133180   0.608   3.744   6.171
 5346SOL    HW233181   0.681   3.869   6.218
 5347SOL     OW33182   2.756   5.032   1.692
 5347SOL    HW133183   2.830   5.034   1.631
 5347SOL    HW233184   2.712   5.116   1.681
 5348SOL     OW33185   1.328   5.971   1.269
 5348SOL    HW133186   1.244   5.933   1.294
 5348SOL    HW233187   1.306   6.056   1.231
 5349SOL     OW33188   5.530   2.293   0.818
 5349SOL    HW133189   5.499   2.213   0.776
 5349SOL    HW233190   5.619   2.304   0.785
 5350SOL     OW33191   4.575   3.193   0.144
 5350SOL    HW133192   4.565   3.179   0.239
 5350SOL    HW233193   4.542   3.113   0.105
 5351SOL     OW33194   2.193   5.710   2.064
 5351SOL    HW133195   2.106   5.672   2.050
 5351SOL    HW233196   2.223   5.670   2.146
 5352SOL     OW33197   0.199   2.280   2.297
 5352SOL    HW133198   0.197   2.214   2.367
 5352SOL    HW233199   0.144   2.351   2.330
 5353SOL     OW33200   2.566   4.076   0.537
 5353SOL    HW133201   2.528   4.155   0.576
 5353SOL    HW233202   2.590   4.021   0.611
 5354SOL     OW33203   3.812   2.920   7.752
 5354SOL    HW133204   3.885   2.921   7.690
 5354SOL    HW233205   3.852   2.889   7.834
 5355SOL     OW33206   5.417   4.764   1.684
 5355SOL    HW133207   5.462   4.723   1.611
 5355SOL    HW233208   5.366   4.835   1.645
 5356SOL     OW33209   4.533   3.739   0.997
 5356SOL    HW133210   4.592   3.776   1.063
 5356SOL    HW233211   4.471   3.810   0.978
 5357SOL     OW33212   0.792   5.214   0.774
 5357SOL    HW133213   0.865   5.266   0.742
 5357SOL    HW233214   0.827   5.125   0.779
 5358SOL     OW33215   6.348   3.630   1.543
 5358SOL    HW133216   6.359   3.639   1.638
 5358SOL    HW233217   6.361   3.718   1.509
 5359SOL     OW33218   4.664   0.980   1.252
 5359SOL    HW133219   4.585   1.000   1.303
 5359SOL    HW233220   4.634   0.981   1.161
 5360SOL     OW33221   0.478   4.857   7.555
 5360SOL    HW133222   0.439   4.780   7.596
 5360SOL    HW233223   0.404   4.901   7.511
 5361SOL     OW33224   1.634   3.896   6.934
 5361SOL    HW133225   1.632   3.952   7.011
 5361SOL    HW233226   1.699   3.937   6.877
 5362SOL     OW33227   3.809   6.091   0.204
 5362SOL    HW133228   3.810   6.013   0.259
 5362SOL    HW233229   3.814   6.058   0.114
 5363SOL     OW33230   3.012   4.440   2.651
 5363SOL    HW133231   2.985   4.504   2.585
 5363SOL    HW233232   2.933   4.424   2.703
 5364SOL     OW33233   1.903   4.847   0.274
 5364SOL    HW133234   1.852   4.794   0.335
 5364SOL    HW233235   1.869   4.936   0.286
 5365SOL     OW33236   0.978   1.930   6.380
 5365SOL    HW133237   0.882   1.936   6.382
 5365SOL    HW233238   1.008   2.020   6.369
 5366SOL     OW33239   2.392   3.171   6.798
 5366SOL    HW133240   2.341   3.116   6.858
 5366SOL    HW233241   2.326   3.214   6.744
 5367SOL     OW33242   5.934   4.487   0.447
 5367SOL    HW133243   5.953   4.399   0.480
 5367SOL    HW233244   6.014   4.536   0.461
 5368SOL     OW33245   5.652   6.289   1.437
 5368SOL    HW133246   5.704   6.370   1.436
 5368SOL    HW233247   5.584   6.305   1.502
 5369SOL     OW33248   1.641   5.265   6.235
 5369SOL    HW133249   1.629   5.317   6.156
 5369SOL    HW233250   1.734   5.272   6.255
 5370SOL     OW33251   6.200   5.508   0.398
 5370SOL    HW133252   6.241   5.589   0.367
 5370SOL    HW233253   6.143   5.537   0.470
 5371SOL     OW33254   4.757   5.742   7.533
 5371SOL    HW133255   4.814   5.668   7.511
 5371SOL    HW233256   4.740   5.785   7.449
 5372SOL     OW33257   5.175   2.844   6.230
 5372SOL    HW133258   5.239   2.884   6.171
 5372SOL    HW233259   5.123   2.787   6.174
 5373SOL     OW33260   5.897   0.641   0.007
 5373SOL    HW133261   5.982   0.624   0.048
 5373SOL    HW233262   5.853   0.701   0.067
 5374SOL     OW33263   4.561   4.286   1.892
 5374SOL    HW133264   4.576   4.242   1.976
 5374SOL    HW233265   4.483   4.339   1.906
 5375SOL     OW33266   5.207   3.802   1.881
 5375SOL    HW133267   5.169   3.870   1.937
 5375SOL    HW233268   5.210   3.843   1.794
 5376SOL     OW33269   1.508   1.497   0.500
 5376SOL    HW133270   1.512   1.592   0.488
 5376SOL    HW233271   1.483   1.486   0.592
 5377SOL     OW33272   4.472   0.775   0.190
 5377SOL    HW133273   4.542   0.739   0.135
 5377SOL    HW233274   4.475   0.723   0.270
 5378SOL     OW33275   5.464   6.294   1.130
 5378SOL    HW133276   5.549   6.336   1.143
 5378SOL    HW233277   5.482   6.201   1.136
 5379SOL     OW33278   3.663   5.166   6.720
 5379SOL    HW133279   3.598   5.220   6.766
 5379SOL    HW233280   3.710   5.120   6.789
 5380SOL     OW33281   5.275   5.697   7.669
 5380SOL    HW133282   5.259   5.679   7.762
 5380SOL    HW233283   5.193   5.736   7.637
 5381SOL     OW33284   5.001   3.217   7.191
 5381SOL    HW133285   4.938   3.163   7.143
 5381SOL    HW233286   4.985   3.306   7.161
 5382SOL     OW33287   5.017   1.942   5.976
 5382SOL    HW133288   5.059   2.020   6.011
 5382SOL    HW233289   4.984   1.968   5.890
 5383SOL     OW33290   0.163   0.302   7.206
 5383SOL    HW133291   0.253   0.317   7.178
 5383SOL    HW233292   0.130   0.236   7.145
 5384SOL     OW33293   3.838   6.323   0.398
 5384SOL    HW133294   3.819   6.321   0.304
 5384SOL    HW233295   3.791   6.247   0.433
 5385SOL     OW33296   0.015   0.252   1.490
 5385SOL    HW133297   0.073   0.308   1.542
 5385SOL    HW233298  -0.050   0.220   1.552
 5386SOL     OW33299   0.349   2.093   5.909
 5386SOL    HW133300   0.334   2.083   6.003
 5386SOL    HW233301   0.406   2.169   5.901
 5387SOL     OW33302   5.373   1.193   7.697
 5387SOL    HW133303   5.376   1.136   7.621
 5387SOL    HW233304   5.400   1.138   7.770
 5388SOL     OW33305   1.122   5.419   6.863
 5388SOL    HW133306   1.126   5.428   6.768
 5388SOL    HW233307   1.040   5.372   6.879
 5389SOL     OW33308   4.590   2.715   0.007
 5389SOL    HW133309   4.575   2.624  -0.018
 5389SOL    HW233310   4.670   2.740  -0.038
 5390SOL     OW33311   0.912   2.785   1.890
 5390SOL    HW133312   0.880   2.875   1.885
 5390SOL    HW233313   0.840   2.737   1.930
 5391SOL     OW33314   4.094   4.688   2.095
 5391SOL    HW133315   4.098   4.603   2.139
 5391SOL    HW233316   4.054   4.747   2.160
 5392SOL     OW33317   2.387   0.386   6.010
 5392SOL    HW133318   2.462   0.429   6.050
 5392SOL    HW233319   2.415   0.366   5.921
 5393SOL     OW33320   3.725   1.309   1.323
 5393SOL    HW133321   3.819   1.323   1.327
 5393SOL    HW233322   3.714   1.236   1.262
 5394SOL     OW33323   0.970   4.049   1.565
 5394SOL    HW133324   0.965   4.003   1.482
 5394SOL    HW233325   0.987   3.980   1.630
 5395SOL     OW33326   3.089   0.416   2.419
 5395SOL    HW133327   3.068   0.349   2.353
 5395SOL    HW233328   3.046   0.495   2.387
 5396SOL     OW33329   5.715   4.248   5.088
 5396SOL    HW133330   5.756   4.167   5.059
 5396SOL    HW233331   5.719   4.245   5.184
 5397SOL     OW33332   1.846   2.771   7.266
 5397SOL    HW133333   1.869   2.863   7.279
 5397SOL    HW233334   1.878   2.750   7.178
 5398SOL     OW33335   0.540   0.696   7.252
 5398SOL    HW133336   0.628   0.659   7.262
 5398SOL    HW233337   0.531   0.756   7.327
 5399SOL     OW33338   3.090   1.637   0.845
 5399SOL    HW133339   3.003   1.604   0.868
 5399SOL    HW233340   3.119   1.684   0.922
 5400SOL     OW33341   0.313   5.361   5.956
 5400SOL    HW133342   0.273   5.274   5.962
 5400SOL    HW233343   0.407   5.344   5.950
 5401SOL     OW33344   2.279   0.587   0.165
 5401SOL    HW133345   2.261   0.565   0.073
 5401SOL    HW233346   2.195   0.575   0.209
 5402SOL     OW33347   4.200   2.000   1.417
 5402SOL    HW133348   4.130   2.023   1.479
 5402SOL    HW233349   4.206   2.076   1.359
 5403SOL     OW33350   0.981   1.124   0.586
 5403SOL    HW133351   0.895   1.145   0.623
 5403SOL    HW233352   1.028   1.207   0.588
 5404SOL     OW33353   3.670   2.485   6.790
 5404SOL    HW133354   3.689   2.505   6.881
 5404SOL    HW233355   3.669   2.390   6.785
 5405SOL     OW33356   3.715   5.606   1.104
 5405SOL    HW133357   3.718   5.599   1.009
 5405SOL    HW233358   3.627   5.577   1.128
 5406SOL     OW33359   4.311   3.155   7.736
 5406SOL    HW133360   4.353   3.070   7.749
 5406SOL    HW233361   4.224   3.145   7.775
 5407SOL     OW33362   1.065   4.105   1.140
 5407SOL    HW133363   1.034   4.175   1.084
 5407SOL    HW233364   1.161   4.110   1.135
 5408SOL     OW33365   3.918   0.095   1.971
 5408SOL    HW133366   3.838   0.108   1.920
 5408SOL    HW233367   3.956   0.015   1.936
 5409SOL     OW33368   5.487   5.640   1.549
 5409SOL    HW133369   5.499   5.704   1.480
 5409SOL    HW233370   5.547   5.569   1.527
 5410SOL     OW33371   3.977   0.771   1.368
 5410SOL    HW133372   4.002   0.696   1.315
 5410SOL    HW233373   4.045   0.778   1.435
 5411SOL     OW33374   0.293   0.750   1.386
 5411SOL    HW133375   0.278   0.817   1.452
 5411SOL    HW233376   0.217   0.756   1.327
 5412SOL     OW33377   3.265   2.088   0.705
 5412SOL    HW133378   3.350   2.074   0.662
 5412SOL    HW233379   3.200   2.059   0.641
 5413SOL     OW33380   1.444   3.464   7.221
 5413SOL    HW133381   1.407   3.450   7.308
 5413SOL    HW233382   1.491   3.547   7.228
 5414SOL     OW33383   4.998   3.559   6.365
 5414SOL    HW133384   5.044   3.501   6.426
 5414SOL    HW233385   4.914   3.577   6.407
 5415SOL     OW33386   3.332   3.419   6.943
 5415SOL    HW133387   3.341   3.337   6.895
 5415SOL    HW233388   3.414   3.428   6.992
 5416SOL     OW33389   0.189   1.325   7.611
 5416SOL    HW133390   0.145   1.410   7.604
 5416SOL    HW233391   0.209   1.301   7.521
 5417SOL     OW33392   2.331   5.735   6.771
 5417SOL    HW133393   2.376   5.814   6.742
 5417SOL    HW233394   2.239   5.748   6.745
 5418SOL     OW33395   2.349   5.894   7.440
 5418SOL    HW133396   2.362   5.973   7.388
 5418SOL    HW233397   2.410   5.830   7.403
 5419SOL     OW33398   2.236   2.381   6.888
 5419SOL    HW133399   2.295   2.450   6.857
 5419SOL    HW233400   2.184   2.357   6.812
 5420SOL     OW33401   0.225   3.820   1.372
 5420SOL    HW133402   0.148   3.808   1.427
 5420SOL    HW233403   0.217   3.753   1.304
 5421SOL     OW33404   5.029   2.249   0.702
 5421SOL    HW133405   5.092   2.181   0.678
 5421SOL    HW233406   4.969   2.255   0.628
 5422SOL     OW33407   6.177   5.813   6.100
 5422SOL    HW133408   6.164   5.744   6.035
 5422SOL    HW233409   6.221   5.770   6.173
 5423SOL     OW33410   0.795   4.927   0.777
 5423SOL    HW133411   0.858   4.859   0.754
 5423SOL    HW233412   0.714   4.901   0.735
 5424SOL     OW33413   6.389   5.902   0.965
 5424SOL    HW133414   6.338   5.977   0.995
 5424SOL    HW233415   6.439   5.874   1.042
 5425SOL     OW33416   2.477   1.408   1.277
 5425SOL    HW133417   2.459   1.487   1.328
 5425SOL    HW233418   2.398   1.354   1.288
 5426SOL     OW33419   2.187   0.916   1.422
 5426SOL    HW133420   2.141   0.852   1.368
 5426SOL    HW233421   2.260   0.866   1.460
 5427SOL     OW33422   4.531   2.486   7.661
 5427SOL    HW133423   4.559   2.486   7.569
 5427SOL    HW233424   4.494   2.398   7.674
 5428SOL     OW33425   3.245   4.380   1.211
 5428SOL    HW133426   3.200   4.311   1.162
 5428SOL    HW233427   3.176   4.425   1.258
 5429SOL     OW33428   5.566   4.279   0.583
 5429SOL    HW133429   5.583   4.369   0.555
 5429SOL    HW233430   5.616   4.269   0.664
 5430SOL     OW33431   5.935   6.075   1.089
 5430SOL    HW133432   5.929   6.083   1.185
 5430SOL    HW233433   6.024   6.101   1.068
 5431SOL     OW33434   1.703   4.164   1.052
 5431SOL    HW133435   1.650   4.093   1.089
 5431SOL    HW233436   1.640   4.231   1.027
 5432SOL     OW33437   2.852   6.134   7.708
 5432SOL    HW133438   2.923   6.154   7.769
 5432SOL    HW233439   2.860   6.040   7.691
 5433SOL     OW33440   1.661   6.382   5.855
 5433SOL    HW133441   1.613   6.318   5.802
 5433SOL    HW233442   1.748   6.387   5.815
 5434SOL     OW33443   1.708   2.937   1.005
 5434SOL    HW133444   1.680   2.953   0.915
 5434SOL    HW233445   1.634   2.890   1.045
 5435SOL     OW33446   3.455   3.115   6.698
 5435SOL    HW133447   3.430   3.104   6.789
 5435SOL    HW233448   3.380   3.159   6.657
 5436SOL     OW33449   3.457   0.744   7.670
 5436SOL    HW133450   3.458   0.648   7.678
 5436SOL    HW233451   3.504   0.762   7.589
 5437SOL     OW33452   4.518   2.029   6.531
 5437SOL    HW133453   4.432   2.070   6.540
 5437SOL    HW233454   4.567   2.088   6.475
 5438SOL     OW33455   2.241   3.331   6.207
 5438SOL    HW133456   2.303   3.330   6.134
 5438SOL    HW233457   2.230   3.239   6.230
 5439SOL     OW33458   5.532   3.893   0.984
 5439SOL    HW133459   5.531   3.904   1.079
 5439SOL    HW233460   5.554   3.800   0.971
 5440SOL     OW33461   4.237   1.295   2.051
 5440SOL    HW133462   4.187   1.338   2.120
 5440SOL    HW233463   4.328   1.309   2.076
 5441SOL     OW33464   1.478   6.443   0.991
 5441SOL    HW133465   1.429   6.396   0.923
 5441SOL    HW233466   1.490   6.531   0.955
 5442SOL     OW33467   0.246   3.014   7.494
 5442SOL    HW133468   0.303   2.944   7.463
 5442SOL    HW233469   0.295   3.056   7.565
 5443SOL     OW33470   5.198   5.526   2.224
 5443SOL    HW133471   5.169   5.474   2.300
 5443SOL    HW233472   5.222   5.611   2.261
 5444SOL     OW33473   3.212   0.181   1.647
 5444SOL    HW133474   3.241   0.204   1.559
 5444SOL    HW233475   3.154   0.252   1.672
 5445SOL     OW33476   3.015   4.695   7.412
 5445SOL    HW133477   3.104   4.707   7.446
 5445SOL    HW233478   2.962   4.760   7.459
 5446SOL     OW33479   1.403   1.498   0.113
 5446SOL    HW133480   1.319   1.455   0.130
 5446SOL    HW233481   1.393   1.586   0.149
 5447SOL     OW33482   4.339   1.105   6.899
 5447SOL    HW133483   4.381   1.128   6.816
 5447SOL    HW233484   4.404   1.053   6.945
 5448SOL     OW33485   5.940   2.365   7.061
 5448SOL    HW133486   5.982   2.365   6.974
 5448SOL    HW233487   5.857   2.410   7.047
 5449SOL     OW33488   4.009   5.899   6.655
 5449SOL    HW133489   3.961   5.976   6.624
 5449SOL    HW233490   4.077   5.885   6.590
 5450SOL     OW33491   2.814   1.432   6.116
 5450SOL    HW133492   2.762   1.432   6.036
 5450SOL    HW233493   2.754   1.463   6.184
 5451SOL     OW33494   3.861   4.837   2.631
 5451SOL    HW133495   3.856   4.926   2.595
 5451SOL    HW233496   3.771   4.805   2.628
 5452SOL     OW33497   2.680   5.388   0.832
 5452SOL    HW133498   2.614   5.438   0.880
 5452SOL    HW233499   2.629   5.328   0.778
 5453SOL     OW33500   1.236   4.170   0.356
 5453SOL    HW133501   1.176   4.204   0.289
 5453SOL    HW233502   1.296   4.243   0.373
 5454SOL     OW33503   0.849   5.512   1.297
 5454SOL    HW133504   0.931   5.494   1.251
 5454SOL    HW233505   0.841   5.608   1.294
 5455SOL     OW33506   6.380   4.469   2.329
 5455SOL    HW133507   6.428   4.435   2.404
 5455SOL    HW233508   6.394   4.564   2.334
 5456SOL     OW33509   4.301   2.901   6.076
 5456SOL    HW133510   4.311   2.913   5.982
 5456SOL    HW233511   4.207   2.898   6.090
 5457SOL     OW33512   4.440   0.506   1.548
 5457SOL    HW133513   4.519   0.521   1.601
 5457SOL    HW233514   4.425   0.412   1.553
 5458SOL     OW33515   2.917   1.599   5.811
 5458SOL    HW133516   2.844   1.557   5.856
 5458SOL    HW233517   2.995   1.558   5.848
 5459SOL     OW33518   1.499   0.345   7.113
 5459SOL    HW133519   1.546   0.402   7.052
 5459SOL    HW233520   1.485   0.264   7.064
 5460SOL     OW33521   2.216   1.366   0.834
 5460SOL    HW133522   2.307   1.394   0.822
 5460SOL    HW233523   2.164   1.443   0.809
 5461SOL     OW33524   5.086   2.097   6.258
 5461SOL    HW133525   5.107   2.190   6.271
 5461SOL    HW233526   4.990   2.096   6.250
 5462SOL     OW33527   2.132   3.810   2.500
 5462SOL    HW133528   2.047   3.771   2.482
 5462SOL    HW233529   2.111   3.892   2.546
 5463SOL     OW33530   2.007   0.986   0.893
 5463SOL    HW133531   1.922   0.977   0.936
 5463SOL    HW233532   1.986   0.994   0.800
 5464SOL     OW33533   0.374   0.929   1.612
 5464SOL    HW133534   0.355   1.023   1.607
 5464SOL    HW233535   0.355   0.905   1.702
 5465SOL     OW33536   0.935   0.483   1.106
 5465SOL    HW133537   0.942   0.438   1.190
 5465SOL    HW233538   1.002   0.551   1.109
 5466SOL     OW33539   0.935   5.766   5.643
 5466SOL    HW133540   0.883   5.786   5.565
 5466SOL    HW233541   0.899   5.824   5.711
 5467SOL     OW33542   0.342   5.742   6.506
 5467SOL    HW133543   0.424   5.725   6.553
 5467SOL    HW233544   0.292   5.661   6.515
 5468SOL     OW33545   4.999   4.826   6.164
 5468SOL    HW133546   4.968   4.763   6.099
 5468SOL    HW233547   4.989   4.911   6.122
 5469SOL     OW33548   2.413   3.777   6.863
 5469SOL    HW133549   2.353   3.831   6.914
 5469SOL    HW233550   2.439   3.707   6.923
 5470SOL     OW33551   1.018   5.210   1.856
 5470SOL    HW133552   1.023   5.138   1.793
 5470SOL    HW233553   0.928   5.242   1.848
 5471SOL     OW33554   4.522   4.943   1.344
 5471SOL    HW133555   4.530   5.004   1.417
 5471SOL    HW233556   4.486   4.864   1.383
 5472SOL     OW33557   5.635   1.214   0.696
 5472SOL    HW133558   5.617   1.250   0.609
 5472SOL    HW233559   5.611   1.121   0.690
 5473SOL     OW33560   0.484   0.600   7.666
 5473SOL    HW133561   0.414   0.580   7.727
 5473SOL    HW233562   0.462   0.686   7.631
 5474SOL     OW33563   5.173   5.800   5.632
 5474SOL    HW133564   5.252   5.810   5.686
 5474SOL    HW233565   5.143   5.889   5.616
 5475SOL     OW33566   4.185   2.654   0.402
 5475SOL    HW133567   4.136   2.572   0.405
 5475SOL    HW233568   4.154   2.703   0.479
 5476SOL     OW33569   0.578   5.820   1.521
 5476SOL    HW133570   0.572   5.725   1.508
 5476SOL    HW233571   0.487   5.850   1.521
 5477SOL     OW33572   2.007   0.136   1.635
 5477SOL    HW133573   1.971   0.118   1.722
 5477SOL    HW233574   1.949   0.088   1.575
 5478SOL     OW33575   2.143   5.009   1.623
 5478SOL    HW133576   2.058   5.045   1.647
 5478SOL    HW233577   2.178   5.071   1.559
 5479SOL     OW33578   3.211   5.039   0.016
 5479SOL    HW133579   3.255   4.956  -0.002
 5479SOL    HW233580   3.234   5.060   0.106
 5480SOL     OW33581   0.859   4.363   5.677
 5480SOL    HW133582   0.789   4.424   5.653
 5480SOL    HW233583   0.822   4.276   5.657
 5481SOL     OW33584   2.442   5.965   0.853
 5481SOL    HW133585   2.521   5.933   0.897
 5481SOL    HW233586   2.475   6.026   0.787
 5482SOL     OW33587   4.820   6.233   7.634
 5482SOL    HW133588   4.800   6.143   7.662
 5482SOL    HW233589   4.903   6.226   7.588
 5483SOL     OW33590   2.778   3.558   7.450
 5483SOL    HW133591   2.687   3.536   7.429
 5483SOL    HW233592   2.787   3.537   7.543
 5484SOL     OW33593   6.334   5.580   7.629
 5484SOL    HW133594   6.416   5.568   7.582
 5484SOL    HW233595   6.350   5.654   7.687
 5485SOL     OW33596   5.745   0.254   1.197
 5485SOL    HW133597   5.781   0.335   1.231
 5485SOL    HW233598   5.795   0.237   1.116
 5486SOL     OW33599   6.308   0.667   2.137
 5486SOL    HW133600   6.262   0.590   2.171
 5486SOL    HW233601   6.365   0.633   2.068
 5487SOL     OW33602   5.770   4.537   1.436
 5487SOL    HW133603   5.712   4.485   1.381
 5487SOL    HW233604   5.802   4.476   1.502
 5488SOL     OW33605   5.429   6.270   7.341
 5488SOL    HW133606   5.513   6.316   7.339
 5488SOL    HW233607   5.452   6.177   7.342
 5489SOL     OW33608   0.961   2.132   6.146
 5489SOL    HW133609   0.998   2.049   6.118
 5489SOL    HW233610   0.869   2.127   6.121
 5490SOL     OW33611   1.318   4.094   5.975
 5490SOL    HW133612   1.400   4.053   5.948
 5490SOL    HW233613   1.336   4.188   5.976
 5491SOL     OW33614   4.157   4.988   1.663
 5491SOL    HW133615   4.128   5.066   1.616
 5491SOL    HW233616   4.135   4.915   1.605
 5492SOL     OW33617   5.250   1.205   2.201
 5492SOL    HW133618   5.329   1.222   2.149
 5492SOL    HW233619   5.233   1.111   2.189
 5493SOL     OW33620   1.895   6.234   1.169
 5493SOL    HW133621   1.827   6.264   1.108
 5493SOL    HW233622   1.847   6.182   1.234
 5494SOL     OW33623   4.946   0.939   1.777
 5494SOL    HW133624   5.039   0.957   1.790
 5494SOL    HW233625   4.941   0.893   1.693
 5495SOL     OW33626   1.832   1.373   0.204
 5495SOL    HW133627   1.872   1.386   0.118
 5495SOL    HW233628   1.752   1.324   0.186
 5496SOL     OW33629   5.640   6.109   1.831
 5496SOL    HW133630   5.681   6.194   1.817
 5496SOL    HW233631   5.547   6.129   1.843
 5497SOL     OW33632   5.614   0.430   1.421
 5497SOL    HW133633   5.706   0.407   1.433
 5497SOL    HW233634   5.609   0.523   1.440
 5498SOL     OW33635   0.210   0.943   6.226
 5498SOL    HW133636   0.188   1.027   6.267
 5498SOL    HW233637   0.213   0.963   6.132
 5499SOL     OW33638   2.071   0.931   0.468
 5499SOL    HW133639   2.160   0.911   0.439
 5499SOL    HW233640   2.075   1.022   0.497
 5500SOL     OW33641   2.840   0.818   0.423
 5500SOL    HW133642   2.894   0.740   0.429
 5500SOL    HW233643   2.881   0.870   0.354
 5501SOL     OW33644   2.855   4.604   7.683
 5501SOL    HW133645   2.888   4.671   7.743
 5501SOL    HW233646   2.934   4.565   7.645
 5502SOL     OW33647   1.090   3.815   1.658
 5502SOL    HW133648   1.172   3.772   1.631
 5502SOL    HW233649   1.021   3.761   1.619
 5503SOL     OW33650   4.838   0.586   7.448
 5503SOL    HW133651   4.883   0.613   7.368
 5503SOL    HW233652   4.764   0.533   7.417
 5504SOL     OW33653   5.638   0.173   0.578
 5504SOL    HW133654   5.728   0.205   0.576
 5504SOL    HW233655   5.646   0.079   0.596
 5505SOL     OW33656   4.100   1.895   7.633
 5505SOL    HW133657   4.095   1.991   7.627
 5505SOL    HW233658   4.021   1.865   7.588
 5506SOL     OW33659   5.723   1.023   1.875
 5506SOL    HW133660   5.702   1.085   1.944
 5506SOL    HW233661   5.652   1.032   1.811
 5507SOL     OW33662   6.360   3.394   6.817
 5507SOL    HW133663   6.390   3.441   6.895
 5507SOL    HW233664   6.359   3.460   6.748
 5508SOL     OW33665   4.686   3.486   6.011
 5508SOL    HW133666   4.640   3.518   6.088
 5508SOL    HW233667   4.777   3.476   6.039
 5509SOL     OW33668   4.790   5.486   7.681
 5509SOL    HW133669   4.730   5.444   7.619
 5509SOL    HW233670   4.866   5.510   7.629
 5510SOL     OW33671   3.803   2.961   0.454
 5510SOL    HW133672   3.878   2.929   0.404
 5510SOL    HW233673   3.763   3.027   0.396
 5511SOL     OW33674   6.463   1.714   6.385
 5511SOL    HW133675   6.481   1.786   6.444
 5511SOL    HW233676   6.385   1.672   6.421
 5512SOL     OW33677   1.066   4.189   6.613
 5512SOL    HW133678   1.053   4.261   6.675
 5512SOL    HW233679   1.149   4.150   6.639
 5513SOL     OW33680   2.235   3.353   0.399
 5513SOL    HW133681   2.188   3.271   0.386
 5513SOL    HW233682   2.215   3.405   0.321
 5514SOL     OW33683   0.558   3.200   1.934
 5514SOL    HW133684   0.562   3.231   2.025
 5514SOL    HW233685   0.573   3.106   1.940
 5515SOL     OW33686   5.837   1.429   0.741
 5515SOL    HW133687   5.911   1.375   0.771
 5515SOL    HW233688   5.763   1.368   0.738
 5516SOL     OW33689   3.529   1.039   7.712
 5516SOL    HW133690   3.466   1.014   7.779
 5516SOL    HW233691   3.612   1.047   7.760
 5517SOL     OW33692   6.354   2.011   2.507
 5517SOL    HW133693   6.287   1.962   2.554
 5517SOL    HW233694   6.383   1.952   2.437
 5518SOL     OW33695   3.479   3.974   6.120
 5518SOL    HW133696   3.444   3.894   6.158
 5518SOL    HW233697   3.421   3.994   6.047
 5519SOL     OW33698   6.218   1.120   0.277
 5519SOL    HW133699   6.138   1.163   0.307
 5519SOL    HW233700   6.289   1.168   0.321
 5520SOL     OW33701   2.045   0.525   0.277
 5520SOL    HW133702   1.978   0.519   0.209
 5520SOL    HW233703   2.001   0.494   0.356
 5521SOL     OW33704   5.818   3.908   6.858
 5521SOL    HW133705   5.897   3.859   6.878
 5521SOL    HW233706   5.846   3.998   6.850
 5522SOL     OW33707   0.468   5.560   0.143
 5522SOL    HW133708   0.467   5.476   0.188
 5522SOL    HW233709   0.551   5.600   0.169
 5523SOL     OW33710   5.668   4.188   6.220
 5523SOL    HW133711   5.742   4.242   6.193
 5523SOL    HW233712   5.672   4.111   6.163
 5524SOL     OW33713   5.799   2.533   2.135
 5524SOL    HW133714   5.886   2.544   2.172
 5524SOL    HW233715   5.741   2.524   2.211
 5525SOL     OW33716   3.267   0.651   1.208
 5525SOL    HW133717   3.186   0.701   1.208
 5525SOL    HW233718   3.332   0.711   1.172
 5526SOL     OW33719   4.744   3.887   1.136
 5526SOL    HW133720   4.806   3.960   1.133
 5526SOL    HW233721   4.794   3.815   1.174
 5527SOL     OW33722   4.296   2.876   0.296
 5527SOL    HW133723   4.233   2.886   0.225
 5527SOL    HW233724   4.263   2.804   0.349
 5528SOL     OW33725   1.819   2.454   1.950
 5528SOL    HW133726   1.774   2.371   1.936
 5528SOL    HW233727   1.855   2.447   2.038
 5529SOL     OW33728   5.691   2.419   5.633
 5529SOL    HW133729   5.597   2.408   5.621
 5529SOL    HW233730   5.731   2.351   5.578
 5530SOL     OW33731   5.565   3.633   6.833
 5530SOL    HW133732   5.507   3.566   6.797
 5530SOL    HW233733   5.639   3.636   6.772
 5531SOL     OW33734   5.940   1.058   7.523
 5531SOL    HW133735   5.882   1.124   7.485
 5531SOL    HW233736   5.893   0.976   7.513
 5532SOL     OW33737   5.034   4.601   1.532
 5532SOL    HW133738   5.115   4.559   1.501
 5532SOL    HW233739   4.973   4.590   1.460
 5533SOL     OW33740   0.780   1.808   7.577
 5533SOL    HW133741   0.816   1.895   7.561
 5533SOL    HW233742   0.792   1.794   7.671
 5534SOL     OW33743   5.569   5.321   0.908
 5534SOL    HW133744   5.548   5.230   0.925
 5534SOL    HW233745   5.610   5.320   0.821
 5535SOL     OW33746   4.917   2.021   1.131
 5535SOL    HW133747   4.883   2.080   1.063
 5535SOL    HW233748   4.955   2.080   1.196
 5536SOL     OW33749   4.723   4.223   7.437
 5536SOL    HW133750   4.818   4.224   7.440
 5536SOL    HW233751   4.699   4.310   7.405
 5537SOL     OW33752   3.875   2.185   0.020
 5537SOL    HW133753   3.797   2.232  -0.008
 5537SOL    HW233754   3.921   2.163  -0.061
 5538SOL     OW33755   3.737   0.776   1.213
 5538SOL    HW133756   3.680   0.700   1.199
 5538SOL    HW233757   3.805   0.744   1.273
 5539SOL     OW33758   2.255   2.344   1.422
 5539SOL    HW133759   2.273   2.284   1.349
 5539SOL    HW233760   2.189   2.299   1.474
 5540SOL     OW33761   1.174   3.522   1.462
 5540SOL    HW133762   1.100   3.484   1.414
 5540SOL    HW233763   1.230   3.447   1.482
 5541SOL     OW33764   5.332   4.846   6.582
 5541SOL    HW133765   5.425   4.823   6.580
 5541SOL    HW233766   5.292   4.795   6.512
 5542SOL     OW33767   3.270   4.911   7.251
 5542SOL    HW133768   3.326   4.878   7.181
 5542SOL    HW233769   3.300   4.866   7.329
 5543SOL     OW33770   2.228   3.465   6.841
 5543SOL    HW133771   2.302   3.446   6.899
 5543SOL    HW233772   2.261   3.532   6.781
 5544SOL     OW33773   3.769   1.841   5.879
 5544SOL    HW133774   3.707   1.912   5.864
 5544SOL    HW233775   3.768   1.828   5.973
 5545SOL     OW33776   2.048   0.085   2.454
 5545SOL    HW133777   2.062   0.180   2.464
 5545SOL    HW233778   2.119   0.057   2.396
 5546SOL     OW33779   0.979   6.071   7.429
 5546SOL    HW133780   0.970   6.048   7.522
 5546SOL    HW233781   1.058   6.124   7.425
 5547SOL     OW33782   1.843   5.215   0.017
 5547SOL    HW133783   1.807   5.235  -0.069
 5547SOL    HW233784   1.800   5.133   0.042
 5548SOL     OW33785   1.330   3.142   6.250
 5548SOL    HW133786   1.284   3.210   6.300
 5548SOL    HW233787   1.387   3.190   6.190
 5549SOL     OW33788   3.716   3.677   6.878
 5549SOL    HW133789   3.664   3.661   6.957
 5549SOL    HW233790   3.701   3.600   6.824
 5550SOL     OW33791   3.638   0.083   6.518
 5550SOL    HW133792   3.565   0.145   6.524
 5550SOL    HW233793   3.687   0.111   6.441
 5551SOL     OW33794   1.954   0.270   5.942
 5551SOL    HW133795   1.905   0.269   5.860
 5551SOL    HW233796   1.992   0.183   5.948
 5552SOL     OW33797   2.925   0.880   6.327
 5552SOL    HW133798   2.982   0.814   6.287
 5552SOL    HW233799   2.837   0.855   6.299
 5553SOL     OW33800   2.594   2.584   2.227
 5553SOL    HW133801   2.613   2.574   2.321
 5553SOL    HW233802   2.615   2.499   2.189
 5554SOL     OW33803   4.608   1.352   0.426
 5554SOL    HW133804   4.573   1.279   0.477
 5554SOL    HW233805   4.585   1.430   0.476
 5555SOL     OW33806   4.315   0.222   1.760
 5555SOL    HW133807   4.277   0.199   1.675
 5555SOL    HW233808   4.410   0.211   1.747
 5556SOL     OW33809   4.831   2.784   7.120
 5556SOL    HW133810   4.786   2.846   7.063
 5556SOL    HW233811   4.920   2.781   7.086
 5557SOL     OW33812   1.692   6.280   1.006
 5557SOL    HW133813   1.707   6.268   0.912
 5557SOL    HW233814   1.613   6.334   1.011
 5558SOL     OW33815   6.252   0.381   0.599
 5558SOL    HW133816   6.280   0.396   0.689
 5558SOL    HW233817   6.248   0.469   0.560
 5559SOL     OW33818   2.183   4.465   1.231
 5559SOL    HW133819   2.176   4.524   1.156
 5559SOL    HW233820   2.271   4.479   1.265
 5560SOL     OW33821   3.218   3.154   7.381
 5560SOL    HW133822   3.239   3.247   7.390
 5560SOL    HW233823   3.148   3.152   7.317
 5561SOL     OW33824   4.872   4.827   6.419
 5561SOL    HW133825   4.950   4.861   6.462
 5561SOL    HW233826   4.903   4.795   6.335
 5562SOL     OW33827   0.743   4.140   6.956
 5562SOL    HW133828   0.819   4.130   7.013
 5562SOL    HW233829   0.775   4.115   6.870
 5563SOL     OW33830   0.172   3.267   6.836
 5563SOL    HW133831   0.179   3.212   6.914
 5563SOL    HW233832   0.129   3.347   6.867
 5564SOL     OW33833   4.241   5.104   7.197
 5564SOL    HW133834   4.270   5.162   7.128
 5564SOL    HW233835   4.308   5.036   7.202
 5565SOL     OW33836   6.428   4.477   0.960
 5565SOL    HW133837   6.355   4.538   0.954
 5565SOL    HW233838   6.504   4.526   0.927
 5566SOL     OW33839   0.334   0.491   6.219
 5566SOL    HW133840   0.371   0.572   6.186
 5566SOL    HW233841   0.245   0.488   6.183
 5567SOL     OW33842   0.329   2.390   7.135
 5567SOL    HW133843   0.257   2.401   7.073
 5567SOL    HW233844   0.313   2.304   7.176
 5568SOL     OW33845   4.285   4.782   0.719
 5568SOL    HW133846   4.212   4.738   0.764
 5568SOL    HW233847   4.304   4.726   0.644
 5569SOL     OW33848   0.369   2.527   2.226
 5569SOL    HW133849   0.450   2.498   2.185
 5569SOL    HW233850   0.336   2.450   2.271
 5570SOL     OW33851   2.666   5.028   0.301
 5570SOL    HW133852   2.603   4.985   0.359
 5570SOL    HW233853   2.622   5.107   0.272
 5571SOL     OW33854   0.589   6.408   0.465
 5571SOL    HW133855   0.640   6.472   0.513
 5571SOL    HW233856   0.625   6.323   0.491
 5572SOL     OW33857   4.496   6.396   0.611
 5572SOL    HW133858   4.518   6.466   0.673
 5572SOL    HW233859   4.580   6.352   0.595
 5573SOL     OW33860   5.958   1.811   1.701
 5573SOL    HW133861   5.952   1.819   1.606
 5573SOL    HW233862   6.010   1.732   1.715
 5574SOL     OW33863   6.089   1.449   0.449
 5574SOL    HW133864   6.134   1.471   0.367
 5574SOL    HW233865   6.015   1.509   0.453
 5575SOL     OW33866   2.615   0.657   6.557
 5575SOL    HW133867   2.578   0.580   6.600
 5575SOL    HW233868   2.707   0.658   6.584
 5576SOL     OW33869   4.168   1.476   7.237
 5576SOL    HW133870   4.160   1.451   7.145
 5576SOL    HW233871   4.130   1.563   7.242
 5577SOL     OW33872   2.275   1.461   6.371
 5577SOL    HW133873   2.367   1.478   6.391
 5577SOL    HW233874   2.268   1.474   6.277
 5578SOL     OW33875   2.410   1.722   2.075
 5578SOL    HW133876   2.471   1.699   2.004
 5578SOL    HW233877   2.323   1.711   2.037
 5579SOL     OW33878   6.407   2.252   1.858
 5579SOL    HW133879   6.356   2.332   1.865
 5579SOL    HW233880   6.497   2.279   1.875
 5580SOL     OW33881   2.037   2.233   1.543
 5580SOL    HW133882   2.011   2.224   1.634
 5580SOL    HW233883   1.969   2.186   1.494
 5581SOL     OW33884   2.213   0.661   0.657
 5581SOL    HW133885   2.146   0.683   0.592
 5581SOL    HW233886   2.164   0.637   0.735
 5582SOL     OW33887   0.276   3.076   6.663
 5582SOL    HW133888   0.368   3.090   6.641
 5582SOL    HW233889   0.249   3.156   6.708
 5583SOL     OW33890   2.786   0.226   7.533
 5583SOL    HW133891   2.782   0.193   7.443
 5583SOL    HW233892   2.784   0.147   7.587
 5584SOL     OW33893   3.504   3.086   0.153
 5584SOL    HW133894   3.509   3.050   0.064
 5584SOL    HW233895   3.442   3.029   0.199
 5585SOL     OW33896   4.303   4.202   0.785
 5585SOL    HW133897   4.230   4.226   0.727
 5585SOL    HW233898   4.327   4.284   0.829
 5586SOL     OW33899   3.742   4.278   0.895
 5586SOL    HW133900   3.773   4.367   0.877
 5586SOL    HW233901   3.744   4.271   0.990
 5587SOL     OW33902   3.661   0.396   1.744
 5587SOL    HW133903   3.648   0.423   1.835
 5587SOL    HW233904   3.586   0.340   1.724
 5588SOL     OW33905   4.719   3.934   0.193
 5588SOL    HW133906   4.802   3.981   0.183
 5588SOL    HW233907   4.745   3.842   0.199
 5589SOL     OW33908   3.759   3.634   0.511
 5589SOL    HW133909   3.766   3.671   0.599
 5589SOL    HW233910   3.665   3.621   0.497
 5590SOL     OW33911   3.955   5.881   1.517
 5590SOL    HW133912   3.904   5.921   1.588
 5590SOL    HW233913   3.898   5.812   1.483
 5591SOL     OW33914   4.064   2.033   7.140
 5591SOL    HW133915   4.033   2.020   7.050
 5591SOL    HW233916   3.991   2.006   7.195
 5592SOL     OW33917   1.531   4.076   7.372
 5592SOL    HW133918   1.613   4.060   7.324
 5592SOL    HW233919   1.524   4.172   7.377
 5593SOL     OW33920   0.585   5.160   0.618
 5593SOL    HW133921   0.647   5.172   0.690
 5593SOL    HW233922   0.500   5.181   0.657
 5594SOL     OW33923   2.500   1.776   1.650
 5594SOL    HW133924   2.490   1.718   1.575
 5594SOL    HW233925   2.579   1.827   1.630
 5595SOL     OW33926   5.643   2.177   2.305
 5595SOL    HW133927   5.608   2.231   2.375
 5595SOL    HW233928   5.569   2.123   2.276
 5596SOL     OW33929   5.298   2.610   0.242
 5596SOL    HW133930   5.353   2.539   0.209
 5596SOL    HW233931   5.223   2.611   0.182
 5597SOL     OW33932   4.241   3.596   0.891
 5597SOL    HW133933   4.307   3.564   0.829
 5597SOL    HW233934   4.158   3.586   0.845
 5598SOL     OW33935   5.052   5.244   0.664
 5598SOL    HW133936   4.957   5.245   0.658
 5598SOL    HW233937   5.073   5.311   0.729
 5599SOL     OW33938   0.169   0.363   1.676
 5599SOL    HW133939   0.208   0.440   1.718
 5599SOL    HW233940   0.140   0.307   1.748
 5600SOL     OW33941   5.320   1.350   0.306
 5600SOL    HW133942   5.235   1.306   0.296
 5600SOL    HW233943   5.300   1.431   0.353
 5601SOL     OW33944   5.745   2.428   0.694
 5601SOL    HW133945   5.716   2.381   0.616
 5601SOL    HW233946   5.750   2.520   0.665
 5602SOL     OW33947   3.814   6.333   6.004
 5602SOL    HW133948   3.856   6.247   6.002
 5602SOL    HW233949   3.754   6.333   5.929
 5603SOL     OW33950   3.924   3.597   1.165
 5603SOL    HW133951   3.994   3.652   1.131
 5603SOL    HW233952   3.889   3.552   1.087
 5604SOL     OW33953   5.573   2.810   5.722
 5604SOL    HW133954   5.586   2.854   5.806
 5604SOL    HW233955   5.660   2.786   5.693
 5605SOL     OW33956   0.702   0.684   1.710
 5605SOL    HW133957   0.724   0.652   1.623
 5605SOL    HW233958   0.728   0.614   1.770
 5606SOL     OW33959   2.810   4.284   1.846
 5606SOL    HW133960   2.892   4.306   1.891
 5606SOL    HW233961   2.819   4.323   1.759
 5607SOL     OW33962   0.721   1.358   7.752
 5607SOL    HW133963   0.701   1.423   7.685
 5607SOL    HW233964   0.802   1.390   7.794
 5608SOL     OW33965   3.633   5.991   0.915
 5608SOL    HW133966   3.660   6.083   0.917
 5608SOL    HW233967   3.709   5.943   0.948
 5609SOL     OW33968   3.230   6.320   6.252
 5609SOL    HW133969   3.263   6.378   6.320
 5609SOL    HW233970   3.136   6.333   6.252
 5610SOL     OW33971   5.895   6.081   0.713
 5610SOL    HW133972   5.870   6.153   0.656
 5610SOL    HW233973   5.836   6.087   0.787
 5611SOL     OW33974   4.980   3.952   0.423
 5611SOL    HW133975   4.908   3.911   0.471
 5611SOL    HW233976   4.951   4.042   0.410
 5612SOL     OW33977   4.411   5.584   1.377
 5612SOL    HW133978   4.440   5.648   1.313
 5612SOL    HW233979   4.424   5.627   1.462
 5613SOL     OW33980   2.111   1.650   6.922
 5613SOL    HW133981   2.064   1.685   6.997
 5613SOL    HW233982   2.109   1.555   6.935
 5614SOL     OW33983   6.045   5.528   6.136
 5614SOL    HW133984   6.080   5.440   6.123
 5614SOL    HW233985   6.075   5.577   6.060
 5615SOL     OW33986   4.999   4.141   0.700
 5615SOL    HW133987   5.090   4.140   0.672
 5615SOL    HW233988   4.984   4.231   0.729
 5616SOL     OW33989   1.703   2.135   6.500
 5616SOL    HW133990   1.637   2.200   6.524
 5616SOL    HW233991   1.707   2.139   6.405
 5617SOL     OW33992   5.216   4.374   6.551
 5617SOL    HW133993   5.167   4.323   6.615
 5617SOL    HW233994   5.303   4.384   6.590
 5618SOL     OW33995   1.305   0.625   0.434
 5618SOL    HW133996   1.233   0.602   0.493
 5618SOL    HW233997   1.271   0.610   0.346
 5619SOL     OW33998   2.478   5.510   6.766
 5619SOL    HW133999   2.552   5.533   6.710
 5619SOL    HW234000   2.432   5.594   6.779
 5620SOL     OW34001   4.218   3.102   0.515
 5620SOL    HW134002   4.234   3.081   0.423
 5620SOL    HW234003   4.130   3.139   0.515
 5621SOL     OW34004   1.721   1.615   1.802
 5621SOL    HW134005   1.714   1.697   1.850
 5621SOL    HW234006   1.760   1.554   1.864
 5622SOL     OW34007   5.528   5.357   3.099
 5622SOL    HW134008   5.489   5.386   3.182
 5622SOL    HW234009   5.561   5.438   3.059
 5623SOL     OW34010   4.072   1.709   0.750
 5623SOL    HW134011   4.147   1.705   0.810
 5623SOL    HW234012   4.079   1.628   0.699
 5624SOL     OW34013   4.018   2.078   6.509
 5624SOL    HW134014   4.050   2.041   6.591
 5624SOL    HW234015   4.058   2.023   6.441
 5625SOL     OW34016   1.509   2.738   0.772
 5625SOL    HW134017   1.504   2.833   0.770
 5625SOL    HW234018   1.597   2.718   0.740
 5626SOL     OW34019   6.010   5.749   0.297
 5626SOL    HW134020   5.953   5.674   0.312
 5626SOL    HW234021   6.057   5.727   0.216
 5627SOL     OW34022   3.457   5.846   5.933
 5627SOL    HW134023   3.443   5.821   6.024
 5627SOL    HW234024   3.400   5.921   5.919
 5628SOL     OW34025   1.320   6.211   0.887
 5628SOL    HW134026   1.352   6.218   0.797
 5628SOL    HW234027   1.236   6.257   0.886
 5629SOL     OW34028   0.186   3.028   5.865
 5629SOL    HW134029   0.109   3.007   5.813
 5629SOL    HW234030   0.194   3.123   5.860
 5630SOL     OW34031   1.860   4.528   7.333
 5630SOL    HW134032   1.871   4.557   7.424
 5630SOL    HW234033   1.769   4.551   7.312
 5631SOL     OW34034   2.188   5.575   1.327
 5631SOL    HW134035   2.116   5.632   1.301
 5631SOL    HW234036   2.247   5.575   1.251
 5632SOL     OW34037   3.716   4.288   1.956
 5632SOL    HW134038   3.727   4.244   1.872
 5632SOL    HW234039   3.713   4.381   1.935
 5633SOL     OW34040   6.127   0.495   7.330
 5633SOL    HW134041   6.105   0.549   7.406
 5633SOL    HW234042   6.220   0.475   7.341
 5634SOL     OW34043   4.712   3.972   1.739
 5634SOL    HW134044   4.695   3.938   1.827
 5634SOL    HW234045   4.732   3.894   1.687
 5635SOL     OW34046   0.900   3.826   1.382
 5635SOL    HW134047   0.896   3.757   1.449
 5635SOL    HW234048   0.828   3.805   1.322
 5636SOL     OW34049   0.125   2.188   6.659
 5636SOL    HW134050   0.051   2.188   6.720
 5636SOL    HW234051   0.201   2.211   6.712
 5637SOL     OW34052   3.472   5.936   2.525
 5637SOL    HW134053   3.476   5.899   2.613
 5637SOL    HW234054   3.560   5.970   2.509
 5638SOL     OW34055   2.528   2.511   7.377
 5638SOL    HW134056   2.464   2.476   7.315
 5638SOL    HW234057   2.577   2.576   7.326
 5639SOL     OW34058   5.802   0.190   6.827
 5639SOL    HW134059   5.719   0.155   6.793
 5639SOL    HW234060   5.782   0.280   6.851
 5640SOL     OW34061   6.309   1.312   0.568
 5640SOL    HW134062   6.332   1.361   0.647
 5640SOL    HW234063   6.229   1.354   0.537
 5641SOL     OW34064   6.114   1.175   2.204
 5641SOL    HW134065   6.119   1.209   2.115
 5641SOL    HW234066   6.187   1.113   2.211
 5642SOL     OW34067   6.139   2.989   0.434
 5642SOL    HW134068   6.199   2.923   0.399
 5642SOL    HW234069   6.175   3.073   0.405
 5643SOL     OW34070   4.952   0.574   0.198
 5643SOL    HW134071   4.888   0.508   0.225
 5643SOL    HW234072   4.940   0.582   0.103
 5644SOL     OW34073   1.228   2.373   1.044
 5644SOL    HW134074   1.281   2.434   1.094
 5644SOL    HW234075   1.278   2.358   0.963
 5645SOL     OW34076   3.248   1.955   7.093
 5645SOL    HW134077   3.168   2.008   7.095
 5645SOL    HW234078   3.217   1.865   7.107
 5646SOL     OW34079   1.711   3.034   7.631
 5646SOL    HW134080   1.699   3.080   7.714
 5646SOL    HW234081   1.773   2.964   7.651
 5647SOL     OW34082   0.136   1.055   7.663
 5647SOL    HW134083   0.190   1.134   7.655
 5647SOL    HW234084   0.047   1.088   7.676
 5648SOL     OW34085   3.797   5.010   6.148
 5648SOL    HW134086   3.876   5.016   6.202
 5648SOL    HW234087   3.750   4.934   6.182
 5649SOL     OW34088   4.958   1.520   0.928
 5649SOL    HW134089   4.901   1.514   1.006
 5649SOL    HW234090   4.961   1.614   0.908
 5650SOL     OW34091   4.845   4.848   6.934
 5650SOL    HW134092   4.781   4.840   6.863
 5650SOL    HW234093   4.913   4.905   6.900
 5651SOL     OW34094   0.605   6.107   7.378
 5651SOL    HW134095   0.591   6.181   7.436
 5651SOL    HW234096   0.617   6.032   7.437
 5652SOL     OW34097   1.559   5.964   2.007
 5652SOL    HW134098   1.473   5.998   2.030
 5652SOL    HW234099   1.603   6.036   1.963
 5653SOL     OW34100   5.766   2.155   1.523
 5653SOL    HW134101   5.688   2.193   1.563
 5653SOL    HW234102   5.788   2.215   1.452
 5654SOL     OW34103   5.480   3.289   0.052
 5654SOL    HW134104   5.439   3.349  -0.010
 5654SOL    HW234105   5.509   3.345   0.124
 5655SOL     OW34106   3.057   0.195   6.640
 5655SOL    HW134107   3.025   0.232   6.558
 5655SOL    HW234108   2.988   0.213   6.704
 5656MOL     C134109   4.106   3.066   6.851
 5656MOL     C234110   3.983   3.134   6.895
 5656MOL     N134111   4.107   3.186   6.635
 5656MOL     N234112   3.961   3.261   6.887
 5656MOL     C334113   4.042   3.305   6.658
 5656MOL     C434114   4.042   3.350   6.804
 5656MOL     H134115   4.145   3.350   6.842
 5656MOL     H234116   4.007   3.454   6.810
 5656MOL     C534117   4.266   3.010   6.682
 5656MOL     C634118   4.322   2.910   6.762
 5656MOL     C734119   4.164   3.095   6.727
 5656MOL     C834120   4.265   2.887   6.888
 5656MOL     C934121   4.163   2.970   6.935
 5656MOL     H334122   4.402   2.847   6.723
 5656MOL     H434123   4.122   2.946   7.032
 5656MOL     H534124   4.299   3.024   6.579
 5656MOL     O134125   3.976   3.360   6.572
 5656MOL    C1034126   3.883   3.059   6.974
 5656MOL    C1134127   3.833   3.115   7.092
 5656MOL     N334128   3.851   2.934   6.936
 5656MOL    C1234129   3.771   3.036   7.188
 5656MOL    C1334130   3.764   2.869   7.014
 5656MOL    C1434131   3.724   2.912   7.141
 5656MOL     H634132   3.839   3.224   7.096
 5656MOL     H734133   3.744   3.066   7.289
 5656MOL     H834134   3.737   2.771   6.975
 5656MOL     H934135   3.668   2.844   7.204
 5656MOL    H1034136   4.085   3.158   6.540
 5656MOL    BR134137   4.349   2.768   7.012
 5656MOL     EP34138   4.437   2.643   7.143
   6.46604   6.46604   7.76503
