POPC bilayer and 5FIBZ with EP hydrated t= 24640.00000 step= 320000
34138
    1PA    C116    1   0.666   5.775   4.122
    1PA    H16R    2   0.728   5.841   4.061
    1PA    H16S    3   0.562   5.803   4.108
    1PA    H16T    4   0.692   5.679   4.077
    1PA    C115    5   0.725   5.806   4.261
    1PA    H15R    6   0.834   5.806   4.264
    1PA    H15S    7   0.692   5.909   4.278
    1PA    C114    8   0.676   5.700   4.360
    1PA    H14R    9   0.577   5.660   4.336
    1PA    H14S   10   0.747   5.618   4.367
    1PA    C113   11   0.666   5.756   4.503
    1PA    H13R   12   0.766   5.790   4.530
    1PA    H13S   13   0.597   5.840   4.502
    1PA    C112   14   0.614   5.653   4.605
    1PA    H12R   15   0.507   5.645   4.588
    1PA    H12S   16   0.662   5.556   4.593
    1PA    C111   17   0.633   5.692   4.752
    1PA    H11R   18   0.740   5.682   4.772
    1PA    H11S   19   0.604   5.792   4.786
    1PA    C110   20   0.560   5.594   4.846
    1PA    H10R   21   0.458   5.629   4.827
    1PA    H10S   22   0.575   5.491   4.812
    1PA     C19   23   0.602   5.596   4.993
    1PA     H9R   24   0.708   5.567   4.989
    1PA     H9S   25   0.591   5.690   5.046
    1PA     C18   26   0.521   5.489   5.067
    1PA     H8R   27   0.415   5.501   5.046
    1PA     H8S   28   0.554   5.388   5.039
    1PA     C17   29   0.535   5.489   5.220
    1PA     H7R   30   0.640   5.473   5.245
    1PA     H7S   31   0.518   5.588   5.263
    1PA     C16   32   0.443   5.386   5.285
    1PA     H6R   33   0.359   5.356   5.222
    1PA     H6S   34   0.494   5.293   5.308
    1PA     C15   35   0.385   5.431   5.420
    1PA     H5R   36   0.328   5.355   5.474
    1PA     H5S   37   0.460   5.456   5.496
    1PA     C14   38   0.288   5.548   5.404
    1PA     H4R   39   0.285   5.600   5.500
    1PA     H4S   40   0.325   5.628   5.339
    1PA     C13   41   0.144   5.520   5.361
    1PA     H3R   42   0.147   5.458   5.270
    1PA     H3S   43   0.087   5.452   5.426
    1PA     C12   44   0.072   5.646   5.311
    1PA     H2R   45   0.133   5.715   5.253
    1PA     H2S   46  -0.006   5.607   5.245
    2PC     C11   47   0.005   5.731   5.416
    2PC     O12   48   0.070   5.787   5.501
    2PC     O11   49  -0.127   5.755   5.407
    2PC      C1   50  -0.189   5.846   5.499
    2PC      HR   51  -0.297   5.840   5.480
    2PC      HS   52  -0.175   5.819   5.604
    2PC      C2   53  -0.162   5.996   5.482
    2PC      HX   54  -0.055   6.010   5.504
    2PC      C3   55  -0.241   6.075   5.586
    2PC      HA   56  -0.336   6.114   5.548
    2PC      HB   57  -0.258   6.008   5.671
    2PC     O31   58  -0.158   6.182   5.637
    2PC     P31   59  -0.234   6.294   5.721
    2PC     O32   60  -0.292   6.391   5.607
    2PC     C31   61  -0.423   6.449   5.622
    2PC     H1A   62  -0.443   6.495   5.525
    2PC     H1B   63  -0.499   6.371   5.629
    2PC     C32   64  -0.429   6.557   5.731
    2PC     H2A   65  -0.529   6.596   5.749
    2PC     H2B   66  -0.389   6.529   5.829
    2PC     N31   67  -0.349   6.683   5.716
    2PC     C33   68  -0.405   6.760   5.600
    2PC     H3A   69  -0.362   6.861   5.597
    2PC     H3B   70  -0.399   6.703   5.508
    2PC     H3C   71  -0.512   6.773   5.613
    2PC     C34   72  -0.376   6.754   5.845
    2PC     H4A   73  -0.466   6.816   5.856
    2PC     H4B   74  -0.341   6.692   5.928
    2PC     H4C   75  -0.303   6.834   5.835
    2PC     C35   76  -0.204   6.649   5.705
    2PC     H5A   77  -0.179   6.591   5.616
    2PC     H5B   78  -0.168   6.606   5.799
    2PC     H5C   79  -0.167   6.750   5.686
    2PC     O33   80  -0.344   6.237   5.803
    2PC     O34   81  -0.141   6.349   5.823
    2PC     O21   82  -0.208   6.047   5.356
    2PC     C21   83  -0.138   6.026   5.243
    2PC     O22   84  -0.026   5.981   5.233
    3OL     C12   85  -0.230   6.069   5.131
    3OL     H2R   86  -0.251   6.172   5.159
    3OL     H2S   87  -0.317   6.004   5.147
    3OL     C13   88  -0.178   6.064   4.987
    3OL     H3R   89  -0.069   6.077   4.989
    3OL     H3S   90  -0.215   6.147   4.927
    3OL     C14   91  -0.206   5.933   4.913
    3OL     H4R   92  -0.192   5.936   4.805
    3OL     H4S   93  -0.312   5.914   4.928
    3OL     C15   94  -0.118   5.815   4.960
    3OL     H5R   95  -0.131   5.809   5.068
    3OL     H5S   96  -0.013   5.839   4.946
    3OL     C16   97  -0.159   5.685   4.890
    3OL     H6R   98  -0.135   5.688   4.783
    3OL     H6S   99  -0.267   5.668   4.897
    3OL     C17  100  -0.100   5.559   4.954
    3OL     H7R  101  -0.162   5.472   4.929
    3OL     H7S  102  -0.103   5.569   5.062
    3OL     C18  103   0.049   5.544   4.917
    3OL     H8R  104   0.101   5.623   4.971
    3OL     H8S  105   0.069   5.550   4.810
    3OL     C19  106   0.107   5.413   4.962
    3OL     H9R  107   0.111   5.402   5.070
    3OL    C110  108   0.152   5.316   4.885
    3OL    H10R  109   0.205   5.231   4.927
    3OL    C111  110   0.150   5.323   4.734
    3OL    H11R  111   0.252   5.302   4.701
    3OL    H11S  112   0.139   5.426   4.698
    3OL    C112  113   0.053   5.218   4.679
    3OL    H12R  114  -0.047   5.262   4.676
    3OL    H12S  115   0.053   5.132   4.746
    3OL    C113  116   0.105   5.156   4.549
    3OL    H13R  117   0.021   5.093   4.519
    3OL    H13S  118   0.191   5.097   4.579
    3OL    C114  119   0.130   5.254   4.433
    3OL    H14R  120   0.189   5.203   4.357
    3OL    H14S  121   0.194   5.337   4.467
    3OL    C115  122  -0.004   5.303   4.378
    3OL    H15R  123   0.012   5.396   4.323
    3OL    H15S  124  -0.068   5.337   4.459
    3OL    C116  125  -0.079   5.202   4.290
    3OL    H16R  126  -0.090   5.113   4.351
    3OL    H16S  127  -0.025   5.180   4.198
    3OL    C117  128  -0.219   5.252   4.252
    3OL    H17R  129  -0.276   5.304   4.330
    3OL    H17S  130  -0.284   5.167   4.230
    3OL    C118  131  -0.220   5.338   4.125
    3OL    H18R  132  -0.151   5.301   4.048
    3OL    H18S  133  -0.186   5.438   4.150
    3OL    H18T  134  -0.319   5.343   4.081
    1PA    C116  135   5.272   5.205   3.910
    1PA    H16R  136   5.199   5.285   3.897
    1PA    H16S  137   5.233   5.104   3.901
    1PA    H16T  138   5.351   5.225   3.836
    1PA    C115  139   5.319   5.198   4.056
    1PA    H15R  140   5.244   5.147   4.117
    1PA    H15S  141   5.413   5.142   4.054
    1PA    C114  142   5.335   5.338   4.116
    1PA    H14R  143   5.377   5.335   4.217
    1PA    H14S  144   5.414   5.391   4.063
    1PA    C113  145   5.204   5.416   4.135
    1PA    H13R  146   5.157   5.440   4.040
    1PA    H13S  147   5.127   5.363   4.191
    1PA    C112  148   5.225   5.546   4.214
    1PA    H12R  149   5.332   5.561   4.227
    1PA    H12S  150   5.206   5.631   4.148
    1PA    C111  151   5.149   5.571   4.345
    1PA    H11R  152   5.168   5.671   4.384
    1PA    H11S  153   5.043   5.557   4.320
    1PA    C110  154   5.179   5.465   4.452
    1PA    H10R  155   5.113   5.497   4.532
    1PA    H10S  156   5.153   5.365   4.415
    1PA     C19  157   5.327   5.468   4.490
    1PA     H9R  158   5.380   5.446   4.398
    1PA     H9S  159   5.345   5.568   4.531
    1PA     C18  160   5.372   5.366   4.596
    1PA     H8R  161   5.336   5.383   4.698
    1PA     H8S  162   5.348   5.262   4.574
    1PA     C17  163   5.525   5.369   4.611
    1PA     H7R  164   5.562   5.377   4.509
    1PA     H7S  165   5.564   5.457   4.663
    1PA     C16  166   5.580   5.240   4.673
    1PA     H6R  167   5.557   5.151   4.614
    1PA     H6S  168   5.688   5.250   4.659
    1PA     C15  169   5.558   5.242   4.824
    1PA     H5R  170   5.592   5.338   4.863
    1PA     H5S  171   5.452   5.229   4.847
    1PA     C14  172   5.637   5.128   4.890
    1PA     H4R  173   5.610   5.026   4.863
    1PA     H4S  174   5.741   5.134   4.856
    1PA     C13  175   5.616   5.139   5.042
    1PA     H3R  176   5.645   5.237   5.079
    1PA     H3S  177   5.514   5.126   5.076
    1PA     C12  178   5.708   5.037   5.112
    1PA     H2R  179   5.679   4.932   5.108
    1PA     H2S  180   5.806   5.048   5.064
    2PC     C11  181   5.724   5.067   5.259
    2PC     O12  182   5.635   5.112   5.328
    2PC     O11  183   5.848   5.040   5.304
    2PC      C1  184   5.877   5.065   5.443
    2PC      HR  185   5.873   5.173   5.460
    2PC      HS  186   5.810   5.013   5.512
    2PC      C2  187   6.019   5.013   5.469
    2PC      HX  188   6.026   4.913   5.426
    2PC      C3  189   6.044   5.014   5.620
    2PC      HA  190   5.979   4.943   5.672
    2PC      HB  191   6.149   4.994   5.644
    2PC     O31  192   6.008   5.146   5.667
    2PC     P31  193   6.020   5.176   5.824
    2PC     O32  194   6.169   5.229   5.844
    2PC     C31  195   6.209   5.285   5.970
    2PC     H1A  196   6.301   5.343   5.975
    2PC     H1B  197   6.128   5.354   5.996
    2PC     C32  198   6.225   5.174   6.075
    2PC     H2A  199   6.227   5.218   6.175
    2PC     H2B  200   6.136   5.111   6.071
    2PC     N31  201   6.344   5.087   6.047
    2PC     C33  202   6.470   5.169   6.041
    2PC     H3A  203   6.489   5.210   5.942
    2PC     H3B  204   6.472   5.253   6.110
    2PC     H3C  205   6.548   5.102   6.077
    2PC     C34  206   6.354   4.988   6.159
    2PC     H4A  207   6.426   4.910   6.133
    2PC     H4B  208   6.375   5.047   6.248
    2PC     H4C  209   6.256   4.943   6.176
    2PC     C35  210   6.336   5.012   5.918
    2PC     H5A  211   6.250   4.946   5.924
    2PC     H5B  212   6.416   4.938   5.913
    2PC     H5C  213   6.346   5.088   5.840
    2PC     O33  214   5.927   5.284   5.864
    2PC     O34  215   5.989   5.054   5.902
    2PC     O21  216   6.107   5.114   5.415
    2PC     C21  217   6.238   5.084   5.410
    2PC     O22  218   6.294   4.997   5.473
    3OL     C12  219   6.309   5.171   5.310
    3OL     H2R  220   6.395   5.118   5.268
    3OL     H2S  221   6.333   5.261   5.367
    3OL     C13  222   6.221   5.207   5.190
    3OL     H3R  223   6.248   5.309   5.161
    3OL     H3S  224   6.123   5.236   5.227
    3OL     C14  225   6.214   5.105   5.075
    3OL     H4R  226   6.312   5.057   5.074
    3OL     H4S  227   6.211   5.154   4.978
    3OL     C15  228   6.093   5.011   5.077
    3OL     H5R  229   6.010   5.075   5.046
    3OL     H5S  230   6.089   4.973   5.180
    3OL     C16  231   6.107   4.892   4.982
    3OL     H6R  232   6.028   4.819   4.999
    3OL     H6S  233   6.197   4.834   5.004
    3OL     C17  234   6.132   4.931   4.835
    3OL     H7R  235   6.210   5.007   4.830
    3OL     H7S  236   6.050   4.990   4.796
    3OL     C18  237   6.163   4.810   4.746
    3OL     H8R  238   6.067   4.766   4.719
    3OL     H8S  239   6.226   4.734   4.794
    3OL     C19  240   6.225   4.857   4.617
    3OL     H9R  241   6.319   4.909   4.634
    3OL    C110  242   6.162   4.869   4.501
    3OL    H10R  243   6.203   4.923   4.416
    3OL    C111  244   6.018   4.836   4.475
    3OL    H11R  245   5.976   4.933   4.450
    3OL    H11S  246   5.968   4.799   4.564
    3OL    C112  247   6.000   4.741   4.355
    3OL    H12R  248   6.031   4.642   4.387
    3OL    H12S  249   6.062   4.779   4.273
    3OL    C113  250   5.855   4.716   4.311
    3OL    H13R  251   5.813   4.816   4.299
    3OL    H13S  252   5.801   4.668   4.393
    3OL    C114  253   5.841   4.617   4.195
    3OL    H14R  254   5.898   4.525   4.209
    3OL    H14S  255   5.885   4.661   4.105
    3OL    C115  256   5.695   4.580   4.164
    3OL    H15R  257   5.636   4.666   4.135
    3OL    H15S  258   5.646   4.541   4.253
    3OL    C116  259   5.680   4.471   4.056
    3OL    H16R  260   5.580   4.430   4.043
    3OL    H16S  261   5.740   4.388   4.095
    3OL    C117  262   5.732   4.514   3.918
    3OL    H17R  263   5.840   4.521   3.936
    3OL    H17S  264   5.693   4.612   3.893
    3OL    C118  265   5.712   4.411   3.806
    3OL    H18R  266   5.749   4.318   3.851
    3OL    H18S  267   5.771   4.432   3.716
    3OL    H18T  268   5.608   4.386   3.786
    1PA    C116  269   5.742   3.700   4.134
    1PA    H16R  270   5.763   3.597   4.105
    1PA    H16S  271   5.658   3.697   4.203
    1PA    H16T  272   5.830   3.736   4.187
    1PA    C115  273   5.713   3.787   4.011
    1PA    H15R  274   5.811   3.785   3.963
    1PA    H15S  275   5.634   3.737   3.955
    1PA    C114  276   5.681   3.932   4.048
    1PA    H14R  277   5.768   3.966   4.104
    1PA    H14S  278   5.678   3.996   3.960
    1PA    C113  279   5.566   3.947   4.148
    1PA    H13R  280   5.476   3.892   4.118
    1PA    H13S  281   5.593   3.912   4.248
    1PA    C112  282   5.523   4.094   4.152
    1PA    H12R  283   5.608   4.151   4.189
    1PA    H12S  284   5.500   4.130   4.051
    1PA    C111  285   5.398   4.115   4.237
    1PA    H11R  286   5.313   4.060   4.196
    1PA    H11S  287   5.426   4.090   4.340
    1PA    C110  288   5.353   4.261   4.223
    1PA    H10R  289   5.439   4.322   4.253
    1PA    H10S  290   5.328   4.279   4.118
    1PA     C19  291   5.224   4.296   4.298
    1PA     H9R  292   5.192   4.397   4.274
    1PA     H9S  293   5.151   4.219   4.274
    1PA     C18  294   5.250   4.297   4.450
    1PA     H8R  295   5.277   4.198   4.487
    1PA     H8S  296   5.336   4.359   4.473
    1PA     C17  297   5.130   4.336   4.536
    1PA     H7R  298   5.100   4.439   4.512
    1PA     H7S  299   5.044   4.269   4.525
    1PA     C16  300   5.164   4.313   4.684
    1PA     H6R  301   5.169   4.207   4.708
    1PA     H6S  302   5.262   4.356   4.707
    1PA     C15  303   5.067   4.385   4.780
    1PA     H5R  304   5.057   4.487   4.745
    1PA     H5S  305   4.965   4.346   4.774
    1PA     C14  306   5.115   4.384   4.925
    1PA     H4R  307   5.113   4.283   4.967
    1PA     H4S  308   5.221   4.413   4.926
    1PA     C13  309   5.031   4.475   5.017
    1PA     H3R  310   5.023   4.572   4.967
    1PA     H3S  311   4.931   4.432   5.027
    1PA     C12  312   5.089   4.481   5.159
    1PA     H2R  313   5.063   4.381   5.195
    1PA     H2S  314   5.195   4.504   5.155
    2PC     C11  315   5.013   4.580   5.243
    2PC     O12  316   4.893   4.598   5.236
    2PC     O11  317   5.096   4.641   5.330
    2PC      C1  318   5.046   4.744   5.416
    2PC      HR  319   4.941   4.769   5.399
    2PC      HS  320   5.058   4.706   5.518
    2PC      C2  321   5.130   4.868   5.382
    2PC      HX  322   5.231   4.827   5.384
    2PC      C3  323   5.115   4.983   5.483
    2PC      HA  324   5.141   4.960   5.587
    2PC      HB  325   5.175   5.069   5.452
    2PC     O31  326   4.974   5.011   5.482
    2PC     P31  327   4.886   5.014   5.616
    2PC     O32  328   4.774   5.127   5.593
    2PC     C31  329   4.680   5.116   5.484
    2PC     H1A  330   4.728   5.131   5.387
    2PC     H1B  331   4.648   5.011   5.490
    2PC     C32  332   4.572   5.223   5.502
    2PC     H2A  333   4.609   5.324   5.488
    2PC     H2B  334   4.505   5.196   5.420
    2PC     N31  335   4.506   5.223   5.637
    2PC     C33  336   4.459   5.087   5.677
    2PC     H3A  337   4.426   5.091   5.781
    2PC     H3B  338   4.377   5.059   5.610
    2PC     H3C  339   4.541   5.014   5.680
    2PC     C34  340   4.588   5.286   5.746
    2PC     H4A  341   4.664   5.215   5.780
    2PC     H4B  342   4.634   5.375   5.702
    2PC     H4C  343   4.518   5.309   5.826
    2PC     C35  344   4.383   5.309   5.631
    2PC     H5A  345   4.412   5.403   5.583
    2PC     H5B  346   4.350   5.327   5.733
    2PC     H5C  347   4.305   5.259   5.573
    2PC     O33  348   4.800   4.896   5.644
    2PC     O34  349   4.963   5.046   5.738
    2PC     O21  350   5.087   4.912   5.253
    2PC     C21  351   5.167   4.889   5.148
    2PC     O22  352   5.276   4.835   5.158
    3OL     C12  353   5.098   4.920   5.018
    3OL     H2R  354   5.073   5.026   5.014
    3OL     H2S  355   5.006   4.862   5.003
    3OL     C13  356   5.185   4.872   4.901
    3OL     H3R  357   5.225   4.771   4.913
    3OL     H3S  358   5.270   4.934   4.873
    3OL     C14  359   5.108   4.858   4.769
    3OL     H4R  360   5.006   4.826   4.794
    3OL     H4S  361   5.150   4.781   4.704
    3OL     C15  362   5.114   4.990   4.691
    3OL     H5R  363   5.214   5.018   4.657
    3OL     H5S  364   5.071   5.072   4.749
    3OL     C16  365   5.020   4.978   4.569
    3OL     H6R  366   4.919   4.948   4.597
    3OL     H6S  367   5.051   4.904   4.495
    3OL     C17  368   5.022   5.108   4.487
    3OL     H7R  369   5.124   5.125   4.451
    3OL     H7S  370   4.996   5.196   4.546
    3OL     C18  371   4.931   5.102   4.364
    3OL     H8R  372   4.965   5.013   4.311
    3OL     H8S  373   4.952   5.193   4.307
    3OL     C19  374   4.784   5.098   4.399
    3OL     H9R  375   4.742   5.143   4.488
    3OL    C110  376   4.691   5.033   4.330
    3OL    H10R  377   4.595   5.026   4.380
    3OL    C111  378   4.698   4.961   4.198
    3OL    H11R  379   4.707   4.853   4.211
    3OL    H11S  380   4.790   4.989   4.145
    3OL    C112  381   4.576   4.995   4.112
    3OL    H12R  382   4.579   5.103   4.096
    3OL    H12S  383   4.487   4.965   4.167
    3OL    C113  384   4.575   4.934   3.971
    3OL    H13R  385   4.575   4.825   3.972
    3OL    H13S  386   4.664   4.968   3.916
    3OL    C114  387   4.457   4.975   3.881
    3OL    H14R  388   4.366   4.986   3.939
    3OL    H14S  389   4.439   4.894   3.810
    3OL    C115  390   4.491   5.106   3.809
    3OL    H15R  391   4.560   5.073   3.731
    3OL    H15S  392   4.539   5.188   3.863
    3OL    C116  393   4.372   5.171   3.737
    3OL    H16R  394   4.367   5.278   3.755
    3OL    H16S  395   4.279   5.119   3.763
    3OL    C117  396   4.391   5.145   3.587
    3OL    H17R  397   4.365   5.040   3.570
    3OL    H17S  398   4.494   5.167   3.560
    3OL    C118  399   4.296   5.221   3.494
    3OL    H18R  400   4.354   5.249   3.405
    3OL    H18S  401   4.247   5.304   3.544
    3OL    H18T  402   4.218   5.161   3.447
    1PA    C116  403  -0.619   5.505   4.212
    1PA    H16R  404  -0.626   5.396   4.200
    1PA    H16S  405  -0.614   5.546   4.111
    1PA    H16T  406  -0.715   5.547   4.242
    1PA    C115  407  -0.497   5.532   4.300
    1PA    H15R  408  -0.407   5.505   4.245
    1PA    H15S  409  -0.500   5.641   4.305
    1PA    C114  410  -0.503   5.467   4.439
    1PA    H14R  411  -0.595   5.499   4.488
    1PA    H14S  412  -0.502   5.359   4.424
    1PA    C113  413  -0.379   5.497   4.525
    1PA    H13R  414  -0.287   5.472   4.472
    1PA    H13S  415  -0.384   5.602   4.554
    1PA    C112  416  -0.388   5.409   4.650
    1PA    H12R  417  -0.416   5.306   4.624
    1PA    H12S  418  -0.295   5.404   4.707
    1PA    C111  419  -0.486   5.470   4.751
    1PA    H11R  420  -0.471   5.577   4.762
    1PA    H11S  421  -0.583   5.444   4.707
    1PA    C110  422  -0.460   5.400   4.885
    1PA    H10R  423  -0.479   5.293   4.889
    1PA    H10S  424  -0.358   5.432   4.909
    1PA     C19  425  -0.560   5.447   4.992
    1PA     H9R  426  -0.566   5.556   4.996
    1PA     H9S  427  -0.659   5.413   4.962
    1PA     C18  428  -0.533   5.397   5.135
    1PA     H8R  429  -0.522   5.289   5.119
    1PA     H8S  430  -0.431   5.433   5.155
    1PA     C17  431  -0.632   5.442   5.243
    1PA     H7R  432  -0.730   5.452   5.195
    1PA     H7S  433  -0.644   5.360   5.315
    1PA     C16  434  -0.593   5.578   5.302
    1PA     H6R  435  -0.579   5.659   5.230
    1PA     H6S  436  -0.679   5.598   5.366
    1PA     C15  437  -0.467   5.562   5.388
    1PA     H5R  438  -0.392   5.497   5.344
    1PA     H5S  439  -0.421   5.661   5.388
    1PA     C14  440  -0.487   5.511   5.532
    1PA     H4R  441  -0.559   5.577   5.580
    1PA     H4S  442  -0.527   5.409   5.533
    1PA     C13  443  -0.352   5.518   5.606
    1PA     H3R  444  -0.309   5.618   5.611
    1PA     H3S  445  -0.377   5.500   5.711
    1PA     C12  446  -0.245   5.416   5.567
    1PA     H2R  447  -0.280   5.314   5.587
    1PA     H2S  448  -0.220   5.421   5.461
    2PC     C11  449  -0.124   5.435   5.655
    2PC     O12  450  -0.124   5.507   5.753
    2PC     O11  451  -0.025   5.354   5.615
    2PC      C1  452   0.091   5.352   5.699
    2PC      HR  453   0.158   5.432   5.667
    2PC      HS  454   0.076   5.363   5.806
    2PC      C2  455   0.154   5.213   5.679
    2PC      HX  456   0.081   5.135   5.702
    2PC      C3  457   0.270   5.187   5.776
    2PC      HA  458   0.250   5.091   5.824
    2PC      HB  459   0.362   5.169   5.721
    2PC     O31  460   0.283   5.298   5.867
    2PC     P31  461   0.419   5.308   5.949
    2PC     O32  462   0.527   5.324   5.832
    2PC     C31  463   0.670   5.332   5.851
    2PC     H1A  464   0.713   5.329   5.751
    2PC     H1B  465   0.694   5.429   5.895
    2PC     C32  466   0.723   5.220   5.942
    2PC     H2A  467   0.817   5.253   5.987
    2PC     H2B  468   0.649   5.204   6.020
    2PC     N31  469   0.742   5.086   5.879
    2PC     C33  470   0.616   5.048   5.807
    2PC     H3A  471   0.545   5.033   5.888
    2PC     H3B  472   0.594   5.136   5.747
    2PC     H3C  473   0.637   4.959   5.749
    2PC     C34  474   0.860   5.086   5.786
    2PC     H4A  475   0.865   4.989   5.737
    2PC     H4B  476   0.852   5.172   5.719
    2PC     H4C  477   0.949   5.109   5.844
    2PC     C35  478   0.778   4.985   5.983
    2PC     H5A  479   0.801   4.894   5.927
    2PC     H5B  480   0.692   4.974   6.049
    2PC     H5C  481   0.862   5.015   6.046
    2PC     O33  482   0.425   5.416   6.051
    2PC     O34  483   0.422   5.189   6.038
    2PC     O21  484   0.189   5.193   5.541
    2PC     C21  485   0.238   5.075   5.500
    2PC     O22  486   0.253   4.978   5.572
    3OL     C12  487   0.270   5.073   5.353
    3OL     H2R  488   0.375   5.052   5.330
    3OL     H2S  489   0.249   5.173   5.315
    3OL     C13  490   0.195   4.966   5.273
    3OL     H3R  491   0.109   5.008   5.221
    3OL     H3S  492   0.168   4.884   5.340
    3OL     C14  493   0.289   4.916   5.162
    3OL     H4R  494   0.378   4.882   5.215
    3OL     H4S  495   0.313   4.988   5.084
    3OL     C15  496   0.228   4.792   5.096
    3OL     H5R  497   0.216   4.711   5.168
    3OL     H5S  498   0.297   4.750   5.022
    3OL     C16  499   0.094   4.822   5.028
    3OL     H6R  500   0.094   4.927   4.997
    3OL     H6S  501   0.016   4.824   5.105
    3OL     C17  502   0.062   4.725   4.913
    3OL     H7R  503  -0.043   4.739   4.889
    3OL     H7S  504   0.080   4.624   4.951
    3OL     C18  505   0.144   4.753   4.787
    3OL     H8R  506   0.251   4.748   4.809
    3OL     H8S  507   0.132   4.848   4.735
    3OL     C19  508   0.117   4.644   4.686
    3OL     H9R  509   0.056   4.556   4.707
    3OL    C110  510   0.162   4.655   4.562
    3OL    H10R  511   0.138   4.581   4.487
    3OL    C111  512   0.244   4.765   4.500
    3OL    H11R  513   0.322   4.726   4.434
    3OL    H11S  514   0.294   4.838   4.564
    3OL    C112  515   0.155   4.844   4.403
    3OL    H12R  516   0.217   4.915   4.349
    3OL    H12S  517   0.084   4.898   4.466
    3OL    C113  518   0.090   4.751   4.299
    3OL    H13R  519   0.035   4.666   4.340
    3OL    H13S  520   0.164   4.693   4.244
    3OL    C114  521   0.002   4.829   4.201
    3OL    H14R  522   0.040   4.924   4.162
    3OL    H14S  523  -0.084   4.855   4.263
    3OL    C115  524  -0.042   4.731   4.091
    3OL    H15R  525  -0.086   4.640   4.131
    3OL    H15S  526   0.042   4.710   4.024
    3OL    C116  527  -0.144   4.794   3.995
    3OL    H16R  528  -0.238   4.813   4.046
    3OL    H16S  529  -0.169   4.731   3.910
    3OL    C117  530  -0.104   4.931   3.938
    3OL    H17R  531  -0.017   4.909   3.876
    3OL    H17S  532  -0.083   5.009   4.012
    3OL    C118  533  -0.215   4.991   3.850
    3OL    H18R  534  -0.169   5.079   3.806
    3OL    H18S  535  -0.291   5.018   3.923
    3OL    H18T  536  -0.251   4.923   3.772
    1PA    C116  537   4.721   4.645   3.791
    1PA    H16R  538   4.649   4.653   3.872
    1PA    H16S  539   4.673   4.589   3.711
    1PA    H16T  540   4.764   4.734   3.744
    1PA    C115  541   4.839   4.563   3.846
    1PA    H15R  542   4.790   4.465   3.858
    1PA    H15S  543   4.923   4.554   3.777
    1PA    C114  544   4.896   4.606   3.981
    1PA    H14R  545   4.825   4.671   4.034
    1PA    H14S  546   4.913   4.513   4.035
    1PA    C113  547   5.024   4.683   3.947
    1PA    H13R  548   5.105   4.617   3.913
    1PA    H13S  549   4.989   4.750   3.868
    1PA    C112  550   5.072   4.769   4.065
    1PA    H12R  551   5.141   4.846   4.032
    1PA    H12S  552   4.987   4.820   4.112
    1PA    C111  553   5.158   4.687   4.162
    1PA    H11R  554   5.117   4.587   4.168
    1PA    H11S  555   5.261   4.698   4.126
    1PA    C110  556   5.152   4.744   4.305
    1PA    H10R  557   5.147   4.853   4.311
    1PA    H10S  558   5.055   4.718   4.346
    1PA     C19  559   5.252   4.687   4.407
    1PA     H9R  560   5.223   4.715   4.508
    1PA     H9S  561   5.249   4.578   4.408
    1PA     C18  562   5.392   4.749   4.395
    1PA     H8R  563   5.423   4.741   4.290
    1PA     H8S  564   5.378   4.853   4.423
    1PA     C17  565   5.501   4.691   4.486
    1PA     H7R  566   5.524   4.588   4.457
    1PA     H7S  567   5.589   4.754   4.486
    1PA     C16  568   5.460   4.680   4.633
    1PA     H6R  569   5.430   4.779   4.668
    1PA     H6S  570   5.380   4.610   4.656
    1PA     C15  571   5.570   4.620   4.722
    1PA     H5R  572   5.522   4.611   4.820
    1PA     H5S  573   5.588   4.514   4.704
    1PA     C14  574   5.695   4.706   4.742
    1PA     H4R  575   5.778   4.684   4.674
    1PA     H4S  576   5.669   4.810   4.724
    1PA     C13  577   5.746   4.704   4.887
    1PA     H3R  578   5.825   4.778   4.895
    1PA     H3S  579   5.666   4.737   4.954
    1PA     C12  580   5.789   4.559   4.915
    1PA     H2R  581   5.710   4.489   4.888
    1PA     H2S  582   5.879   4.528   4.860
    2PC     C11  583   5.823   4.536   5.060
    2PC     O12  584   5.825   4.623   5.144
    2PC     O11  585   5.846   4.407   5.087
    2PC      C1  586   5.837   4.358   5.221
    2PC      HR  587   5.878   4.256   5.219
    2PC      HS  588   5.892   4.423   5.289
    2PC      C2  589   5.689   4.350   5.264
    2PC      HX  590   5.646   4.451   5.260
    2PC      C3  591   5.682   4.283   5.402
    2PC      HA  592   5.707   4.177   5.405
    2PC      HB  593   5.731   4.345   5.478
    2PC     O31  594   5.545   4.277   5.443
    2PC     P31  595   5.519   4.265   5.601
    2PC     O32  596   5.364   4.228   5.592
    2PC     C31  597   5.277   4.342   5.607
    2PC     H1A  598   5.285   4.385   5.707
    2PC     H1B  599   5.296   4.429   5.545
    2PC     C32  600   5.128   4.306   5.594
    2PC     H2A  601   5.087   4.406   5.608
    2PC     H2B  602   5.101   4.269   5.495
    2PC     N31  603   5.077   4.207   5.695
    2PC     C33  604   5.134   4.071   5.671
    2PC     H3A  605   5.101   4.014   5.759
    2PC     H3B  606   5.099   4.029   5.577
    2PC     H3C  607   5.243   4.076   5.673
    2PC     C34  608   5.106   4.251   5.836
    2PC     H4A  609   5.038   4.197   5.902
    2PC     H4B  610   5.207   4.216   5.859
    2PC     H4C  611   5.087   4.358   5.844
    2PC     C35  612   4.929   4.202   5.678
    2PC     H5A  613   4.880   4.296   5.705
    2PC     H5B  614   4.890   4.112   5.727
    2PC     H5C  615   4.904   4.191   5.572
    2PC     O33  616   5.600   4.149   5.643
    2PC     O34  617   5.554   4.384   5.683
    2PC     O21  618   5.625   4.256   5.176
    2PC     C21  619   5.536   4.300   5.085
    2PC     O22  620   5.518   4.418   5.061
    3OL     C12  621   5.471   4.191   5.004
    3OL     H2R  622   5.499   4.219   4.902
    3OL     H2S  623   5.364   4.201   5.022
    3OL     C13  624   5.517   4.052   5.049
    3OL     H3R  625   5.491   4.037   5.154
    3OL     H3S  626   5.624   4.036   5.042
    3OL     C14  627   5.452   3.941   4.963
    3OL     H4R  628   5.495   3.948   4.863
    3OL     H4S  629   5.346   3.968   4.965
    3OL     C15  630   5.473   3.804   5.028
    3OL     H5R  631   5.414   3.721   4.988
    3OL     H5S  632   5.456   3.804   5.135
    3OL     C16  633   5.612   3.745   5.004
    3OL     H6R  634   5.687   3.811   5.048
    3OL     H6S  635   5.630   3.763   4.897
    3OL     C17  636   5.630   3.596   5.039
    3OL     H7R  637   5.554   3.550   4.976
    3OL     H7S  638   5.605   3.569   5.142
    3OL     C18  639   5.775   3.551   5.022
    3OL     H8R  640   5.780   3.447   5.055
    3OL     H8S  641   5.825   3.613   5.097
    3OL     C19  642   5.826   3.569   4.881
    3OL     H9R  643   5.753   3.533   4.809
    3OL    C110  644   5.933   3.636   4.842
    3OL    H10R  645   5.955   3.651   4.736
    3OL    C111  646   6.033   3.705   4.931
    3OL    H11R  647   6.131   3.711   4.883
    3OL    H11S  648   6.050   3.641   5.018
    3OL    C112  649   5.997   3.845   4.983
    3OL    H12R  650   6.088   3.887   5.026
    3OL    H12S  651   5.921   3.839   5.061
    3OL    C113  652   5.945   3.929   4.865
    3OL    H13R  653   5.852   3.887   4.827
    3OL    H13S  654   6.018   3.929   4.784
    3OL    C114  655   5.927   4.076   4.906
    3OL    H14R  656   6.023   4.125   4.926
    3OL    H14S  657   5.871   4.071   5.000
    3OL    C115  658   5.842   4.158   4.809
    3OL    H15R  659   5.824   4.259   4.847
    3OL    H15S  660   5.748   4.106   4.791
    3OL    C116  661   5.896   4.168   4.666
    3OL    H16R  662   5.899   4.067   4.624
    3OL    H16S  663   5.998   4.207   4.665
    3OL    C117  664   5.815   4.264   4.578
    3OL    H17R  665   5.799   4.357   4.633
    3OL    H17S  666   5.711   4.233   4.568
    3OL    C118  667   5.864   4.285   4.434
    3OL    H18R  668   5.879   4.195   4.374
    3OL    H18S  669   5.961   4.335   4.438
    3OL    H18T  670   5.802   4.353   4.376
    1PA    C116  671   3.960   5.337   3.928
    1PA    H16R  672   3.944   5.232   3.952
    1PA    H16S  673   3.936   5.351   3.822
    1PA    H16T  674   3.891   5.407   3.975
    1PA    C115  675   4.109   5.366   3.950
    1PA    H15R  676   4.163   5.303   3.879
    1PA    H15S  677   4.131   5.471   3.928
    1PA    C114  678   4.137   5.319   4.093
    1PA    H14R  679   4.062   5.369   4.154
    1PA    H14S  680   4.131   5.210   4.093
    1PA    C113  681   4.279   5.356   4.140
    1PA    H13R  682   4.347   5.302   4.074
    1PA    H13S  683   4.307   5.461   4.133
    1PA    C112  684   4.299   5.300   4.281
    1PA    H12R  685   4.219   5.334   4.348
    1PA    H12S  686   4.288   5.192   4.271
    1PA    C111  687   4.433   5.342   4.343
    1PA    H11R  688   4.504   5.276   4.293
    1PA    H11S  689   4.465   5.446   4.332
    1PA    C110  690   4.441   5.312   4.494
    1PA    H10R  691   4.365   5.373   4.544
    1PA    H10S  692   4.437   5.206   4.519
    1PA     C19  693   4.569   5.371   4.555
    1PA     H9R  694   4.661   5.331   4.514
    1PA     H9S  695   4.572   5.479   4.538
    1PA     C18  696   4.568   5.360   4.708
    1PA     H8R  697   4.478   5.394   4.760
    1PA     H8S  698   4.574   5.253   4.728
    1PA     C17  699   4.687   5.437   4.767
    1PA     H7R  700   4.692   5.537   4.724
    1PA     H7S  701   4.674   5.448   4.875
    1PA     C16  702   4.819   5.360   4.753
    1PA     H6R  703   4.830   5.283   4.830
    1PA     H6S  704   4.821   5.292   4.668
    1PA     C15  705   4.930   5.466   4.760
    1PA     H5R  706   4.938   5.529   4.672
    1PA     H5S  707   4.903   5.531   4.843
    1PA     C14  708   5.068   5.415   4.803
    1PA     H4R  709   5.112   5.341   4.736
    1PA     H4S  710   5.141   5.495   4.787
    1PA     C13  711   5.077   5.371   4.950
    1PA     H3R  712   5.034   5.446   5.016
    1PA     H3S  713   5.017   5.280   4.961
    1PA     C12  714   5.223   5.354   4.993
    1PA     H2R  715   5.249   5.258   4.948
    1PA     H2S  716   5.292   5.433   4.963
    2PC     C11  717   5.238   5.332   5.142
    2PC     O12  718   5.152   5.275   5.207
    2PC     O11  719   5.351   5.384   5.192
    2PC      C1  720   5.388   5.336   5.323
    2PC      HR  721   5.304   5.303   5.384
    2PC      HS  722   5.449   5.247   5.305
    2PC      C2  723   5.476   5.439   5.395
    2PC      HX  724   5.564   5.454   5.333
    2PC      C3  725   5.523   5.384   5.531
    2PC      HA  726   5.593   5.301   5.521
    2PC      HB  727   5.588   5.460   5.574
    2PC     O31  728   5.409   5.368   5.617
    2PC     P31  729   5.434   5.307   5.763
    2PC     O32  730   5.282   5.282   5.805
    2PC     C31  731   5.238   5.217   5.926
    2PC     H1A  732   5.139   5.174   5.910
    2PC     H1B  733   5.303   5.133   5.953
    2PC     C32  734   5.223   5.308   6.049
    2PC     H2A  735   5.320   5.345   6.080
    2PC     H2B  736   5.147   5.380   6.020
    2PC     N31  737   5.158   5.249   6.171
    2PC     C33  738   5.184   5.104   6.198
    2PC     H3A  739   5.150   5.045   6.112
    2PC     H3B  740   5.291   5.083   6.193
    2PC     H3C  741   5.156   5.082   6.301
    2PC     C34  742   5.209   5.321   6.292
    2PC     H4A  743   5.156   5.285   6.380
    2PC     H4B  744   5.317   5.321   6.304
    2PC     H4C  745   5.179   5.424   6.273
    2PC     C35  746   5.009   5.261   6.170
    2PC     H5A  747   4.987   5.357   6.122
    2PC     H5B  748   4.974   5.243   6.272
    2PC     H5C  749   4.973   5.182   6.104
    2PC     O33  750   5.519   5.186   5.773
    2PC     O34  751   5.508   5.395   5.856
    2PC     O21  752   5.397   5.558   5.409
    2PC     C21  753   5.455   5.676   5.440
    2PC     O22  754   5.568   5.682   5.482
    3OL     C12  755   5.364   5.794   5.417
    3OL     H2R  756   5.415   5.886   5.447
    3OL     H2S  757   5.278   5.786   5.483
    3OL     C13  758   5.307   5.792   5.274
    3OL     H3R  759   5.222   5.860   5.268
    3OL     H3S  760   5.263   5.694   5.252
    3OL     C14  761   5.402   5.838   5.163
    3OL     H4R  762   5.441   5.935   5.194
    3OL     H4S  763   5.333   5.847   5.079
    3OL     C15  764   5.524   5.748   5.139
    3OL     H5R  765   5.508   5.640   5.134
    3OL     H5S  766   5.603   5.763   5.212
    3OL     C16  767   5.588   5.798   5.010
    3OL     H6R  768   5.697   5.788   5.017
    3OL     H6S  769   5.564   5.904   5.001
    3OL     C17  770   5.552   5.715   4.885
    3OL     H7R  771   5.455   5.748   4.850
    3OL     H7S  772   5.549   5.608   4.905
    3OL     C18  773   5.660   5.738   4.778
    3OL     H8R  774   5.636   5.682   4.687
    3OL     H8S  775   5.757   5.704   4.813
    3OL     C19  776   5.671   5.882   4.738
    3OL     H9R  777   5.583   5.940   4.767
    3OL    C110  778   5.782   5.929   4.683
    3OL    H10R  779   5.788   6.035   4.663
    3OL    C111  780   5.895   5.841   4.634
    3OL    H11R  781   5.855   5.768   4.564
    3OL    H11S  782   5.929   5.794   4.727
    3OL    C112  783   6.008   5.917   4.563
    3OL    H12R  784   6.091   5.847   4.555
    3OL    H12S  785   6.043   6.002   4.622
    3OL    C113  786   5.967   5.958   4.421
    3OL    H13R  787   5.891   5.892   4.379
    3OL    H13S  788   6.052   5.950   4.353
    3OL    C114  789   5.923   6.105   4.418
    3OL    H14R  790   6.013   6.165   4.434
    3OL    H14S  791   5.855   6.125   4.500
    3OL    C115  792   5.871   6.142   4.278
    3OL    H15R  793   5.874   6.250   4.270
    3OL    H15S  794   5.768   6.105   4.267
    3OL    C116  795   5.956   6.096   4.159
    3OL    H16R  796   5.906   6.139   4.072
    3OL    H16S  797   5.957   5.987   4.153
    3OL    C117  798   6.101   6.145   4.147
    3OL    H17R  799   6.166   6.102   4.224
    3OL    H17S  800   6.120   6.249   4.173
    3OL    C118  801   6.140   6.113   4.002
    3OL    H18R  802   6.238   6.158   3.986
    3OL    H18S  803   6.084   6.155   3.918
    3OL    H18T  804   6.159   6.007   3.984
    1PA    C116  805   4.587   3.651   4.210
    1PA    H16R  806   4.594   3.731   4.284
    1PA    H16S  807   4.482   3.646   4.180
    1PA    H16T  808   4.648   3.672   4.122
    1PA    C115  809   4.644   3.525   4.276
    1PA    H15R  810   4.582   3.495   4.361
    1PA    H15S  811   4.627   3.453   4.196
    1PA    C114  812   4.789   3.547   4.323
    1PA    H14R  813   4.847   3.585   4.239
    1PA    H14S  814   4.777   3.621   4.402
    1PA    C113  815   4.854   3.417   4.371
    1PA    H13R  816   4.857   3.346   4.288
    1PA    H13S  817   4.957   3.454   4.383
    1PA    C112  818   4.785   3.374   4.501
    1PA    H12R  819   4.684   3.355   4.463
    1PA    H12S  820   4.842   3.283   4.522
    1PA    C111  821   4.776   3.466   4.623
    1PA    H11R  822   4.878   3.498   4.647
    1PA    H11S  823   4.708   3.549   4.603
    1PA    C110  824   4.733   3.391   4.750
    1PA    H10R  825   4.627   3.365   4.743
    1PA    H10S  826   4.792   3.302   4.773
    1PA     C19  827   4.749   3.496   4.860
    1PA     H9R  828   4.853   3.528   4.867
    1PA     H9S  829   4.688   3.586   4.844
    1PA     C18  830   4.701   3.449   4.998
    1PA     H8R  831   4.690   3.530   5.071
    1PA     H8S  832   4.601   3.407   5.003
    1PA     C17  833   4.788   3.340   5.063
    1PA     H7R  834   4.790   3.253   4.998
    1PA     H7S  835   4.892   3.365   5.088
    1PA     C16  836   4.729   3.295   5.197
    1PA     H6R  837   4.737   3.378   5.268
    1PA     H6S  838   4.623   3.270   5.182
    1PA     C15  839   4.816   3.184   5.257
    1PA     H5R  840   4.804   3.097   5.191
    1PA     H5S  841   4.922   3.208   5.258
    1PA     C14  842   4.778   3.151   5.402
    1PA     H4R  843   4.762   3.249   5.447
    1PA     H4S  844   4.685   3.095   5.417
    1PA     C13  845   4.883   3.072   5.480
    1PA     H3R  846   4.898   2.983   5.419
    1PA     H3S  847   4.979   3.125   5.470
    1PA     C12  848   4.834   3.039   5.622
    1PA     H2R  849   4.826   3.137   5.670
    1PA     H2S  850   4.733   3.000   5.612
    2PC     C11  851   4.913   2.939   5.704
    2PC     O12  852   4.886   2.893   5.813
    2PC     O11  853   5.027   2.909   5.640
    2PC      C1  854   5.119   2.827   5.716
    2PC      HR  855   5.217   2.824   5.668
    2PC      HS  856   5.133   2.860   5.819
    2PC      C2  857   5.067   2.683   5.723
    2PC      HX  858   4.960   2.677   5.747
    2PC      C3  859   5.144   2.601   5.827
    2PC      HA  860   5.110   2.497   5.815
    2PC      HB  861   5.251   2.596   5.807
    2PC     O31  862   5.110   2.652   5.957
    2PC     P31  863   5.167   2.589   6.092
    2PC     O32  864   5.124   2.709   6.189
    2PC     C31  865   5.125   2.682   6.330
    2PC     H1A  866   5.023   2.657   6.362
    2PC     H1B  867   5.190   2.599   6.356
    2PC     C32  868   5.182   2.805   6.402
    2PC     H2A  869   5.200   2.794   6.509
    2PC     H2B  870   5.286   2.816   6.373
    2PC     N31  871   5.120   2.937   6.368
    2PC     C33  872   5.145   3.033   6.481
    2PC     H3A  873   5.253   3.038   6.496
    2PC     H3B  874   5.109   3.131   6.451
    2PC     H3C  875   5.089   2.994   6.566
    2PC     C34  876   5.183   2.984   6.240
    2PC     H4A  877   5.290   2.973   6.255
    2PC     H4B  878   5.147   2.920   6.159
    2PC     H4C  879   5.158   3.090   6.230
    2PC     C35  880   4.972   2.941   6.347
    2PC     H5A  881   4.920   2.904   6.435
    2PC     H5B  882   4.949   2.895   6.251
    2PC     H5C  883   4.941   3.045   6.333
    2PC     O33  884   5.096   2.461   6.115
    2PC     O34  885   5.313   2.567   6.076
    2PC     O21  886   5.080   2.622   5.593
    2PC     C21  887   5.017   2.508   5.564
    2PC     O22  888   4.927   2.461   5.629
    3OL     C12  889   5.068   2.456   5.432
    3OL     H2R  890   5.140   2.374   5.439
    3OL     H2S  891   5.116   2.538   5.379
    3OL     C13  892   4.948   2.396   5.356
    3OL     H3R  893   4.867   2.469   5.354
    3OL     H3S  894   4.901   2.308   5.401
    3OL     C14  895   4.988   2.349   5.216
    3OL     H4R  896   5.061   2.268   5.223
    3OL     H4S  897   5.038   2.432   5.165
    3OL     C15  898   4.859   2.316   5.140
    3OL     H5R  899   4.777   2.389   5.141
    3OL     H5S  900   4.818   2.226   5.186
    3OL     C16  901   4.892   2.281   4.994
    3OL     H6R  902   4.957   2.193   4.992
    3OL     H6S  903   4.936   2.372   4.951
    3OL     C17  904   4.758   2.263   4.922
    3OL     H7R  905   4.691   2.350   4.920
    3OL     H7S  906   4.701   2.182   4.967
    3OL     C18  907   4.778   2.224   4.775
    3OL     H8R  908   4.847   2.291   4.724
    3OL     H8S  909   4.677   2.227   4.733
    3OL     C19  910   4.834   2.084   4.762
    3OL     H9R  911   4.798   2.006   4.827
    3OL    C110  912   4.927   2.043   4.678
    3OL    H10R  913   4.954   1.937   4.676
    3OL    C111  914   5.002   2.129   4.580
    3OL    H11R  915   5.107   2.097   4.576
    3OL    H11S  916   5.007   2.228   4.626
    3OL    C112  917   4.943   2.131   4.439
    3OL    H12R  918   5.014   2.195   4.385
    3OL    H12S  919   4.847   2.183   4.435
    3OL    C113  920   4.933   1.994   4.373
    3OL    H13R  921   4.882   2.018   4.280
    3OL    H13S  922   4.865   1.927   4.425
    3OL    C114  923   5.066   1.919   4.356
    3OL    H14R  924   5.106   1.900   4.456
    3OL    H14S  925   5.141   1.977   4.301
    3OL    C115  926   5.049   1.784   4.286
    3OL    H15R  927   4.974   1.722   4.337
    3OL    H15S  928   5.137   1.719   4.289
    3OL    C116  929   5.019   1.790   4.136
    3OL    H16R  930   4.975   1.883   4.099
    3OL    H16S  931   4.956   1.708   4.100
    3OL    C117  932   5.148   1.773   4.054
    3OL    H17R  933   5.204   1.684   4.082
    3OL    H17S  934   5.214   1.859   4.058
    3OL    C118  935   5.125   1.763   3.902
    3OL    H18R  936   5.066   1.679   3.865
    3OL    H18S  937   5.219   1.757   3.847
    3OL    H18T  938   5.081   1.855   3.864
    1PA    C116  939   0.919   5.580   3.976
    1PA    H16R  940   1.022   5.588   4.011
    1PA    H16S  941   0.866   5.500   4.028
    1PA    H16T  942   0.874   5.678   3.991
    1PA    C115  943   0.918   5.553   3.825
    1PA    H15R  944   0.957   5.644   3.780
    1PA    H15S  945   0.970   5.460   3.803
    1PA    C114  946   0.776   5.551   3.767
    1PA    H14R  947   0.713   5.617   3.827
    1PA    H14S  948   0.765   5.593   3.666
    1PA    C113  949   0.722   5.408   3.762
    1PA    H13R  950   0.659   5.389   3.675
    1PA    H13S  951   0.806   5.338   3.752
    1PA    C112  952   0.650   5.361   3.889
    1PA    H12R  953   0.633   5.254   3.875
    1PA    H12S  954   0.715   5.380   3.975
    1PA    C111  955   0.514   5.423   3.923
    1PA    H11R  956   0.521   5.531   3.943
    1PA    H11S  957   0.452   5.417   3.833
    1PA    C110  958   0.449   5.339   4.033
    1PA    H10R  959   0.348   5.378   4.045
    1PA    H10S  960   0.430   5.234   4.007
    1PA     C19  961   0.528   5.354   4.164
    1PA     H9R  962   0.621   5.304   4.138
    1PA     H9S  963   0.536   5.462   4.169
    1PA     C18  964   0.450   5.286   4.278
    1PA     H8R  965   0.369   5.359   4.287
    1PA     H8S  966   0.416   5.184   4.258
    1PA     C17  967   0.533   5.298   4.407
    1PA     H7R  968   0.631   5.258   4.383
    1PA     H7S  969   0.542   5.402   4.440
    1PA     C16  970   0.481   5.220   4.528
    1PA     H6R  971   0.395   5.278   4.564
    1PA     H6S  972   0.460   5.117   4.500
    1PA     C15  973   0.590   5.215   4.636
    1PA     H5R  974   0.687   5.184   4.596
    1PA     H5S  975   0.602   5.316   4.674
    1PA     C14  976   0.552   5.121   4.751
    1PA     H4R  977   0.449   5.144   4.781
    1PA     H4S  978   0.550   5.015   4.723
    1PA     C13  979   0.651   5.124   4.868
    1PA     H3R  980   0.750   5.088   4.840
    1PA     H3S  981   0.665   5.223   4.913
    1PA     C12  982   0.596   5.039   4.983
    1PA     H2R  983   0.511   5.089   5.031
    1PA     H2S  984   0.570   4.940   4.945
    2PC     C11  985   0.699   5.023   5.092
    2PC     O12  986   0.680   5.049   5.209
    2PC     O11  987   0.807   4.955   5.050
    2PC      C1  988   0.909   4.913   5.143
    2PC      HR  989   0.949   5.002   5.192
    2PC      HS  990   0.867   4.841   5.213
    2PC      C2  991   1.019   4.835   5.070
    2PC      HX  992   0.977   4.754   5.011
    2PC      C3  993   1.118   4.780   5.174
    2PC      HA  994   1.067   4.721   5.251
    2PC      HB  995   1.197   4.724   5.124
    2PC     O31  996   1.182   4.894   5.233
    2PC     P31  997   1.266   4.874   5.368
    2PC     O32  998   1.420   4.871   5.323
    2PC     C31  999   1.505   4.766   5.373
    2PC     H1A 1000   1.497   4.763   5.482
    2PC     H1B 1001   1.465   4.673   5.331
    2PC     C32 1002   1.652   4.787   5.333
    2PC     H2A 1003   1.716   4.744   5.410
    2PC     H2B 1004   1.669   4.745   5.234
    2PC     N31 1005   1.701   4.929   5.327
    2PC     C33 1006   1.646   5.019   5.433
    2PC     H3A 1007   1.664   4.978   5.532
    2PC     H3B 1008   1.691   5.116   5.411
    2PC     H3C 1009   1.537   5.016   5.423
    2PC     C34 1010   1.850   4.919   5.336
    2PC     H4A 1011   1.896   5.018   5.336
    2PC     H4B 1012   1.867   4.865   5.429
    2PC     H4C 1013   1.891   4.849   5.263
    2PC     C35 1014   1.665   4.991   5.195
    2PC     H5A 1015   1.564   4.965   5.163
    2PC     H5B 1016   1.746   4.961   5.129
    2PC     H5C 1017   1.674   5.099   5.202
    2PC     O33 1018   1.246   4.983   5.466
    2PC     O34 1019   1.224   4.748   5.433
    2PC     O21 1020   1.081   4.926   4.978
    2PC     C21 1021   1.174   4.878   4.893
    2PC     O22 1022   1.201   4.763   4.865
    3OL     C12 1023   1.252   4.997   4.843
    3OL     H2R 1024   1.354   4.985   4.880
    3OL     H2S 1025   1.196   5.086   4.873
    3OL     C13 1026   1.256   4.998   4.689
    3OL     H3R 1027   1.155   4.978   4.655
    3OL     H3S 1028   1.305   4.912   4.644
    3OL     C14 1029   1.328   5.126   4.642
    3OL     H4R 1030   1.404   5.146   4.719
    3OL     H4S 1031   1.258   5.209   4.630
    3OL     C15 1032   1.400   5.088   4.512
    3OL     H5R 1033   1.468   5.004   4.525
    3OL     H5S 1034   1.475   5.163   4.486
    3OL     C16 1035   1.302   5.070   4.395
    3OL     H6R 1036   1.270   5.170   4.367
    3OL     H6S 1037   1.206   5.020   4.406
    3OL     C17 1038   1.385   5.038   4.269
    3OL     H7R 1039   1.475   5.098   4.260
    3OL     H7S 1040   1.328   5.066   4.180
    3OL     C18 1041   1.414   4.888   4.256
    3OL     H8R 1042   1.458   4.859   4.352
    3OL     H8S 1043   1.481   4.864   4.173
    3OL     C19 1044   1.294   4.803   4.223
    3OL     H9R 1045   1.250   4.825   4.126
    3OL    C110 1046   1.240   4.718   4.309
    3OL    H10R 1047   1.142   4.677   4.284
    3OL    C111 1048   1.293   4.675   4.444
    3OL    H11R 1049   1.209   4.664   4.513
    3OL    H11S 1050   1.364   4.748   4.484
    3OL    C112 1051   1.358   4.537   4.429
    3OL    H12R 1052   1.434   4.547   4.351
    3OL    H12S 1053   1.291   4.463   4.386
    3OL    C113 1054   1.429   4.484   4.555
    3OL    H13R 1055   1.353   4.505   4.632
    3OL    H13S 1056   1.526   4.533   4.565
    3OL    C114 1057   1.456   4.334   4.542
    3OL    H14R 1058   1.523   4.306   4.460
    3OL    H14S 1059   1.361   4.283   4.526
    3OL    C115 1060   1.515   4.291   4.678
    3OL    H15R 1061   1.439   4.284   4.755
    3OL    H15S 1062   1.595   4.358   4.710
    3OL    C116 1063   1.580   4.154   4.656
    3OL    H16R 1064   1.501   4.082   4.634
    3OL    H16S 1065   1.654   4.156   4.575
    3OL    C117 1066   1.638   4.101   4.788
    3OL    H17R 1067   1.556   4.105   4.860
    3OL    H17S 1068   1.722   4.162   4.821
    3OL    C118 1069   1.688   3.959   4.758
    3OL    H18R 1070   1.770   3.974   4.687
    3OL    H18S 1071   1.733   3.911   4.845
    3OL    H18T 1072   1.613   3.898   4.707
    1PA    C116 1073   4.018   6.288   3.452
    1PA    H16R 1074   4.049   6.390   3.476
    1PA    H16S 1075   3.921   6.301   3.404
    1PA    H16T 1076   4.086   6.238   3.383
    1PA    C115 1077   4.005   6.194   3.572
    1PA    H15R 1078   4.099   6.189   3.628
    1PA    H15S 1079   3.919   6.231   3.628
    1PA    C114 1080   3.968   6.053   3.523
    1PA    H14R 1081   3.873   6.057   3.469
    1PA    H14S 1082   4.041   6.013   3.453
    1PA    C113 1083   3.941   5.954   3.638
    1PA    H13R 1084   3.867   6.003   3.702
    1PA    H13S 1085   3.900   5.860   3.600
    1PA    C112 1086   4.070   5.929   3.717
    1PA    H12R 1087   4.130   5.871   3.647
    1PA    H12S 1088   4.124   6.022   3.735
    1PA    C111 1089   4.056   5.851   3.848
    1PA    H11R 1090   3.981   5.896   3.914
    1PA    H11S 1091   4.027   5.751   3.817
    1PA    C110 1092   4.183   5.850   3.935
    1PA    H10R 1093   4.271   5.816   3.881
    1PA    H10S 1094   4.207   5.953   3.965
    1PA     C19 1095   4.171   5.771   4.065
    1PA     H9R 1096   4.085   5.802   4.126
    1PA     H9S 1097   4.152   5.668   4.036
    1PA     C18 1098   4.301   5.787   4.144
    1PA     H8R 1099   4.387   5.738   4.099
    1PA     H8S 1100   4.323   5.894   4.142
    1PA     C17 1101   4.281   5.732   4.286
    1PA     H7R 1102   4.196   5.795   4.315
    1PA     H7S 1103   4.264   5.625   4.276
    1PA     C16 1104   4.400   5.765   4.377
    1PA     H6R 1105   4.493   5.736   4.328
    1PA     H6S 1106   4.400   5.874   4.386
    1PA     C15 1107   4.374   5.705   4.516
    1PA     H5R 1108   4.267   5.718   4.534
    1PA     H5S 1109   4.400   5.600   4.503
    1PA     C14 1110   4.475   5.756   4.621
    1PA     H4R 1111   4.577   5.726   4.598
    1PA     H4S 1112   4.477   5.864   4.632
    1PA     C13 1113   4.436   5.707   4.762
    1PA     H3R 1114   4.450   5.599   4.765
    1PA     H3S 1115   4.503   5.749   4.836
    1PA     C12 1116   4.290   5.742   4.794
    1PA     H2R 1117   4.269   5.849   4.783
    1PA     H2S 1118   4.216   5.684   4.740
    2PC     C11 1119   4.269   5.699   4.937
    2PC     O12 1120   4.199   5.604   4.966
    2PC     O11 1121   4.341   5.775   5.021
    2PC      C1 1122   4.368   5.749   5.160
    2PC      HR 1123   4.416   5.840   5.196
    2PC      HS 1124   4.279   5.735   5.222
    2PC      C2 1125   4.465   5.631   5.175
    2PC      HX 1126   4.445   5.540   5.118
    2PC      C3 1127   4.470   5.590   5.323
    2PC      HA 1128   4.370   5.591   5.367
    2PC      HB 1129   4.516   5.490   5.324
    2PC     O31 1130   4.556   5.679   5.396
    2PC     P31 1131   4.552   5.663   5.555
    2PC     O32 1132   4.658   5.545   5.580
    2PC     C31 1133   4.800   5.570   5.578
    2PC     H1A 1134   4.827   5.642   5.500
    2PC     H1B 1135   4.823   5.610   5.677
    2PC     C32 1136   4.878   5.438   5.573
    2PC     H2A 1137   4.836   5.380   5.656
    2PC     H2B 1138   4.858   5.382   5.482
    2PC     N31 1139   5.027   5.446   5.587
    2PC     C33 1140   5.077   5.305   5.596
    2PC     H3A 1141   5.034   5.240   5.520
    2PC     H3B 1142   5.184   5.303   5.573
    2PC     H3C 1143   5.053   5.271   5.697
    2PC     C34 1144   5.067   5.518   5.461
    2PC     H4A 1145   5.176   5.518   5.456
    2PC     H4B 1146   5.023   5.455   5.385
    2PC     H4C 1147   5.008   5.610   5.472
    2PC     C35 1148   5.077   5.518   5.708
    2PC     H5A 1149   5.060   5.626   5.709
    2PC     H5B 1150   5.185   5.502   5.719
    2PC     H5C 1151   5.024   5.479   5.794
    2PC     O33 1152   4.589   5.789   5.623
    2PC     O34 1153   4.419   5.632   5.612
    2PC     O21 1154   4.599   5.670   5.142
    2PC     C21 1155   4.701   5.584   5.123
    2PC     O22 1156   4.689   5.464   5.138
    3OL     C12 1157   4.833   5.654   5.110
    3OL     H2R 1158   4.897   5.591   5.048
    3OL     H2S 1159   4.875   5.654   5.211
    3OL     C13 1160   4.830   5.799   5.058
    3OL     H3R 1161   4.770   5.858   5.127
    3OL     H3S 1162   4.774   5.808   4.965
    3OL     C14 1163   4.969   5.856   5.025
    3OL     H4R 1164   5.028   5.816   5.108
    3OL     H4S 1165   4.960   5.963   5.042
    3OL     C15 1166   5.035   5.819   4.892
    3OL     H5R 1167   5.006   5.715   4.875
    3OL     H5S 1168   5.143   5.828   4.905
    3OL     C16 1169   4.992   5.897   4.766
    3OL     H6R 1170   5.031   5.998   4.782
    3OL     H6S 1171   4.884   5.899   4.753
    3OL     C17 1172   5.069   5.827   4.653
    3OL     H7R 1173   5.017   5.739   4.614
    3OL     H7S 1174   5.165   5.792   4.690
    3OL     C18 1175   5.088   5.930   4.540
    3OL     H8R 1176   4.993   5.981   4.524
    3OL     H8S 1177   5.103   5.872   4.449
    3OL     C19 1178   5.193   6.036   4.554
    3OL     H9R 1179   5.175   6.108   4.633
    3OL    C110 1180   5.300   6.047   4.475
    3OL    H10R 1181   5.373   6.125   4.489
    3OL    C111 1182   5.336   5.950   4.365
    3OL    H11R 1183   5.252   5.919   4.303
    3OL    H11S 1184   5.394   5.863   4.395
    3OL    C112 1185   5.447   6.025   4.289
    3OL    H12R 1186   5.519   6.068   4.359
    3OL    H12S 1187   5.417   6.108   4.226
    3OL    C113 1188   5.535   5.937   4.199
    3OL    H13R 1189   5.583   5.874   4.274
    3OL    H13S 1190   5.609   6.001   4.152
    3OL    C114 1191   5.459   5.857   4.092
    3OL    H14R 1192   5.407   5.919   4.019
    3OL    H14S 1193   5.383   5.795   4.140
    3OL    C115 1194   5.547   5.772   4.000
    3OL    H15R 1195   5.595   5.693   4.057
    3OL    H15S 1196   5.609   5.845   3.949
    3OL    C116 1197   5.459   5.702   3.896
    3OL    H16R 1198   5.423   5.787   3.839
    3OL    H16S 1199   5.380   5.648   3.951
    3OL    C117 1200   5.535   5.614   3.796
    3OL    H17R 1201   5.609   5.681   3.754
    3OL    H17S 1202   5.475   5.599   3.706
    3OL    C118 1203   5.589   5.477   3.840
    3OL    H18R 1204   5.636   5.419   3.759
    3OL    H18S 1205   5.520   5.405   3.883
    3OL    H18T 1206   5.668   5.484   3.914
    1PA    C116 1207   4.361   4.798   3.353
    1PA    H16R 1208   4.377   4.879   3.282
    1PA    H16S 1209   4.365   4.831   3.456
    1PA    H16T 1210   4.259   4.762   3.334
    1PA    C115 1211   4.475   4.696   3.340
    1PA    H15R 1212   4.465   4.649   3.243
    1PA    H15S 1213   4.568   4.753   3.351
    1PA    C114 1214   4.492   4.600   3.459
    1PA    H14R 1215   4.597   4.571   3.448
    1PA    H14S 1216   4.480   4.656   3.551
    1PA    C113 1217   4.405   4.474   3.461
    1PA    H13R 1218   4.302   4.509   3.455
    1PA    H13S 1219   4.413   4.411   3.372
    1PA    C112 1220   4.437   4.390   3.585
    1PA    H12R 1221   4.374   4.302   3.573
    1PA    H12S 1222   4.541   4.356   3.577
    1PA    C111 1223   4.402   4.452   3.721
    1PA    H11R 1224   4.456   4.547   3.727
    1PA    H11S 1225   4.295   4.476   3.716
    1PA    C110 1226   4.445   4.365   3.840
    1PA    H10R 1227   4.400   4.267   3.856
    1PA    H10S 1228   4.553   4.353   3.833
    1PA     C19 1229   4.416   4.452   3.963
    1PA     H9R 1230   4.463   4.550   3.951
    1PA     H9S 1231   4.307   4.463   3.970
    1PA     C18 1232   4.457   4.392   4.098
    1PA     H8R 1233   4.400   4.444   4.175
    1PA     H8S 1234   4.426   4.288   4.109
    1PA     C17 1235   4.610   4.391   4.115
    1PA     H7R 1236   4.655   4.334   4.033
    1PA     H7S 1237   4.659   4.488   4.108
    1PA     C16 1238   4.648   4.330   4.250
    1PA     H6R 1239   4.583   4.246   4.274
    1PA     H6S 1240   4.747   4.286   4.245
    1PA     C15 1241   4.644   4.440   4.357
    1PA     H5R 1242   4.556   4.505   4.349
    1PA     H5S 1243   4.639   4.391   4.455
    1PA     C14 1244   4.769   4.528   4.358
    1PA     H4R 1245   4.854   4.459   4.363
    1PA     H4S 1246   4.783   4.589   4.268
    1PA     C13 1247   4.760   4.636   4.467
    1PA     H3R 1248   4.839   4.711   4.460
    1PA     H3S 1249   4.665   4.690   4.468
    1PA     C12 1250   4.793   4.569   4.601
    1PA     H2R 1251   4.750   4.469   4.613
    1PA     H2S 1252   4.902   4.557   4.602
    2PC     C11 1253   4.748   4.651   4.720
    2PC     O12 1254   4.723   4.769   4.714
    2PC     O11 1255   4.762   4.581   4.834
    2PC      C1 1256   4.703   4.641   4.950
    2PC      HR 1257   4.745   4.605   5.044
    2PC      HS 1258   4.704   4.750   4.947
    2PC      C2 1259   4.554   4.601   4.946
    2PC      HX 1260   4.503   4.660   5.023
    2PC      C3 1261   4.537   4.450   4.967
    2PC      HA 1262   4.577   4.403   4.877
    2PC      HB 1263   4.593   4.421   5.056
    2PC     O31 1264   4.399   4.413   4.983
    2PC     P31 1265   4.325   4.418   5.125
    2PC     O32 1266   4.193   4.503   5.095
    2PC     C31 1267   4.110   4.451   4.989
    2PC     H1A 1268   4.151   4.450   4.888
    2PC     H1B 1269   4.086   4.346   5.004
    2PC     C32 1270   3.967   4.504   4.967
    2PC     H2A 1271   3.984   4.594   4.908
    2PC     H2B 1272   3.906   4.433   4.911
    2PC     N31 1273   3.872   4.543   5.077
    2PC     C33 1274   3.927   4.656   5.159
    2PC     H3A 1275   3.930   4.751   5.105
    2PC     H3B 1276   3.867   4.661   5.250
    2PC     H3C 1277   4.027   4.631   5.196
    2PC     C34 1278   3.743   4.586   5.014
    2PC     H4A 1279   3.677   4.614   5.096
    2PC     H4B 1280   3.766   4.662   4.940
    2PC     H4C 1281   3.702   4.506   4.952
    2PC     C35 1282   3.844   4.425   5.165
    2PC     H5A 1283   3.791   4.361   5.095
    2PC     H5B 1284   3.780   4.455   5.248
    2PC     H5C 1285   3.936   4.390   5.211
    2PC     O33 1286   4.306   4.287   5.192
    2PC     O34 1287   4.407   4.503   5.214
    2PC     O21 1288   4.488   4.633   4.823
    2PC     C21 1289   4.450   4.760   4.798
    2PC     O22 1290   4.484   4.852   4.868
    3OL     C12 1291   4.369   4.772   4.671
    3OL     H2R 1292   4.275   4.717   4.677
    3OL     H2S 1293   4.417   4.723   4.586
    3OL     C13 1294   4.333   4.916   4.630
    3OL     H3R 1295   4.428   4.967   4.609
    3OL     H3S 1296   4.291   4.959   4.721
    3OL     C14 1297   4.233   4.935   4.516
    3OL     H4R 1298   4.233   5.037   4.478
    3OL     H4S 1299   4.133   4.909   4.553
    3OL     C15 1300   4.281   4.851   4.397
    3OL     H5R 1301   4.263   4.745   4.417
    3OL     H5S 1302   4.389   4.862   4.384
    3OL     C16 1303   4.207   4.888   4.267
    3OL     H6R 1304   4.228   4.991   4.240
    3OL     H6S 1305   4.099   4.886   4.283
    3OL     C17 1306   4.239   4.793   4.151
    3OL     H7R 1307   4.233   4.692   4.192
    3OL     H7S 1308   4.345   4.805   4.126
    3OL     C18 1309   4.136   4.807   4.038
    3OL     H8R 1310   4.122   4.912   4.012
    3OL     H8S 1311   4.038   4.770   4.068
    3OL     C19 1312   4.189   4.750   3.909
    3OL     H9R 1313   4.258   4.666   3.916
    3OL    C110 1314   4.145   4.790   3.791
    3OL    H10R 1315   4.187   4.749   3.699
    3OL    C111 1316   4.058   4.906   3.751
    3OL    H11R 1317   4.114   4.997   3.772
    3OL    H11S 1318   3.971   4.904   3.817
    3OL    C112 1319   4.013   4.906   3.604
    3OL    H12R 1320   3.952   4.818   3.581
    3OL    H12S 1321   4.097   4.909   3.535
    3OL    C113 1322   3.932   5.029   3.563
    3OL    H13R 1323   3.983   5.122   3.589
    3OL    H13S 1324   3.835   5.033   3.613
    3OL    C114 1325   3.911   5.035   3.411
    3OL    H14R 1326   4.005   5.039   3.357
    3OL    H14S 1327   3.867   5.131   3.384
    3OL    C115 1328   3.840   4.915   3.347
    3OL    H15R 1329   3.743   4.900   3.397
    3OL    H15S 1330   3.896   4.822   3.361
    3OL    C116 1331   3.839   4.940   3.196
    3OL    H16R 1332   3.934   4.971   3.151
    3OL    H16S 1333   3.775   5.027   3.179
    3OL    C117 1334   3.797   4.814   3.120
    3OL    H17R 1335   3.871   4.734   3.119
    3OL    H17S 1336   3.795   4.837   3.013
    3OL    C118 1337   3.657   4.758   3.152
    3OL    H18R 1338   3.660   4.683   3.231
    3OL    H18S 1339   3.610   4.704   3.069
    3OL    H18T 1340   3.580   4.832   3.175
    1PA    C116 1341   4.660   4.391   2.904
    1PA    H16R 1342   4.685   4.287   2.882
    1PA    H16S 1343   4.745   4.461   2.901
    1PA    H16T 1344   4.581   4.412   2.833
    1PA    C115 1345   4.600   4.402   3.045
    1PA    H15R 1346   4.583   4.509   3.051
    1PA    H15S 1347   4.499   4.362   3.044
    1PA    C114 1348   4.681   4.356   3.167
    1PA    H14R 1349   4.782   4.392   3.147
    1PA    H14S 1350   4.630   4.392   3.257
    1PA    C113 1351   4.692   4.203   3.183
    1PA    H13R 1352   4.601   4.165   3.230
    1PA    H13S 1353   4.705   4.161   3.083
    1PA    C112 1354   4.806   4.162   3.277
    1PA    H12R 1355   4.822   4.054   3.281
    1PA    H12S 1356   4.902   4.192   3.233
    1PA    C111 1357   4.794   4.202   3.424
    1PA    H11R 1358   4.799   4.311   3.439
    1PA    H11S 1359   4.697   4.163   3.455
    1PA    C110 1360   4.905   4.130   3.502
    1PA    H10R 1361   4.888   4.023   3.488
    1PA    H10S 1362   5.002   4.157   3.460
    1PA     C19 1363   4.908   4.162   3.652
    1PA     H9R 1364   4.990   4.105   3.696
    1PA     H9S 1365   4.935   4.265   3.676
    1PA     C18 1366   4.777   4.133   3.727
    1PA     H8R 1367   4.699   4.204   3.698
    1PA     H8S 1368   4.742   4.036   3.691
    1PA     C17 1369   4.778   4.132   3.881
    1PA     H7R 1370   4.813   4.222   3.931
    1PA     H7S 1371   4.673   4.140   3.909
    1PA     C16 1372   4.843   4.013   3.953
    1PA     H6R 1373   4.775   3.930   3.934
    1PA     H6S 1374   4.939   3.988   3.906
    1PA     C15 1375   4.860   4.037   4.104
    1PA     H5R 1376   4.924   4.125   4.111
    1PA     H5S 1377   4.761   4.063   4.142
    1PA     C14 1378   4.936   3.922   4.171
    1PA     H4R 1379   4.865   3.839   4.179
    1PA     H4S 1380   5.028   3.896   4.118
    1PA     C13 1381   4.978   3.968   4.311
    1PA     H3R 1382   5.046   4.052   4.319
    1PA     H3S 1383   4.887   4.005   4.358
    1PA     C12 1384   5.035   3.856   4.400
    1PA     H2R 1385   4.990   3.760   4.375
    1PA     H2S 1386   5.141   3.849   4.374
    2PC     C11 1387   5.005   3.865   4.547
    2PC     O12 1388   5.094   3.884   4.628
    2PC     O11 1389   4.879   3.834   4.578
    2PC      C1 1390   4.845   3.823   4.718
    2PC      HR 1391   4.750   3.773   4.738
    2PC      HS 1392   4.918   3.760   4.768
    2PC      C2 1393   4.823   3.967   4.767
    2PC      HX 1394   4.899   4.026   4.714
    2PC      C3 1395   4.846   3.976   4.919
    2PC      HA 1396   4.954   3.963   4.934
    2PC      HB 1397   4.829   4.070   4.971
    2PC     O31 1398   4.773   3.873   4.989
    2PC     P31 1399   4.794   3.879   5.148
    2PC     O32 1400   4.651   3.937   5.189
    2PC     C31 1401   4.635   4.079   5.201
    2PC     H1A 1402   4.728   4.132   5.223
    2PC     H1B 1403   4.566   4.114   5.124
    2PC     C32 1404   4.545   4.100   5.324
    2PC     H2A 1405   4.536   4.208   5.338
    2PC     H2B 1406   4.446   4.067   5.292
    2PC     N31 1407   4.575   4.034   5.455
    2PC     C33 1408   4.494   4.105   5.559
    2PC     H3A 1409   4.541   4.201   5.579
    2PC     H3B 1410   4.396   4.113   5.512
    2PC     H3C 1411   4.506   4.039   5.646
    2PC     C34 1412   4.540   3.888   5.452
    2PC     H4A 1413   4.574   3.857   5.550
    2PC     H4B 1414   4.435   3.867   5.433
    2PC     H4C 1415   4.586   3.846   5.362
    2PC     C35 1416   4.718   4.042   5.498
    2PC     H5A 1417   4.791   3.992   5.434
    2PC     H5B 1418   4.726   4.001   5.599
    2PC     H5C 1419   4.741   4.149   5.492
    2PC     O33 1420   4.830   3.745   5.200
    2PC     O34 1421   4.902   3.960   5.208
    2PC     O21 1422   4.688   3.990   4.725
    2PC     C21 1423   4.636   4.113   4.738
    2PC     O22 1424   4.701   4.215   4.751
    3OL     C12 1425   4.486   4.116   4.725
    3OL     H2R 1426   4.437   4.112   4.822
    3OL     H2S 1427   4.452   4.028   4.671
    3OL     C13 1428   4.450   4.236   4.635
    3OL     H3R 1429   4.491   4.205   4.539
    3OL     H3S 1430   4.501   4.329   4.658
    3OL     C14 1431   4.299   4.262   4.622
    3OL     H4R 1432   4.271   4.306   4.718
    3OL     H4S 1433   4.238   4.173   4.605
    3OL     C15 1434   4.275   4.372   4.517
    3OL     H5R 1435   4.322   4.340   4.424
    3OL     H5S 1436   4.328   4.463   4.544
    3OL     C16 1437   4.129   4.413   4.496
    3OL     H6R 1438   4.095   4.340   4.422
    3OL     H6S 1439   4.132   4.512   4.450
    3OL     C17 1440   4.046   4.424   4.625
    3OL     H7R 1441   4.102   4.494   4.688
    3OL     H7S 1442   4.049   4.329   4.678
    3OL     C18 1443   3.900   4.456   4.593
    3OL     H8R 1444   3.836   4.471   4.680
    3OL     H8S 1445   3.861   4.361   4.555
    3OL     C19 1446   3.880   4.574   4.502
    3OL     H9R 1447   3.883   4.669   4.555
    3OL    C110 1448   3.878   4.568   4.369
    3OL    H10R 1449   3.877   4.661   4.313
    3OL    C111 1450   3.877   4.441   4.289
    3OL    H11R 1451   3.776   4.439   4.249
    3OL    H11S 1452   3.885   4.347   4.344
    3OL    C112 1453   3.986   4.432   4.181
    3OL    H12R 1454   4.037   4.335   4.180
    3OL    H12S 1455   4.056   4.513   4.201
    3OL    C113 1456   3.931   4.438   4.038
    3OL    H13R 1457   3.870   4.529   4.036
    3OL    H13S 1458   3.855   4.361   4.019
    3OL    C114 1459   4.047   4.420   3.938
    3OL    H14R 1460   4.105   4.332   3.966
    3OL    H14S 1461   4.093   4.519   3.932
    3OL    C115 1462   4.009   4.380   3.795
    3OL    H15R 1463   3.913   4.327   3.788
    3OL    H15S 1464   4.084   4.324   3.740
    3OL    C116 1465   3.980   4.505   3.710
    3OL    H16R 1466   4.067   4.570   3.719
    3OL    H16S 1467   3.898   4.557   3.760
    3OL    C117 1468   3.955   4.462   3.565
    3OL    H17R 1469   3.871   4.391   3.568
    3OL    H17S 1470   4.048   4.417   3.533
    3OL    C118 1471   3.902   4.585   3.489
    3OL    H18R 1472   3.824   4.631   3.549
    3OL    H18S 1473   3.858   4.548   3.396
    3OL    H18T 1474   3.988   4.644   3.458
    1PA    C116 1475   7.205   1.945   3.777
    1PA    H16R 1476   7.123   1.872   3.774
    1PA    H16S 1477   7.239   1.946   3.880
    1PA    H16T 1478   7.281   1.912   3.706
    1PA    C115 1479   7.159   2.085   3.737
    1PA    H15R 1480   7.237   2.158   3.756
    1PA    H15S 1481   7.143   2.078   3.629
    1PA    C114 1482   7.028   2.136   3.798
    1PA    H14R 1483   6.990   2.221   3.741
    1PA    H14S 1484   6.949   2.063   3.781
    1PA    C113 1485   7.036   2.175   3.947
    1PA    H13R 1486   7.069   2.093   4.010
    1PA    H13S 1487   7.115   2.250   3.954
    1PA    C112 1488   6.907   2.236   4.003
    1PA    H12R 1489   6.870   2.307   3.928
    1PA    H12S 1490   6.836   2.153   4.006
    1PA    C111 1491   6.935   2.285   4.146
    1PA    H11R 1492   6.986   2.207   4.203
    1PA    H11S 1493   6.994   2.377   4.144
    1PA    C110 1494   6.803   2.312   4.218
    1PA    H10R 1495   6.758   2.400   4.171
    1PA    H10S 1496   6.732   2.231   4.198
    1PA     C19 1497   6.815   2.351   4.366
    1PA     H9R 1498   6.858   2.276   4.433
    1PA     H9S 1499   6.876   2.441   4.361
    1PA     C18 1500   6.681   2.389   4.432
    1PA     H8R 1501   6.640   2.472   4.375
    1PA     H8S 1502   6.608   2.308   4.419
    1PA     C17 1503   6.700   2.434   4.578
    1PA     H7R 1504   6.780   2.381   4.628
    1PA     H7S 1505   6.735   2.538   4.575
    1PA     C16 1506   6.574   2.445   4.665
    1PA     H6R 1507   6.504   2.520   4.628
    1PA     H6S 1508   6.513   2.356   4.646
    1PA     C15 1509   6.618   2.442   4.812
    1PA     H5R 1510   6.686   2.359   4.833
    1PA     H5S 1511   6.668   2.538   4.827
    1PA     C14 1512   6.501   2.432   4.911
    1PA     H4R 1513   6.422   2.502   4.886
    1PA     H4S 1514   6.455   2.333   4.913
    1PA     C13 1515   6.537   2.453   5.059
    1PA     H3R 1516   6.598   2.370   5.097
    1PA     H3S 1517   6.602   2.540   5.070
    1PA     C12 1518   6.409   2.481   5.139
    1PA     H2R 1519   6.375   2.582   5.119
    1PA     H2S 1520   6.334   2.409   5.105
    2PC     C11 1521   6.405   2.465   5.289
    2PC     O12 1522   6.504   2.484   5.357
    2PC     O11 1523   6.278   2.445   5.328
    2PC      C1 1524   6.232   2.429   5.463
    2PC      HR 1525   6.124   2.411   5.469
    2PC      HS 1526   6.290   2.348   5.505
    2PC      C2 1527   6.252   2.567   5.527
    2PC      HX 1528   6.355   2.604   5.521
    2PC      C3 1529   6.221   2.563   5.677
    2PC      HA 1530   6.113   2.572   5.690
    2PC      HB 1531   6.262   2.472   5.723
    2PC     O31 1532   6.294   2.675   5.730
    2PC     P31 1533   6.273   2.681   5.889
    2PC     O32 1534   6.116   2.701   5.912
    2PC     C31 1535   6.066   2.830   5.872
    2PC     H1A 1536   6.123   2.911   5.920
    2PC     H1B 1537   6.072   2.845   5.764
    2PC     C32 1538   5.919   2.836   5.915
    2PC     H2A 1539   5.858   2.765   5.859
    2PC     H2B 1540   5.914   2.833   6.024
    2PC     N31 1541   5.853   2.968   5.891
    2PC     C33 1542   5.908   3.069   5.987
    2PC     H3A 1543   6.016   3.074   5.969
    2PC     H3B 1544   5.857   3.163   5.967
    2PC     H3C 1545   5.895   3.038   6.091
    2PC     C34 1546   5.881   3.022   5.754
    2PC     H4A 1547   5.839   3.121   5.735
    2PC     H4B 1548   5.989   3.036   5.739
    2PC     H4C 1549   5.841   2.958   5.675
    2PC     C35 1550   5.705   2.964   5.916
    2PC     H5A 1551   5.698   2.929   6.019
    2PC     H5B 1552   5.669   2.889   5.844
    2PC     H5C 1553   5.651   3.056   5.897
    2PC     O33 1554   6.319   2.555   5.952
    2PC     O34 1555   6.363   2.784   5.947
    2PC     O21 1556   6.161   2.665   5.473
    2PC     C21 1557   6.202   2.745   5.373
    2PC     O22 1558   6.316   2.742   5.332
    3OL     C12 1559   6.086   2.822   5.316
    3OL     H2R 1560   6.015   2.759   5.261
    3OL     H2S 1561   6.123   2.898   5.248
    3OL     C13 1562   5.997   2.879   5.428
    3OL     H3R 1563   6.059   2.922   5.507
    3OL     H3S 1564   5.937   2.805   5.482
    3OL     C14 1565   5.903   2.991   5.379
    3OL     H4R 1566   5.963   3.062   5.322
    3OL     H4S 1567   5.855   3.032   5.468
    3OL     C15 1568   5.793   2.937   5.287
    3OL     H5R 1569   5.719   2.881   5.345
    3OL     H5S 1570   5.835   2.867   5.214
    3OL     C16 1571   5.720   3.054   5.219
    3OL     H6R 1572   5.790   3.107   5.155
    3OL     H6S 1573   5.683   3.121   5.297
    3OL     C17 1574   5.613   3.003   5.121
    3OL     H7R 1575   5.536   2.952   5.178
    3OL     H7S 1576   5.656   2.934   5.048
    3OL     C18 1577   5.563   3.122   5.039
    3OL     H8R 1578   5.643   3.193   5.019
    3OL     H8S 1579   5.499   3.183   5.103
    3OL     C19 1580   5.492   3.076   4.913
    3OL     H9R 1581   5.425   2.992   4.928
    3OL    C110 1582   5.507   3.146   4.802
    3OL    H10R 1583   5.446   3.107   4.720
    3OL    C111 1584   5.600   3.260   4.773
    3OL    H11R 1585   5.702   3.238   4.805
    3OL    H11S 1586   5.568   3.347   4.830
    3OL    C112 1587   5.620   3.273   4.621
    3OL    H12R 1588   5.522   3.285   4.575
    3OL    H12S 1589   5.664   3.182   4.581
    3OL    C113 1590   5.719   3.378   4.568
    3OL    H13R 1591   5.760   3.348   4.471
    3OL    H13S 1592   5.810   3.383   4.626
    3OL    C114 1593   5.649   3.514   4.558
    3OL    H14R 1594   5.618   3.548   4.657
    3OL    H14S 1595   5.560   3.507   4.495
    3OL    C115 1596   5.736   3.621   4.491
    3OL    H15R 1597   5.759   3.578   4.393
    3OL    H15S 1598   5.822   3.625   4.558
    3OL    C116 1599   5.669   3.757   4.469
    3OL    H16R 1600   5.578   3.745   4.408
    3OL    H16S 1601   5.738   3.821   4.414
    3OL    C117 1602   5.622   3.823   4.599
    3OL    H17R 1603   5.711   3.855   4.654
    3OL    H17S 1604   5.568   3.758   4.667
    3OL    C118 1605   5.552   3.956   4.569
    3OL    H18R 1606   5.593   4.027   4.497
    3OL    H18S 1607   5.525   4.009   4.660
    3OL    H18T 1608   5.455   3.935   4.522
    1PA    C116 1609   3.446   0.786   4.193
    1PA    H16R 1610   3.366   0.742   4.133
    1PA    H16S 1611   3.432   0.891   4.168
    1PA    H16T 1612   3.442   0.762   4.300
    1PA    C115 1613   3.577   0.742   4.127
    1PA    H15R 1614   3.571   0.758   4.019
    1PA    H15S 1615   3.651   0.818   4.150
    1PA    C114 1616   3.625   0.598   4.155
    1PA    H14R 1617   3.534   0.541   4.176
    1PA    H14S 1618   3.669   0.553   4.066
    1PA    C113 1619   3.715   0.584   4.278
    1PA    H13R 1620   3.666   0.634   4.362
    1PA    H13S 1621   3.716   0.478   4.305
    1PA    C112 1622   3.861   0.625   4.256
    1PA    H12R 1623   3.904   0.557   4.182
    1PA    H12S 1624   3.863   0.723   4.208
    1PA    C111 1625   3.948   0.618   4.383
    1PA    H11R 1626   3.912   0.530   4.436
    1PA    H11S 1627   4.051   0.596   4.357
    1PA    C110 1628   3.935   0.738   4.477
    1PA    H10R 1629   3.946   0.831   4.421
    1PA    H10S 1630   3.831   0.746   4.508
    1PA     C19 1631   4.032   0.730   4.597
    1PA     H9R 1632   4.130   0.710   4.552
    1PA     H9S 1633   4.042   0.830   4.640
    1PA     C18 1634   4.006   0.623   4.703
    1PA     H8R 1635   4.008   0.526   4.653
    1PA     H8S 1636   4.089   0.628   4.775
    1PA     C17 1637   3.877   0.660   4.777
    1PA     H7R 1638   3.798   0.704   4.716
    1PA     H7S 1639   3.841   0.569   4.826
    1PA     C16 1640   3.896   0.772   4.880
    1PA     H6R 1641   3.981   0.835   4.853
    1PA     H6S 1642   3.801   0.826   4.875
    1PA     C15 1643   3.920   0.726   5.024
    1PA     H5R 1644   3.940   0.818   5.079
    1PA     H5S 1645   3.832   0.678   5.069
    1PA     C14 1646   4.043   0.635   5.037
    1PA     H4R 1647   4.025   0.546   4.976
    1PA     H4S 1648   4.128   0.689   4.995
    1PA     C13 1649   4.071   0.608   5.185
    1PA     H3R 1650   4.104   0.700   5.233
    1PA     H3S 1651   3.980   0.566   5.229
    1PA     C12 1652   4.187   0.507   5.194
    1PA     H2R 1653   4.160   0.415   5.143
    1PA     H2S 1654   4.272   0.563   5.153
    2PC     C11 1655   4.221   0.477   5.338
    2PC     O12 1656   4.167   0.525   5.435
    2PC     O11 1657   4.330   0.398   5.334
    2PC      C1 1658   4.395   0.363   5.458
    2PC      HR 1659   4.425   0.451   5.515
    2PC      HS 1660   4.330   0.305   5.524
    2PC      C2 1661   4.518   0.278   5.424
    2PC      HX 1662   4.489   0.196   5.358
    2PC      C3 1663   4.583   0.232   5.555
    2PC      HA 1664   4.519   0.159   5.604
    2PC      HB 1665   4.671   0.170   5.531
    2PC     O31 1666   4.620   0.341   5.641
    2PC     P31 1667   4.728   0.309   5.756
    2PC     O32 1668   4.659   0.201   5.852
    2PC     C31 1669   4.533   0.231   5.914
    2PC     H1A 1670   4.543   0.337   5.938
    2PC     H1B 1671   4.460   0.225   5.833
    2PC     C32 1672   4.494   0.132   6.025
    2PC     H2A 1673   4.410   0.166   6.086
    2PC     H2B 1674   4.474   0.037   5.977
    2PC     N31 1675   4.607   0.107   6.120
    2PC     C33 1676   4.666   0.234   6.173
    2PC     H3A 1677   4.755   0.204   6.229
    2PC     H3B 1678   4.702   0.298   6.093
    2PC     H3C 1679   4.594   0.283   6.239
    2PC     C34 1680   4.559   0.029   6.239
    2PC     H4A 1681   4.644   0.019   6.306
    2PC     H4B 1682   4.484   0.088   6.292
    2PC     H4C 1683   4.529  -0.069   6.201
    2PC     C35 1684   4.710   0.026   6.048
    2PC     H5A 1685   4.664  -0.033   5.969
    2PC     H5B 1686   4.775  -0.027   6.119
    2PC     H5C 1687   4.780   0.097   6.004
    2PC     O33 1688   4.849   0.249   5.696
    2PC     O34 1689   4.776   0.428   5.830
    2PC     O21 1690   4.618   0.350   5.350
    2PC     C21 1691   4.684   0.289   5.250
    2PC     O22 1692   4.688   0.169   5.236
    3OL     C12 1693   4.756   0.385   5.158
    3OL     H2R 1694   4.762   0.339   5.059
    3OL     H2S 1695   4.861   0.394   5.187
    3OL     C13 1696   4.692   0.525   5.151
    3OL     H3R 1697   4.749   0.578   5.076
    3OL     H3S 1698   4.707   0.571   5.249
    3OL     C14 1699   4.548   0.535   5.099
    3OL     H4R 1700   4.498   0.623   5.141
    3OL     H4S 1701   4.481   0.454   5.129
    3OL     C15 1702   4.552   0.556   4.947
    3OL     H5R 1703   4.611   0.476   4.903
    3OL     H5S 1704   4.603   0.649   4.920
    3OL     C16 1705   4.421   0.571   4.868
    3OL     H6R 1706   4.379   0.672   4.872
    3OL     H6S 1707   4.359   0.491   4.910
    3OL     C17 1708   4.434   0.526   4.722
    3OL     H7R 1709   4.335   0.526   4.675
    3OL     H7S 1710   4.450   0.418   4.726
    3OL     C18 1711   4.505   0.614   4.618
    3OL     H8R 1712   4.611   0.614   4.645
    3OL     H8S 1713   4.469   0.716   4.630
    3OL     C19 1714   4.470   0.569   4.478
    3OL     H9R 1715   4.364   0.567   4.455
    3OL    C110 1716   4.556   0.530   4.385
    3OL    H10R 1717   4.519   0.507   4.286
    3OL    C111 1718   4.706   0.533   4.398
    3OL    H11R 1719   4.734   0.559   4.501
    3OL    H11S 1720   4.745   0.596   4.318
    3OL    C112 1721   4.766   0.395   4.370
    3OL    H12R 1722   4.711   0.318   4.426
    3OL    H12S 1723   4.871   0.404   4.398
    3OL    C113 1724   4.766   0.364   4.220
    3OL    H13R 1725   4.826   0.439   4.167
    3OL    H13S 1726   4.665   0.371   4.179
    3OL    C114 1727   4.823   0.224   4.194
    3OL    H14R 1728   4.766   0.151   4.252
    3OL    H14S 1729   4.924   0.219   4.236
    3OL    C115 1730   4.815   0.190   4.045
    3OL    H15R 1731   4.890   0.246   3.988
    3OL    H15S 1732   4.713   0.215   4.014
    3OL    C116 1733   4.842   0.040   4.026
    3OL    H16R 1734   4.769  -0.017   4.084
    3OL    H16S 1735   4.941   0.020   4.068
    3OL    C117 1736   4.845  -0.013   3.882
    3OL    H17R 1737   4.923   0.044   3.830
    3OL    H17S 1738   4.750   0.003   3.831
    3OL    C118 1739   4.882  -0.162   3.866
    3OL    H18R 1740   4.883  -0.197   3.763
    3OL    H18S 1741   4.819  -0.228   3.926
    3OL    H18T 1742   4.980  -0.179   3.912
    1PA    C116 1743   5.083   0.943   4.092
    1PA    H16R 1744   5.158   1.004   4.040
    1PA    H16S 1745   5.025   0.990   4.171
    1PA    H16T 1746   5.011   0.901   4.021
    1PA    C115 1747   5.151   0.831   4.171
    1PA    H15R 1748   5.214   0.779   4.099
    1PA    H15S 1749   5.214   0.876   4.248
    1PA    C114 1750   5.043   0.740   4.231
    1PA    H14R 1751   4.998   0.794   4.315
    1PA    H14S 1752   4.966   0.708   4.161
    1PA    C113 1753   5.109   0.615   4.292
    1PA    H13R 1754   5.035   0.540   4.318
    1PA    H13S 1755   5.161   0.579   4.202
    1PA    C112 1756   5.208   0.631   4.408
    1PA    H12R 1757   5.309   0.654   4.373
    1PA    H12S 1758   5.186   0.726   4.457
    1PA    C111 1759   5.213   0.512   4.505
    1PA    H11R 1760   5.120   0.455   4.502
    1PA    H11S 1761   5.288   0.440   4.473
    1PA    C110 1762   5.244   0.545   4.651
    1PA    H10R 1763   5.348   0.554   4.683
    1PA    H10S 1764   5.185   0.632   4.680
    1PA     C19 1765   5.200   0.437   4.751
    1PA     H9R 1766   5.091   0.434   4.740
    1PA     H9S 1767   5.237   0.338   4.724
    1PA     C18 1768   5.247   0.476   4.891
    1PA     H8R 1769   5.224   0.583   4.901
    1PA     H8S 1770   5.188   0.431   4.971
    1PA     C17 1771   5.393   0.451   4.933
    1PA     H7R 1772   5.463   0.509   4.872
    1PA     H7S 1773   5.415   0.490   5.033
    1PA     C16 1774   5.441   0.306   4.924
    1PA     H6R 1775   5.375   0.252   4.855
    1PA     H6S 1776   5.538   0.307   4.874
    1PA     C15 1777   5.437   0.250   5.067
    1PA     H5R 1778   5.352   0.288   5.124
    1PA     H5S 1779   5.408   0.145   5.057
    1PA     C14 1780   5.575   0.264   5.131
    1PA     H4R 1781   5.648   0.214   5.068
    1PA     H4S 1782   5.609   0.368   5.134
    1PA     C13 1783   5.573   0.195   5.269
    1PA     H3R 1784   5.480   0.227   5.315
    1PA     H3S 1785   5.575   0.087   5.258
    1PA     C12 1786   5.697   0.235   5.349
    1PA     H2R 1787   5.783   0.194   5.296
    1PA     H2S 1788   5.704   0.343   5.361
    2PC     C11 1789   5.691   0.191   5.493
    2PC     O12 1790   5.791   0.157   5.554
    2PC     O11 1791   5.574   0.222   5.553
    2PC      C1 1792   5.557   0.167   5.684
    2PC      HR 1793   5.647   0.181   5.744
    2PC      HS 1794   5.475   0.219   5.734
    2PC      C2 1795   5.508   0.021   5.673
    2PC      HX 1796   5.419   0.014   5.611
    2PC      C3 1797   5.459  -0.023   5.811
    2PC      HA 1798   5.380   0.041   5.850
    2PC      HB 1799   5.414  -0.123   5.817
    2PC     O31 1800   5.567  -0.015   5.906
    2PC     P31 1801   5.551  -0.049   6.062
    2PC     O32 1802   5.688  -0.118   6.107
    2PC     C31 1803   5.775  -0.175   6.007
    2PC     H1A 1804   5.714  -0.243   5.947
    2PC     H1B 1805   5.805  -0.102   5.931
    2PC     C32 1806   5.892  -0.245   6.077
    2PC     H2A 1807   5.849  -0.331   6.130
    2PC     H2B 1808   5.958  -0.292   6.005
    2PC     N31 1809   5.977  -0.175   6.178
    2PC     C33 1810   5.903  -0.084   6.272
    2PC     H3A 1811   5.853  -0.003   6.218
    2PC     H3B 1812   5.829  -0.142   6.327
    2PC     H3C 1813   5.985  -0.044   6.331
    2PC     C34 1814   6.053  -0.275   6.260
    2PC     H4A 1815   6.096  -0.346   6.190
    2PC     H4B 1816   6.126  -0.215   6.316
    2PC     H4C 1817   5.986  -0.327   6.329
    2PC     C35 1818   6.077  -0.084   6.113
    2PC     H5A 1819   6.140  -0.043   6.192
    2PC     H5B 1820   6.027  -0.006   6.055
    2PC     H5C 1821   6.149  -0.133   6.047
    2PC     O33 1822   5.521   0.081   6.128
    2PC     O34 1823   5.430  -0.127   6.098
    2PC     O21 1824   5.614  -0.058   5.616
    2PC     C21 1825   5.592  -0.189   5.599
    2PC     O22 1826   5.490  -0.247   5.627
    3OL     C12 1827   5.705  -0.261   5.529
    3OL     H2R 1828   5.779  -0.295   5.602
    3OL     H2S 1829   5.763  -0.190   5.469
    3OL     C13 1830   5.655  -0.390   5.463
    3OL     H3R 1831   5.563  -0.372   5.407
    3OL     H3S 1832   5.630  -0.454   5.548
    3OL     C14 1833   5.765  -0.455   5.378
    3OL     H4R 1834   5.712  -0.541   5.337
    3OL     H4S 1835   5.856  -0.482   5.433
    3OL     C15 1836   5.827  -0.371   5.266
    3OL     H5R 1837   5.891  -0.442   5.212
    3OL     H5S 1838   5.897  -0.293   5.299
    3OL     C16 1839   5.725  -0.308   5.170
    3OL     H6R 1840   5.646  -0.257   5.226
    3OL     H6S 1841   5.664  -0.386   5.123
    3OL     C17 1842   5.785  -0.216   5.063
    3OL     H7R 1843   5.839  -0.283   4.996
    3OL     H7S 1844   5.850  -0.138   5.104
    3OL     C18 1845   5.677  -0.152   4.975
    3OL     H8R 1846   5.731  -0.079   4.914
    3OL     H8S 1847   5.607  -0.092   5.034
    3OL     C19 1848   5.601  -0.254   4.894
    3OL     H9R 1849   5.666  -0.319   4.836
    3OL    C110 1850   5.470  -0.271   4.893
    3OL    H10R 1851   5.424  -0.348   4.833
    3OL    C111 1852   5.374  -0.180   4.966
    3OL    H11R 1853   5.380  -0.084   4.915
    3OL    H11S 1854   5.404  -0.161   5.070
    3OL    C112 1855   5.234  -0.241   4.957
    3OL    H12R 1856   5.232  -0.334   5.015
    3OL    H12S 1857   5.201  -0.262   4.855
    3OL    C113 1858   5.128  -0.149   5.020
    3OL    H13R 1859   5.178  -0.093   5.100
    3OL    H13S 1860   5.046  -0.204   5.066
    3OL    C114 1861   5.068  -0.057   4.914
    3OL    H14R 1862   5.006  -0.118   4.847
    3OL    H14S 1863   5.142  -0.020   4.842
    3OL    C115 1864   4.974   0.044   4.981
    3OL    H15R 1865   5.020   0.071   5.077
    3OL    H15S 1866   4.881  -0.011   4.996
    3OL    C116 1867   4.962   0.170   4.895
    3OL    H16R 1868   5.058   0.194   4.849
    3OL    H16S 1869   4.935   0.251   4.963
    3OL    C117 1870   4.843   0.174   4.797
    3OL    H17R 1871   4.750   0.153   4.851
    3OL    H17S 1872   4.860   0.090   4.729
    3OL    C118 1873   4.827   0.307   4.724
    3OL    H18R 1874   4.911   0.319   4.654
    3OL    H18S 1875   4.832   0.388   4.797
    3OL    H18T 1876   4.738   0.298   4.661
    1PA    C116 1877   0.514   2.687   4.176
    1PA    H16R 1878   0.584   2.616   4.220
    1PA    H16S 1879   0.426   2.632   4.141
    1PA    H16T 1880   0.480   2.742   4.264
    1PA    C115 1881   0.578   2.775   4.068
    1PA    H15R 1882   0.654   2.829   4.124
    1PA    H15S 1883   0.617   2.717   3.984
    1PA    C114 1884   0.477   2.874   4.008
    1PA    H14R 1885   0.397   2.815   3.962
    1PA    H14S 1886   0.420   2.932   4.081
    1PA    C113 1887   0.534   2.970   3.902
    1PA    H13R 1888   0.581   2.909   3.825
    1PA    H13S 1889   0.447   3.021   3.862
    1PA    C112 1890   0.638   3.071   3.952
    1PA    H12R 1891   0.708   3.016   4.016
    1PA    H12S 1892   0.693   3.108   3.865
    1PA    C111 1893   0.582   3.191   4.030
    1PA    H11R 1894   0.508   3.241   3.967
    1PA    H11S 1895   0.525   3.163   4.119
    1PA    C110 1896   0.680   3.304   4.067
    1PA    H10R 1897   0.735   3.272   4.156
    1PA    H10S 1898   0.752   3.322   3.987
    1PA     C19 1899   0.606   3.434   4.102
    1PA     H9R 1900   0.682   3.513   4.107
    1PA     H9S 1901   0.541   3.465   4.020
    1PA     C18 1902   0.512   3.424   4.222
    1PA     H8R 1903   0.429   3.495   4.208
    1PA     H8S 1904   0.470   3.324   4.239
    1PA     C17 1905   0.602   3.466   4.339
    1PA     H7R 1906   0.691   3.403   4.329
    1PA     H7S 1907   0.636   3.569   4.329
    1PA     C16 1908   0.530   3.452   4.474
    1PA     H6R 1909   0.437   3.508   4.461
    1PA     H6S 1910   0.516   3.345   4.490
    1PA     C15 1911   0.620   3.518   4.579
    1PA     H5R 1912   0.704   3.452   4.603
    1PA     H5S 1913   0.650   3.616   4.541
    1PA     C14 1914   0.544   3.544   4.709
    1PA     H4R 1915   0.469   3.622   4.697
    1PA     H4S 1916   0.493   3.453   4.742
    1PA     C13 1917   0.642   3.575   4.823
    1PA     H3R 1918   0.702   3.486   4.842
    1PA     H3S 1919   0.702   3.664   4.803
    1PA     C12 1920   0.563   3.612   4.949
    1PA     H2R 1921   0.531   3.717   4.949
    1PA     H2S 1922   0.477   3.545   4.944
    2PC     C11 1923   0.644   3.588   5.074
    2PC     O12 1924   0.698   3.672   5.143
    2PC     O11 1925   0.650   3.455   5.095
    2PC      C1 1926   0.739   3.404   5.196
    2PC      HR 1927   0.751   3.297   5.174
    2PC      HS 1928   0.842   3.439   5.184
    2PC      C2 1929   0.680   3.412   5.337
    2PC      HX 1930   0.609   3.494   5.353
    2PC      C3 1931   0.794   3.421   5.440
    2PC      HA 1932   0.861   3.335   5.431
    2PC      HB 1933   0.861   3.505   5.422
    2PC     O31 1934   0.731   3.441   5.568
    2PC     P31 1935   0.814   3.423   5.704
    2PC     O32 1936   0.876   3.276   5.692
    2PC     C31 1937   0.787   3.164   5.674
    2PC     H1A 1938   0.726   3.144   5.763
    2PC     H1B 1939   0.717   3.181   5.593
    2PC     C32 1940   0.872   3.040   5.643
    2PC     H2A 1941   0.809   2.960   5.604
    2PC     H2B 1942   0.940   3.061   5.560
    2PC     N31 1943   0.952   2.979   5.754
    2PC     C33 1944   0.860   2.930   5.861
    2PC     H3A 1945   0.808   2.854   5.803
    2PC     H3B 1946   0.905   2.891   5.952
    2PC     H3C 1947   0.787   3.003   5.896
    2PC     C34 1948   1.024   2.860   5.698
    2PC     H4A 1949   1.116   2.894   5.650
    2PC     H4B 1950   1.057   2.809   5.789
    2PC     H4C 1951   0.963   2.800   5.630
    2PC     C35 1952   1.055   3.074   5.808
    2PC     H5A 1953   1.105   3.021   5.889
    2PC     H5B 1954   0.993   3.159   5.838
    2PC     H5C 1955   1.123   3.100   5.727
    2PC     O33 1956   0.933   3.512   5.702
    2PC     O34 1957   0.728   3.444   5.823
    2PC     O21 1958   0.622   3.284   5.365
    2PC     C21 1959   0.495   3.269   5.324
    2PC     O22 1960   0.427   3.363   5.287
    3OL     C12 1961   0.445   3.127   5.312
    3OL     H2R 1962   0.392   3.105   5.405
    3OL     H2S 1963   0.534   3.063   5.310
    3OL     C13 1964   0.358   3.090   5.192
    3OL     H3R 1965   0.263   3.143   5.198
    3OL     H3S 1966   0.340   2.983   5.182
    3OL     C14 1967   0.428   3.121   5.059
    3OL     H4R 1968   0.450   3.228   5.064
    3OL     H4S 1969   0.363   3.112   4.972
    3OL     C15 1970   0.554   3.042   5.019
    3OL     H5R 1971   0.522   2.937   5.010
    3OL     H5S 1972   0.633   3.056   5.093
    3OL     C16 1973   0.589   3.076   4.874
    3OL     H6R 1974   0.573   3.184   4.866
    3OL     H6S 1975   0.520   3.028   4.805
    3OL     C17 1976   0.734   3.043   4.834
    3OL     H7R 1977   0.731   2.940   4.797
    3OL     H7S 1978   0.795   3.062   4.922
    3OL     C18 1979   0.786   3.137   4.725
    3OL     H8R 1980   0.750   3.237   4.748
    3OL     H8S 1981   0.741   3.106   4.630
    3OL     C19 1982   0.936   3.152   4.717
    3OL     H9R 1983   0.991   3.161   4.810
    3OL    C110 1984   1.001   3.149   4.602
    3OL    H10R 1985   1.108   3.163   4.618
    3OL    C111 1986   0.941   3.143   4.464
    3OL    H11R 1987   1.020   3.192   4.406
    3OL    H11S 1988   0.861   3.216   4.455
    3OL    C112 1989   0.925   3.000   4.410
    3OL    H12R 1990   0.838   2.958   4.461
    3OL    H12S 1991   1.014   2.940   4.426
    3OL    C113 1992   0.873   3.005   4.266
    3OL    H13R 1993   0.777   3.056   4.269
    3OL    H13S 1994   0.853   2.901   4.237
    3OL    C114 1995   0.961   3.074   4.161
    3OL    H14R 1996   0.973   3.177   4.192
    3OL    H14S 1997   0.914   3.084   4.063
    3OL    C115 1998   1.089   2.991   4.137
    3OL    H15R 1999   1.051   2.894   4.104
    3OL    H15S 2000   1.153   2.980   4.224
    3OL    C116 2001   1.157   3.062   4.019
    3OL    H16R 2002   1.195   3.161   4.045
    3OL    H16S 2003   1.082   3.067   3.941
    3OL    C117 2004   1.274   2.980   3.962
    3OL    H17R 2005   1.229   2.898   3.905
    3OL    H17S 2006   1.330   2.930   4.041
    3OL    C118 2007   1.355   3.062   3.862
    3OL    H18R 2008   1.437   3.000   3.824
    3OL    H18S 2009   1.394   3.147   3.917
    3OL    H18T 2010   1.285   3.101   3.787
    1PA    C116 2011   0.324   6.439   3.543
    1PA    H16R 2012   0.361   6.525   3.600
    1PA    H16S 2013   0.224   6.413   3.579
    1PA    H16T 2014   0.317   6.477   3.441
    1PA    C115 2015   0.416   6.317   3.531
    1PA    H15R 2016   0.393   6.266   3.438
    1PA    H15S 2017   0.517   6.356   3.517
    1PA    C114 2018   0.402   6.228   3.656
    1PA    H14R 2019   0.296   6.205   3.665
    1PA    H14S 2020   0.461   6.138   3.634
    1PA    C113 2021   0.460   6.293   3.783
    1PA    H13R 2022   0.566   6.315   3.773
    1PA    H13S 2023   0.403   6.384   3.800
    1PA    C112 2024   0.438   6.198   3.902
    1PA    H12R 2025   0.331   6.181   3.910
    1PA    H12S 2026   0.476   6.097   3.882
    1PA    C111 2027   0.491   6.260   4.032
    1PA    H11R 2028   0.590   6.303   4.019
    1PA    H11S 2029   0.423   6.331   4.078
    1PA    C110 2030   0.505   6.151   4.139
    1PA    H10R 2031   0.408   6.102   4.153
    1PA    H10S 2032   0.580   6.084   4.096
    1PA     C19 2033   0.553   6.203   4.275
    1PA     H9R 2034   0.615   6.123   4.316
    1PA     H9S 2035   0.616   6.292   4.262
    1PA     C18 2036   0.432   6.232   4.365
    1PA     H8R 2037   0.371   6.307   4.315
    1PA     H8S 2038   0.373   6.140   4.369
    1PA     C17 2039   0.480   6.267   4.507
    1PA     H7R 2040   0.553   6.347   4.501
    1PA     H7S 2041   0.398   6.307   4.566
    1PA     C16 2042   0.532   6.140   4.576
    1PA     H6R 2043   0.453   6.067   4.557
    1PA     H6S 2044   0.623   6.096   4.536
    1PA     C15 2045   0.557   6.151   4.728
    1PA     H5R 2046   0.471   6.202   4.772
    1PA     H5S 2047   0.554   6.049   4.766
    1PA     C14 2048   0.687   6.227   4.758
    1PA     H4R 2049   0.762   6.182   4.693
    1PA     H4S 2050   0.675   6.332   4.731
    1PA     C13 2051   0.723   6.210   4.906
    1PA     H3R 2052   0.793   6.290   4.933
    1PA     H3S 2053   0.643   6.222   4.980
    1PA     C12 2054   0.802   6.080   4.924
    1PA     H2R 2055   0.756   5.990   4.883
    1PA     H2S 2056   0.904   6.087   4.886
    2PC     C11 2057   0.827   6.046   5.069
    2PC     O12 2058   0.883   6.122   5.145
    2PC     O11 2059   0.795   5.918   5.094
    2PC      C1 2060   0.816   5.852   5.220
    2PC      HR 2061   0.815   5.746   5.196
    2PC      HS 2062   0.905   5.894   5.267
    2PC      C2 2063   0.694   5.880   5.310
    2PC      HX 2064   0.698   5.986   5.335
    2PC      C3 2065   0.712   5.802   5.441
    2PC      HA 2066   0.694   5.695   5.429
    2PC      HB 2067   0.810   5.819   5.487
    2PC     O31 2068   0.617   5.869   5.526
    2PC     P31 2069   0.595   5.825   5.678
    2PC     O32 2070   0.457   5.745   5.659
    2PC     C31 2071   0.410   5.676   5.776
    2PC     H1A 2072   0.437   5.571   5.785
    2PC     H1B 2073   0.445   5.729   5.866
    2PC     C32 2074   0.257   5.686   5.773
    2PC     H2A 2075   0.226   5.696   5.669
    2PC     H2B 2076   0.213   5.602   5.828
    2PC     N31 2077   0.182   5.803   5.829
    2PC     C33 2078   0.205   5.817   5.977
    2PC     H3A 2079   0.147   5.899   6.020
    2PC     H3B 2080   0.199   5.722   6.031
    2PC     H3C 2081   0.305   5.852   6.002
    2PC     C34 2082   0.217   5.930   5.758
    2PC     H4A 2083   0.177   5.932   5.657
    2PC     H4B 2084   0.179   6.022   5.805
    2PC     H4C 2085   0.326   5.931   5.761
    2PC     C35 2086   0.036   5.774   5.807
    2PC     H5A 2087   0.023   5.753   5.701
    2PC     H5B 2088  -0.027   5.855   5.844
    2PC     H5C 2089   0.012   5.687   5.868
    2PC     O33 2090   0.695   5.731   5.733
    2PC     O34 2091   0.583   5.935   5.777
    2PC     O21 2092   0.571   5.841   5.246
    2PC     C21 2093   0.493   5.938   5.196
    2PC     O22 2094   0.515   6.057   5.209
    3OL     C12 2095   0.373   5.888   5.120
    3OL     H2R 2096   0.282   5.909   5.175
    3OL     H2S 2097   0.393   5.780   5.115
    3OL     C13 2098   0.374   5.930   4.972
    3OL     H3R 2099   0.476   5.912   4.937
    3OL     H3S 2100   0.365   6.039   4.970
    3OL     C14 2101   0.270   5.859   4.885
    3OL     H4R 2102   0.173   5.882   4.929
    3OL     H4S 2103   0.279   5.752   4.904
    3OL     C15 2104   0.275   5.897   4.736
    3OL     H5R 2105   0.380   5.888   4.706
    3OL     H5S 2106   0.250   6.003   4.735
    3OL     C16 2107   0.168   5.832   4.648
    3OL     H6R 2108   0.158   5.898   4.563
    3OL     H6S 2109   0.070   5.829   4.697
    3OL     C17 2110   0.209   5.695   4.592
    3OL     H7R 2111   0.206   5.617   4.669
    3OL     H7S 2112   0.317   5.695   4.575
    3OL     C18 2113   0.118   5.645   4.479
    3OL     H8R 2114   0.143   5.541   4.458
    3OL     H8S 2115   0.145   5.693   4.384
    3OL     C19 2116  -0.031   5.651   4.503
    3OL     H9R 2117  -0.065   5.598   4.591
    3OL    C110 2118  -0.120   5.717   4.431
    3OL    H10R 2119  -0.226   5.720   4.456
    3OL    C111 2120  -0.094   5.817   4.321
    3OL    H11R 2121   0.010   5.842   4.343
    3OL    H11S 2122  -0.167   5.899   4.328
    3OL    C112 2123  -0.101   5.753   4.182
    3OL    H12R 2124  -0.198   5.780   4.141
    3OL    H12S 2125  -0.092   5.644   4.194
    3OL    C113 2126   0.004   5.810   4.085
    3OL    H13R 2127   0.105   5.791   4.121
    3OL    H13S 2128  -0.011   5.917   4.071
    3OL    C114 2129  -0.002   5.738   3.949
    3OL    H14R 2130   0.064   5.782   3.875
    3OL    H14S 2131  -0.104   5.741   3.911
    3OL    C115 2132   0.033   5.589   3.967
    3OL    H15R 2133  -0.032   5.531   4.032
    3OL    H15S 2134   0.127   5.567   4.017
    3OL    C116 2135   0.032   5.532   3.824
    3OL    H16R 2136   0.104   5.596   3.772
    3OL    H16S 2137  -0.068   5.535   3.782
    3OL    C117 2138   0.080   5.386   3.826
    3OL    H17R 2139   0.036   5.345   3.917
    3OL    H17S 2140   0.187   5.368   3.841
    3OL    C118 2141   0.044   5.303   3.702
    3OL    H18R 2142   0.052   5.195   3.719
    3OL    H18S 2143   0.100   5.338   3.616
    3OL    H18T 2144  -0.061   5.331   3.687
    1PA    C116 2145   1.284   5.377   3.842
    1PA    H16R 2146   1.180   5.356   3.865
    1PA    H16S 2147   1.337   5.284   3.817
    1PA    H16T 2148   1.287   5.446   3.758
    1PA    C115 2149   1.361   5.438   3.960
    1PA    H15R 2150   1.305   5.524   3.997
    1PA    H15S 2151   1.337   5.357   4.029
    1PA    C114 2152   1.511   5.460   3.933
    1PA    H14R 2153   1.529   5.463   3.826
    1PA    H14S 2154   1.544   5.560   3.963
    1PA    C113 2155   1.608   5.356   3.991
    1PA    H13R 2156   1.570   5.254   3.978
    1PA    H13S 2157   1.702   5.358   3.936
    1PA    C112 2158   1.645   5.385   4.137
    1PA    H12R 2159   1.690   5.484   4.130
    1PA    H12S 2160   1.551   5.391   4.193
    1PA    C111 2161   1.727   5.269   4.194
    1PA    H11R 2162   1.686   5.173   4.163
    1PA    H11S 2163   1.834   5.270   4.168
    1PA    C110 2164   1.721   5.282   4.347
    1PA    H10R 2165   1.787   5.364   4.378
    1PA    H10S 2166   1.617   5.290   4.378
    1PA     C19 2167   1.775   5.159   4.421
    1PA     H9R 2168   1.711   5.074   4.395
    1PA     H9S 2169   1.880   5.139   4.399
    1PA     C18 2170   1.752   5.167   4.573
    1PA     H8R 2171   1.651   5.199   4.596
    1PA     H8S 2172   1.776   5.070   4.617
    1PA     C17 2173   1.869   5.245   4.636
    1PA     H7R 2174   1.873   5.341   4.584
    1PA     H7S 2175   1.845   5.258   4.742
    1PA     C16 2176   2.005   5.173   4.630
    1PA     H6R 2177   2.027   5.135   4.530
    1PA     H6S 2178   2.082   5.249   4.645
    1PA     C15 2179   2.030   5.059   4.730
    1PA     H5R 2180   2.066   5.108   4.821
    1PA     H5S 2181   1.939   5.001   4.748
    1PA     C14 2182   2.148   4.972   4.686
    1PA     H4R 2183   2.160   4.885   4.752
    1PA     H4S 2184   2.120   4.933   4.588
    1PA     C13 2185   2.285   5.042   4.678
    1PA     H3R 2186   2.280   5.103   4.588
    1PA     H3S 2187   2.293   5.110   4.763
    1PA     C12 2188   2.407   4.949   4.673
    1PA     H2R 2189   2.395   4.878   4.592
    1PA     H2S 2190   2.486   5.019   4.647
    2PC     C11 2191   2.452   4.881   4.800
    2PC     O12 2192   2.421   4.917   4.911
    2PC     O11 2193   2.498   4.755   4.784
    2PC      C1 2194   2.505   4.668   4.898
    2PC      HR 2195   2.573   4.588   4.868
    2PC      HS 2196   2.566   4.718   4.974
    2PC      C2 2197   2.368   4.617   4.944
    2PC      HX 2198   2.294   4.697   4.955
    2PC      C3 2199   2.374   4.543   5.078
    2PC      HA 2200   2.398   4.438   5.060
    2PC      HB 2201   2.440   4.594   5.148
    2PC     O31 2202   2.242   4.538   5.135
    2PC     P31 2203   2.220   4.449   5.266
    2PC     O32 2204   2.146   4.324   5.199
    2PC     C31 2205   2.098   4.224   5.292
    2PC     H1A 2206   2.174   4.186   5.361
    2PC     H1B 2207   2.019   4.267   5.354
    2PC     C32 2208   2.054   4.107   5.202
    2PC     H2A 2209   2.129   4.064   5.135
    2PC     H2B 2210   2.035   4.018   5.262
    2PC     N31 2211   1.932   4.120   5.117
    2PC     C33 2212   1.960   4.212   5.002
    2PC     H3A 2213   1.989   4.310   5.039
    2PC     H3B 2214   2.040   4.179   4.935
    2PC     H3C 2215   1.867   4.216   4.946
    2PC     C34 2216   1.890   3.984   5.070
    2PC     H4A 2217   1.887   3.922   5.160
    2PC     H4B 2218   1.793   4.002   5.024
    2PC     H4C 2219   1.973   3.953   5.006
    2PC     C35 2220   1.819   4.183   5.194
    2PC     H5A 2221   1.807   4.129   5.288
    2PC     H5B 2222   1.722   4.174   5.146
    2PC     H5C 2223   1.836   4.291   5.190
    2PC     O33 2224   2.345   4.405   5.333
    2PC     O34 2225   2.132   4.517   5.364
    2PC     O21 2226   2.326   4.528   4.840
    2PC     C21 2227   2.195   4.500   4.828
    2PC     O22 2228   2.109   4.580   4.860
    3OL     C12 2229   2.172   4.368   4.760
    3OL     H2R 2230   2.189   4.290   4.834
    3OL     H2S 2231   2.251   4.346   4.688
    3OL     C13 2232   2.030   4.366   4.702
    3OL     H3R 2233   1.994   4.462   4.664
    3OL     H3S 2234   1.956   4.338   4.777
    3OL     C14 2235   2.024   4.255   4.597
    3OL     H4R 2236   1.919   4.243   4.570
    3OL     H4S 2237   2.067   4.163   4.638
    3OL     C15 2238   2.086   4.287   4.460
    3OL     H5R 2239   2.194   4.303   4.464
    3OL     H5S 2240   2.049   4.376   4.409
    3OL     C16 2241   2.065   4.174   4.358
    3OL     H6R 2242   1.958   4.168   4.337
    3OL     H6S 2243   2.092   4.072   4.389
    3OL     C17 2244   2.148   4.201   4.232
    3OL     H7R 2245   2.247   4.161   4.250
    3OL     H7S 2246   2.152   4.306   4.203
    3OL     C18 2247   2.093   4.115   4.116
    3OL     H8R 2248   1.984   4.111   4.119
    3OL     H8S 2249   2.117   4.010   4.135
    3OL     C19 2250   2.154   4.153   3.984
    3OL     H9R 2251   2.210   4.247   3.983
    3OL    C110 2252   2.135   4.089   3.870
    3OL    H10R 2253   2.189   4.128   3.784
    3OL    C111 2254   2.061   3.959   3.849
    3OL    H11R 2255   2.042   3.910   3.945
    3OL    H11S 2256   2.128   3.897   3.789
    3OL    C112 2257   1.928   3.989   3.779
    3OL    H12R 2258   1.886   3.899   3.734
    3OL    H12S 2259   1.963   4.050   3.696
    3OL    C113 2260   1.814   4.060   3.853
    3OL    H13R 2261   1.850   4.162   3.869
    3OL    H13S 2262   1.796   4.004   3.945
    3OL    C114 2263   1.687   4.075   3.768
    3OL    H14R 2264   1.710   4.127   3.674
    3OL    H14S 2265   1.622   4.143   3.822
    3OL    C115 2266   1.609   3.948   3.729
    3OL    H15R 2267   1.672   3.895   3.657
    3OL    H15S 2268   1.523   3.982   3.672
    3OL    C116 2269   1.553   3.871   3.849
    3OL    H16R 2270   1.493   3.927   3.922
    3OL    H16S 2271   1.630   3.819   3.907
    3OL    C117 2272   1.466   3.755   3.798
    3OL    H17R 2273   1.533   3.695   3.736
    3OL    H17S 2274   1.385   3.794   3.737
    3OL    C118 2275   1.414   3.667   3.912
    3OL    H18R 2276   1.370   3.587   3.853
    3OL    H18S 2277   1.336   3.707   3.976
    3OL    H18T 2278   1.493   3.622   3.973
    1PA    C116 2279   3.513   5.401   3.153
    1PA    H16R 2280   3.508   5.417   3.045
    1PA    H16S 2281   3.533   5.497   3.202
    1PA    H16T 2282   3.412   5.372   3.180
    1PA    C115 2283   3.622   5.302   3.196
    1PA    H15R 2284   3.602   5.196   3.183
    1PA    H15S 2285   3.715   5.317   3.140
    1PA    C114 2286   3.642   5.316   3.347
    1PA    H14R 2287   3.739   5.274   3.374
    1PA    H14S 2288   3.647   5.420   3.380
    1PA    C113 2289   3.535   5.249   3.434
    1PA    H13R 2290   3.436   5.276   3.397
    1PA    H13S 2291   3.557   5.143   3.425
    1PA    C112 2292   3.549   5.285   3.583
    1PA    H12R 2293   3.656   5.276   3.605
    1PA    H12S 2294   3.526   5.391   3.596
    1PA    C111 2295   3.466   5.199   3.679
    1PA    H11R 2296   3.360   5.204   3.650
    1PA    H11S 2297   3.504   5.097   3.680
    1PA    C110 2298   3.472   5.250   3.823
    1PA    H10R 2299   3.578   5.263   3.846
    1PA    H10S 2300   3.422   5.347   3.829
    1PA     C19 2301   3.418   5.142   3.918
    1PA     H9R 2302   3.354   5.073   3.863
    1PA     H9S 2303   3.506   5.080   3.938
    1PA     C18 2304   3.356   5.196   4.047
    1PA     H8R 2305   3.420   5.273   4.092
    1PA     H8S 2306   3.258   5.237   4.024
    1PA     C17 2307   3.343   5.086   4.154
    1PA     H7R 2308   3.254   5.029   4.129
    1PA     H7S 2309   3.438   5.032   4.159
    1PA     C16 2310   3.327   5.148   4.294
    1PA     H6R 2311   3.411   5.213   4.318
    1PA     H6S 2312   3.236   5.208   4.296
    1PA     C15 2313   3.315   5.036   4.398
    1PA     H5R 2314   3.238   4.961   4.377
    1PA     H5S 2315   3.406   4.977   4.386
    1PA     C14 2316   3.304   5.089   4.542
    1PA     H4R 2317   3.384   5.161   4.559
    1PA     H4S 2318   3.204   5.131   4.556
    1PA     C13 2319   3.313   4.976   4.645
    1PA     H3R 2320   3.235   4.905   4.616
    1PA     H3S 2321   3.409   4.924   4.641
    1PA     C12 2322   3.314   5.033   4.788
    1PA     H2R 2323   3.394   5.101   4.815
    1PA     H2S 2324   3.223   5.091   4.801
    2PC     C11 2325   3.303   4.929   4.896
    2PC     O12 2326   3.205   4.885   4.952
    2PC     O11 2327   3.424   4.880   4.931
    2PC      C1 2328   3.429   4.782   5.036
    2PC      HR 2329   3.530   4.774   5.078
    2PC      HS 2330   3.367   4.815   5.120
    2PC      C2 2331   3.373   4.645   4.994
    2PC      HX 2332   3.272   4.653   4.953
    2PC      C3 2333   3.364   4.543   5.108
    2PC      HA 2334   3.262   4.558   5.144
    2PC      HB 2335   3.381   4.443   5.067
    2PC     O31 2336   3.461   4.576   5.209
    2PC     P31 2337   3.474   4.489   5.343
    2PC     O32 2338   3.350   4.539   5.432
    2PC     C31 2339   3.333   4.672   5.485
    2PC     H1A 2340   3.363   4.739   5.405
    2PC     H1B 2341   3.226   4.685   5.506
    2PC     C32 2342   3.408   4.701   5.615
    2PC     H2A 2343   3.512   4.678   5.594
    2PC     H2B 2344   3.389   4.805   5.645
    2PC     N31 2345   3.359   4.635   5.741
    2PC     C33 2346   3.373   4.486   5.747
    2PC     H3A 2347   3.473   4.444   5.738
    2PC     H3B 2348   3.334   4.447   5.841
    2PC     H3C 2349   3.314   4.450   5.663
    2PC     C34 2350   3.425   4.686   5.865
    2PC     H4A 2351   3.348   4.668   5.940
    2PC     H4B 2352   3.518   4.638   5.894
    2PC     H4C 2353   3.435   4.793   5.847
    2PC     C35 2354   3.214   4.666   5.761
    2PC     H5A 2355   3.160   4.601   5.692
    2PC     H5B 2356   3.203   4.769   5.727
    2PC     H5C 2357   3.185   4.658   5.866
    2PC     O33 2358   3.462   4.342   5.337
    2PC     O34 2359   3.608   4.512   5.403
    2PC     O21 2360   3.462   4.591   4.895
    2PC     C21 2361   3.425   4.483   4.823
    2PC     O22 2362   3.318   4.427   4.829
    3OL     C12 2363   3.537   4.437   4.734
    3OL     H2R 2364   3.557   4.333   4.759
    3OL     H2S 2365   3.636   4.480   4.749
    3OL     C13 2366   3.498   4.462   4.587
    3OL     H3R 2367   3.405   4.412   4.558
    3OL     H3S 2368   3.580   4.423   4.526
    3OL     C14 2369   3.492   4.613   4.562
    3OL     H4R 2370   3.596   4.638   4.582
    3OL     H4S 2371   3.424   4.667   4.629
    3OL     C15 2372   3.465   4.647   4.415
    3OL     H5R 2373   3.540   4.594   4.356
    3OL     H5S 2374   3.495   4.752   4.410
    3OL     C16 2375   3.318   4.642   4.371
    3OL     H6R 2376   3.255   4.684   4.449
    3OL     H6S 2377   3.277   4.541   4.365
    3OL     C17 2378   3.300   4.699   4.230
    3OL     H7R 2379   3.356   4.793   4.223
    3OL     H7S 2380   3.194   4.726   4.218
    3OL     C18 2381   3.361   4.611   4.120
    3OL     H8R 2382   3.459   4.589   4.161
    3OL     H8S 2383   3.375   4.665   4.026
    3OL     C19 2384   3.282   4.487   4.083
    3OL     H9R 2385   3.181   4.507   4.050
    3OL    C110 2386   3.323   4.361   4.080
    3OL    H10R 2387   3.246   4.287   4.063
    3OL    C111 2388   3.465   4.312   4.096
    3OL    H11R 2389   3.530   4.399   4.092
    3OL    H11S 2390   3.489   4.263   4.001
    3OL    C112 2391   3.487   4.222   4.218
    3OL    H12R 2392   3.414   4.141   4.224
    3OL    H12S 2393   3.457   4.280   4.306
    3OL    C113 2394   3.628   4.161   4.224
    3OL    H13R 2395   3.694   4.247   4.207
    3OL    H13S 2396   3.637   4.094   4.138
    3OL    C114 2397   3.667   4.098   4.358
    3OL    H14R 2398   3.598   4.015   4.379
    3OL    H14S 2399   3.656   4.173   4.436
    3OL    C115 2400   3.811   4.046   4.353
    3OL    H15R 2401   3.880   4.121   4.393
    3OL    H15S 2402   3.857   4.040   4.254
    3OL    C116 2403   3.826   3.913   4.428
    3OL    H16R 2404   3.770   3.845   4.363
    3OL    H16S 2405   3.762   3.906   4.516
    3OL    C117 2406   3.972   3.877   4.459
    3OL    H17R 2407   4.031   3.908   4.372
    3OL    H17S 2408   3.983   3.769   4.470
    3OL    C118 2409   4.028   3.951   4.581
    3OL    H18R 2410   4.129   3.920   4.608
    3OL    H18S 2411   3.959   3.926   4.662
    3OL    H18T 2412   4.027   4.060   4.578
    1PA    C116 2413   3.038   3.314   3.835
    1PA    H16R 2414   3.107   3.261   3.769
    1PA    H16S 2415   3.071   3.415   3.811
    1PA    H16T 2416   2.935   3.302   3.801
    1PA    C115 2417   3.058   3.281   3.984
    1PA    H15R 2418   2.998   3.344   4.049
    1PA    H15S 2419   3.040   3.174   4.000
    1PA    C114 2420   3.208   3.301   4.011
    1PA    H14R 2421   3.234   3.405   3.993
    1PA    H14S 2422   3.228   3.284   4.117
    1PA    C113 2423   3.305   3.212   3.933
    1PA    H13R 2424   3.273   3.109   3.952
    1PA    H13S 2425   3.289   3.224   3.826
    1PA    C112 2426   3.455   3.237   3.957
    1PA    H12R 2427   3.513   3.183   3.882
    1PA    H12S 2428   3.480   3.342   3.940
    1PA    C111 2429   3.518   3.205   4.093
    1PA    H11R 2430   3.617   3.250   4.080
    1PA    H11S 2431   3.473   3.252   4.180
    1PA    C110 2432   3.524   3.054   4.119
    1PA    H10R 2433   3.424   3.010   4.113
    1PA    H10S 2434   3.576   2.999   4.040
    1PA     C19 2435   3.600   3.018   4.248
    1PA     H9R 2436   3.621   2.912   4.266
    1PA     H9S 2437   3.701   3.061   4.248
    1PA     C18 2438   3.530   3.060   4.377
    1PA     H8R 2439   3.607   3.034   4.451
    1PA     H8S 2440   3.510   3.168   4.376
    1PA     C17 2441   3.408   2.973   4.408
    1PA     H7R 2442   3.347   2.959   4.319
    1PA     H7S 2443   3.445   2.871   4.419
    1PA     C16 2444   3.334   3.027   4.532
    1PA     H6R 2445   3.309   3.132   4.518
    1PA     H6S 2446   3.239   2.977   4.551
    1PA     C15 2447   3.408   3.021   4.666
    1PA     H5R 2448   3.458   2.926   4.685
    1PA     H5S 2449   3.490   3.094   4.666
    1PA     C14 2450   3.316   3.053   4.785
    1PA     H4R 2451   3.216   3.045   4.744
    1PA     H4S 2452   3.338   2.987   4.869
    1PA     C13 2453   3.311   3.198   4.837
    1PA     H3R 2454   3.256   3.195   4.932
    1PA     H3S 2455   3.413   3.235   4.849
    1PA     C12 2456   3.238   3.294   4.743
    1PA     H2R 2457   3.291   3.304   4.648
    1PA     H2S 2458   3.136   3.261   4.723
    2PC     C11 2459   3.224   3.432   4.804
    2PC     O12 2460   3.319   3.507   4.794
    2PC     O11 2461   3.103   3.459   4.854
    2PC      C1 2462   3.092   3.593   4.905
    2PC      HR 2463   3.177   3.608   4.972
    2PC      HS 2464   3.096   3.667   4.825
    2PC      C2 2465   2.964   3.609   4.990
    2PC      HX 2466   2.982   3.690   5.062
    2PC      C3 2467   2.929   3.483   5.070
    2PC      HA 2468   2.893   3.412   4.996
    2PC      HB 2469   3.016   3.441   5.121
    2PC     O31 2470   2.822   3.521   5.160
    2PC     P31 2471   2.780   3.426   5.282
    2PC     O32 2472   2.675   3.320   5.224
    2PC     C31 2473   2.538   3.363   5.223
    2PC     H1A 2474   2.501   3.364   5.326
    2PC     H1B 2475   2.521   3.461   5.176
    2PC     C32 2476   2.458   3.260   5.142
    2PC     H2A 2477   2.477   3.160   5.181
    2PC     H2B 2478   2.351   3.280   5.146
    2PC     N31 2479   2.490   3.245   4.996
    2PC     C33 2480   2.372   3.188   4.923
    2PC     H3A 2481   2.301   3.269   4.906
    2PC     H3B 2482   2.407   3.144   4.830
    2PC     H3C 2483   2.332   3.107   4.983
    2PC     C34 2484   2.528   3.373   4.927
    2PC     H4A 2485   2.604   3.422   4.988
    2PC     H4B 2486   2.558   3.333   4.830
    2PC     H4C 2487   2.439   3.434   4.914
    2PC     C35 2488   2.605   3.152   4.973
    2PC     H5A 2489   2.576   3.055   5.012
    2PC     H5B 2490   2.691   3.190   5.029
    2PC     H5C 2491   2.617   3.163   4.865
    2PC     O33 2492   2.883   3.339   5.344
    2PC     O34 2493   2.727   3.506   5.395
    2PC     O21 2494   2.859   3.647   4.900
    2PC     C21 2495   2.857   3.749   4.812
    2PC     O22 2496   2.947   3.831   4.817
    3OL     C12 2497   2.737   3.753   4.721
    3OL     H2R 2498   2.770   3.745   4.617
    3OL     H2S 2499   2.694   3.852   4.737
    3OL     C13 2500   2.640   3.636   4.744
    3OL     H3R 2501   2.599   3.647   4.845
    3OL     H3S 2502   2.681   3.536   4.732
    3OL     C14 2503   2.533   3.647   4.635
    3OL     H4R 2504   2.579   3.644   4.536
    3OL     H4S 2505   2.493   3.749   4.633
    3OL     C15 2506   2.428   3.535   4.638
    3OL     H5R 2507   2.363   3.564   4.721
    3OL     H5S 2508   2.477   3.439   4.654
    3OL     C16 2509   2.338   3.523   4.514
    3OL     H6R 2510   2.409   3.486   4.440
    3OL     H6S 2511   2.289   3.615   4.481
    3OL     C17 2512   2.244   3.403   4.538
    3OL     H7R 2513   2.184   3.417   4.628
    3OL     H7S 2514   2.303   3.313   4.554
    3OL     C18 2515   2.147   3.388   4.421
    3OL     H8R 2516   2.189   3.329   4.339
    3OL     H8S 2517   2.122   3.490   4.390
    3OL     C19 2518   2.020   3.321   4.468
    3OL     H9R 2519   1.963   3.387   4.533
    3OL    C110 2520   1.971   3.206   4.425
    3OL    H10R 2521   1.877   3.164   4.462
    3OL    C111 2522   2.031   3.101   4.335
    3OL    H11R 2523   2.137   3.120   4.320
    3OL    H11S 2524   1.962   3.102   4.251
    3OL    C112 2525   2.001   2.957   4.380
    3OL    H12R 2526   2.038   2.883   4.309
    3OL    H12S 2527   1.893   2.941   4.378
    3OL    C113 2528   2.054   2.915   4.517
    3OL    H13R 2529   2.028   2.990   4.592
    3OL    H13S 2530   2.162   2.933   4.516
    3OL    C114 2531   2.022   2.776   4.574
    3OL    H14R 2532   2.042   2.695   4.503
    3OL    H14S 2533   1.915   2.776   4.593
    3OL    C115 2534   2.093   2.749   4.707
    3OL    H15R 2535   2.063   2.655   4.754
    3OL    H15S 2536   2.068   2.841   4.759
    3OL    C116 2537   2.245   2.740   4.684
    3OL    H16R 2538   2.293   2.710   4.778
    3OL    H16S 2539   2.281   2.836   4.647
    3OL    C117 2540   2.280   2.640   4.573
    3OL    H17R 2541   2.388   2.630   4.568
    3OL    H17S 2542   2.235   2.673   4.480
    3OL    C118 2543   2.219   2.499   4.587
    3OL    H18R 2544   2.243   2.458   4.685
    3OL    H18S 2545   2.272   2.431   4.520
    3OL    H18T 2546   2.111   2.502   4.573
    1PA    C116 2547   4.331   2.590   4.160
    1PA    H16R 2548   4.425   2.571   4.109
    1PA    H16S 2549   4.354   2.607   4.265
    1PA    H16T 2550   4.295   2.688   4.125
    1PA    C115 2551   4.224   2.480   4.145
    1PA    H15R 2552   4.136   2.491   4.209
    1PA    H15S 2553   4.183   2.479   4.044
    1PA    C114 2554   4.284   2.341   4.166
    1PA    H14R 2555   4.200   2.277   4.136
    1PA    H14S 2556   4.370   2.323   4.102
    1PA    C113 2557   4.313   2.308   4.313
    1PA    H13R 2558   4.401   2.362   4.350
    1PA    H13S 2559   4.229   2.328   4.379
    1PA    C112 2560   4.364   2.163   4.318
    1PA    H12R 2561   4.389   2.143   4.422
    1PA    H12S 2562   4.276   2.103   4.291
    1PA    C111 2563   4.482   2.128   4.227
    1PA    H11R 2564   4.450   2.088   4.131
    1PA    H11S 2565   4.554   2.210   4.215
    1PA    C110 2566   4.572   2.024   4.297
    1PA    H10R 2567   4.657   2.010   4.230
    1PA    H10S 2568   4.609   2.062   4.393
    1PA     C19 2569   4.509   1.885   4.312
    1PA     H9R 2570   4.406   1.897   4.346
    1PA     H9S 2571   4.498   1.837   4.215
    1PA     C18 2572   4.594   1.795   4.402
    1PA     H8R 2573   4.573   1.689   4.385
    1PA     H8S 2574   4.699   1.802   4.371
    1PA     C17 2575   4.580   1.840   4.548
    1PA     H7R 2576   4.614   1.943   4.559
    1PA     H7S 2577   4.476   1.836   4.580
    1PA     C16 2578   4.664   1.761   4.650
    1PA     H6R 2579   4.631   1.659   4.629
    1PA     H6S 2580   4.771   1.766   4.628
    1PA     C15 2581   4.628   1.798   4.794
    1PA     H5R 2582   4.635   1.906   4.809
    1PA     H5S 2583   4.528   1.765   4.819
    1PA     C14 2584   4.723   1.721   4.886
    1PA     H4R 2585   4.721   1.614   4.865
    1PA     H4S 2586   4.824   1.760   4.873
    1PA     C13 2587   4.684   1.718   5.035
    1PA     H3R 2588   4.604   1.644   5.045
    1PA     H3S 2589   4.764   1.677   5.097
    1PA     C12 2590   4.640   1.857   5.082
    1PA     H2R 2591   4.724   1.926   5.075
    1PA     H2S 2592   4.562   1.909   5.027
    2PC     C11 2593   4.594   1.841   5.225
    2PC     O12 2594   4.627   1.747   5.295
    2PC     O11 2595   4.536   1.950   5.278
    2PC      C1 2596   4.507   1.935   5.418
    2PC      HR 2597   4.451   1.845   5.443
    2PC      HS 2598   4.604   1.942   5.466
    2PC      C2 2599   4.414   2.052   5.456
    2PC      HX 2600   4.458   2.148   5.426
    2PC      C3 2601   4.385   2.045   5.606
    2PC      HA 2602   4.474   2.080   5.659
    2PC      HB 2603   4.305   2.113   5.635
    2PC     O31 2604   4.352   1.909   5.643
    2PC     P31 2605   4.323   1.871   5.796
    2PC     O32 2606   4.470   1.837   5.849
    2PC     C31 2607   4.534   1.718   5.798
    2PC     H1A 2608   4.452   1.647   5.804
    2PC     H1B 2609   4.555   1.731   5.691
    2PC     C32 2610   4.665   1.681   5.868
    2PC     H2A 2611   4.706   1.593   5.817
    2PC     H2B 2612   4.727   1.771   5.867
    2PC     N31 2613   4.653   1.635   6.010
    2PC     C33 2614   4.649   1.749   6.109
    2PC     H3A 2615   4.632   1.695   6.202
    2PC     H3B 2616   4.749   1.791   6.110
    2PC     H3C 2617   4.573   1.824   6.086
    2PC     C34 2618   4.539   1.541   6.034
    2PC     H4A 2619   4.552   1.500   6.134
    2PC     H4B 2620   4.447   1.598   6.027
    2PC     H4C 2621   4.539   1.457   5.964
    2PC     C35 2622   4.787   1.577   6.041
    2PC     H5A 2623   4.788   1.572   6.150
    2PC     H5B 2624   4.864   1.646   6.006
    2PC     H5C 2625   4.790   1.479   5.994
    2PC     O33 2626   4.259   1.977   5.876
    2PC     O34 2627   4.224   1.765   5.826
    2PC     O21 2628   4.290   2.035   5.385
    2PC     C21 2629   4.204   2.140   5.390
    2PC     O22 2630   4.230   2.247   5.440
    3OL     C12 2631   4.063   2.099   5.355
    3OL     H2R 2632   4.031   2.033   5.436
    3OL     H2S 2633   4.050   2.037   5.266
    3OL     C13 2634   3.968   2.220   5.352
    3OL     H3R 2635   4.022   2.302   5.305
    3OL     H3S 2636   3.947   2.231   5.458
    3OL     C14 2637   3.831   2.185   5.292
    3OL     H4R 2638   3.755   2.246   5.340
    3OL     H4S 2639   3.798   2.084   5.318
    3OL     C15 2640   3.827   2.211   5.140
    3OL     H5R 2641   3.731   2.174   5.104
    3OL     H5S 2642   3.907   2.164   5.084
    3OL     C16 2643   3.835   2.361   5.107
    3OL     H6R 2644   3.916   2.419   5.152
    3OL     H6S 2645   3.743   2.408   5.142
    3OL     C17 2646   3.852   2.381   4.955
    3OL     H7R 2647   3.777   2.452   4.919
    3OL     H7S 2648   3.836   2.282   4.913
    3OL     C18 2649   3.992   2.431   4.917
    3OL     H8R 2650   4.061   2.349   4.936
    3OL     H8S 2651   4.016   2.521   4.973
    3OL     C19 2652   3.993   2.461   4.769
    3OL     H9R 2653   3.901   2.441   4.716
    3OL    C110 2654   4.103   2.494   4.703
    3OL    H10R 2655   4.095   2.512   4.596
    3OL    C111 2656   4.234   2.543   4.759
    3OL    H11R 2657   4.245   2.526   4.867
    3OL    H11S 2658   4.233   2.652   4.752
    3OL    C112 2659   4.343   2.483   4.668
    3OL    H12R 2660   4.300   2.495   4.569
    3OL    H12S 2661   4.353   2.377   4.690
    3OL    C113 2662   4.478   2.555   4.676
    3OL    H13R 2663   4.530   2.541   4.771
    3OL    H13S 2664   4.455   2.659   4.650
    3OL    C114 2665   4.567   2.492   4.568
    3OL    H14R 2666   4.512   2.516   4.477
    3OL    H14S 2667   4.585   2.385   4.582
    3OL    C115 2668   4.702   2.565   4.571
    3OL    H15R 2669   4.756   2.542   4.663
    3OL    H15S 2670   4.693   2.673   4.561
    3OL    C116 2671   4.787   2.506   4.457
    3OL    H16R 2672   4.773   2.398   4.449
    3OL    H16S 2673   4.886   2.540   4.487
    3OL    C117 2674   4.766   2.579   4.324
    3OL    H17R 2675   4.811   2.678   4.332
    3OL    H17S 2676   4.660   2.581   4.295
    3OL    C118 2677   4.833   2.497   4.213
    3OL    H18R 2678   4.785   2.399   4.199
    3OL    H18S 2679   4.939   2.484   4.235
    3OL    H18T 2680   4.825   2.535   4.111
    1PA    C116 2681   1.011   4.621   4.057
    1PA    H16R 2682   1.073   4.688   3.996
    1PA    H16S 2683   1.087   4.549   4.087
    1PA    H16T 2684   0.969   4.673   4.143
    1PA    C115 2685   0.904   4.553   3.970
    1PA    H15R 2686   0.946   4.498   3.886
    1PA    H15S 2687   0.852   4.481   4.034
    1PA    C114 2688   0.805   4.656   3.915
    1PA    H14R 2689   0.760   4.690   4.009
    1PA    H14S 2690   0.859   4.740   3.871
    1PA    C113 2691   0.712   4.590   3.813
    1PA    H13R 2692   0.652   4.657   3.751
    1PA    H13S 2693   0.775   4.538   3.741
    1PA    C112 2694   0.605   4.498   3.874
    1PA    H12R 2695   0.558   4.445   3.791
    1PA    H12S 2696   0.648   4.413   3.927
    1PA    C111 2697   0.498   4.569   3.958
    1PA    H11R 2698   0.536   4.642   4.030
    1PA    H11S 2699   0.433   4.632   3.896
    1PA    C110 2700   0.403   4.472   4.031
    1PA    H10R 2701   0.303   4.515   4.034
    1PA    H10S 2702   0.390   4.374   3.986
    1PA     C19 2703   0.451   4.452   4.176
    1PA     H9R 2704   0.535   4.383   4.165
    1PA     H9S 2705   0.488   4.542   4.225
    1PA     C18 2706   0.344   4.381   4.259
    1PA     H8R 2707   0.253   4.443   4.255
    1PA     H8S 2708   0.320   4.289   4.205
    1PA     C17 2709   0.397   4.349   4.399
    1PA     H7R 2710   0.501   4.314   4.400
    1PA     H7S 2711   0.396   4.446   4.450
    1PA     C16 2712   0.302   4.246   4.460
    1PA     H6R 2713   0.196   4.270   4.446
    1PA     H6S 2714   0.317   4.154   4.403
    1PA     C15 2715   0.327   4.211   4.608
    1PA     H5R 2716   0.283   4.114   4.634
    1PA     H5S 2717   0.435   4.198   4.619
    1PA     C14 2718   0.270   4.319   4.700
    1PA     H4R 2719   0.295   4.420   4.667
    1PA     H4S 2720   0.162   4.308   4.689
    1PA     C13 2721   0.311   4.296   4.846
    1PA     H3R 2722   0.293   4.192   4.874
    1PA     H3S 2723   0.419   4.313   4.849
    1PA     C12 2724   0.247   4.394   4.945
    1PA     H2R 2725   0.285   4.494   4.923
    1PA     H2S 2726   0.140   4.400   4.921
    2PC     C11 2727   0.280   4.354   5.087
    2PC     O12 2728   0.326   4.247   5.117
    2PC     O11 2729   0.259   4.448   5.181
    2PC      C1 2730   0.279   4.421   5.321
    2PC      HR 2731   0.209   4.341   5.349
    2PC      HS 2732   0.379   4.384   5.345
    2PC      C2 2733   0.245   4.547   5.400
    2PC      HX 2734   0.316   4.625   5.370
    2PC      C3 2735   0.247   4.538   5.553
    2PC      HA 2736   0.352   4.554   5.580
    2PC      HB 2737   0.202   4.626   5.600
    2PC     O31 2738   0.193   4.416   5.607
    2PC     P31 2739   0.193   4.398   5.766
    2PC     O32 2740   0.037   4.372   5.794
    2PC     C31 2741  -0.055   4.478   5.761
    2PC     H1A 2742  -0.015   4.565   5.812
    2PC     H1B 2743  -0.073   4.492   5.654
    2PC     C32 2744  -0.190   4.439   5.823
    2PC     H2A 2745  -0.272   4.505   5.791
    2PC     H2B 2746  -0.209   4.334   5.799
    2PC     N31 2747  -0.191   4.434   5.973
    2PC     C33 2748  -0.338   4.415   5.995
    2PC     H3A 2749  -0.370   4.326   5.940
    2PC     H3B 2750  -0.358   4.393   6.100
    2PC     H3C 2751  -0.395   4.496   5.950
    2PC     C34 2752  -0.103   4.326   6.028
    2PC     H4A 2753  -0.001   4.351   5.999
    2PC     H4B 2754  -0.121   4.307   6.133
    2PC     H4C 2755  -0.137   4.241   5.968
    2PC     C35 2756  -0.141   4.560   6.037
    2PC     H5A 2757  -0.192   4.567   6.134
    2PC     H5B 2758  -0.175   4.652   5.990
    2PC     H5C 2759  -0.033   4.555   6.042
    2PC     O33 2760   0.270   4.288   5.829
    2PC     O34 2761   0.241   4.517   5.840
    2PC     O21 2762   0.120   4.609   5.365
    2PC     C21 2763   0.008   4.536   5.381
    2PC     O22 2764   0.001   4.415   5.388
    3OL     C12 2765  -0.116   4.621   5.365
    3OL     H2R 2766  -0.099   4.727   5.342
    3OL     H2S 2767  -0.162   4.627   5.463
    3OL     C13 2768  -0.224   4.559   5.276
    3OL     H3R 2769  -0.301   4.635   5.257
    3OL     H3S 2770  -0.274   4.479   5.330
    3OL     C14 2771  -0.166   4.511   5.142
    3OL     H4R 2772  -0.082   4.442   5.156
    3OL     H4S 2773  -0.103   4.587   5.096
    3OL     C15 2774  -0.269   4.452   5.044
    3OL     H5R 2775  -0.326   4.538   5.009
    3OL     H5S 2776  -0.336   4.388   5.100
    3OL     C16 2777  -0.208   4.364   4.933
    3OL     H6R 2778  -0.274   4.293   4.884
    3OL     H6S 2779  -0.124   4.309   4.976
    3OL     C17 2780  -0.150   4.439   4.813
    3OL     H7R 2781  -0.053   4.396   4.786
    3OL     H7S 2782  -0.133   4.545   4.837
    3OL     C18 2783  -0.243   4.423   4.692
    3OL     H8R 2784  -0.348   4.442   4.716
    3OL     H8S 2785  -0.242   4.316   4.673
    3OL     C19 2786  -0.194   4.505   4.576
    3OL     H9R 2787  -0.203   4.613   4.580
    3OL    C110 2788  -0.148   4.459   4.460
    3OL    H10R 2789  -0.131   4.530   4.380
    3OL    C111 2790  -0.090   4.323   4.432
    3OL    H11R 2791  -0.037   4.294   4.524
    3OL    H11S 2792  -0.021   4.332   4.348
    3OL    C112 2793  -0.189   4.210   4.402
    3OL    H12R 2794  -0.236   4.227   4.305
    3OL    H12S 2795  -0.264   4.202   4.481
    3OL    C113 2796  -0.107   4.081   4.392
    3OL    H13R 2797  -0.052   4.063   4.485
    3OL    H13S 2798  -0.026   4.098   4.320
    3OL    C114 2799  -0.177   3.954   4.343
    3OL    H14R 2800  -0.105   3.882   4.303
    3OL    H14S 2801  -0.248   3.979   4.264
    3OL    C115 2802  -0.260   3.882   4.450
    3OL    H15R 2803  -0.323   3.952   4.505
    3OL    H15S 2804  -0.182   3.847   4.518
    3OL    C116 2805  -0.345   3.761   4.411
    3OL    H16R 2806  -0.379   3.767   4.307
    3OL    H16S 2807  -0.430   3.763   4.479
    3OL    C117 2808  -0.264   3.631   4.420
    3OL    H17R 2809  -0.159   3.648   4.393
    3OL    H17S 2810  -0.289   3.565   4.337
    3OL    C118 2811  -0.286   3.561   4.555
    3OL    H18R 2812  -0.275   3.633   4.636
    3OL    H18S 2813  -0.236   3.465   4.573
    3OL    H18T 2814  -0.389   3.525   4.562
    1PA    C116 2815   6.323   0.684   3.599
    1PA    H16R 2816   6.346   0.764   3.529
    1PA    H16S 2817   6.223   0.654   3.567
    1PA    H16T 2818   6.405   0.612   3.597
    1PA    C115 2819   6.329   0.744   3.740
    1PA    H15R 2820   6.426   0.789   3.762
    1PA    H15S 2821   6.252   0.821   3.755
    1PA    C114 2822   6.296   0.637   3.845
    1PA    H14R 2823   6.207   0.579   3.817
    1PA    H14S 2824   6.381   0.570   3.854
    1PA    C113 2825   6.261   0.706   3.978
    1PA    H13R 2826   6.333   0.781   4.009
    1PA    H13S 2827   6.162   0.751   3.966
    1PA    C112 2828   6.257   0.593   4.082
    1PA    H12R 2829   6.192   0.511   4.050
    1PA    H12S 2830   6.360   0.557   4.076
    1PA    C111 2831   6.221   0.643   4.222
    1PA    H11R 2832   6.292   0.722   4.250
    1PA    H11S 2833   6.124   0.693   4.216
    1PA    C110 2834   6.232   0.526   4.320
    1PA    H10R 2835   6.164   0.443   4.297
    1PA    H10S 2836   6.333   0.486   4.307
    1PA     C19 2837   6.212   0.572   4.465
    1PA     H9R 2838   6.272   0.656   4.500
    1PA     H9S 2839   6.110   0.609   4.458
    1PA     C18 2840   6.217   0.455   4.565
    1PA     H8R 2841   6.137   0.388   4.531
    1PA     H8S 2842   6.306   0.393   4.570
    1PA     C17 2843   6.205   0.513   4.707
    1PA     H7R 2844   6.140   0.600   4.715
    1PA     H7S 2845   6.160   0.434   4.767
    1PA     C16 2846   6.345   0.546   4.760
    1PA     H6R 2847   6.402   0.454   4.746
    1PA     H6S 2848   6.393   0.613   4.689
    1PA     C15 2849   6.341   0.591   4.907
    1PA     H5R 2850   6.314   0.696   4.918
    1PA     H5S 2851   6.263   0.533   4.958
    1PA     C14 2852   6.477   0.579   4.976
    1PA     H4R 2853   6.508   0.476   4.954
    1PA     H4S 2854   6.538   0.655   4.927
    1PA     C13 2855   6.462   0.610   5.126
    1PA     H3R 2856   6.429   0.714   5.132
    1PA     H3S 2857   6.387   0.544   5.170
    1PA     C12 2858   6.602   0.596   5.187
    1PA     H2R 2859   6.638   0.497   5.157
    1PA     H2S 2860   6.666   0.676   5.150
    2PC     C11 2861   6.588   0.611   5.337
    2PC     O12 2862   6.636   0.709   5.391
    2PC     O11 2863   6.525   0.511   5.399
    2PC      C1 2864   6.495   0.518   5.540
    2PC      HR 2865   6.447   0.422   5.560
    2PC      HS 2866   6.588   0.513   5.597
    2PC      C2 2867   6.392   0.629   5.565
    2PC      HX 2868   6.414   0.722   5.513
    2PC      C3 2869   6.376   0.663   5.714
    2PC      HA 2870   6.472   0.694   5.756
    2PC      HB 2871   6.298   0.739   5.722
    2PC     O31 2872   6.326   0.551   5.789
    2PC     P31 2873   6.316   0.576   5.947
    2PC     O32 2874   6.388   0.447   6.009
    2PC     C31 2875   6.508   0.460   6.087
    2PC     H1A 2876   6.584   0.509   6.025
    2PC     H1B 2877   6.488   0.525   6.173
    2PC     C32 2878   6.554   0.325   6.143
    2PC     H2A 2879   6.572   0.252   6.064
    2PC     H2B 2880   6.655   0.329   6.184
    2PC     N31 2881   6.471   0.248   6.242
    2PC     C33 2882   6.351   0.193   6.172
    2PC     H3A 2883   6.390   0.120   6.101
    2PC     H3B 2884   6.290   0.140   6.245
    2PC     H3C 2885   6.284   0.271   6.136
    2PC     C34 2886   6.557   0.140   6.299
    2PC     H4A 2887   6.634   0.180   6.365
    2PC     H4B 2888   6.492   0.073   6.356
    2PC     H4C 2889   6.587   0.089   6.208
    2PC     C35 2890   6.430   0.344   6.350
    2PC     H5A 2891   6.511   0.391   6.407
    2PC     H5B 2892   6.376   0.292   6.429
    2PC     H5C 2893   6.379   0.423   6.296
    2PC     O33 2894   6.376   0.701   5.999
    2PC     O34 2895   6.175   0.587   5.993
    2PC     O21 2896   6.260   0.591   5.525
    2PC     C21 2897   6.215   0.616   5.401
    2PC     O22 2898   6.266   0.705   5.336
    3OL     C12 2899   6.071   0.575   5.381
    3OL     H2R 2900   6.015   0.600   5.472
    3OL     H2S 2901   6.073   0.466   5.372
    3OL     C13 2902   6.000   0.628   5.256
    3OL     H3R 2903   6.053   0.587   5.169
    3OL     H3S 2904   6.000   0.737   5.256
    3OL     C14 2905   5.854   0.584   5.243
    3OL     H4R 2906   5.796   0.622   5.327
    3OL     H4S 2907   5.842   0.475   5.236
    3OL     C15 2908   5.793   0.644   5.115
    3OL     H5R 2909   5.813   0.751   5.102
    3OL     H5S 2910   5.684   0.635   5.113
    3OL     C16 2911   5.837   0.572   4.987
    3OL     H6R 2912   5.812   0.466   4.994
    3OL     H6S 2913   5.946   0.575   4.981
    3OL     C17 2914   5.761   0.638   4.870
    3OL     H7R 2915   5.799   0.739   4.854
    3OL     H7S 2916   5.655   0.647   4.894
    3OL     C18 2917   5.787   0.552   4.746
    3OL     H8R 2918   5.751   0.451   4.763
    3OL     H8S 2919   5.893   0.545   4.723
    3OL     C19 2920   5.727   0.623   4.627
    3OL     H9R 2921   5.673   0.713   4.655
    3OL    C110 2922   5.754   0.596   4.500
    3OL    H10R 2923   5.713   0.663   4.424
    3OL    C111 2924   5.795   0.456   4.462
    3OL    H11R 2925   5.792   0.383   4.543
    3OL    H11S 2926   5.898   0.461   4.427
    3OL    C112 2927   5.721   0.393   4.343
    3OL    H12R 2928   5.754   0.291   4.323
    3OL    H12S 2929   5.741   0.456   4.257
    3OL    C113 2930   5.570   0.375   4.359
    3OL    H13R 2931   5.525   0.473   4.374
    3OL    H13S 2932   5.547   0.326   4.454
    3OL    C114 2933   5.499   0.312   4.238
    3OL    H14R 2934   5.391   0.326   4.245
    3OL    H14S 2935   5.515   0.204   4.241
    3OL    C115 2936   5.531   0.373   4.101
    3OL    H15R 2937   5.507   0.309   4.017
    3OL    H15S 2938   5.639   0.388   4.096
    3OL    C116 2939   5.454   0.504   4.078
    3OL    H16R 2940   5.459   0.568   4.167
    3OL    H16S 2941   5.349   0.481   4.063
    3OL    C117 2942   5.500   0.587   3.957
    3OL    H17R 2943   5.606   0.607   3.968
    3OL    H17S 2944   5.454   0.686   3.961
    3OL    C118 2945   5.457   0.540   3.817
    3OL    H18R 2946   5.475   0.618   3.743
    3OL    H18S 2947   5.350   0.518   3.825
    3OL    H18T 2948   5.503   0.448   3.782
    1PA    C116 2949   3.573   6.089   3.701
    1PA    H16R 2950   3.649   6.166   3.692
    1PA    H16S 2951   3.523   6.077   3.604
    1PA    H16T 2952   3.613   5.988   3.717
    1PA    C115 2953   3.478   6.111   3.819
    1PA    H15R 2954   3.432   6.207   3.796
    1PA    H15S 2955   3.401   6.033   3.821
    1PA    C114 2956   3.557   6.109   3.951
    1PA    H14R 2957   3.617   6.018   3.961
    1PA    H14S 2958   3.626   6.192   3.959
    1PA    C113 2959   3.455   6.114   4.066
    1PA    H13R 2960   3.391   6.202   4.058
    1PA    H13S 2961   3.388   6.028   4.057
    1PA    C112 2962   3.526   6.136   4.200
    1PA    H12R 2963   3.591   6.223   4.205
    1PA    H12S 2964   3.445   6.147   4.274
    1PA    C111 2965   3.590   6.004   4.245
    1PA    H11R 2966   3.517   5.922   4.245
    1PA    H11S 2967   3.668   5.982   4.172
    1PA    C110 2968   3.644   6.018   4.388
    1PA    H10R 2969   3.718   6.098   4.396
    1PA    H10S 2970   3.564   6.035   4.460
    1PA     C19 2971   3.713   5.887   4.431
    1PA     H9R 2972   3.637   5.809   4.424
    1PA     H9S 2973   3.793   5.866   4.360
    1PA     C18 2974   3.768   5.894   4.574
    1PA     H8R 2975   3.848   5.968   4.581
    1PA     H8S 2976   3.695   5.925   4.648
    1PA     C17 2977   3.837   5.763   4.615
    1PA     H7R 2978   3.761   5.686   4.625
    1PA     H7S 2979   3.905   5.735   4.535
    1PA     C16 2980   3.917   5.781   4.745
    1PA     H6R 2981   3.971   5.693   4.780
    1PA     H6S 2982   3.998   5.854   4.738
    1PA     C15 2983   3.833   5.838   4.859
    1PA     H5R 2984   3.786   5.934   4.834
    1PA     H5S 2985   3.758   5.763   4.886
    1PA     C14 2986   3.931   5.857   4.976
    1PA     H4R 2987   3.973   5.758   4.998
    1PA     H4S 2988   3.999   5.937   4.946
    1PA     C13 2989   3.866   5.905   5.106
    1PA     H3R 2990   3.839   6.010   5.090
    1PA     H3S 2991   3.783   5.842   5.140
    1PA     C12 2992   3.969   5.917   5.218
    1PA     H2R 2993   4.001   5.817   5.249
    1PA     H2S 2994   4.055   5.975   5.184
    2PC     C11 2995   3.915   5.997   5.334
    2PC     O12 2996   3.801   5.977   5.368
    2PC     O11 2997   4.002   6.077   5.399
    2PC      C1 2998   3.962   6.119   5.530
    2PC      HR 2999   3.895   6.052   5.585
    2PC      HS 3000   4.051   6.117   5.594
    2PC      C2 3001   3.905   6.261   5.524
    2PC      HX 3002   3.991   6.326   5.542
    2PC      C3 3003   3.799   6.290   5.632
    2PC      HA 3004   3.704   6.242   5.609
    2PC      HB 3005   3.818   6.252   5.733
    2PC     O31 3006   3.777   6.431   5.645
    2PC     P31 3007   3.880   6.519   5.733
    2PC     O32 3008   3.849   6.657   5.659
    2PC     C31 3009   3.889   6.785   5.714
    2PC     H1A 3010   3.852   6.860   5.643
    2PC     H1B 3011   3.847   6.794   5.814
    2PC     C32 3012   4.041   6.802   5.711
    2PC     H2A 3013   4.091   6.720   5.764
    2PC     H2B 3014   4.077   6.802   5.608
    2PC     N31 3015   4.112   6.916   5.777
    2PC     C33 3016   4.054   7.046   5.728
    2PC     H3A 3017   4.066   7.055   5.620
    2PC     H3B 3018   3.948   7.050   5.752
    2PC     H3C 3019   4.112   7.118   5.787
    2PC     C34 3020   4.109   6.905   5.926
    2PC     H4A 3021   4.144   6.805   5.952
    2PC     H4B 3022   4.174   6.984   5.963
    2PC     H4C 3023   4.007   6.917   5.962
    2PC     C35 3024   4.258   6.903   5.744
    2PC     H5A 3025   4.321   6.966   5.807
    2PC     H5B 3026   4.270   6.935   5.641
    2PC     H5C 3027   4.283   6.798   5.762
    2PC     O33 3028   3.856   6.529   5.879
    2PC     O34 3029   4.024   6.490   5.716
    2PC     O21 3030   3.843   6.278   5.395
    2PC     C21 3031   3.922   6.321   5.295
    2PC     O22 3032   4.036   6.362   5.300
    3OL     C12 3033   3.842   6.306   5.168
    3OL     H2R 3034   3.785   6.399   5.156
    3OL     H2S 3035   3.772   6.224   5.185
    3OL     C13 3036   3.935   6.266   5.052
    3OL     H3R 3037   3.991   6.173   5.067
    3OL     H3S 3038   4.012   6.343   5.052
    3OL     C14 3039   3.859   6.245   4.921
    3OL     H4R 3040   3.764   6.299   4.917
    3OL     H4S 3041   3.832   6.139   4.920
    3OL     C15 3042   3.933   6.269   4.789
    3OL     H5R 3043   3.982   6.367   4.796
    3OL     H5S 3044   3.859   6.269   4.710
    3OL     C16 3045   4.050   6.173   4.761
    3OL     H6R 3046   4.008   6.074   4.744
    3OL     H6S 3047   4.114   6.164   4.849
    3OL     C17 3048   4.133   6.211   4.638
    3OL     H7R 3049   4.235   6.242   4.660
    3OL     H7S 3050   4.087   6.294   4.584
    3OL     C18 3051   4.141   6.087   4.547
    3OL     H8R 3052   4.040   6.067   4.508
    3OL     H8S 3053   4.175   5.999   4.601
    3OL     C19 3054   4.239   6.109   4.434
    3OL     H9R 3055   4.342   6.086   4.456
    3OL    C110 3056   4.211   6.158   4.315
    3OL    H10R 3057   4.281   6.183   4.235
    3OL    C111 3058   4.075   6.205   4.271
    3OL    H11R 3059   4.079   6.309   4.238
    3OL    H11S 3060   3.990   6.201   4.339
    3OL    C112 3061   4.041   6.121   4.146
    3OL    H12R 3062   4.022   6.017   4.173
    3OL    H12S 3063   4.136   6.112   4.093
    3OL    C113 3064   3.946   6.179   4.041
    3OL    H13R 3065   3.849   6.174   4.090
    3OL    H13S 3066   3.928   6.113   3.956
    3OL    C114 3067   3.972   6.320   3.984
    3OL    H14R 3068   3.974   6.396   4.062
    3OL    H14S 3069   3.893   6.338   3.912
    3OL    C115 3070   4.103   6.314   3.905
    3OL    H15R 3071   4.106   6.231   3.835
    3OL    H15S 3072   4.187   6.306   3.975
    3OL    C116 3073   4.119   6.445   3.825
    3OL    H16R 3074   4.111   6.525   3.898
    3OL    H16S 3075   4.044   6.467   3.749
    3OL    C117 3076   4.259   6.443   3.761
    3OL    H17R 3077   4.270   6.355   3.697
    3OL    H17S 3078   4.340   6.435   3.833
    3OL    C118 3079   4.287   6.567   3.675
    3OL    H18R 3080   4.206   6.584   3.604
    3OL    H18S 3081   4.379   6.552   3.617
    3OL    H18T 3082   4.309   6.656   3.734
    1PA    C116 3083   3.321   4.255   3.581
    1PA    H16R 3084   3.357   4.308   3.492
    1PA    H16S 3085   3.242   4.315   3.626
    1PA    H16T 3086   3.269   4.163   3.554
    1PA    C115 3087   3.436   4.236   3.681
    1PA    H15R 3088   3.393   4.230   3.782
    1PA    H15S 3089   3.496   4.148   3.660
    1PA    C114 3090   3.540   4.349   3.675
    1PA    H14R 3091   3.602   4.320   3.760
    1PA    H14S 3092   3.588   4.345   3.577
    1PA    C113 3093   3.486   4.490   3.700
    1PA    H13R 3094   3.482   4.543   3.604
    1PA    H13S 3095   3.386   4.492   3.744
    1PA    C112 3096   3.564   4.577   3.800
    1PA    H12R 3097   3.545   4.530   3.897
    1PA    H12S 3098   3.669   4.558   3.780
    1PA    C111 3099   3.536   4.727   3.787
    1PA    H11R 3100   3.540   4.748   3.680
    1PA    H11S 3101   3.436   4.758   3.820
    1PA    C110 3102   3.645   4.812   3.853
    1PA    H10R 3103   3.747   4.773   3.848
    1PA    H10S 3104   3.644   4.910   3.806
    1PA     C19 3105   3.613   4.833   4.002
    1PA     H9R 3106   3.522   4.891   4.017
    1PA     H9S 3107   3.605   4.733   4.046
    1PA     C18 3108   3.724   4.919   4.062
    1PA     H8R 3109   3.817   4.862   4.055
    1PA     H8S 3110   3.739   5.012   4.006
    1PA     C17 3111   3.702   4.945   4.211
    1PA     H7R 3112   3.627   5.024   4.213
    1PA     H7S 3113   3.656   4.864   4.268
    1PA     C16 3114   3.828   5.012   4.269
    1PA     H6R 3115   3.922   4.961   4.248
    1PA     H6S 3116   3.847   5.106   4.218
    1PA     C15 3117   3.814   5.039   4.420
    1PA     H5R 3118   3.886   5.116   4.449
    1PA     H5S 3119   3.715   5.079   4.441
    1PA     C14 3120   3.839   4.913   4.503
    1PA     H4R 3121   3.753   4.846   4.497
    1PA     H4S 3122   3.924   4.850   4.477
    1PA     C13 3123   3.858   4.937   4.654
    1PA     H3R 3124   3.899   4.847   4.699
    1PA     H3S 3125   3.925   5.021   4.668
    1PA     C12 3126   3.722   4.967   4.719
    1PA     H2R 3127   3.682   5.065   4.692
    1PA     H2S 3128   3.654   4.886   4.691
    2PC     C11 3129   3.713   4.966   4.869
    2PC     O12 3130   3.741   4.867   4.934
    2PC     O11 3131   3.670   5.081   4.924
    2PC      C1 3132   3.671   5.108   5.065
    2PC      HR 3133   3.629   5.206   5.091
    2PC      HS 3134   3.612   5.039   5.127
    2PC      C2 3135   3.813   5.100   5.123
    2PC      HX 3136   3.855   5.002   5.099
    2PC      C3 3137   3.815   5.128   5.274
    2PC      HA 3138   3.792   5.035   5.325
    2PC      HB 3139   3.915   5.149   5.312
    2PC     O31 3140   3.724   5.233   5.313
    2PC     P31 3141   3.682   5.249   5.467
    2PC     O32 3142   3.611   5.392   5.460
    2PC     C31 3143   3.557   5.451   5.580
    2PC     H1A 3144   3.473   5.397   5.623
    2PC     H1B 3145   3.624   5.464   5.665
    2PC     C32 3146   3.507   5.592   5.543
    2PC     H2A 3147   3.423   5.587   5.474
    2PC     H2B 3148   3.468   5.635   5.635
    2PC     N31 3149   3.602   5.685   5.473
    2PC     C33 3150   3.622   5.651   5.328
    2PC     H3A 3151   3.655   5.548   5.316
    2PC     H3B 3152   3.532   5.666   5.268
    2PC     H3C 3153   3.706   5.708   5.289
    2PC     C34 3154   3.554   5.826   5.462
    2PC     H4A 3155   3.633   5.887   5.418
    2PC     H4B 3156   3.471   5.820   5.391
    2PC     H4C 3157   3.535   5.860   5.564
    2PC     C35 3158   3.740   5.700   5.529
    2PC     H5A 3159   3.729   5.742   5.629
    2PC     H5B 3160   3.800   5.764   5.464
    2PC     H5C 3161   3.783   5.602   5.549
    2PC     O33 3162   3.601   5.127   5.494
    2PC     O34 3163   3.799   5.245   5.557
    2PC     O21 3164   3.890   5.199   5.053
    2PC     C21 3165   4.017   5.175   5.017
    2PC     O22 3166   4.055   5.060   5.005
    3OL     C12 3167   4.103   5.297   4.996
    3OL     H2R 3168   4.190   5.281   5.061
    3OL     H2S 3169   4.043   5.381   5.030
    3OL     C13 3170   4.145   5.319   4.850
    3OL     H3R 3171   4.178   5.222   4.813
    3OL     H3S 3172   4.231   5.386   4.857
    3OL     C14 3173   4.027   5.369   4.765
    3OL     H4R 3174   3.987   5.463   4.803
    3OL     H4S 3175   3.946   5.296   4.759
    3OL     C15 3176   4.075   5.406   4.624
    3OL     H5R 3177   4.131   5.328   4.572
    3OL     H5S 3178   4.138   5.493   4.642
    3OL     C16 3179   3.953   5.438   4.537
    3OL     H6R 3180   3.879   5.495   4.594
    3OL     H6S 3181   3.913   5.339   4.516
    3OL     C17 3182   3.996   5.515   4.411
    3OL     H7R 3183   4.073   5.458   4.359
    3OL     H7S 3184   4.038   5.609   4.446
    3OL     C18 3185   3.886   5.550   4.310
    3OL     H8R 3186   3.928   5.589   4.217
    3OL     H8S 3187   3.829   5.628   4.361
    3OL     C19 3188   3.795   5.439   4.264
    3OL     H9R 3189   3.826   5.339   4.293
    3OL    C110 3190   3.709   5.461   4.165
    3OL    H10R 3191   3.647   5.377   4.133
    3OL    C111 3192   3.667   5.594   4.109
    3OL    H11R 3193   3.749   5.665   4.114
    3OL    H11S 3194   3.596   5.645   4.175
    3OL    C112 3195   3.616   5.578   3.965
    3OL    H12R 3196   3.528   5.513   3.976
    3OL    H12S 3197   3.689   5.534   3.897
    3OL    C113 3198   3.586   5.718   3.910
    3OL    H13R 3199   3.685   5.758   3.886
    3OL    H13S 3200   3.534   5.776   3.986
    3OL    C114 3201   3.486   5.708   3.793
    3OL    H14R 3202   3.433   5.803   3.787
    3OL    H14S 3203   3.406   5.635   3.805
    3OL    C115 3204   3.571   5.685   3.667
    3OL    H15R 3205   3.623   5.589   3.677
    3OL    H15S 3206   3.645   5.765   3.660
    3OL    C116 3207   3.492   5.693   3.536
    3OL    H16R 3208   3.403   5.631   3.544
    3OL    H16S 3209   3.556   5.650   3.459
    3OL    C117 3210   3.452   5.836   3.498
    3OL    H17R 3211   3.549   5.881   3.474
    3OL    H17S 3212   3.394   5.893   3.571
    3OL    C118 3213   3.360   5.829   3.375
    3OL    H18R 3214   3.350   5.923   3.320
    3OL    H18S 3215   3.263   5.790   3.404
    3OL    H18T 3216   3.417   5.756   3.317
    1PA    C116 3217   6.246   2.847   3.917
    1PA    H16R 3218   6.327   2.897   3.863
    1PA    H16S 3219   6.166   2.820   3.847
    1PA    H16T 3220   6.285   2.748   3.941
    1PA    C115 3221   6.188   2.914   4.042
    1PA    H15R 3222   6.265   2.937   4.116
    1PA    H15S 3223   6.134   3.007   4.023
    1PA    C114 3224   6.094   2.815   4.113
    1PA    H14R 3225   6.013   2.786   4.046
    1PA    H14S 3226   6.153   2.723   4.124
    1PA    C113 3227   6.038   2.878   4.241
    1PA    H13R 3228   6.121   2.919   4.298
    1PA    H13S 3229   5.976   2.959   4.201
    1PA    C112 3230   5.945   2.796   4.332
    1PA    H12R 3231   5.928   2.854   4.423
    1PA    H12S 3232   5.851   2.777   4.280
    1PA    C111 3233   5.996   2.655   4.366
    1PA    H11R 3234   5.919   2.581   4.391
    1PA    H11S 3235   6.037   2.623   4.270
    1PA    C110 3236   6.106   2.662   4.472
    1PA    H10R 3237   6.185   2.588   4.455
    1PA    H10S 3238   6.150   2.761   4.483
    1PA     C19 3239   6.058   2.615   4.610
    1PA     H9R 3240   5.969   2.672   4.638
    1PA     H9S 3241   6.028   2.510   4.613
    1PA     C18 3242   6.175   2.651   4.702
    1PA     H8R 3243   6.253   2.575   4.694
    1PA     H8S 3244   6.226   2.744   4.676
    1PA     C17 3245   6.143   2.660   4.852
    1PA     H7R 3246   6.224   2.678   4.923
    1PA     H7S 3247   6.081   2.748   4.866
    1PA     C16 3248   6.071   2.534   4.902
    1PA     H6R 3249   5.984   2.505   4.843
    1PA     H6S 3250   6.144   2.452   4.897
    1PA     C15 3251   6.017   2.538   5.045
    1PA     H5R 3252   6.093   2.571   5.116
    1PA     H5S 3253   5.943   2.617   5.063
    1PA     C14 3254   5.957   2.403   5.086
    1PA     H4R 3255   5.875   2.381   5.017
    1PA     H4S 3256   6.040   2.332   5.079
    1PA     C13 3257   5.909   2.408   5.232
    1PA     H3R 3258   5.998   2.432   5.290
    1PA     H3S 3259   5.839   2.490   5.248
    1PA     C12 3260   5.849   2.273   5.272
    1PA     H2R 3261   5.745   2.259   5.240
    1PA     H2S 3262   5.907   2.195   5.223
    2PC     C11 3263   5.859   2.264   5.423
    2PC     O12 3264   5.961   2.281   5.487
    2PC     O11 3265   5.742   2.229   5.478
    2PC      C1 3266   5.734   2.211   5.621
    2PC      HR 3267   5.638   2.172   5.655
    2PC      HS 3268   5.818   2.152   5.658
    2PC      C2 3269   5.756   2.346   5.690
    2PC      HX 3270   5.854   2.391   5.672
    2PC      C3 3271   5.748   2.339   5.843
    2PC      HA 3272   5.653   2.297   5.874
    2PC      HB 3273   5.826   2.269   5.874
    2PC     O31 3274   5.774   2.469   5.900
    2PC     P31 3275   5.768   2.476   6.060
    2PC     O32 3276   5.923   2.469   6.100
    2PC     C31 3277   5.972   2.574   6.185
    2PC     H1A 3278   5.968   2.671   6.134
    2PC     H1B 3279   5.909   2.589   6.272
    2PC     C32 3280   6.118   2.550   6.227
    2PC     H2A 3281   6.176   2.534   6.136
    2PC     H2B 3282   6.158   2.639   6.276
    2PC     N31 3283   6.127   2.431   6.318
    2PC     C33 3284   6.108   2.487   6.456
    2PC     H3A 3285   6.004   2.500   6.486
    2PC     H3B 3286   6.162   2.419   6.522
    2PC     H3C 3287   6.160   2.583   6.470
    2PC     C34 3288   6.023   2.324   6.309
    2PC     H4A 3289   6.038   2.257   6.394
    2PC     H4B 3290   5.927   2.376   6.315
    2PC     H4C 3291   6.029   2.260   6.221
    2PC     C35 3292   6.261   2.368   6.302
    2PC     H5A 3293   6.270   2.283   6.370
    2PC     H5B 3294   6.338   2.439   6.333
    2PC     H5C 3295   6.263   2.344   6.196
    2PC     O33 3296   5.699   2.600   6.105
    2PC     O34 3297   5.695   2.356   6.107
    2PC     O21 3298   5.644   2.425   5.646
    2PC     C21 3299   5.669   2.556   5.627
    2PC     O22 3300   5.776   2.613   5.633
    3OL     C12 3301   5.544   2.633   5.596
    3OL     H2R 3302   5.569   2.713   5.527
    3OL     H2S 3303   5.497   2.684   5.681
    3OL     C13 3304   5.434   2.543   5.539
    3OL     H3R 3305   5.341   2.600   5.533
    3OL     H3S 3306   5.416   2.451   5.596
    3OL     C14 3307   5.467   2.490   5.399
    3OL     H4R 3308   5.373   2.450   5.360
    3OL     H4S 3309   5.531   2.401   5.393
    3OL     C15 3310   5.510   2.599   5.299
    3OL     H5R 3311   5.607   2.638   5.330
    3OL     H5S 3312   5.434   2.677   5.285
    3OL     C16 3313   5.528   2.540   5.159
    3OL     H6R 3314   5.427   2.523   5.120
    3OL     H6S 3315   5.580   2.444   5.161
    3OL     C17 3316   5.592   2.648   5.071
    3OL     H7R 3317   5.689   2.669   5.117
    3OL     H7S 3318   5.543   2.744   5.083
    3OL     C18 3319   5.614   2.617   4.922
    3OL     H8R 3320   5.525   2.652   4.871
    3OL     H8S 3321   5.622   2.509   4.918
    3OL     C19 3322   5.742   2.684   4.877
    3OL     H9R 3323   5.834   2.641   4.915
    3OL    C110 3324   5.755   2.787   4.795
    3OL    H10R 3325   5.852   2.833   4.782
    3OL    C111 3326   5.639   2.849   4.720
    3OL    H11R 3327   5.655   2.956   4.710
    3OL    H11S 3328   5.550   2.839   4.781
    3OL    C112 3329   5.608   2.801   4.577
    3OL    H12R 3330   5.585   2.695   4.563
    3OL    H12S 3331   5.695   2.815   4.513
    3OL    C113 3332   5.493   2.883   4.519
    3OL    H13R 3333   5.506   2.990   4.537
    3OL    H13S 3334   5.409   2.856   4.584
    3OL    C114 3335   5.454   2.842   4.377
    3OL    H14R 3336   5.350   2.876   4.372
    3OL    H14S 3337   5.456   2.735   4.354
    3OL    C115 3338   5.536   2.902   4.262
    3OL    H15R 3339   5.488   2.878   4.167
    3OL    H15S 3340   5.632   2.851   4.268
    3OL    C116 3341   5.552   3.055   4.255
    3OL    H16R 3342   5.585   3.095   4.351
    3OL    H16S 3343   5.453   3.101   4.247
    3OL    C117 3344   5.641   3.103   4.140
    3OL    H17R 3345   5.591   3.088   4.044
    3OL    H17S 3346   5.739   3.058   4.123
    3OL    C118 3347   5.657   3.254   4.157
    3OL    H18R 3348   5.740   3.279   4.224
    3OL    H18S 3349   5.566   3.296   4.200
    3OL    H18T 3350   5.682   3.299   4.060
    1PA    C116 3351   6.027   2.413   3.995
    1PA    H16R 3352   6.088   2.335   4.042
    1PA    H16S 3353   6.037   2.496   4.065
    1PA    H16T 3354   6.060   2.440   3.895
    1PA    C115 3355   5.884   2.361   3.979
    1PA    H15R 3356   5.825   2.437   3.926
    1PA    H15S 3357   5.891   2.273   3.915
    1PA    C114 3358   5.819   2.329   4.114
    1PA    H14R 3359   5.822   2.410   4.187
    1PA    H14S 3360   5.714   2.304   4.096
    1PA    C113 3361   5.884   2.206   4.178
    1PA    H13R 3362   5.877   2.119   4.111
    1PA    H13S 3363   5.991   2.221   4.195
    1PA    C112 3364   5.811   2.168   4.307
    1PA    H12R 3365   5.704   2.175   4.284
    1PA    H12S 3366   5.826   2.062   4.330
    1PA    C111 3367   5.838   2.254   4.431
    1PA    H11R 3368   5.945   2.257   4.455
    1PA    H11S 3369   5.793   2.353   4.423
    1PA    C110 3370   5.772   2.184   4.550
    1PA    H10R 3371   5.667   2.161   4.531
    1PA    H10S 3372   5.813   2.088   4.583
    1PA     C19 3373   5.784   2.279   4.671
    1PA     H9R 3374   5.888   2.301   4.695
    1PA     H9S 3375   5.731   2.371   4.646
    1PA     C18 3376   5.729   2.205   4.793
    1PA     H8R 3377   5.716   2.289   4.861
    1PA     H8S 3378   5.632   2.160   4.772
    1PA     C17 3379   5.826   2.108   4.862
    1PA     H7R 3380   5.860   2.036   4.786
    1PA     H7S 3381   5.911   2.165   4.901
    1PA     C16 3382   5.752   2.041   4.979
    1PA     H6R 3383   5.697   2.112   5.041
    1PA     H6S 3384   5.679   1.979   4.927
    1PA     C15 3385   5.839   1.951   5.067
    1PA     H5R 3386   5.892   1.882   5.002
    1PA     H5S 3387   5.921   2.007   5.113
    1PA     C14 3388   5.758   1.878   5.175
    1PA     H4R 3389   5.738   1.948   5.257
    1PA     H4S 3390   5.659   1.851   5.137
    1PA     C13 3391   5.817   1.742   5.214
    1PA     H3R 3392   5.745   1.688   5.275
    1PA     H3S 3393   5.832   1.686   5.122
    1PA     C12 3394   5.955   1.749   5.280
    1PA     H2R 3395   5.984   1.646   5.304
    1PA     H2S 3396   6.015   1.796   5.202
    2PC     C11 3397   5.959   1.841   5.399
    2PC     O12 3398   5.860   1.887   5.453
    2PC     O11 3399   6.082   1.877   5.440
    2PC      C1 3400   6.095   1.960   5.556
    2PC      HR 3401   6.040   2.053   5.539
    2PC      HS 3402   6.061   1.912   5.648
    2PC      C2 3403   6.245   1.986   5.574
    2PC      HX 3404   6.297   1.889   5.581
    2PC      C3 3405   6.279   2.070   5.698
    2PC      HA 3406   6.217   2.158   5.720
    2PC      HB 3407   6.266   1.998   5.780
    2PC     O31 3408   6.419   2.101   5.691
    2PC     P31 3409   6.493   2.155   5.822
    2PC     O32 3410   6.514   2.312   5.797
    2PC     C31 3411   6.582   2.342   5.674
    2PC     H1A 3412   6.676   2.287   5.663
    2PC     H1B 3413   6.522   2.303   5.591
    2PC     C32 3414   6.611   2.492   5.667
    2PC     H2A 3415   6.657   2.509   5.570
    2PC     H2B 3416   6.519   2.548   5.680
    2PC     N31 3417   6.705   2.556   5.766
    2PC     C33 3418   6.845   2.504   5.767
    2PC     H3A 3419   6.896   2.524   5.673
    2PC     H3B 3420   6.895   2.563   5.843
    2PC     H3C 3421   6.832   2.399   5.794
    2PC     C34 3422   6.715   2.704   5.741
    2PC     H4A 3423   6.736   2.718   5.635
    2PC     H4B 3424   6.622   2.757   5.759
    2PC     H4C 3425   6.793   2.756   5.795
    2PC     C35 3426   6.640   2.541   5.900
    2PC     H5A 3427   6.694   2.608   5.966
    2PC     H5B 3428   6.636   2.439   5.939
    2PC     H5C 3429   6.540   2.575   5.871
    2PC     O33 3430   6.423   2.120   5.947
    2PC     O34 3431   6.630   2.100   5.835
    2PC     O21 3432   6.285   2.062   5.459
    2PC     C21 3433   6.378   2.015   5.374
    2PC     O22 3434   6.434   1.908   5.388
    3OL     C12 3435   6.390   2.107   5.255
    3OL     H2R 3436   6.478   2.169   5.272
    3OL     H2S 3437   6.302   2.171   5.247
    3OL     C13 3438   6.402   2.028   5.124
    3OL     H3R 3439   6.480   1.953   5.137
    3OL     H3S 3440   6.430   2.098   5.044
    3OL     C14 3441   6.268   1.957   5.102
    3OL     H4R 3442   6.178   2.006   5.140
    3OL     H4S 3443   6.261   1.863   5.158
    3OL     C15 3444   6.247   1.923   4.954
    3OL     H5R 3445   6.159   1.858   4.953
    3OL     H5S 3446   6.328   1.863   4.911
    3OL     C16 3447   6.198   2.042   4.871
    3OL     H6R 3448   6.270   2.125   4.866
    3OL     H6S 3449   6.102   2.075   4.911
    3OL     C17 3450   6.180   1.991   4.727
    3OL     H7R 3451   6.116   1.903   4.727
    3OL     H7S 3452   6.268   1.947   4.680
    3OL     C18 3453   6.119   2.093   4.630
    3OL     H8R 3454   6.021   2.121   4.667
    3OL     H8S 3455   6.085   2.034   4.544
    3OL     C19 3456   6.209   2.210   4.597
    3OL     H9R 3457   6.220   2.283   4.676
    3OL    C110 3458   6.269   2.230   4.480
    3OL    H10R 3459   6.342   2.309   4.468
    3OL    C111 3460   6.262   2.140   4.359
    3OL    H11R 3461   6.286   2.193   4.267
    3OL    H11S 3462   6.157   2.114   4.343
    3OL    C112 3463   6.341   2.010   4.381
    3OL    H12R 3464   6.282   1.950   4.451
    3OL    H12S 3465   6.444   2.031   4.410
    3OL    C113 3466   6.339   1.932   4.249
    3OL    H13R 3467   6.385   1.992   4.170
    3OL    H13S 3468   6.236   1.914   4.219
    3OL    C114 3469   6.413   1.797   4.253
    3OL    H14R 3470   6.360   1.727   4.318
    3OL    H14S 3471   6.516   1.793   4.286
    3OL    C115 3472   6.418   1.735   4.113
    3OL    H15R 3473   6.468   1.799   4.041
    3OL    H15S 3474   6.318   1.718   4.072
    3OL    C116 3475   6.491   1.600   4.113
    3OL    H16R 3476   6.434   1.538   4.183
    3OL    H16S 3477   6.595   1.604   4.146
    3OL    C117 3478   6.486   1.529   3.977
    3OL    H17R 3479   6.390   1.540   3.927
    3OL    H17S 3480   6.489   1.423   4.002
    3OL    C118 3481   6.607   1.560   3.888
    3OL    H18R 3482   6.627   1.465   3.838
    3OL    H18S 3483   6.700   1.558   3.945
    3OL    H18T 3484   6.591   1.654   3.834
    1PA    C116 3485   5.613   6.342   4.545
    1PA    H16R 3486   5.712   6.348   4.590
    1PA    H16S 3487   5.579   6.246   4.583
    1PA    H16T 3488   5.616   6.341   4.436
    1PA    C115 3489   5.539   6.462   4.605
    1PA    H15R 3490   5.549   6.457   4.714
    1PA    H15S 3491   5.587   6.548   4.559
    1PA    C114 3492   5.388   6.460   4.578
    1PA    H14R 3493   5.361   6.357   4.554
    1PA    H14S 3494   5.327   6.485   4.665
    1PA    C113 3495   5.343   6.540   4.455
    1PA    H13R 3496   5.363   6.647   4.460
    1PA    H13S 3497   5.395   6.502   4.366
    1PA    C112 3498   5.192   6.514   4.442
    1PA    H12R 3499   5.140   6.536   4.535
    1PA    H12S 3500   5.166   6.588   4.366
    1PA    C111 3501   5.155   6.381   4.375
    1PA    H11R 3502   5.189   6.387   4.271
    1PA    H11S 3503   5.201   6.296   4.425
    1PA    C110 3504   5.002   6.376   4.368
    1PA    H10R 3505   4.953   6.462   4.324
    1PA    H10S 3506   4.983   6.282   4.315
    1PA     C19 3507   4.947   6.356   4.510
    1PA     H9R 3508   5.001   6.274   4.558
    1PA     H9S 3509   4.962   6.443   4.576
    1PA     C18 3510   4.794   6.347   4.502
    1PA     H8R 3511   4.757   6.379   4.600
    1PA     H8S 3512   4.746   6.411   4.428
    1PA     C17 3513   4.756   6.201   4.476
    1PA     H7R 3514   4.783   6.175   4.373
    1PA     H7S 3515   4.819   6.135   4.536
    1PA     C16 3516   4.609   6.182   4.515
    1PA     H6R 3517   4.540   6.252   4.467
    1PA     H6S 3518   4.585   6.081   4.482
    1PA     C15 3519   4.588   6.198   4.666
    1PA     H5R 3520   4.617   6.296   4.703
    1PA     H5S 3521   4.481   6.181   4.681
    1PA     C14 3522   4.652   6.090   4.755
    1PA     H4R 3523   4.612   5.992   4.728
    1PA     H4S 3524   4.757   6.103   4.727
    1PA     C13 3525   4.637   6.115   4.905
    1PA     H3R 3526   4.723   6.072   4.958
    1PA     H3S 3527   4.653   6.221   4.927
    1PA     C12 3528   4.505   6.060   4.959
    1PA     H2R 3529   4.428   6.106   4.897
    1PA     H2S 3530   4.493   5.952   4.949
    2PC     C11 3531   4.472   6.085   5.104
    2PC     O12 3532   4.543   6.052   5.197
    2PC     O11 3533   4.349   6.135   5.122
    2PC      C1 3534   4.303   6.153   5.258
    2PC      HR 3535   4.201   6.191   5.250
    2PC      HS 3536   4.300   6.060   5.315
    2PC      C2 3537   4.378   6.266   5.329
    2PC      HX 3538   4.484   6.268   5.303
    2PC      C3 3539   4.343   6.245   5.477
    2PC      HA 3540   4.240   6.278   5.489
    2PC      HB 3541   4.362   6.142   5.510
    2PC     O31 3542   4.432   6.338   5.540
    2PC     P31 3543   4.484   6.309   5.689
    2PC     O32 3544   4.633   6.366   5.676
    2PC     C31 3545   4.698   6.328   5.554
    2PC     H1A 3546   4.702   6.221   5.532
    2PC     H1B 3547   4.666   6.392   5.471
    2PC     C32 3548   4.846   6.365   5.568
    2PC     H2A 3549   4.893   6.353   5.470
    2PC     H2B 3550   4.848   6.468   5.601
    2PC     N31 3551   4.938   6.287   5.658
    2PC     C33 3552   4.949   6.144   5.617
    2PC     H3A 3553   4.848   6.114   5.591
    2PC     H3B 3554   5.003   6.140   5.522
    2PC     H3C 3555   4.995   6.090   5.700
    2PC     C34 3556   5.076   6.346   5.658
    2PC     H4A 3557   5.123   6.344   5.560
    2PC     H4B 3558   5.060   6.451   5.682
    2PC     H4C 3559   5.131   6.297   5.739
    2PC     C35 3560   4.893   6.307   5.800
    2PC     H5A 3561   4.956   6.245   5.864
    2PC     H5B 3562   4.789   6.275   5.803
    2PC     H5C 3563   4.905   6.413   5.820
    2PC     O33 3564   4.403   6.384   5.788
    2PC     O34 3565   4.493   6.172   5.746
    2PC     O21 3566   4.318   6.386   5.275
    2PC     C21 3567   4.363   6.434   5.159
    2PC     O22 3568   4.468   6.401   5.108
    3OL     C12 3569   4.282   6.552   5.110
    3OL     H2R 3570   4.232   6.605   5.191
    3OL     H2S 3571   4.196   6.522   5.050
    3OL     C13 3572   4.362   6.649   5.021
    3OL     H3R 3573   4.443   6.679   5.088
    3OL     H3S 3574   4.316   6.747   5.006
    3OL     C14 3575   4.420   6.604   4.886
    3OL     H4R 3576   4.464   6.505   4.900
    3OL     H4S 3577   4.499   6.678   4.872
    3OL     C15 3578   4.312   6.615   4.777
    3OL     H5R 3579   4.294   6.722   4.776
    3OL     H5S 3580   4.221   6.561   4.804
    3OL     C16 3581   4.371   6.559   4.646
    3OL     H6R 3582   4.398   6.455   4.661
    3OL     H6S 3583   4.455   6.623   4.619
    3OL     C17 3584   4.269   6.555   4.532
    3OL     H7R 3585   4.239   6.656   4.503
    3OL     H7S 3586   4.182   6.499   4.566
    3OL     C18 3587   4.318   6.484   4.404
    3OL     H8R 3588   4.227   6.468   4.347
    3OL     H8S 3589   4.364   6.388   4.427
    3OL     C19 3590   4.422   6.576   4.344
    3OL     H9R 3591   4.507   6.598   4.408
    3OL    C110 3592   4.409   6.631   4.224
    3OL    H10R 3593   4.483   6.705   4.195
    3OL    C111 3594   4.294   6.623   4.126
    3OL    H11R 3595   4.240   6.532   4.152
    3OL    H11S 3596   4.329   6.606   4.024
    3OL    C112 3597   4.201   6.744   4.141
    3OL    H12R 3598   4.158   6.737   4.241
    3OL    H12S 3599   4.122   6.729   4.066
    3OL    C113 3600   4.281   6.873   4.126
    3OL    H13R 3601   4.372   6.871   4.188
    3OL    H13S 3602   4.212   6.952   4.155
    3OL    C114 3603   4.330   6.896   3.982
    3OL    H14R 3604   4.362   6.800   3.942
    3OL    H14S 3605   4.424   6.952   3.993
    3OL    C115 3606   4.223   6.957   3.891
    3OL    H15R 3607   4.184   7.052   3.928
    3OL    H15S 3608   4.141   6.888   3.874
    3OL    C116 3609   4.279   6.972   3.749
    3OL    H16R 3610   4.319   6.879   3.709
    3OL    H16S 3611   4.373   7.029   3.750
    3OL    C117 3612   4.172   7.017   3.648
    3OL    H17R 3613   4.077   6.964   3.660
    3OL    H17S 3614   4.218   6.986   3.554
    3OL    C118 3615   4.142   7.167   3.639
    3OL    H18R 3616   4.117   7.205   3.738
    3OL    H18S 3617   4.051   7.179   3.579
    3OL    H18T 3618   4.218   7.236   3.602
    1PA    C116 3619   6.387   3.236   3.775
    1PA    H16R 3620   6.309   3.308   3.800
    1PA    H16S 3621   6.335   3.142   3.795
    1PA    H16T 3622   6.412   3.240   3.669
    1PA    C115 3623   6.515   3.254   3.859
    1PA    H15R 3624   6.587   3.178   3.831
    1PA    H15S 3625   6.559   3.352   3.838
    1PA    C114 3626   6.496   3.245   4.011
    1PA    H14R 3627   6.433   3.330   4.037
    1PA    H14S 3628   6.430   3.159   4.023
    1PA    C113 3629   6.626   3.250   4.091
    1PA    H13R 3630   6.687   3.164   4.062
    1PA    H13S 3631   6.686   3.340   4.073
    1PA    C112 3632   6.609   3.225   4.242
    1PA    H12R 3633   6.516   3.167   4.244
    1PA    H12S 3634   6.697   3.174   4.282
    1PA    C111 3635   6.583   3.348   4.328
    1PA    H11R 3636   6.659   3.425   4.312
    1PA    H11S 3637   6.481   3.381   4.307
    1PA    C110 3638   6.575   3.311   4.477
    1PA    H10R 3639   6.513   3.224   4.498
    1PA    H10S 3640   6.677   3.293   4.511
    1PA     C19 3641   6.522   3.431   4.557
    1PA     H9R 3642   6.596   3.512   4.552
    1PA     H9S 3643   6.436   3.469   4.501
    1PA     C18 3644   6.491   3.402   4.704
    1PA     H8R 3645   6.429   3.472   4.761
    1PA     H8S 3646   6.433   3.310   4.714
    1PA     C17 3647   6.624   3.377   4.776
    1PA     H7R 3648   6.682   3.289   4.746
    1PA     H7S 3649   6.690   3.461   4.754
    1PA     C16 3650   6.598   3.369   4.927
    1PA     H6R 3651   6.500   3.326   4.946
    1PA     H6S 3652   6.679   3.306   4.967
    1PA     C15 3653   6.606   3.508   4.991
    1PA     H5R 3654   6.706   3.548   4.968
    1PA     H5S 3655   6.530   3.574   4.949
    1PA     C14 3656   6.577   3.504   5.141
    1PA     H4R 3657   6.479   3.459   5.160
    1PA     H4S 3658   6.654   3.448   5.195
    1PA     C13 3659   6.572   3.642   5.208
    1PA     H3R 3660   6.611   3.638   5.310
    1PA     H3S 3661   6.634   3.709   5.148
    1PA     C12 3662   6.427   3.691   5.220
    1PA     H2R 3663   6.432   3.794   5.255
    1PA     H2S 3664   6.398   3.696   5.115
    2PC     C11 3665   6.344   3.605   5.312
    2PC     O12 3666   6.380   3.516   5.387
    2PC     O11 3667   6.214   3.636   5.294
    2PC      C1 3668   6.110   3.595   5.384
    2PC      HR 3669   6.010   3.615   5.345
    2PC      HS 3670   6.122   3.489   5.412
    2PC      C2 3671   6.125   3.676   5.513
    2PC      HX 3672   6.224   3.672   5.559
    2PC      C3 3673   6.013   3.625   5.606
    2PC      HA 3674   5.918   3.674   5.587
    2PC      HB 3675   6.000   3.516   5.600
    2PC     O31 3676   6.059   3.658   5.738
    2PC     P31 3677   6.003   3.784   5.820
    2PC     O32 3678   6.030   3.705   5.958
    2PC     C31 3679   6.112   3.768   6.058
    2PC     H1A 3680   6.071   3.867   6.081
    2PC     H1B 3681   6.098   3.702   6.144
    2PC     C32 3682   6.259   3.778   6.014
    2PC     H2A 3683   6.266   3.842   5.926
    2PC     H2B 3684   6.319   3.832   6.087
    2PC     N31 3685   6.341   3.655   5.988
    2PC     C33 3686   6.338   3.582   6.119
    2PC     H3A 3687   6.432   3.531   6.138
    2PC     H3B 3688   6.328   3.660   6.194
    2PC     H3C 3689   6.253   3.514   6.129
    2PC     C34 3690   6.293   3.569   5.875
    2PC     H4A 3691   6.345   3.473   5.871
    2PC     H4B 3692   6.189   3.540   5.891
    2PC     H4C 3693   6.305   3.631   5.786
    2PC     C35 3694   6.482   3.697   5.958
    2PC     H5A 3695   6.480   3.745   5.860
    2PC     H5B 3696   6.549   3.612   5.944
    2PC     H5C 3697   6.521   3.766   6.033
    2PC     O33 3698   6.098   3.897   5.809
    2PC     O34 3699   5.863   3.830   5.808
    2PC     O21 3700   6.111   3.813   5.472
    2PC     C21 3701   6.003   3.868   5.416
    2PC     O22 3702   5.895   3.812   5.406
    3OL     C12 3703   6.034   3.997   5.344
    3OL     H2R 3704   6.032   4.090   5.401
    3OL     H2S 3705   5.966   4.004   5.259
    3OL     C13 3706   6.167   3.992   5.269
    3OL     H3R 3707   6.164   3.912   5.195
    3OL     H3S 3708   6.253   3.964   5.330
    3OL     C14 3709   6.215   4.117   5.193
    3OL     H4R 3710   6.207   4.197   5.268
    3OL     H4S 3711   6.151   4.147   5.110
    3OL     C15 3712   6.357   4.086   5.142
    3OL     H5R 3713   6.422   4.045   5.219
    3OL     H5S 3714   6.407   4.180   5.116
    3OL     C16 3715   6.365   4.003   5.013
    3OL     H6R 3716   6.325   4.068   4.936
    3OL     H6S 3717   6.309   3.911   5.028
    3OL     C17 3718   6.511   3.978   4.971
    3OL     H7R 3719   6.566   3.928   5.051
    3OL     H7S 3720   6.570   4.068   4.954
    3OL     C18 3721   6.508   3.900   4.839
    3OL     H8R 3722   6.473   3.967   4.761
    3OL     H8S 3723   6.435   3.819   4.851
    3OL     C19 3724   6.643   3.840   4.810
    3OL     H9R 3725   6.706   3.822   4.896
    3OL    C110 3726   6.697   3.831   4.689
    3OL    H10R 3727   6.799   3.793   4.682
    3OL    C111 3728   6.619   3.855   4.563
    3OL    H11R 3729   6.597   3.961   4.549
    3OL    H11S 3730   6.531   3.789   4.566
    3OL    C112 3731   6.702   3.821   4.438
    3OL    H12R 3732   6.764   3.732   4.449
    3OL    H12S 3733   6.771   3.901   4.412
    3OL    C113 3734   6.609   3.800   4.317
    3OL    H13R 3735   6.551   3.891   4.302
    3OL    H13S 3736   6.547   3.711   4.330
    3OL    C114 3737   6.699   3.796   4.194
    3OL    H14R 3738   6.775   3.719   4.210
    3OL    H14S 3739   6.750   3.892   4.179
    3OL    C115 3740   6.623   3.772   4.063
    3OL    H15R 3741   6.542   3.706   4.097
    3OL    H15S 3742   6.679   3.710   3.992
    3OL    C116 3743   6.572   3.898   3.992
    3OL    H16R 3744   6.507   3.945   4.066
    3OL    H16S 3745   6.502   3.868   3.913
    3OL    C117 3746   6.674   4.002   3.945
    3OL    H17R 3747   6.764   3.995   4.006
    3OL    H17S 3748   6.642   4.107   3.953
    3OL    C118 3749   6.714   3.983   3.798
    3OL    H18R 3750   6.620   3.978   3.742
    3OL    H18S 3751   6.756   3.885   3.774
    3OL    H18T 3752   6.781   4.063   3.765
    1PA    C116 3753   1.374   3.149   4.518
    1PA    H16R 3754   1.434   3.235   4.548
    1PA    H16S 3755   1.362   3.099   4.614
    1PA    H16T 3756   1.282   3.184   4.472
    1PA    C115 3757   1.452   3.052   4.426
    1PA    H15R 3758   1.407   2.953   4.427
    1PA    H15S 3759   1.458   3.093   4.325
    1PA    C114 3760   1.598   3.021   4.460
    1PA    H14R 3761   1.642   2.946   4.394
    1PA    H14S 3762   1.655   3.114   4.453
    1PA    C113 3763   1.623   2.974   4.604
    1PA    H13R 3764   1.730   2.956   4.614
    1PA    H13S 3765   1.587   3.038   4.684
    1PA    C112 3766   1.576   2.828   4.614
    1PA    H12R 3767   1.469   2.832   4.590
    1PA    H12S 3768   1.624   2.769   4.536
    1PA    C111 3769   1.580   2.774   4.758
    1PA    H11R 3770   1.677   2.778   4.807
    1PA    H11S 3771   1.518   2.837   4.822
    1PA    C110 3772   1.530   2.629   4.762
    1PA    H10R 3773   1.422   2.613   4.763
    1PA    H10S 3774   1.565   2.578   4.672
    1PA     C19 3775   1.576   2.557   4.889
    1PA     H9R 3776   1.558   2.450   4.888
    1PA     H9S 3777   1.685   2.555   4.900
    1PA     C18 3778   1.526   2.619   5.020
    1PA     H8R 3779   1.559   2.723   5.029
    1PA     H8S 3780   1.418   2.637   5.012
    1PA     C17 3781   1.572   2.537   5.141
    1PA     H7R 3782   1.536   2.436   5.118
    1PA     H7S 3783   1.681   2.530   5.150
    1PA     C16 3784   1.518   2.579   5.279
    1PA     H6R 3785   1.414   2.610   5.266
    1PA     H6S 3786   1.528   2.492   5.345
    1PA     C15 3787   1.601   2.689   5.346
    1PA     H5R 3788   1.594   2.691   5.455
    1PA     H5S 3789   1.707   2.673   5.327
    1PA     C14 3790   1.551   2.830   5.310
    1PA     H4R 3791   1.528   2.843   5.204
    1PA     H4S 3792   1.463   2.859   5.368
    1PA     C13 3793   1.652   2.938   5.351
    1PA     H3R 3794   1.742   2.885   5.319
    1PA     H3S 3795   1.638   3.029   5.293
    1PA     C12 3796   1.648   2.964   5.502
    1PA     H2R 3797   1.554   3.002   5.543
    1PA     H2S 3798   1.677   2.881   5.566
    2PC     C11 3799   1.753   3.062   5.547
    2PC     O12 3800   1.869   3.031   5.564
    2PC     O11 3801   1.702   3.185   5.565
    2PC      C1 3802   1.786   3.285   5.626
    2PC      HR 3803   1.833   3.248   5.718
    2PC      HS 3804   1.872   3.318   5.567
    2PC      C2 3805   1.692   3.402   5.659
    2PC      HX 3806   1.752   3.490   5.687
    2PC      C3 3807   1.594   3.369   5.773
    2PC      HA 3808   1.506   3.317   5.735
    2PC      HB 3809   1.640   3.307   5.850
    2PC     O31 3810   1.558   3.493   5.837
    2PC     P31 3811   1.498   3.486   5.985
    2PC     O32 3812   1.510   3.645   6.002
    2PC     C31 3813   1.554   3.700   6.128
    2PC     H1A 3814   1.513   3.800   6.144
    2PC     H1B 3815   1.521   3.636   6.210
    2PC     C32 3816   1.706   3.725   6.119
    2PC     H2A 3817   1.735   3.772   6.213
    2PC     H2B 3818   1.768   3.637   6.107
    2PC     N31 3819   1.760   3.815   6.012
    2PC     C33 3820   1.693   3.948   6.026
    2PC     H3A 3821   1.586   3.939   6.007
    2PC     H3B 3822   1.710   3.989   6.126
    2PC     H3C 3823   1.733   4.027   5.961
    2PC     C34 3824   1.905   3.822   6.050
    2PC     H4A 3825   1.949   3.886   5.972
    2PC     H4B 3826   1.902   3.870   6.148
    2PC     H4C 3827   1.958   3.727   6.048
    2PC     C35 3828   1.752   3.745   5.881
    2PC     H5A 3829   1.804   3.649   5.889
    2PC     H5B 3830   1.817   3.795   5.808
    2PC     H5C 3831   1.648   3.742   5.848
    2PC     O33 3832   1.358   3.437   5.987
    2PC     O34 3833   1.576   3.413   6.088
    2PC     O21 3834   1.602   3.428   5.550
    2PC     C21 3835   1.646   3.494   5.442
    2PC     O22 3836   1.764   3.513   5.419
    3OL     C12 3837   1.546   3.547   5.343
    3OL     H2R 3838   1.451   3.576   5.389
    3OL     H2S 3839   1.521   3.470   5.269
    3OL     C13 3840   1.591   3.677   5.274
    3OL     H3R 3841   1.676   3.661   5.207
    3OL     H3S 3842   1.626   3.746   5.350
    3OL     C14 3843   1.473   3.746   5.203
    3OL     H4R 3844   1.391   3.768   5.271
    3OL     H4S 3845   1.435   3.673   5.131
    3OL     C15 3846   1.524   3.871   5.130
    3OL     H5R 3847   1.582   3.828   5.047
    3OL     H5S 3848   1.604   3.916   5.190
    3OL     C16 3849   1.405   3.957   5.086
    3OL     H6R 3850   1.450   4.053   5.061
    3OL     H6S 3851   1.330   3.967   5.164
    3OL     C17 3852   1.329   3.905   4.963
    3OL     H7R 3853   1.282   3.814   4.999
    3OL     H7S 3854   1.402   3.885   4.883
    3OL     C18 3855   1.219   3.997   4.909
    3OL     H8R 3856   1.247   4.098   4.880
    3OL     H8S 3857   1.140   4.010   4.983
    3OL     C19 3858   1.163   3.931   4.785
    3OL     H9R 3859   1.210   3.958   4.690
    3OL    C110 3860   1.056   3.853   4.787
    3OL    H10R 3861   1.024   3.814   4.691
    3OL    C111 3862   0.975   3.799   4.901
    3OL    H11R 3863   0.869   3.828   4.900
    3OL    H11S 3864   1.004   3.842   4.997
    3OL    C112 3865   0.979   3.646   4.908
    3OL    H12R 3866   0.960   3.609   4.807
    3OL    H12S 3867   0.902   3.604   4.974
    3OL    C113 3868   1.116   3.584   4.939
    3OL    H13R 3869   1.154   3.618   5.035
    3OL    H13S 3870   1.188   3.618   4.864
    3OL    C114 3871   1.099   3.432   4.927
    3OL    H14R 3872   1.038   3.409   4.840
    3OL    H14S 3873   1.044   3.396   5.014
    3OL    C115 3874   1.226   3.346   4.913
    3OL    H15R 3875   1.294   3.381   4.835
    3OL    H15S 3876   1.204   3.242   4.892
    3OL    C116 3877   1.303   3.337   5.045
    3OL    H16R 3878   1.229   3.307   5.119
    3OL    H16S 3879   1.341   3.439   5.058
    3OL    C117 3880   1.417   3.234   5.040
    3OL    H17R 3881   1.477   3.248   5.130
    3OL    H17S 3882   1.477   3.247   4.950
    3OL    C118 3883   1.359   3.092   5.038
    3OL    H18R 3884   1.309   3.072   4.943
    3OL    H18S 3885   1.295   3.070   5.124
    3OL    H18T 3886   1.436   3.015   5.039
    1PA    C116 3887   6.727   0.707   4.056
    1PA    H16R 3888   6.766   0.794   4.107
    1PA    H16S 3889   6.637   0.736   4.000
    1PA    H16T 3890   6.799   0.667   3.985
    1PA    C115 3891   6.673   0.605   4.157
    1PA    H15R 3892   6.629   0.517   4.110
    1PA    H15S 3893   6.762   0.576   4.215
    1PA    C114 3894   6.569   0.667   4.251
    1PA    H14R 3895   6.494   0.715   4.187
    1PA    H14S 3896   6.517   0.588   4.305
    1PA    C113 3897   6.627   0.767   4.352
    1PA    H13R 3898   6.686   0.715   4.429
    1PA    H13S 3899   6.693   0.830   4.293
    1PA    C112 3900   6.523   0.857   4.419
    1PA    H12R 3901   6.474   0.913   4.340
    1PA    H12S 3902   6.441   0.818   4.479
    1PA    C111 3903   6.587   0.953   4.520
    1PA    H11R 3904   6.654   0.913   4.597
    1PA    H11S 3905   6.660   1.015   4.467
    1PA    C110 3906   6.490   1.052   4.587
    1PA    H10R 3907   6.528   1.154   4.589
    1PA    H10S 3908   6.399   1.063   4.528
    1PA     C19 3909   6.457   1.008   4.730
    1PA     H9R 3910   6.417   0.907   4.742
    1PA     H9S 3911   6.552   1.021   4.782
    1PA     C18 3912   6.357   1.103   4.799
    1PA     H8R 3913   6.399   1.203   4.803
    1PA     H8S 3914   6.267   1.108   4.738
    1PA     C17 3915   6.333   1.051   4.941
    1PA     H7R 3916   6.250   1.113   4.978
    1PA     H7S 3917   6.295   0.949   4.941
    1PA     C16 3918   6.455   1.068   5.033
    1PA     H6R 3919   6.526   0.989   5.008
    1PA     H6S 3920   6.507   1.164   5.023
    1PA     C15 3921   6.405   1.054   5.177
    1PA     H5R 3922   6.345   1.144   5.193
    1PA     H5S 3923   6.344   0.964   5.187
    1PA     C14 3924   6.523   1.060   5.275
    1PA     H4R 3925   6.579   0.974   5.239
    1PA     H4S 3926   6.581   1.152   5.264
    1PA     C13 3927   6.491   1.041   5.424
    1PA     H3R 3928   6.416   0.963   5.438
    1PA     H3S 3929   6.579   0.991   5.465
    1PA     C12 3930   6.479   1.165   5.514
    1PA     H2R 3931   6.571   1.222   5.515
    1PA     H2S 3932   6.392   1.222   5.480
    2PC     C11 3933   6.427   1.143   5.654
    2PC     O12 3934   6.459   1.199   5.757
    2PC     O11 3935   6.332   1.048   5.656
    2PC      C1 3936   6.243   1.031   5.768
    2PC      HR 3937   6.203   0.929   5.771
    2PC      HS 3938   6.300   1.047   5.860
    2PC      C2 3939   6.135   1.139   5.758
    2PC      HX 3940   6.197   1.229   5.759
    2PC      C3 3941   6.041   1.136   5.879
    2PC      HA 3942   5.986   1.042   5.874
    2PC      HB 3943   6.100   1.145   5.971
    2PC     O31 3944   5.949   1.246   5.870
    2PC     P31 3945   5.852   1.283   5.993
    2PC     O32 3946   5.790   1.421   5.940
    2PC     C31 3947   5.763   1.528   6.032
    2PC     H1A 3948   5.708   1.488   6.118
    2PC     H1B 3949   5.864   1.557   6.063
    2PC     C32 3950   5.689   1.645   5.966
    2PC     H2A 3951   5.674   1.721   6.043
    2PC     H2B 3952   5.755   1.680   5.887
    2PC     N31 3953   5.551   1.625   5.911
    2PC     C33 3954   5.553   1.512   5.812
    2PC     H3A 3955   5.449   1.485   5.793
    2PC     H3B 3956   5.603   1.545   5.721
    2PC     H3C 3957   5.609   1.426   5.846
    2PC     C34 3958   5.463   1.580   6.023
    2PC     H4A 3959   5.508   1.487   6.058
    2PC     H4B 3960   5.464   1.660   6.098
    2PC     H4C 3961   5.360   1.558   5.993
    2PC     C35 3962   5.505   1.756   5.857
    2PC     H5A 3963   5.467   1.805   5.947
    2PC     H5B 3964   5.430   1.738   5.780
    2PC     H5C 3965   5.590   1.808   5.812
    2PC     O33 3966   5.747   1.190   6.041
    2PC     O34 3967   5.932   1.313   6.114
    2PC     O21 3968   6.067   1.132   5.631
    2PC     C21 3969   6.005   1.030   5.571
    2PC     O22 3970   6.006   0.922   5.626
    3OL     C12 3971   5.967   1.051   5.427
    3OL     H2R 3972   5.868   1.098   5.421
    3OL     H2S 3973   5.948   0.961   5.369
    3OL     C13 3974   6.074   1.128   5.348
    3OL     H3R 3975   6.162   1.063   5.348
    3OL     H3S 3976   6.117   1.206   5.413
    3OL     C14 3977   6.025   1.177   5.212
    3OL     H4R 3978   6.111   1.206   5.151
    3OL     H4S 3979   5.952   1.258   5.225
    3OL     C15 3980   5.961   1.064   5.129
    3OL     H5R 3981   5.865   1.035   5.172
    3OL     H5S 3982   6.036   0.986   5.140
    3OL     C16 3983   5.946   1.116   4.985
    3OL     H6R 3984   6.038   1.155   4.940
    3OL     H6S 3985   5.880   1.203   4.990
    3OL     C17 3986   5.893   0.999   4.901
    3OL     H7R 3987   5.802   0.961   4.948
    3OL     H7S 3988   5.970   0.922   4.897
    3OL     C18 3989   5.860   1.046   4.758
    3OL     H8R 3990   5.952   1.103   4.746
    3OL     H8S 3991   5.778   1.118   4.751
    3OL     C19 3992   5.851   0.931   4.660
    3OL     H9R 3993   5.757   0.877   4.674
    3OL    C110 3994   5.935   0.895   4.565
    3OL    H10R 3995   5.901   0.806   4.513
    3OL    C111 3996   6.055   0.971   4.514
    3OL    H11R 3997   6.146   0.916   4.538
    3OL    H11S 3998   6.081   1.063   4.567
    3OL    C112 3999   6.057   0.993   4.362
    3OL    H12R 4000   5.964   1.047   4.344
    3OL    H12S 4001   6.056   0.894   4.317
    3OL    C113 4002   6.182   1.065   4.310
    3OL    H13R 4003   6.275   1.027   4.353
    3OL    H13S 4004   6.172   1.167   4.349
    3OL    C114 4005   6.193   1.064   4.157
    3OL    H14R 4006   6.205   0.958   4.133
    3OL    H14S 4007   6.285   1.113   4.124
    3OL    C115 4008   6.068   1.112   4.083
    3OL    H15R 4009   5.978   1.058   4.114
    3OL    H15S 4010   6.072   1.070   3.982
    3OL    C116 4011   6.047   1.263   4.097
    3OL    H16R 4012   6.134   1.322   4.127
    3OL    H16S 4013   5.979   1.267   4.182
    3OL    C117 4014   5.985   1.330   3.974
    3OL    H17R 4015   6.064   1.332   3.897
    3OL    H17S 4016   5.957   1.434   3.990
    3OL    C118 4017   5.863   1.258   3.915
    3OL    H18R 4018   5.839   1.297   3.816
    3OL    H18S 4019   5.784   1.268   3.991
    3OL    H18T 4020   5.883   1.152   3.902
    1PA    C116 4021   0.636   4.173   3.356
    1PA    H16R 4022   0.687   4.263   3.322
    1PA    H16S 4023   0.536   4.165   3.314
    1PA    H16T 4024   0.692   4.084   3.327
    1PA    C115 4025   0.629   4.173   3.510
    1PA    H15R 4026   0.564   4.258   3.535
    1PA    H15S 4027   0.569   4.088   3.542
    1PA    C114 4028   0.768   4.196   3.571
    1PA    H14R 4029   0.824   4.107   3.541
    1PA    H14S 4030   0.811   4.288   3.532
    1PA    C113 4031   0.760   4.188   3.724
    1PA    H13R 4032   0.730   4.284   3.765
    1PA    H13S 4033   0.694   4.106   3.753
    1PA    C112 4034   0.906   4.163   3.764
    1PA    H12R 4035   0.930   4.066   3.719
    1PA    H12S 4036   0.970   4.243   3.726
    1PA    C111 4037   0.918   4.148   3.916
    1PA    H11R 4038   0.860   4.223   3.970
    1PA    H11S 4039   0.873   4.052   3.942
    1PA    C110 4040   1.065   4.151   3.960
    1PA    H10R 4041   1.115   4.078   3.896
    1PA    H10S 4042   1.107   4.249   3.939
    1PA     C19 4043   1.081   4.124   4.110
    1PA     H9R 4044   1.065   4.019   4.135
    1PA     H9S 4045   1.188   4.133   4.128
    1PA     C18 4046   1.007   4.225   4.199
    1PA     H8R 4047   1.021   4.330   4.172
    1PA     H8S 4048   0.900   4.209   4.182
    1PA     C17 4049   1.049   4.195   4.344
    1PA     H7R 4050   1.028   4.091   4.371
    1PA     H7S 4051   1.155   4.216   4.359
    1PA     C16 4052   0.977   4.287   4.444
    1PA     H6R 4053   0.978   4.395   4.426
    1PA     H6S 4054   0.873   4.267   4.472
    1PA     C15 4055   1.052   4.268   4.576
    1PA     H5R 4056   1.045   4.165   4.610
    1PA     H5S 4057   1.159   4.286   4.564
    1PA     C14 4058   1.009   4.369   4.683
    1PA     H4R 4059   1.037   4.470   4.654
    1PA     H4S 4060   0.902   4.371   4.709
    1PA     C13 4061   1.079   4.327   4.813
    1PA     H3R 4062   1.051   4.228   4.849
    1PA     H3S 4063   1.183   4.326   4.782
    1PA     C12 4064   1.055   4.435   4.920
    1PA     H2R 4065   1.099   4.532   4.896
    1PA     H2S 4066   0.947   4.451   4.931
    2PC     C11 4067   1.110   4.390   5.053
    2PC     O12 4068   1.074   4.290   5.111
    2PC     O11 4069   1.207   4.473   5.095
    2PC      C1 4070   1.259   4.456   5.228
    2PC      HR 4071   1.280   4.547   5.285
    2PC      HS 4072   1.184   4.405   5.289
    2PC      C2 4073   1.386   4.370   5.221
    2PC      HX 4074   1.375   4.297   5.140
    2PC      C3 4075   1.420   4.310   5.358
    2PC      HA 4076   1.464   4.378   5.432
    2PC      HB 4077   1.328   4.277   5.406
    2PC     O31 4078   1.510   4.199   5.345
    2PC     P31 4079   1.574   4.130   5.475
    2PC     O32 4080   1.441   4.105   5.560
    2PC     C31 4081   1.341   4.014   5.510
    2PC     H1A 4082   1.244   4.061   5.531
    2PC     H1B 4083   1.354   3.994   5.404
    2PC     C32 4084   1.350   3.875   5.575
    2PC     H2A 4085   1.281   3.809   5.523
    2PC     H2B 4086   1.455   3.845   5.575
    2PC     N31 4087   1.312   3.864   5.720
    2PC     C33 4088   1.431   3.904   5.802
    2PC     H3A 4089   1.396   3.909   5.905
    2PC     H3B 4090   1.503   3.821   5.803
    2PC     H3C 4091   1.476   3.998   5.771
    2PC     C34 4092   1.203   3.956   5.765
    2PC     H4A 4093   1.201   3.968   5.873
    2PC     H4B 4094   1.227   4.052   5.718
    2PC     H4C 4095   1.103   3.943   5.723
    2PC     C35 4096   1.268   3.727   5.761
    2PC     H5A 4097   1.248   3.707   5.866
    2PC     H5B 4098   1.340   3.657   5.718
    2PC     H5C 4099   1.182   3.709   5.696
    2PC     O33 4100   1.650   4.005   5.455
    2PC     O34 4101   1.655   4.229   5.550
    2PC     O21 4102   1.498   4.458   5.198
    2PC     C21 4103   1.562   4.453   5.081
    2PC     O22 4104   1.565   4.357   5.007
    3OL     C12 4105   1.623   4.587   5.045
    3OL     H2R 4106   1.726   4.592   5.081
    3OL     H2S 4107   1.558   4.659   5.095
    3OL     C13 4108   1.621   4.620   4.895
    3OL     H3R 4109   1.520   4.601   4.858
    3OL     H3S 4110   1.686   4.552   4.840
    3OL     C14 4111   1.658   4.768   4.874
    3OL     H4R 4112   1.757   4.793   4.913
    3OL     H4S 4113   1.586   4.825   4.932
    3OL     C15 4114   1.651   4.811   4.726
    3OL     H5R 4115   1.650   4.919   4.711
    3OL     H5S 4116   1.556   4.784   4.679
    3OL     C16 4117   1.774   4.765   4.648
    3OL     H6R 4118   1.796   4.658   4.659
    3OL     H6S 4119   1.861   4.822   4.683
    3OL     C17 4120   1.762   4.793   4.498
    3OL     H7R 4121   1.762   4.900   4.474
    3OL     H7S 4122   1.668   4.755   4.457
    3OL     C18 4123   1.878   4.739   4.413
    3OL     H8R 4124   1.906   4.634   4.420
    3OL     H8S 4125   1.964   4.792   4.453
    3OL     C19 4126   1.866   4.778   4.268
    3OL     H9R 4127   1.831   4.880   4.254
    3OL    C110 4128   1.876   4.693   4.167
    3OL    H10R 4129   1.852   4.735   4.070
    3OL    C111 4130   1.933   4.553   4.165
    3OL    H11R 4131   1.861   4.471   4.166
    3OL    H11S 4132   2.001   4.544   4.250
    3OL    C112 4133   2.022   4.532   4.042
    3OL    H12R 4134   2.076   4.437   4.049
    3OL    H12S 4135   2.092   4.614   4.023
    3OL    C113 4136   1.930   4.521   3.919
    3OL    H13R 4137   1.892   4.620   3.891
    3OL    H13S 4138   1.843   4.461   3.944
    3OL    C114 4139   1.996   4.457   3.797
    3OL    H14R 4140   2.011   4.351   3.818
    3OL    H14S 4141   2.088   4.513   3.787
    3OL    C115 4142   1.914   4.458   3.667
    3OL    H15R 4143   1.877   4.557   3.638
    3OL    H15S 4144   1.823   4.403   3.691
    3OL    C116 4145   1.982   4.373   3.559
    3OL    H16R 4146   1.941   4.272   3.565
    3OL    H16S 4147   2.090   4.383   3.570
    3OL    C117 4148   1.941   4.428   3.422
    3OL    H17R 4149   1.967   4.351   3.349
    3OL    H17S 4150   1.999   4.516   3.393
    3OL    C118 4151   1.790   4.449   3.397
    3OL    H18R 4152   1.739   4.352   3.396
    3OL    H18S 4153   1.754   4.502   3.309
    3OL    H18T 4154   1.752   4.509   3.480
    1PA    C116 4155   2.842   1.631   3.998
    1PA    H16R 4156   2.818   1.593   3.898
    1PA    H16S 4157   2.764   1.704   4.021
    1PA    H16T 4158   2.839   1.544   4.063
    1PA    C115 4159   2.983   1.690   4.010
    1PA    H15R 4160   3.013   1.751   3.924
    1PA    H15S 4161   2.986   1.761   4.093
    1PA    C114 4162   3.083   1.574   4.022
    1PA    H14R 4163   3.063   1.529   4.120
    1PA    H14S 4164   3.062   1.498   3.946
    1PA    C113 4165   3.230   1.615   4.015
    1PA    H13R 4166   3.289   1.525   3.996
    1PA    H13S 4167   3.247   1.684   3.931
    1PA    C112 4168   3.282   1.677   4.145
    1PA    H12R 4169   3.237   1.775   4.161
    1PA    H12S 4170   3.255   1.620   4.234
    1PA    C111 4171   3.432   1.706   4.131
    1PA    H11R 4172   3.481   1.608   4.120
    1PA    H11S 4173   3.455   1.759   4.039
    1PA    C110 4174   3.482   1.776   4.258
    1PA    H10R 4175   3.433   1.874   4.257
    1PA    H10S 4176   3.447   1.725   4.348
    1PA     C19 4177   3.635   1.777   4.251
    1PA     H9R 4178   3.663   1.784   4.145
    1PA     H9S 4179   3.678   1.866   4.298
    1PA     C18 4180   3.693   1.651   4.315
    1PA     H8R 4181   3.639   1.564   4.279
    1PA     H8S 4182   3.794   1.637   4.276
    1PA     C17 4183   3.700   1.666   4.468
    1PA     H7R 4184   3.764   1.748   4.501
    1PA     H7S 4185   3.598   1.685   4.502
    1PA     C16 4186   3.752   1.535   4.528
    1PA     H6R 4187   3.687   1.455   4.492
    1PA     H6S 4188   3.850   1.501   4.493
    1PA     C15 4189   3.760   1.535   4.681
    1PA     H5R 4190   3.824   1.613   4.721
    1PA     H5S 4191   3.659   1.566   4.710
    1PA     C14 4192   3.812   1.400   4.732
    1PA     H4R 4193   3.750   1.319   4.693
    1PA     H4S 4194   3.914   1.391   4.694
    1PA     C13 4195   3.810   1.406   4.886
    1PA     H3R 4196   3.852   1.502   4.917
    1PA     H3S 4197   3.705   1.408   4.915
    1PA     C12 4198   3.892   1.289   4.941
    1PA     H2R 4199   3.833   1.201   4.915
    1PA     H2S 4200   3.997   1.298   4.910
    2PC     C11 4201   3.878   1.272   5.090
    2PC     O12 4202   3.963   1.319   5.163
    2PC     O11 4203   3.773   1.199   5.131
    2PC      C1 4204   3.750   1.193   5.273
    2PC      HR 4205   3.836   1.143   5.317
    2PC      HS 4206   3.724   1.287   5.321
    2PC      C2 4207   3.626   1.102   5.285
    2PC      HX 4208   3.542   1.156   5.241
    2PC      C3 4209   3.595   1.076   5.433
    2PC      HA 4210   3.569   1.176   5.470
    2PC      HB 4211   3.500   1.023   5.441
    2PC     O31 4212   3.702   1.029   5.516
    2PC     P31 4213   3.680   1.034   5.674
    2PC     O32 4214   3.796   1.142   5.699
    2PC     C31 4215   3.896   1.114   5.800
    2PC     H1A 4216   3.854   1.097   5.899
    2PC     H1B 4217   3.948   1.024   5.767
    2PC     C32 4218   3.990   1.233   5.820
    2PC     H2A 4219   3.929   1.318   5.850
    2PC     H2B 4220   4.052   1.224   5.910
    2PC     N31 4221   4.092   1.257   5.712
    2PC     C33 4222   4.177   1.373   5.756
    2PC     H3A 4223   4.228   1.342   5.847
    2PC     H3B 4224   4.232   1.407   5.669
    2PC     H3C 4225   4.111   1.454   5.788
    2PC     C34 4226   4.166   1.129   5.687
    2PC     H4A 4227   4.241   1.163   5.614
    2PC     H4B 4228   4.212   1.089   5.777
    2PC     H4C 4229   4.100   1.054   5.643
    2PC     C35 4230   4.023   1.291   5.584
    2PC     H5A 4231   3.940   1.221   5.573
    2PC     H5B 4232   4.092   1.272   5.503
    2PC     H5C 4233   3.989   1.395   5.580
    2PC     O33 4234   3.544   1.077   5.713
    2PC     O34 4235   3.687   0.905   5.746
    2PC     O21 4236   3.639   0.970   5.228
    2PC     C21 4237   3.529   0.920   5.169
    2PC     O22 4238   3.419   0.969   5.179
    3OL     C12 4239   3.567   0.788   5.106
    3OL     H2R 4240   3.636   0.725   5.162
    3OL     H2S 4241   3.628   0.824   5.023
    3OL     C13 4242   3.452   0.713   5.038
    3OL     H3R 4243   3.393   0.789   4.985
    3OL     H3S 4244   3.391   0.663   5.113
    3OL     C14 4245   3.507   0.609   4.939
    3OL     H4R 4246   3.573   0.540   4.991
    3OL     H4S 4247   3.564   0.651   4.856
    3OL     C15 4248   3.390   0.529   4.881
    3OL     H5R 4249   3.327   0.600   4.825
    3OL     H5S 4250   3.321   0.498   4.959
    3OL     C16 4251   3.428   0.414   4.786
    3OL     H6R 4252   3.355   0.333   4.794
    3OL     H6S 4253   3.530   0.386   4.814
    3OL     C17 4254   3.429   0.465   4.642
    3OL     H7R 4255   3.488   0.395   4.583
    3OL     H7S 4256   3.473   0.565   4.638
    3OL     C18 4257   3.288   0.480   4.582
    3OL     H8R 4258   3.226   0.559   4.625
    3OL     H8S 4259   3.228   0.392   4.605
    3OL     C19 4260   3.295   0.500   4.432
    3OL     H9R 4261   3.376   0.445   4.385
    3OL    C110 4262   3.217   0.580   4.362
    3OL    H10R 4263   3.230   0.574   4.254
    3OL    C111 4264   3.098   0.652   4.420
    3OL    H11R 4265   3.043   0.593   4.493
    3OL    H11S 4266   3.040   0.671   4.329
    3OL    C112 4267   3.152   0.779   4.487
    3OL    H12R 4268   3.201   0.835   4.407
    3OL    H12S 4269   3.226   0.765   4.566
    3OL    C113 4270   3.051   0.878   4.548
    3OL    H13R 4271   2.982   0.913   4.471
    3OL    H13S 4272   3.106   0.966   4.580
    3OL    C114 4273   2.986   0.804   4.666
    3OL    H14R 4274   3.058   0.806   4.747
    3OL    H14S 4275   2.959   0.700   4.646
    3OL    C115 4276   2.854   0.865   4.717
    3OL    H15R 4277   2.837   0.829   4.819
    3OL    H15S 4278   2.767   0.831   4.660
    3OL    C116 4279   2.844   1.018   4.713
    3OL    H16R 4280   2.743   1.053   4.737
    3OL    H16S 4281   2.876   1.051   4.614
    3OL    C117 4282   2.933   1.090   4.814
    3OL    H17R 4283   2.936   1.190   4.772
    3OL    H17S 4284   3.036   1.054   4.811
    3OL    C118 4285   2.888   1.097   4.961
    3OL    H18R 4286   2.963   1.128   5.034
    3OL    H18S 4287   2.851   0.995   4.977
    3OL    H18T 4288   2.805   1.167   4.958
    1PA    C116 4289   6.035   0.374   3.657
    1PA    H16R 4290   6.093   0.304   3.717
    1PA    H16S 4291   6.098   0.453   3.616
    1PA    H16T 4292   5.988   0.322   3.573
    1PA    C115 4293   5.925   0.443   3.740
    1PA    H15R 4294   5.988   0.506   3.802
    1PA    H15S 4295   5.873   0.518   3.680
    1PA    C114 4296   5.837   0.354   3.828
    1PA    H14R 4297   5.732   0.381   3.840
    1PA    H14S 4298   5.844   0.255   3.782
    1PA    C113 4299   5.884   0.350   3.974
    1PA    H13R 4300   5.910   0.453   4.000
    1PA    H13S 4301   5.800   0.330   4.040
    1PA    C112 4302   6.007   0.266   4.010
    1PA    H12R 4303   6.005   0.168   3.961
    1PA    H12S 4304   6.102   0.314   3.987
    1PA    C111 4305   6.015   0.243   4.161
    1PA    H11R 4306   6.023   0.333   4.222
    1PA    H11S 4307   5.920   0.198   4.193
    1PA    C110 4308   6.136   0.154   4.192
    1PA    H10R 4309   6.128   0.057   4.144
    1PA    H10S 4310   6.226   0.201   4.151
    1PA     C19 4311   6.158   0.139   4.343
    1PA     H9R 4312   6.262   0.108   4.353
    1PA     H9S 4313   6.139   0.238   4.386
    1PA     C18 4314   6.067   0.031   4.404
    1PA     H8R 4315   5.964   0.051   4.374
    1PA     H8S 4316   6.089  -0.074   4.380
    1PA     C17 4317   6.063   0.053   4.556
    1PA     H7R 4318   6.168   0.053   4.588
    1PA     H7S 4319   6.024   0.151   4.582
    1PA     C16 4320   5.983  -0.049   4.639
    1PA     H6R 4321   5.877  -0.025   4.644
    1PA     H6S 4322   5.998  -0.148   4.595
    1PA     C15 4323   6.034  -0.036   4.783
    1PA     H5R 4324   5.986  -0.119   4.835
    1PA     H5S 4325   6.141  -0.057   4.785
    1PA     C14 4326   6.004   0.099   4.849
    1PA     H4R 4327   6.046   0.184   4.795
    1PA     H4S 4328   5.895   0.113   4.852
    1PA     C13 4329   6.054   0.101   4.994
    1PA     H3R 4330   6.009   0.019   5.051
    1PA     H3S 4331   6.162   0.084   4.989
    1PA     C12 4332   6.021   0.237   5.056
    1PA     H2R 4333   6.056   0.321   4.996
    1PA     H2S 4334   5.916   0.248   5.082
    2PC     C11 4335   6.104   0.242   5.182
    2PC     O12 4336   6.057   0.209   5.289
    2PC     O11 4337   6.227   0.294   5.170
    2PC      C1 4338   6.323   0.255   5.269
    2PC      HR 4339   6.408   0.323   5.254
    2PC      HS 4340   6.283   0.265   5.371
    2PC      C2 4341   6.368   0.111   5.238
    2PC      HX 4342   6.290   0.037   5.215
    2PC      C3 4343   6.455   0.056   5.351
    2PC      HA 4344   6.395   0.012   5.431
    2PC      HB 4345   6.523  -0.022   5.314
    2PC     O31 4346   6.531   0.163   5.409
    2PC     P31 4347   6.651   0.126   5.509
    2PC     O32 4348   6.749   0.045   5.413
    2PC     C31 4349   6.849   0.114   5.335
    2PC     H1A 4350   6.813   0.142   5.235
    2PC     H1B 4351   6.884   0.200   5.391
    2PC     C32 4352   6.963   0.012   5.320
    2PC     H2A 4353   6.936  -0.060   5.243
    2PC     H2B 4354   7.054   0.064   5.289
    2PC     N31 4355   7.020  -0.058   5.439
    2PC     C33 4356   6.934  -0.175   5.477
    2PC     H3A 4357   6.978  -0.252   5.539
    2PC     H3B 4358   6.838  -0.133   5.508
    2PC     H3C 4359   6.904  -0.213   5.379
    2PC     C34 4360   7.157  -0.113   5.413
    2PC     H4A 4361   7.156  -0.169   5.319
    2PC     H4B 4362   7.227  -0.030   5.411
    2PC     H4C 4363   7.187  -0.179   5.495
    2PC     C35 4364   7.044   0.032   5.557
    2PC     H5A 4365   6.941   0.045   5.589
    2PC     H5B 4366   7.097   0.121   5.521
    2PC     H5C 4367   7.106  -0.016   5.632
    2PC     O33 4368   6.710   0.242   5.579
    2PC     O34 4369   6.630   0.032   5.622
    2PC     O21 4370   6.439   0.125   5.114
    2PC     C21 4371   6.471   0.018   5.039
    2PC     O22 4372   6.448  -0.097   5.071
    3OL     C12 4373   6.510   0.048   4.897
    3OL     H2R 4374   6.418   0.056   4.840
    3OL     H2S 4375   6.570  -0.040   4.871
    3OL     C13 4376   6.589   0.180   4.888
    3OL     H3R 4377   6.662   0.176   4.969
    3OL     H3S 4378   6.517   0.262   4.896
    3OL     C14 4379   6.657   0.191   4.751
    3OL     H4R 4380   6.707   0.096   4.731
    3OL     H4S 4381   6.736   0.264   4.764
    3OL     C15 4382   6.559   0.224   4.637
    3OL     H5R 4383   6.517   0.324   4.655
    3OL     H5S 4384   6.471   0.159   4.637
    3OL     C16 4385   6.626   0.223   4.500
    3OL     H6R 4386   6.660   0.120   4.484
    3OL     H6S 4387   6.717   0.283   4.507
    3OL     C17 4388   6.543   0.280   4.385
    3OL     H7R 4389   6.505   0.376   4.421
    3OL     H7S 4390   6.450   0.224   4.371
    3OL     C18 4391   6.610   0.269   4.247
    3OL     H8R 4392   6.670   0.182   4.222
    3OL     H8S 4393   6.687   0.347   4.252
    3OL     C19 4394   6.528   0.291   4.122
    3OL     H9R 4395   6.445   0.360   4.133
    3OL    C110 4396   6.539   0.224   4.008
    3OL    H10R 4397   6.469   0.248   3.929
    3OL    C111 4398   6.636   0.114   3.972
    3OL    H11R 4399   6.719   0.114   4.043
    3OL    H11S 4400   6.668   0.124   3.869
    3OL    C112 4401   6.572  -0.025   3.983
    3OL    H12R 4402   6.623  -0.098   3.919
    3OL    H12S 4403   6.471  -0.027   3.942
    3OL    C113 4404   6.576  -0.073   4.129
    3OL    H13R 4405   6.529   0.000   4.196
    3OL    H13S 4406   6.677  -0.093   4.166
    3OL    C114 4407   6.503  -0.207   4.141
    3OL    H14R 4408   6.555  -0.283   4.083
    3OL    H14S 4409   6.404  -0.189   4.097
    3OL    C115 4410   6.480  -0.264   4.282
    3OL    H15R 4411   6.574  -0.297   4.326
    3OL    H15S 4412   6.413  -0.350   4.280
    3OL    C116 4413   6.421  -0.155   4.372
    3OL    H16R 4414   6.335  -0.108   4.325
    3OL    H16S 4415   6.502  -0.086   4.395
    3OL    C117 4416   6.376  -0.213   4.506
    3OL    H17R 4417   6.319  -0.304   4.490
    3OL    H17S 4418   6.321  -0.131   4.555
    3OL    C118 4419   6.489  -0.240   4.606
    3OL    H18R 4420   6.558  -0.156   4.617
    3OL    H18S 4421   6.553  -0.323   4.574
    3OL    H18T 4422   6.453  -0.272   4.704
    1PA    C116 4423   1.316   5.254   5.139
    1PA    H16R 4424   1.251   5.282   5.222
    1PA    H16S 4425   1.394   5.190   5.180
    1PA    H16T 4426   1.248   5.201   5.072
    1PA    C115 4427   1.383   5.371   5.065
    1PA    H15R 4428   1.309   5.441   5.027
    1PA    H15S 4429   1.432   5.430   5.143
    1PA    C114 4430   1.486   5.318   4.965
    1PA    H14R 4431   1.566   5.260   5.012
    1PA    H14S 4432   1.438   5.244   4.900
    1PA    C113 4433   1.546   5.434   4.884
    1PA    H13R 4434   1.592   5.510   4.947
    1PA    H13S 4435   1.630   5.383   4.836
    1PA    C112 4436   1.458   5.497   4.775
    1PA    H12R 4437   1.415   5.416   4.716
    1PA    H12S 4438   1.375   5.551   4.821
    1PA    C111 4439   1.544   5.580   4.679
    1PA    H11R 4440   1.639   5.528   4.668
    1PA    H11S 4441   1.497   5.591   4.581
    1PA    C110 4442   1.568   5.719   4.740
    1PA    H10R 4443   1.470   5.764   4.755
    1PA    H10S 4444   1.608   5.709   4.841
    1PA     C19 4445   1.641   5.816   4.646
    1PA     H9R 4446   1.742   5.777   4.632
    1PA     H9S 4447   1.597   5.824   4.546
    1PA     C18 4448   1.636   5.958   4.702
    1PA     H8R 4449   1.694   6.026   4.639
    1PA     H8S 4450   1.536   6.002   4.698
    1PA     C17 4451   1.703   5.966   4.840
    1PA     H7R 4452   1.676   5.885   4.908
    1PA     H7S 4453   1.808   5.964   4.810
    1PA     C16 4454   1.679   6.100   4.909
    1PA     H6R 4455   1.717   6.182   4.848
    1PA     H6S 4456   1.571   6.117   4.916
    1PA     C15 4457   1.739   6.119   5.049
    1PA     H5R 4458   1.680   6.201   5.089
    1PA     H5S 4459   1.720   6.038   5.120
    1PA     C14 4460   1.887   6.159   5.036
    1PA     H4R 4461   1.950   6.094   4.975
    1PA     H4S 4462   1.891   6.260   4.993
    1PA     C13 4463   1.951   6.160   5.175
    1PA     H3R 4464   1.927   6.062   5.216
    1PA     H3S 4465   2.059   6.170   5.158
    1PA     C12 4466   1.909   6.271   5.272
    1PA     H2R 4467   1.930   6.369   5.230
    1PA     H2S 4468   1.801   6.262   5.281
    2PC     C11 4469   1.983   6.258   5.403
    2PC     O12 4470   1.928   6.275   5.510
    2PC     O11 4471   2.115   6.234   5.402
    2PC      C1 4472   2.195   6.275   5.515
    2PC      HR 4473   2.184   6.376   5.556
    2PC      HS 4474   2.176   6.213   5.603
    2PC      C2 4475   2.342   6.280   5.472
    2PC      HX 4476   2.371   6.186   5.424
    2PC      C3 4477   2.434   6.323   5.586
    2PC      HA 4478   2.435   6.242   5.660
    2PC      HB 4479   2.539   6.338   5.557
    2PC     O31 4480   2.378   6.442   5.645
    2PC     P31 4481   2.450   6.519   5.765
    2PC     O32 4482   2.343   6.637   5.773
    2PC     C31 4483   2.215   6.626   5.840
    2PC     H1A 4484   2.134   6.679   5.790
    2PC     H1B 4485   2.181   6.523   5.836
    2PC     C32 4486   2.238   6.667   5.986
    2PC     H2A 4487   2.149   6.639   6.042
    2PC     H2B 4488   2.309   6.597   6.030
    2PC     N31 4489   2.282   6.806   6.019
    2PC     C33 4490   2.432   6.811   6.017
    2PC     H3A 4491   2.466   6.891   6.083
    2PC     H3B 4492   2.474   6.718   6.054
    2PC     H3C 4493   2.463   6.829   5.914
    2PC     C34 4494   2.219   6.905   5.925
    2PC     H4A 4495   2.224   7.003   5.973
    2PC     H4B 4496   2.272   6.915   5.830
    2PC     H4C 4497   2.116   6.869   5.917
    2PC     C35 4498   2.218   6.827   6.153
    2PC     H5A 4499   2.110   6.815   6.151
    2PC     H5B 4500   2.249   6.929   6.179
    2PC     H5C 4501   2.256   6.754   6.224
    2PC     O33 4502   2.453   6.455   5.899
    2PC     O34 4503   2.590   6.569   5.761
    2PC     O21 4504   2.361   6.374   5.365
    2PC     C21 4505   2.475   6.365   5.294
    2PC     O22 4506   2.559   6.278   5.305
    3OL     C12 4507   2.484   6.476   5.192
    3OL     H2R 4508   2.507   6.574   5.234
    3OL     H2S 4509   2.391   6.484   5.134
    3OL     C13 4510   2.586   6.447   5.081
    3OL     H3R 4511   2.567   6.352   5.032
    3OL     H3S 4512   2.686   6.438   5.124
    3OL     C14 4513   2.597   6.560   4.978
    3OL     H4R 4514   2.654   6.528   4.891
    3OL     H4S 4515   2.648   6.644   5.025
    3OL     C15 4516   2.460   6.603   4.922
    3OL     H5R 4517   2.411   6.656   5.005
    3OL     H5S 4518   2.402   6.513   4.899
    3OL     C16 4519   2.462   6.708   4.811
    3OL     H6R 4520   2.541   6.687   4.738
    3OL     H6S 4521   2.482   6.803   4.862
    3OL     C17 4522   2.324   6.732   4.748
    3OL     H7R 4523   2.259   6.767   4.828
    3OL     H7S 4524   2.285   6.638   4.709
    3OL     C18 4525   2.329   6.838   4.638
    3OL     H8R 4526   2.378   6.929   4.675
    3OL     H8S 4527   2.227   6.867   4.611
    3OL     C19 4528   2.401   6.789   4.514
    3OL     H9R 4529   2.332   6.732   4.453
    3OL    C110 4530   2.525   6.803   4.470
    3OL    H10R 4531   2.544   6.750   4.378
    3OL    C111 4532   2.649   6.864   4.531
    3OL    H11R 4533   2.614   6.915   4.621
    3OL    H11S 4534   2.689   6.942   4.466
    3OL    C112 4535   2.767   6.772   4.562
    3OL    H12R 4536   2.820   6.760   4.467
    3OL    H12S 4537   2.724   6.676   4.592
    3OL    C113 4538   2.862   6.830   4.668
    3OL    H13R 4539   2.846   6.937   4.683
    3OL    H13S 4540   2.962   6.817   4.626
    3OL    C114 4541   2.842   6.763   4.805
    3OL    H14R 4542   2.858   6.656   4.788
    3OL    H14S 4543   2.736   6.770   4.830
    3OL    C115 4544   2.932   6.817   4.917
    3OL    H15R 4545   3.038   6.802   4.892
    3OL    H15S 4546   2.906   6.764   5.008
    3OL    C116 4547   2.911   6.969   4.929
    3OL    H16R 4548   2.805   6.993   4.943
    3OL    H16S 4549   2.942   7.024   4.840
    3OL    C117 4550   2.993   7.025   5.046
    3OL    H17R 4551   3.090   6.975   5.056
    3OL    H17S 4552   2.935   6.998   5.135
    3OL    C118 4553   3.011   7.177   5.058
    3OL    H18R 4554   3.068   7.198   5.149
    3OL    H18S 4555   2.915   7.229   5.053
    3OL    H18T 4556   3.070   7.210   4.972
    1PA    C116 4557   3.118   6.077   3.730
    1PA    H16R 4558   3.225   6.054   3.724
    1PA    H16S 4559   3.099   6.152   3.807
    1PA    H16T 4560   3.072   6.121   3.642
    1PA    C115 4561   3.044   5.951   3.777
    1PA    H15R 4562   3.084   5.923   3.874
    1PA    H15S 4563   2.937   5.973   3.779
    1PA    C114 4564   3.063   5.831   3.682
    1PA    H14R 4565   3.024   5.863   3.585
    1PA    H14S 4566   3.164   5.808   3.648
    1PA    C113 4567   2.994   5.702   3.728
    1PA    H13R 4568   2.906   5.716   3.792
    1PA    H13S 4569   2.964   5.650   3.636
    1PA    C112 4570   3.088   5.604   3.799
    1PA    H12R 4571   3.025   5.520   3.828
    1PA    H12S 4572   3.165   5.569   3.730
    1PA    C111 4573   3.140   5.655   3.934
    1PA    H11R 4574   3.210   5.736   3.910
    1PA    H11S 4575   3.058   5.681   4.001
    1PA    C110 4576   3.220   5.551   4.013
    1PA    H10R 4577   3.152   5.466   4.018
    1PA    H10S 4578   3.311   5.526   3.957
    1PA     C19 4579   3.254   5.609   4.151
    1PA     H9R 4580   3.318   5.696   4.141
    1PA     H9S 4581   3.166   5.640   4.208
    1PA     C18 4582   3.336   5.512   4.239
    1PA     H8R 4583   3.279   5.424   4.269
    1PA     H8S 4584   3.422   5.481   4.180
    1PA     C17 4585   3.382   5.574   4.372
    1PA     H7R 4586   3.460   5.649   4.364
    1PA     H7S 4587   3.295   5.617   4.422
    1PA     C16 4588   3.450   5.463   4.453
    1PA     H6R 4589   3.376   5.385   4.467
    1PA     H6S 4590   3.540   5.424   4.405
    1PA     C15 4591   3.480   5.509   4.597
    1PA     H5R 4592   3.537   5.602   4.598
    1PA     H5S 4593   3.392   5.537   4.655
    1PA     C14 4594   3.549   5.401   4.682
    1PA     H4R 4595   3.477   5.333   4.728
    1PA     H4S 4596   3.614   5.340   4.621
    1PA     C13 4597   3.640   5.455   4.794
    1PA     H3R 4598   3.688   5.379   4.855
    1PA     H3S 4599   3.716   5.512   4.740
    1PA     C12 4600   3.568   5.562   4.876
    1PA     H2R 4601   3.636   5.590   4.957
    1PA     H2S 4602   3.536   5.651   4.821
    2PC     C11 4603   3.448   5.508   4.950
    2PC     O12 4604   3.335   5.545   4.926
    2PC     O11 4605   3.481   5.414   5.040
    2PC      C1 4606   3.389   5.335   5.116
    2PC      HR 4607   3.313   5.289   5.052
    2PC      HS 4608   3.451   5.256   5.160
    2PC      C2 4609   3.335   5.416   5.235
    2PC      HX 4610   3.397   5.490   5.285
    2PC      C3 4611   3.291   5.315   5.342
    2PC      HA 4612   3.234   5.228   5.307
    2PC      HB 4613   3.380   5.281   5.397
    2PC     O31 4614   3.208   5.387   5.435
    2PC     P31 4615   3.134   5.306   5.552
    2PC     O32 4616   3.006   5.248   5.477
    2PC     C31 4617   2.880   5.316   5.494
    2PC     H1A 4618   2.890   5.424   5.484
    2PC     H1B 4619   2.815   5.297   5.408
    2PC     C32 4620   2.822   5.264   5.627
    2PC     H2A 4621   2.764   5.175   5.603
    2PC     H2B 4622   2.902   5.223   5.688
    2PC     N31 4623   2.733   5.345   5.715
    2PC     C33 4624   2.631   5.420   5.634
    2PC     H3A 4625   2.566   5.476   5.701
    2PC     H3B 4626   2.685   5.482   5.563
    2PC     H3C 4627   2.562   5.349   5.588
    2PC     C34 4628   2.675   5.260   5.824
    2PC     H4A 4629   2.754   5.207   5.877
    2PC     H4B 4630   2.619   5.324   5.892
    2PC     H4C 4631   2.611   5.187   5.774
    2PC     C35 4632   2.818   5.440   5.795
    2PC     H5A 4633   2.877   5.484   5.714
    2PC     H5B 4634   2.878   5.378   5.861
    2PC     H5C 4635   2.758   5.514   5.849
    2PC     O33 4636   3.215   5.193   5.602
    2PC     O34 4637   3.114   5.387   5.675
    2PC     O21 4638   3.218   5.482   5.184
    2PC     C21 4639   3.196   5.608   5.225
    2PC     O22 4640   3.275   5.678   5.286
    3OL     C12 4641   3.057   5.662   5.204
    3OL     H2R 4642   3.007   5.660   5.301
    3OL     H2S 4643   3.003   5.597   5.135
    3OL     C13 4644   3.067   5.803   5.144
    3OL     H3R 4645   3.124   5.789   5.052
    3OL     H3S 4646   3.141   5.866   5.193
    3OL     C14 4647   2.933   5.873   5.115
    3OL     H4R 4648   2.951   5.979   5.096
    3OL     H4S 4649   2.882   5.882   5.211
    3OL     C15 4650   2.851   5.805   5.005
    3OL     H5R 4651   2.811   5.712   5.046
    3OL     H5S 4652   2.912   5.786   4.916
    3OL     C16 4653   2.742   5.900   4.953
    3OL     H6R 4654   2.800   5.982   4.912
    3OL     H6S 4655   2.676   5.945   5.027
    3OL     C17 4656   2.661   5.847   4.834
    3OL     H7R 4657   2.725   5.826   4.748
    3OL     H7S 4658   2.590   5.924   4.802
    3OL     C18 4659   2.590   5.712   4.855
    3OL     H8R 4660   2.535   5.707   4.949
    3OL     H8S 4661   2.668   5.636   4.847
    3OL     C19 4662   2.489   5.706   4.744
    3OL     H9R 4663   2.456   5.807   4.720
    3OL    C110 4664   2.462   5.602   4.667
    3OL    H10R 4665   2.397   5.612   4.580
    3OL    C111 4666   2.499   5.458   4.696
    3OL    H11R 4667   2.410   5.411   4.737
    3OL    H11S 4668   2.577   5.452   4.773
    3OL    C112 4669   2.546   5.379   4.573
    3OL    H12R 4670   2.561   5.274   4.598
    3OL    H12S 4671   2.646   5.407   4.537
    3OL    C113 4672   2.442   5.382   4.461
    3OL    H13R 4673   2.449   5.475   4.404
    3OL    H13S 4674   2.341   5.369   4.501
    3OL    C114 4675   2.475   5.279   4.352
    3OL    H14R 4676   2.507   5.185   4.397
    3OL    H14S 4677   2.572   5.299   4.306
    3OL    C115 4678   2.360   5.262   4.251
    3OL    H15R 4679   2.343   5.352   4.192
    3OL    H15S 4680   2.264   5.231   4.293
    3OL    C116 4681   2.399   5.144   4.161
    3OL    H16R 4682   2.402   5.056   4.226
    3OL    H16S 4683   2.501   5.144   4.124
    3OL    C117 4684   2.306   5.135   4.039
    3OL    H17R 4685   2.206   5.163   4.073
    3OL    H17S 4686   2.307   5.029   4.011
    3OL    C118 4687   2.347   5.214   3.914
    3OL    H18R 4688   2.292   5.191   3.822
    3OL    H18S 4689   2.452   5.193   3.895
    3OL    H18T 4690   2.331   5.318   3.941
    1PA    C116 4691   5.096   2.231   4.083
    1PA    H16R 4692   5.094   2.286   3.989
    1PA    H16S 4693   5.025   2.282   4.148
    1PA    H16T 4694   5.058   2.129   4.077
    1PA    C115 4695   5.229   2.220   4.158
    1PA    H15R 4696   5.218   2.186   4.261
    1PA    H15S 4697   5.292   2.145   4.110
    1PA    C114 4698   5.293   2.360   4.148
    1PA    H14R 4699   5.310   2.383   4.043
    1PA    H14S 4700   5.225   2.432   4.194
    1PA    C113 4701   5.434   2.378   4.206
    1PA    H13R 4702   5.494   2.324   4.133
    1PA    H13S 4703   5.454   2.485   4.215
    1PA    C112 4704   5.457   2.313   4.344
    1PA    H12R 4705   5.443   2.205   4.350
    1PA    H12S 4706   5.560   2.325   4.378
    1PA    C111 4707   5.371   2.387   4.447
    1PA    H11R 4708   5.427   2.481   4.449
    1PA    H11S 4709   5.266   2.400   4.421
    1PA    C110 4710   5.382   2.318   4.584
    1PA    H10R 4711   5.337   2.219   4.571
    1PA    H10S 4712   5.486   2.294   4.607
    1PA     C19 4713   5.308   2.399   4.691
    1PA     H9R 4714   5.331   2.503   4.668
    1PA     H9S 4715   5.200   2.382   4.677
    1PA     C18 4716   5.344   2.363   4.835
    1PA     H8R 4717   5.452   2.351   4.850
    1PA     H8S 4718   5.308   2.448   4.893
    1PA     C17 4719   5.278   2.234   4.885
    1PA     H7R 4720   5.170   2.229   4.870
    1PA     H7S 4721   5.328   2.148   4.839
    1PA     C16 4722   5.297   2.217   5.037
    1PA     H6R 4723   5.280   2.312   5.088
    1PA     H6S 4724   5.220   2.144   5.062
    1PA     C15 4725   5.432   2.155   5.074
    1PA     H5R 4726   5.425   2.048   5.050
    1PA     H5S 4727   5.505   2.202   5.008
    1PA     C14 4728   5.472   2.161   5.222
    1PA     H4R 4729   5.563   2.107   5.247
    1PA     H4S 4730   5.502   2.261   5.252
    1PA     C13 4731   5.364   2.114   5.321
    1PA     H3R 4732   5.270   2.170   5.321
    1PA     H3S 4733   5.346   2.007   5.302
    1PA     C12 4734   5.431   2.098   5.458
    1PA     H2R 4735   5.519   2.032   5.449
    1PA     H2S 4736   5.461   2.198   5.490
    2PC     C11 4737   5.323   2.061   5.556
    2PC     O12 4738   5.319   1.966   5.631
    2PC     O11 4739   5.224   2.153   5.555
    2PC      C1 4740   5.104   2.128   5.629
    2PC      HR 4741   5.124   2.059   5.712
    2PC      HS 4742   5.060   2.215   5.679
    2PC      C2 4743   4.993   2.072   5.538
    2PC      HX 4744   4.987   2.143   5.455
    2PC      C3 4745   4.861   2.072   5.616
    2PC      HA 4746   4.853   2.168   5.669
    2PC      HB 4747   4.777   2.044   5.551
    2PC     O31 4748   4.870   1.980   5.726
    2PC     P31 4749   4.829   2.030   5.873
    2PC     O32 4750   4.679   2.077   5.843
    2PC     C31 4751   4.616   2.152   5.949
    2PC     H1A 4752   4.621   2.089   6.038
    2PC     H1B 4753   4.668   2.246   5.968
    2PC     C32 4754   4.478   2.198   5.901
    2PC     H2A 4755   4.477   2.252   5.807
    2PC     H2B 4756   4.426   2.107   5.870
    2PC     N31 4757   4.381   2.265   5.994
    2PC     C33 4758   4.452   2.380   6.057
    2PC     H3A 4759   4.385   2.442   6.116
    2PC     H3B 4760   4.532   2.344   6.122
    2PC     H3C 4761   4.488   2.443   5.975
    2PC     C34 4762   4.262   2.316   5.918
    2PC     H4A 4763   4.208   2.228   5.880
    2PC     H4B 4764   4.203   2.369   5.993
    2PC     H4C 4765   4.305   2.372   5.835
    2PC     C35 4766   4.343   2.170   6.104
    2PC     H5A 4767   4.267   2.100   6.069
    2PC     H5B 4768   4.295   2.237   6.175
    2PC     H5C 4769   4.432   2.120   6.142
    2PC     O33 4770   4.839   1.936   5.986
    2PC     O34 4771   4.919   2.141   5.913
    2PC     O21 4772   5.018   1.938   5.494
    2PC     C21 4773   4.945   1.896   5.389
    2PC     O22 4774   4.857   1.958   5.334
    3OL     C12 4775   4.980   1.755   5.349
    3OL     H2R 4776   4.900   1.719   5.285
    3OL     H2S 4777   4.978   1.699   5.443
    3OL     C13 4778   5.120   1.748   5.287
    3OL     H3R 4779   5.146   1.643   5.275
    3OL     H3S 4780   5.186   1.794   5.361
    3OL     C14 4781   5.139   1.827   5.156
    3OL     H4R 4782   5.245   1.847   5.140
    3OL     H4S 4783   5.086   1.922   5.162
    3OL     C15 4784   5.091   1.740   5.039
    3OL     H5R 4785   4.986   1.723   5.061
    3OL     H5S 4786   5.143   1.644   5.031
    3OL     C16 4787   5.104   1.810   4.903
    3OL     H6R 4788   5.048   1.904   4.897
    3OL     H6S 4789   5.064   1.745   4.825
    3OL     C17 4790   5.254   1.823   4.873
    3OL     H7R 4791   5.297   1.724   4.887
    3OL     H7S 4792   5.299   1.891   4.946
    3OL     C18 4793   5.288   1.859   4.728
    3OL     H8R 4794   5.261   1.962   4.705
    3OL     H8S 4795   5.243   1.790   4.657
    3OL     C19 4796   5.437   1.838   4.715
    3OL     H9R 4797   5.499   1.836   4.804
    3OL    C110 4798   5.510   1.814   4.607
    3OL    H10R 4799   5.616   1.795   4.616
    3OL    C111 4800   5.452   1.799   4.469
    3OL    H11R 4801   5.358   1.853   4.465
    3OL    H11S 4802   5.429   1.694   4.447
    3OL    C112 4803   5.550   1.854   4.365
    3OL    H12R 4804   5.620   1.779   4.331
    3OL    H12S 4805   5.603   1.945   4.393
    3OL    C113 4806   5.470   1.899   4.241
    3OL    H13R 4807   5.395   1.972   4.271
    3OL    H13S 4808   5.412   1.814   4.204
    3OL    C114 4809   5.557   1.935   4.120
    3OL    H14R 4810   5.611   1.844   4.094
    3OL    H14S 4811   5.621   2.016   4.155
    3OL    C115 4812   5.483   1.975   3.992
    3OL    H15R 4813   5.445   2.077   3.992
    3OL    H15S 4814   5.405   1.899   3.981
    3OL    C116 4815   5.588   1.953   3.883
    3OL    H16R 4816   5.599   1.845   3.885
    3OL    H16S 4817   5.687   1.992   3.908
    3OL    C117 4818   5.541   2.019   3.752
    3OL    H17R 4819   5.516   2.126   3.762
    3OL    H17S 4820   5.445   1.985   3.713
    3OL    C118 4821   5.652   2.012   3.647
    3OL    H18R 4822   5.744   2.054   3.689
    3OL    H18S 4823   5.618   2.058   3.554
    3OL    H18T 4824   5.668   1.909   3.616
    1PA    C116 4825   2.009   5.324   3.293
    1PA    H16R 4826   2.116   5.344   3.282
    1PA    H16S 4827   1.962   5.415   3.256
    1PA    H16T 4828   1.994   5.236   3.230
    1PA    C115 4829   1.970   5.294   3.438
    1PA    H15R 4830   1.862   5.286   3.452
    1PA    H15S 4831   2.011   5.198   3.468
    1PA    C114 4832   2.040   5.401   3.523
    1PA    H14R 4833   2.149   5.402   3.515
    1PA    H14S 4834   2.016   5.503   3.491
    1PA    C113 4835   2.006   5.369   3.669
    1PA    H13R 4836   1.898   5.367   3.687
    1PA    H13S 4837   2.038   5.272   3.706
    1PA    C112 4838   2.070   5.479   3.754
    1PA    H12R 4839   2.179   5.476   3.747
    1PA    H12S 4840   2.029   5.572   3.715
    1PA    C111 4841   2.027   5.446   3.898
    1PA    H11R 4842   1.918   5.444   3.908
    1PA    H11S 4843   2.066   5.349   3.928
    1PA    C110 4844   2.084   5.548   3.997
    1PA    H10R 4845   2.193   5.548   3.982
    1PA    H10S 4846   2.043   5.645   3.968
    1PA     C19 4847   2.046   5.511   4.141
    1PA     H9R 4848   1.937   5.504   4.151
    1PA     H9S 4849   2.078   5.407   4.147
    1PA     C18 4850   2.108   5.607   4.242
    1PA     H8R 4851   2.217   5.610   4.231
    1PA     H8S 4852   2.062   5.704   4.219
    1PA     C17 4853   2.070   5.557   4.382
    1PA     H7R 4854   1.962   5.562   4.403
    1PA     H7S 4855   2.100   5.453   4.391
    1PA     C16 4856   2.142   5.639   4.490
    1PA     H6R 4857   2.247   5.642   4.460
    1PA     H6S 4858   2.083   5.729   4.475
    1PA     C15 4859   2.108   5.571   4.624
    1PA     H5R 4860   2.008   5.526   4.627
    1PA     H5S 4861   2.177   5.487   4.631
    1PA     C14 4862   2.139   5.672   4.735
    1PA     H4R 4863   2.246   5.680   4.760
    1PA     H4S 4864   2.105   5.768   4.698
    1PA     C13 4865   2.070   5.643   4.869
    1PA     H3R 4866   2.055   5.536   4.886
    1PA     H3S 4867   2.127   5.677   4.956
    1PA     C12 4868   1.944   5.730   4.868
    1PA     H2R 4869   1.957   5.838   4.856
    1PA     H2S 4870   1.884   5.687   4.788
    2PC     C11 4871   1.875   5.684   4.995
    2PC     O12 4872   1.824   5.576   5.013
    2PC     O11 4873   1.884   5.786   5.081
    2PC      C1 4874   1.847   5.784   5.220
    2PC      HR 4875   1.827   5.884   5.259
    2PC      HS 4876   1.762   5.715   5.233
    2PC      C2 4877   1.952   5.715   5.308
    2PC      HX 4878   1.984   5.626   5.253
    2PC      C3 4879   1.903   5.651   5.438
    2PC      HA 4880   1.879   5.741   5.494
    2PC      HB 4881   1.815   5.590   5.418
    2PC     O31 4882   2.013   5.575   5.493
    2PC     P31 4883   2.020   5.484   5.624
    2PC     O32 4884   2.046   5.600   5.731
    2PC     C31 4885   1.964   5.602   5.849
    2PC     H1A 4886   1.875   5.541   5.831
    2PC     H1B 4887   2.016   5.552   5.931
    2PC     C32 4888   1.942   5.752   5.871
    2PC     H2A 4889   1.927   5.793   5.771
    2PC     H2B 4890   1.853   5.767   5.931
    2PC     N31 4891   2.051   5.817   5.952
    2PC     C33 4892   2.032   5.965   5.936
    2PC     H3A 4893   1.935   6.001   5.969
    2PC     H3B 4894   2.107   6.008   6.003
    2PC     H3C 4895   2.041   6.003   5.835
    2PC     C34 4896   2.040   5.763   6.091
    2PC     H4A 4897   2.093   5.669   6.103
    2PC     H4B 4898   2.078   5.835   6.164
    2PC     H4C 4899   1.934   5.742   6.109
    2PC     C35 4900   2.186   5.793   5.893
    2PC     H5A 4901   2.192   5.827   5.789
    2PC     H5B 4902   2.205   5.685   5.899
    2PC     H5C 4903   2.260   5.842   5.957
    2PC     O33 4904   1.906   5.391   5.643
    2PC     O34 4905   2.134   5.390   5.608
    2PC     O21 4906   2.072   5.793   5.324
    2PC     C21 4907   2.188   5.756   5.265
    2PC     O22 4908   2.201   5.654   5.200
    3OL     C12 4909   2.298   5.856   5.287
    3OL     H2R 4910   2.392   5.809   5.258
    3OL     H2S 4911   2.304   5.879   5.394
    3OL     C13 4912   2.274   5.992   5.221
    3OL     H3R 4913   2.357   6.059   5.246
    3OL     H3S 4914   2.181   6.031   5.264
    3OL     C14 4915   2.273   5.983   5.067
    3OL     H4R 4916   2.169   5.963   5.044
    3OL     H4S 4917   2.335   5.900   5.032
    3OL     C15 4918   2.317   6.113   4.999
    3OL     H5R 4919   2.426   6.124   4.995
    3OL     H5S 4920   2.269   6.196   5.051
    3OL     C16 4921   2.273   6.114   4.852
    3OL     H6R 4922   2.172   6.072   4.849
    3OL     H6S 4923   2.335   6.047   4.792
    3OL     C17 4924   2.274   6.253   4.787
    3OL     H7R 4925   2.378   6.287   4.796
    3OL     H7S 4926   2.200   6.319   4.833
    3OL     C18 4927   2.248   6.264   4.636
    3OL     H8R 4928   2.335   6.230   4.580
    3OL     H8S 4929   2.231   6.371   4.618
    3OL     C19 4930   2.124   6.197   4.584
    3OL     H9R 4931   2.032   6.237   4.628
    3OL    C110 4932   2.107   6.097   4.500
    3OL    H10R 4933   2.012   6.062   4.462
    3OL    C111 4934   2.225   6.019   4.445
    3OL    H11R 4935   2.201   5.915   4.466
    3OL    H11S 4936   2.322   6.046   4.486
    3OL    C112 4937   2.230   6.042   4.293
    3OL    H12R 4938   2.247   6.148   4.273
    3OL    H12S 4939   2.139   6.008   4.242
    3OL    C113 4940   2.342   5.959   4.229
    3OL    H13R 4941   2.346   5.858   4.271
    3OL    H13S 4942   2.443   5.997   4.246
    3OL    C114 4943   2.316   5.967   4.078
    3OL    H14R 4944   2.313   6.072   4.049
    3OL    H14S 4945   2.215   5.932   4.056
    3OL    C115 4946   2.432   5.900   4.003
    3OL    H15R 4947   2.445   5.796   4.032
    3OL    H15S 4948   2.533   5.930   4.031
    3OL    C116 4949   2.406   5.908   3.852
    3OL    H16R 4950   2.495   5.875   3.797
    3OL    H16S 4951   2.390   6.014   3.831
    3OL    C117 4952   2.282   5.827   3.814
    3OL    H17R 4953   2.196   5.849   3.877
    3OL    H17S 4954   2.311   5.722   3.816
    3OL    C118 4955   2.242   5.860   3.669
    3OL    H18R 4956   2.327   5.880   3.604
    3OL    H18S 4957   2.188   5.954   3.661
    3OL    H18T 4958   2.174   5.787   3.624
    1PA    C116 4959   5.516   1.486   3.802
    1PA    H16R 4960   5.507   1.378   3.794
    1PA    H16S 4961   5.525   1.527   3.701
    1PA    H16T 4962   5.417   1.528   3.825
    1PA    C115 4963   5.621   1.532   3.904
    1PA    H15R 4964   5.714   1.478   3.883
    1PA    H15S 4965   5.641   1.639   3.910
    1PA    C114 4966   5.579   1.488   4.044
    1PA    H14R 4967   5.481   1.529   4.067
    1PA    H14S 4968   5.568   1.380   4.060
    1PA    C113 4969   5.691   1.535   4.138
    1PA    H13R 4970   5.787   1.490   4.114
    1PA    H13S 4971   5.689   1.644   4.135
    1PA    C112 4972   5.660   1.499   4.284
    1PA    H12R 4973   5.710   1.569   4.351
    1PA    H12S 4974   5.555   1.521   4.295
    1PA    C111 4975   5.705   1.357   4.320
    1PA    H11R 4976   5.701   1.290   4.234
    1PA    H11S 4977   5.812   1.359   4.341
    1PA    C110 4978   5.628   1.299   4.439
    1PA    H10R 4979   5.523   1.286   4.414
    1PA    H10S 4980   5.661   1.196   4.452
    1PA     C19 4981   5.658   1.371   4.572
    1PA     H9R 4982   5.765   1.372   4.596
    1PA     H9S 4983   5.613   1.470   4.569
    1PA     C18 4984   5.568   1.307   4.677
    1PA     H8R 4985   5.466   1.338   4.654
    1PA     H8S 4986   5.557   1.198   4.671
    1PA     C17 4987   5.600   1.347   4.822
    1PA     H7R 4988   5.534   1.295   4.891
    1PA     H7S 4989   5.701   1.314   4.846
    1PA     C16 4990   5.572   1.494   4.855
    1PA     H6R 4991   5.636   1.551   4.787
    1PA     H6S 4992   5.470   1.523   4.833
    1PA     C15 4993   5.607   1.528   5.001
    1PA     H5R 4994   5.711   1.502   5.019
    1PA     H5S 4995   5.604   1.636   5.011
    1PA     C14 4996   5.533   1.453   5.112
    1PA     H4R 4997   5.429   1.473   5.087
    1PA     H4S 4998   5.556   1.347   5.097
    1PA     C13 4999   5.559   1.495   5.258
    1PA     H3R 5000   5.553   1.604   5.261
    1PA     H3S 5001   5.478   1.460   5.322
    1PA     C12 5002   5.687   1.435   5.317
    1PA     H2R 5003   5.676   1.328   5.333
    1PA     H2S 5004   5.777   1.449   5.256
    2PC     C11 5005   5.718   1.494   5.452
    2PC     O12 5006   5.641   1.562   5.516
    2PC     O11 5007   5.846   1.480   5.491
    2PC      C1 5008   5.892   1.553   5.607
    2PC      HR 5009   5.885   1.660   5.587
    2PC      HS 5010   5.830   1.525   5.693
    2PC      C2 5011   6.036   1.509   5.634
    2PC      HX 5012   6.037   1.403   5.609
    2PC      C3 5013   6.080   1.542   5.778
    2PC      HA 5014   6.005   1.496   5.844
    2PC      HB 5015   6.180   1.502   5.797
    2PC     O31 5016   6.080   1.684   5.802
    2PC     P31 5017   6.124   1.745   5.944
    2PC     O32 5018   6.267   1.803   5.900
    2PC     C31 5019   6.376   1.730   5.843
    2PC     H1A 5020   6.342   1.707   5.741
    2PC     H1B 5021   6.456   1.805   5.835
    2PC     C32 5022   6.418   1.607   5.924
    2PC     H2A 5023   6.432   1.638   6.027
    2PC     H2B 5024   6.331   1.541   5.917
    2PC     N31 5025   6.538   1.523   5.893
    2PC     C33 5026   6.539   1.403   5.982
    2PC     H3A 5027   6.435   1.368   5.985
    2PC     H3B 5028   6.598   1.323   5.936
    2PC     H3C 5029   6.582   1.418   6.081
    2PC     C34 5030   6.523   1.471   5.753
    2PC     H4A 5031   6.425   1.423   5.754
    2PC     H4B 5032   6.528   1.558   5.689
    2PC     H4C 5033   6.597   1.394   5.728
    2PC     C35 5034   6.670   1.595   5.904
    2PC     H5A 5035   6.754   1.551   5.849
    2PC     H5B 5036   6.708   1.599   6.005
    2PC     H5C 5037   6.652   1.694   5.861
    2PC     O33 5038   6.022   1.843   5.989
    2PC     O34 5039   6.137   1.636   6.043
    2PC     O21 5040   6.129   1.570   5.543
    2PC     C21 5041   6.239   1.508   5.497
    2PC     O22 5042   6.269   1.402   5.547
    3OL     C12 5043   6.294   1.567   5.369
    3OL     H2R 5044   6.399   1.598   5.369
    3OL     H2S 5045   6.236   1.657   5.349
    3OL     C13 5046   6.276   1.470   5.252
    3OL     H3R 5047   6.180   1.418   5.264
    3OL     H3S 5048   6.360   1.400   5.256
    3OL     C14 5049   6.298   1.554   5.125
    3OL     H4R 5050   6.390   1.613   5.135
    3OL     H4S 5051   6.223   1.632   5.121
    3OL     C15 5052   6.313   1.477   4.993
    3OL     H5R 5053   6.363   1.380   4.995
    3OL     H5S 5054   6.375   1.542   4.930
    3OL     C16 5055   6.168   1.462   4.944
    3OL     H6R 5056   6.105   1.550   4.960
    3OL     H6S 5057   6.136   1.372   4.997
    3OL     C17 5058   6.156   1.421   4.797
    3OL     H7R 5059   6.209   1.328   4.778
    3OL     H7S 5060   6.201   1.493   4.728
    3OL     C18 5061   6.011   1.411   4.747
    3OL     H8R 5062   5.967   1.345   4.823
    3OL     H8S 5063   6.001   1.360   4.651
    3OL     C19 5064   5.949   1.548   4.752
    3OL     H9R 5065   5.897   1.576   4.844
    3OL    C110 5066   5.947   1.629   4.647
    3OL    H10R 5067   5.878   1.713   4.644
    3OL    C111 5068   6.001   1.585   4.513
    3OL    H11R 5069   5.970   1.489   4.472
    3OL    H11S 5070   6.109   1.594   4.511
    3OL    C112 5071   5.957   1.702   4.424
    3OL    H12R 5072   5.991   1.799   4.462
    3OL    H12S 5073   5.849   1.707   4.411
    3OL    C113 5074   6.010   1.690   4.281
    3OL    H13R 5075   5.968   1.600   4.235
    3OL    H13S 5076   6.119   1.684   4.278
    3OL    C114 5077   5.980   1.811   4.191
    3OL    H14R 5078   6.049   1.892   4.214
    3OL    H14S 5079   5.875   1.843   4.188
    3OL    C115 5080   5.996   1.766   4.045
    3OL    H15R 5081   5.915   1.697   4.018
    3OL    H15S 5082   6.086   1.705   4.047
    3OL    C116 5083   5.990   1.886   3.949
    3OL    H16R 5084   6.045   1.974   3.981
    3OL    H16S 5085   5.886   1.916   3.937
    3OL    C117 5086   6.027   1.842   3.806
    3OL    H17R 5087   6.130   1.806   3.801
    3OL    H17S 5088   6.023   1.924   3.734
    3OL    C118 5089   5.938   1.728   3.756
    3OL    H18R 5090   5.946   1.716   3.648
    3OL    H18S 5091   5.830   1.737   3.771
    3OL    H18T 5092   5.967   1.632   3.798
    1PA    C116 5093   4.603   3.703   3.799
    1PA    H16R 5094   4.567   3.747   3.892
    1PA    H16S 5095   4.520   3.669   3.737
    1PA    H16T 5096   4.658   3.775   3.737
    1PA    C115 5097   4.697   3.583   3.817
    1PA    H15R 5098   4.656   3.510   3.886
    1PA    H15S 5099   4.709   3.525   3.725
    1PA    C114 5100   4.831   3.642   3.862
    1PA    H14R 5101   4.872   3.697   3.778
    1PA    H14S 5102   4.827   3.709   3.949
    1PA    C113 5103   4.928   3.529   3.900
    1PA    H13R 5104   4.888   3.484   3.990
    1PA    H13S 5105   4.925   3.453   3.822
    1PA    C112 5106   5.073   3.573   3.926
    1PA    H12R 5107   5.115   3.620   3.837
    1PA    H12S 5108   5.071   3.650   4.003
    1PA    C111 5109   5.167   3.459   3.967
    1PA    H11R 5110   5.151   3.370   3.905
    1PA    H11S 5111   5.269   3.496   3.951
    1PA    C110 5112   5.154   3.407   4.111
    1PA    H10R 5113   5.053   3.366   4.115
    1PA    H10S 5114   5.223   3.322   4.119
    1PA     C19 5115   5.190   3.503   4.225
    1PA     H9R 5116   5.280   3.559   4.201
    1PA     H9S 5117   5.108   3.576   4.231
    1PA     C18 5118   5.213   3.419   4.352
    1PA     H8R 5119   5.133   3.345   4.353
    1PA     H8S 5120   5.309   3.369   4.345
    1PA     C17 5121   5.219   3.510   4.475
    1PA     H7R 5122   5.298   3.584   4.459
    1PA     H7S 5123   5.133   3.578   4.476
    1PA     C16 5124   5.226   3.433   4.607
    1PA     H6R 5125   5.133   3.379   4.624
    1PA     H6S 5126   5.311   3.363   4.609
    1PA     C15 5127   5.249   3.530   4.724
    1PA     H5R 5128   5.342   3.581   4.697
    1PA     H5S 5129   5.169   3.601   4.743
    1PA     C14 5130   5.282   3.446   4.848
    1PA     H4R 5131   5.358   3.375   4.816
    1PA     H4S 5132   5.327   3.507   4.925
    1PA     C13 5133   5.161   3.369   4.903
    1PA     H3R 5134   5.076   3.432   4.928
    1PA     H3S 5135   5.121   3.292   4.836
    1PA     C12 5136   5.208   3.300   5.032
    1PA     H2R 5137   5.127   3.231   5.057
    1PA     H2S 5138   5.300   3.242   5.022
    2PC     C11 5139   5.232   3.388   5.153
    2PC     O12 5140   5.143   3.464   5.183
    2PC     O11 5141   5.352   3.373   5.210
    2PC      C1 5142   5.400   3.464   5.311
    2PC      HR 5143   5.504   3.432   5.316
    2PC      HS 5144   5.413   3.563   5.267
    2PC      C2 5145   5.320   3.463   5.441
    2PC      HX 5146   5.219   3.498   5.418
    2PC      C3 5147   5.370   3.563   5.546
    2PC      HA 5148   5.456   3.511   5.589
    2PC      HB 5149   5.397   3.656   5.495
    2PC     O31 5150   5.267   3.576   5.646
    2PC     P31 5151   5.289   3.522   5.796
    2PC     O32 5152   5.417   3.602   5.849
    2PC     C31 5153   5.393   3.720   5.927
    2PC     H1A 5154   5.349   3.783   5.849
    2PC     H1B 5155   5.326   3.694   6.009
    2PC     C32 5156   5.525   3.786   5.969
    2PC     H2A 5157   5.586   3.790   5.879
    2PC     H2B 5158   5.495   3.880   6.015
    2PC     N31 5159   5.605   3.706   6.067
    2PC     C33 5160   5.640   3.564   6.035
    2PC     H3A 5161   5.607   3.488   6.106
    2PC     H3B 5162   5.617   3.543   5.930
    2PC     H3C 5163   5.748   3.549   6.030
    2PC     C34 5164   5.736   3.776   6.086
    2PC     H4A 5165   5.777   3.801   5.987
    2PC     H4B 5166   5.717   3.874   6.129
    2PC     H4C 5167   5.802   3.710   6.142
    2PC     C35 5168   5.546   3.724   6.203
    2PC     H5A 5169   5.614   3.681   6.276
    2PC     H5B 5170   5.448   3.675   6.205
    2PC     H5C 5171   5.536   3.831   6.223
    2PC     O33 5172   5.176   3.559   5.884
    2PC     O34 5173   5.291   3.375   5.814
    2PC     O21 5174   5.314   3.327   5.489
    2PC     C21 5175   5.421   3.265   5.539
    2PC     O22 5176   5.534   3.309   5.540
    3OL     C12 5177   5.405   3.117   5.564
    3OL     H2R 5178   5.320   3.103   5.631
    3OL     H2S 5179   5.497   3.089   5.615
    3OL     C13 5180   5.394   3.029   5.438
    3OL     H3R 5181   5.431   2.929   5.461
    3OL     H3S 5182   5.464   3.076   5.369
    3OL     C14 5183   5.254   3.019   5.376
    3OL     H4R 5184   5.224   3.115   5.334
    3OL     H4S 5185   5.187   2.986   5.455
    3OL     C15 5186   5.246   2.918   5.261
    3OL     H5R 5187   5.268   2.819   5.302
    3OL     H5S 5188   5.333   2.940   5.199
    3OL     C16 5189   5.118   2.912   5.176
    3OL     H6R 5190   5.106   3.013   5.136
    3OL     H6S 5191   5.032   2.874   5.231
    3OL     C17 5192   5.151   2.818   5.059
    3OL     H7R 5193   5.155   2.715   5.094
    3OL     H7S 5194   5.246   2.845   5.011
    3OL     C18 5195   5.039   2.822   4.954
    3OL     H8R 5196   5.034   2.921   4.908
    3OL     H8S 5197   4.943   2.791   4.997
    3OL     C19 5198   5.057   2.739   4.830
    3OL     H9R 5199   5.108   2.646   4.854
    3OL    C110 5200   5.044   2.779   4.705
    3OL    H10R 5201   5.081   2.712   4.628
    3OL    C111 5202   4.969   2.899   4.653
    3OL    H11R 5203   4.910   2.935   4.738
    3OL    H11S 5204   4.910   2.858   4.571
    3OL    C112 5205   5.058   3.017   4.611
    3OL    H12R 5206   5.133   3.029   4.689
    3OL    H12S 5207   5.011   3.116   4.609
    3OL    C113 5208   5.120   2.992   4.473
    3OL    H13R 5209   5.157   2.889   4.469
    3OL    H13S 5210   5.204   3.056   4.445
    3OL    C114 5211   5.019   3.019   4.360
    3OL    H14R 5212   4.993   3.125   4.360
    3OL    H14S 5213   4.928   2.962   4.376
    3OL    C115 5214   5.084   2.986   4.225
    3OL    H15R 5215   5.188   3.019   4.221
    3OL    H15S 5216   5.025   3.042   4.152
    3OL    C116 5217   5.062   2.839   4.188
    3OL    H16R 5218   4.957   2.819   4.168
    3OL    H16S 5219   5.101   2.782   4.272
    3OL    C117 5220   5.152   2.807   4.068
    3OL    H17R 5221   5.253   2.836   4.099
    3OL    H17S 5222   5.129   2.870   3.981
    3OL    C118 5223   5.159   2.660   4.027
    3OL    H18R 5224   5.070   2.626   3.973
    3OL    H18S 5225   5.157   2.602   4.119
    3OL    H18T 5226   5.247   2.655   3.963
    1PA    C116 5227   1.471  -0.313   4.011
    1PA    H16R 5228   1.433  -0.409   3.974
    1PA    H16S 5229   1.534  -0.335   4.098
    1PA    H16T 5230   1.525  -0.262   3.931
    1PA    C115 5231   1.356  -0.231   4.070
    1PA    H15R 5232   1.288  -0.201   3.990
    1PA    H15S 5233   1.305  -0.297   4.140
    1PA    C114 5234   1.402  -0.097   4.130
    1PA    H14R 5235   1.460  -0.040   4.057
    1PA    H14S 5236   1.317  -0.036   4.161
    1PA    C113 5237   1.485  -0.098   4.260
    1PA    H13R 5238   1.590  -0.119   4.238
    1PA    H13S 5239   1.493   0.004   4.297
    1PA    C112 5240   1.429  -0.192   4.368
    1PA    H12R 5241   1.325  -0.166   4.388
    1PA    H12S 5242   1.442  -0.294   4.331
    1PA    C111 5243   1.512  -0.185   4.497
    1PA    H11R 5244   1.468  -0.250   4.572
    1PA    H11S 5245   1.610  -0.231   4.483
    1PA    C110 5246   1.536  -0.046   4.559
    1PA    H10R 5247   1.575   0.027   4.488
    1PA    H10S 5248   1.442  -0.013   4.604
    1PA     C19 5249   1.630  -0.055   4.680
    1PA     H9R 5250   1.573  -0.100   4.762
    1PA     H9S 5251   1.705  -0.131   4.657
    1PA     C18 5252   1.694   0.077   4.723
    1PA     H8R 5253   1.733   0.136   4.639
    1PA     H8S 5254   1.625   0.142   4.778
    1PA     C17 5255   1.804   0.049   4.826
    1PA     H7R 5256   1.754   0.004   4.912
    1PA     H7S 5257   1.876  -0.023   4.786
    1PA     C16 5258   1.879   0.181   4.850
    1PA     H6R 5259   1.927   0.221   4.760
    1PA     H6S 5260   1.800   0.253   4.872
    1PA     C15 5261   1.981   0.168   4.963
    1PA     H5R 5262   1.926   0.114   5.041
    1PA     H5S 5263   2.068   0.112   4.928
    1PA     C14 5264   2.028   0.301   5.024
    1PA     H4R 5265   2.064   0.361   4.940
    1PA     H4S 5266   1.944   0.357   5.066
    1PA     C13 5267   2.138   0.271   5.126
    1PA     H3R 5268   2.208   0.201   5.079
    1PA     H3S 5269   2.184   0.365   5.157
    1PA     C12 5270   2.081   0.208   5.253
    1PA     H2R 5271   1.974   0.227   5.261
    1PA     H2S 5272   2.093   0.100   5.242
    2PC     C11 5273   2.158   0.242   5.378
    2PC     O12 5274   2.115   0.246   5.492
    2PC     O11 5275   2.288   0.260   5.351
    2PC      C1 5276   2.362   0.310   5.464
    2PC      HR 5277   2.312   0.405   5.484
    2PC      HS 5278   2.358   0.252   5.556
    2PC      C2 5279   2.508   0.338   5.425
    2PC      HX 5280   2.564   0.247   5.400
    2PC      C3 5281   2.590   0.396   5.541
    2PC      HA 5282   2.578   0.343   5.635
    2PC      HB 5283   2.697   0.394   5.516
    2PC     O31 5284   2.535   0.528   5.563
    2PC     P31 5285   2.596   0.611   5.685
    2PC     O32 5286   2.685   0.716   5.603
    2PC     C31 5287   2.762   0.672   5.489
    2PC     H1A 5288   2.820   0.581   5.500
    2PC     H1B 5289   2.691   0.641   5.413
    2PC     C32 5290   2.847   0.787   5.433
    2PC     H2A 5291   2.892   0.757   5.338
    2PC     H2B 5292   2.790   0.878   5.411
    2PC     N31 5293   2.957   0.837   5.522
    2PC     C33 5294   3.036   0.927   5.432
    2PC     H3A 5295   2.959   0.995   5.394
    2PC     H3B 5296   3.122   0.978   5.476
    2PC     H3C 5297   3.067   0.872   5.343
    2PC     C34 5298   2.905   0.920   5.635
    2PC     H4A 5299   2.856   0.858   5.709
    2PC     H4B 5300   2.987   0.972   5.686
    2PC     H4C 5301   2.848   1.000   5.588
    2PC     C35 5302   3.043   0.730   5.582
    2PC     H5A 5303   3.087   0.672   5.501
    2PC     H5B 5304   2.990   0.664   5.650
    2PC     H5C 5305   3.122   0.783   5.635
    2PC     O33 5306   2.483   0.677   5.754
    2PC     O34 5307   2.668   0.540   5.793
    2PC     O21 5308   2.505   0.424   5.310
    2PC     C21 5309   2.610   0.421   5.227
    2PC     O22 5310   2.704   0.346   5.243
    3OL     C12 5311   2.613   0.527   5.119
    3OL     H2R 5312   2.650   0.487   5.024
    3OL     H2S 5313   2.688   0.602   5.143
    3OL     C13 5314   2.478   0.598   5.103
    3OL     H3R 5315   2.455   0.646   5.199
    3OL     H3S 5316   2.402   0.524   5.078
    3OL     C14 5317   2.480   0.715   5.003
    3OL     H4R 5318   2.573   0.772   5.013
    3OL     H4S 5319   2.408   0.792   5.032
    3OL     C15 5320   2.428   0.680   4.863
    3OL     H5R 5321   2.330   0.634   4.875
    3OL     H5S 5322   2.499   0.611   4.817
    3OL     C16 5323   2.430   0.797   4.765
    3OL     H6R 5324   2.532   0.835   4.770
    3OL     H6S 5325   2.347   0.861   4.798
    3OL     C17 5326   2.390   0.741   4.628
    3OL     H7R 5327   2.294   0.690   4.633
    3OL     H7S 5328   2.460   0.663   4.595
    3OL     C18 5329   2.379   0.847   4.518
    3OL     H8R 5330   2.295   0.914   4.541
    3OL     H8S 5331   2.349   0.806   4.422
    3OL     C19 5332   2.502   0.933   4.508
    3OL     H9R 5333   2.497   1.019   4.574
    3OL    C110 5334   2.599   0.921   4.418
    3OL    H10R 5335   2.683   0.991   4.416
    3OL    C111 5336   2.606   0.812   4.315
    3OL    H11R 5337   2.561   0.845   4.221
    3OL    H11S 5338   2.531   0.742   4.352
    3OL    C112 5339   2.738   0.741   4.281
    3OL    H12R 5340   2.779   0.712   4.378
    3OL    H12S 5341   2.818   0.804   4.241
    3OL    C113 5342   2.705   0.620   4.193
    3OL    H13R 5343   2.655   0.645   4.099
    3OL    H13S 5344   2.628   0.566   4.248
    3OL    C114 5345   2.830   0.537   4.162
    3OL    H14R 5346   2.887   0.514   4.253
    3OL    H14S 5347   2.893   0.608   4.109
    3OL    C115 5348   2.798   0.415   4.075
    3OL    H15R 5349   2.877   0.394   4.003
    3OL    H15S 5350   2.708   0.446   4.022
    3OL    C116 5351   2.751   0.296   4.160
    3OL    H16R 5352   2.684   0.232   4.102
    3OL    H16S 5353   2.703   0.329   4.252
    3OL    C117 5354   2.876   0.216   4.197
    3OL    H17R 5355   2.943   0.283   4.252
    3OL    H17S 5356   2.938   0.187   4.112
    3OL    C118 5357   2.850   0.090   4.279
    3OL    H18R 5358   2.947   0.066   4.323
    3OL    H18S 5359   2.808   0.014   4.212
    3OL    H18T 5360   2.774   0.112   4.354
    1PA    C116 5361   1.547   3.416   4.280
    1PA    H16R 5362   1.504   3.369   4.369
    1PA    H16S 5363   1.453   3.443   4.232
    1PA    H16T 5364   1.606   3.503   4.308
    1PA    C115 5365   1.645   3.320   4.211
    1PA    H15R 5366   1.725   3.296   4.282
    1PA    H15S 5367   1.609   3.222   4.178
    1PA    C114 5368   1.704   3.396   4.091
    1PA    H14R 5369   1.742   3.323   4.020
    1PA    H14S 5370   1.618   3.444   4.044
    1PA    C113 5371   1.805   3.507   4.122
    1PA    H13R 5372   1.787   3.593   4.057
    1PA    H13S 5373   1.792   3.545   4.223
    1PA    C112 5374   1.950   3.459   4.107
    1PA    H12R 5375   1.983   3.386   4.181
    1PA    H12S 5376   1.963   3.409   4.010
    1PA    C111 5377   2.042   3.581   4.101
    1PA    H11R 5378   2.008   3.653   4.026
    1PA    H11S 5379   2.044   3.633   4.197
    1PA    C110 5380   2.189   3.556   4.062
    1PA    H10R 5381   2.227   3.476   4.125
    1PA    H10S 5382   2.187   3.520   3.959
    1PA     C19 5383   2.270   3.686   4.074
    1PA     H9R 5384   2.369   3.688   4.029
    1PA     H9S 5385   2.218   3.760   4.014
    1PA     C18 5386   2.273   3.756   4.211
    1PA     H8R 5387   2.179   3.811   4.225
    1PA     H8S 5388   2.295   3.683   4.289
    1PA     C17 5389   2.384   3.862   4.213
    1PA     H7R 5390   2.471   3.796   4.201
    1PA     H7S 5391   2.365   3.928   4.129
    1PA     C16 5392   2.410   3.925   4.350
    1PA     H6R 5393   2.314   3.972   4.375
    1PA     H6S 5394   2.423   3.858   4.436
    1PA     C15 5395   2.520   4.031   4.335
    1PA     H5R 5396   2.619   3.988   4.324
    1PA     H5S 5397   2.499   4.093   4.248
    1PA     C14 5398   2.532   4.107   4.468
    1PA     H4R 5399   2.440   4.136   4.518
    1PA     H4S 5400   2.560   4.033   4.543
    1PA     C13 5401   2.628   4.226   4.458
    1PA     H3R 5402   2.731   4.193   4.439
    1PA     H3S 5403   2.605   4.280   4.365
    1PA     C12 5404   2.628   4.326   4.574
    1PA     H2R 5405   2.703   4.403   4.556
    1PA     H2S 5406   2.529   4.372   4.572
    2PC     C11 5407   2.654   4.261   4.707
    2PC     O12 5408   2.767   4.238   4.746
    2PC     O11 5409   2.543   4.227   4.775
    2PC      C1 5410   2.558   4.148   4.894
    2PC      HR 5411   2.623   4.063   4.873
    2PC      HS 5412   2.597   4.199   4.982
    2PC      C2 5413   2.427   4.082   4.941
    2PC      HX 5414   2.350   4.160   4.945
    2PC      C3 5415   2.447   4.008   5.074
    2PC      HA 5416   2.500   3.916   5.048
    2PC      HB 5417   2.504   4.070   5.143
    2PC     O31 5418   2.326   3.977   5.145
    2PC     P31 5419   2.342   3.891   5.279
    2PC     O32 5420   2.324   3.982   5.410
    2PC     C31 5421   2.439   4.044   5.470
    2PC     H1A 5422   2.509   3.962   5.493
    2PC     H1B 5423   2.470   4.120   5.398
    2PC     C32 5424   2.394   4.121   5.595
    2PC     H2A 5425   2.481   4.169   5.640
    2PC     H2B 5426   2.336   4.208   5.564
    2PC     N31 5427   2.323   4.044   5.702
    2PC     C33 5428   2.182   4.010   5.666
    2PC     H3A 5429   2.121   4.096   5.640
    2PC     H3B 5430   2.189   3.947   5.577
    2PC     H3C 5431   2.146   3.952   5.752
    2PC     C34 5432   2.398   3.924   5.752
    2PC     H4A 5433   2.415   3.857   5.667
    2PC     H4B 5434   2.496   3.954   5.789
    2PC     H4C 5435   2.334   3.881   5.829
    2PC     C35 5436   2.302   4.129   5.823
    2PC     H5A 5437   2.251   4.221   5.794
    2PC     H5B 5438   2.400   4.151   5.865
    2PC     H5C 5439   2.247   4.080   5.904
    2PC     O33 5440   2.242   3.784   5.259
    2PC     O34 5441   2.471   3.817   5.283
    2PC     O21 5442   2.393   3.990   4.836
    2PC     C21 5443   2.263   3.958   4.818
    2PC     O22 5444   2.180   4.023   4.878
    3OL     C12 5445   2.230   3.842   4.728
    3OL     H2R 5446   2.264   3.748   4.773
    3OL     H2S 5447   2.299   3.849   4.644
    3OL     C13 5448   2.082   3.847   4.686
    3OL     H3R 5449   2.066   3.942   4.635
    3OL     H3S 5450   2.024   3.831   4.777
    3OL     C14 5451   2.064   3.737   4.580
    3OL     H4R 5452   2.095   3.643   4.626
    3OL     H4S 5453   2.124   3.753   4.490
    3OL     C15 5454   1.921   3.723   4.527
    3OL     H5R 5455   1.853   3.754   4.607
    3OL     H5S 5456   1.901   3.620   4.496
    3OL     C16 5457   1.891   3.824   4.415
    3OL     H6R 5458   1.951   3.795   4.329
    3OL     H6S 5459   1.921   3.922   4.454
    3OL     C17 5460   1.742   3.827   4.378
    3OL     H7R 5461   1.685   3.885   4.451
    3OL     H7S 5462   1.703   3.725   4.376
    3OL     C18 5463   1.716   3.879   4.236
    3OL     H8R 5464   1.774   3.821   4.165
    3OL     H8S 5465   1.751   3.982   4.220
    3OL     C19 5466   1.570   3.863   4.204
    3OL     H9R 5467   1.538   3.763   4.176
    3OL    C110 5468   1.482   3.962   4.199
    3OL    H10R 5469   1.375   3.948   4.188
    3OL    C111 5470   1.515   4.106   4.229
    3OL    H11R 5471   1.601   4.107   4.297
    3OL    H11S 5472   1.426   4.149   4.275
    3OL    C112 5473   1.555   4.183   4.103
    3OL    H12R 5474   1.491   4.154   4.019
    3OL    H12S 5475   1.659   4.154   4.087
    3OL    C113 5476   1.555   4.335   4.122
    3OL    H13R 5477   1.644   4.376   4.075
    3OL    H13S 5478   1.561   4.369   4.226
    3OL    C114 5479   1.424   4.387   4.061
    3OL    H14R 5480   1.345   4.368   4.133
    3OL    H14S 5481   1.390   4.342   3.968
    3OL    C115 5482   1.425   4.540   4.042
    3OL    H15R 5483   1.463   4.599   4.125
    3OL    H15S 5484   1.320   4.566   4.028
    3OL    C116 5485   1.502   4.570   3.912
    3OL    H16R 5486   1.460   4.533   3.818
    3OL    H16S 5487   1.597   4.516   3.908
    3OL    C117 5488   1.535   4.719   3.896
    3OL    H17R 5489   1.587   4.757   3.984
    3OL    H17S 5490   1.441   4.769   3.874
    3OL    C118 5491   1.614   4.744   3.767
    3OL    H18R 5492   1.650   4.848   3.770
    3OL    H18S 5493   1.558   4.729   3.675
    3OL    H18T 5494   1.709   4.689   3.770
    1PA    C116 5495   6.129   3.854   3.872
    1PA    H16R 5496   6.065   3.799   3.803
    1PA    H16S 5497   6.223   3.883   3.824
    1PA    H16T 5498   6.071   3.945   3.893
    1PA    C115 5499   6.140   3.777   4.004
    1PA    H15R 5500   6.207   3.835   4.069
    1PA    H15S 5501   6.046   3.799   4.056
    1PA    C114 5502   6.189   3.632   4.003
    1PA    H14R 5503   6.238   3.612   3.908
    1PA    H14S 5504   6.263   3.624   4.083
    1PA    C113 5505   6.065   3.546   4.029
    1PA    H13R 5506   6.025   3.571   4.128
    1PA    H13S 5507   5.977   3.555   3.965
    1PA    C112 5508   6.094   3.395   4.018
    1PA    H12R 5509   5.999   3.345   4.001
    1PA    H12S 5510   6.144   3.375   3.923
    1PA    C111 5511   6.170   3.328   4.133
    1PA    H11R 5512   6.212   3.232   4.103
    1PA    H11S 5513   6.248   3.397   4.167
    1PA    C110 5514   6.071   3.291   4.244
    1PA    H10R 5515   6.012   3.376   4.280
    1PA    H10S 5516   5.990   3.228   4.208
    1PA     C19 5517   6.145   3.222   4.360
    1PA     H9R 5518   6.195   3.130   4.330
    1PA     H9S 5519   6.210   3.302   4.396
    1PA     C18 5520   6.048   3.188   4.474
    1PA     H8R 5521   6.013   3.279   4.524
    1PA     H8S 5522   5.963   3.133   4.434
    1PA     C17 5523   6.115   3.101   4.581
    1PA     H7R 5524   6.123   2.996   4.553
    1PA     H7S 5525   6.217   3.136   4.601
    1PA     C16 5526   6.036   3.112   4.712
    1PA     H6R 5527   5.931   3.097   4.686
    1PA     H6S 5528   6.081   3.036   4.776
    1PA     C15 5529   6.053   3.247   4.783
    1PA     H5R 5530   6.159   3.266   4.801
    1PA     H5S 5531   6.018   3.337   4.731
    1PA     C14 5532   5.982   3.248   4.919
    1PA     H4R 5533   5.947   3.350   4.938
    1PA     H4S 5534   5.894   3.183   4.914
    1PA     C13 5535   6.062   3.204   5.042
    1PA     H3R 5536   5.998   3.166   5.121
    1PA     H3S 5537   6.138   3.132   5.011
    1PA     C12 5538   6.135   3.317   5.117
    1PA     H2R 5539   6.196   3.366   5.040
    1PA     H2S 5540   6.070   3.394   5.159
    2PC     C11 5541   6.214   3.261   5.232
    2PC     O12 5542   6.174   3.248   5.346
    2PC     O11 5543   6.340   3.234   5.194
    2PC      C1 5544   6.427   3.197   5.303
    2PC      HR 5545   6.530   3.208   5.266
    2PC      HS 5546   6.413   3.263   5.389
    2PC      C2 5547   6.409   3.049   5.337
    2PC      HX 5548   6.304   3.020   5.325
    2PC      C3 5549   6.463   3.021   5.478
    2PC      HA 5550   6.392   3.063   5.549
    2PC      HB 5551   6.478   2.916   5.505
    2PC     O31 5552   6.583   3.098   5.495
    2PC     P31 5553   6.680   3.096   5.622
    2PC     O32 5554   6.764   3.233   5.615
    2PC     C31 5555   6.828   3.286   5.733
    2PC     H1A 5556   6.749   3.296   5.808
    2PC     H1B 5557   6.891   3.204   5.767
    2PC     C32 5558   6.904   3.414   5.695
    2PC     H2A 5559   6.972   3.443   5.775
    2PC     H2B 5560   6.958   3.392   5.603
    2PC     N31 5561   6.820   3.532   5.656
    2PC     C33 5562   6.722   3.577   5.760
    2PC     H3A 5563   6.774   3.570   5.856
    2PC     H3B 5564   6.702   3.682   5.737
    2PC     H3C 5565   6.634   3.513   5.755
    2PC     C34 5566   6.919   3.644   5.639
    2PC     H4A 5567   6.855   3.725   5.606
    2PC     H4B 5568   6.970   3.674   5.731
    2PC     H4C 5569   6.993   3.622   5.561
    2PC     C35 5570   6.748   3.514   5.526
    2PC     H5A 5571   6.691   3.605   5.504
    2PC     H5B 5572   6.694   3.420   5.542
    2PC     H5C 5573   6.826   3.500   5.451
    2PC     O33 5574   6.602   3.075   5.746
    2PC     O34 5575   6.777   2.987   5.603
    2PC     O21 5576   6.482   2.974   5.238
    2PC     C21 5577   6.421   2.939   5.124
    2PC     O22 5578   6.303   2.952   5.102
    3OL     C12 5579   6.513   2.873   5.024
    3OL     H2R 5580   6.487   2.767   5.026
    3OL     H2S 5581   6.619   2.878   5.053
    3OL     C13 5582   6.496   2.944   4.889
    3OL     H3R 5583   6.528   3.048   4.898
    3OL     H3S 5584   6.393   2.945   4.852
    3OL     C14 5585   6.573   2.868   4.779
    3OL     H4R 5586   6.548   2.762   4.771
    3OL     H4S 5587   6.681   2.865   4.789
    3OL     C15 5588   6.546   2.931   4.642
    3OL     H5R 5589   6.572   3.036   4.653
    3OL     H5S 5590   6.442   2.924   4.610
    3OL     C16 5591   6.630   2.865   4.531
    3OL     H6R 5592   6.649   2.760   4.553
    3OL     H6S 5593   6.727   2.914   4.533
    3OL     C17 5594   6.564   2.874   4.393
    3OL     H7R 5595   6.509   2.968   4.383
    3OL     H7S 5596   6.492   2.793   4.383
    3OL     C18 5597   6.660   2.844   4.276
    3OL     H8R 5598   6.698   2.744   4.297
    3OL     H8S 5599   6.748   2.908   4.283
    3OL     C19 5600   6.588   2.859   4.145
    3OL     H9R 5601   6.603   2.956   4.099
    3OL    C110 5602   6.544   2.759   4.069
    3OL    H10R 5603   6.492   2.783   3.976
    3OL    C111 5604   6.546   2.616   4.117
    3OL    H11R 5605   6.495   2.619   4.214
    3OL    H11S 5606   6.652   2.591   4.128
    3OL    C112 5607   6.473   2.521   4.023
    3OL    H12R 5608   6.531   2.504   3.932
    3OL    H12S 5609   6.379   2.566   3.989
    3OL    C113 5610   6.448   2.385   4.090
    3OL    H13R 5611   6.373   2.391   4.169
    3OL    H13S 5612   6.545   2.366   4.137
    3OL    C114 5613   6.403   2.274   3.993
    3OL    H14R 5614   6.313   2.304   3.939
    3OL    H14S 5615   6.387   2.188   4.058
    3OL    C115 5616   6.508   2.233   3.890
    3OL    H15R 5617   6.596   2.201   3.947
    3OL    H15S 5618   6.552   2.320   3.842
    3OL    C116 5619   6.467   2.119   3.795
    3OL    H16R 5620   6.552   2.104   3.729
    3OL    H16S 5621   6.389   2.162   3.732
    3OL    C117 5622   6.427   1.985   3.857
    3OL    H17R 5623   6.346   1.994   3.929
    3OL    H17S 5624   6.520   1.956   3.908
    3OL    C118 5625   6.400   1.879   3.749
    3OL    H18R 5626   6.391   1.784   3.802
    3OL    H18S 5627   6.484   1.869   3.680
    3OL    H18T 5628   6.305   1.895   3.698
    1PA    C116 5629   0.709   0.996   4.018
    1PA    H16R 5630   0.603   1.011   3.996
    1PA    H16S 5631   0.769   1.016   3.929
    1PA    H16T 5632   0.743   1.072   4.090
    1PA    C115 5633   0.733   0.857   4.077
    1PA    H15R 5634   0.710   0.786   3.998
    1PA    H15S 5635   0.835   0.858   4.116
    1PA    C114 5636   0.645   0.842   4.202
    1PA    H14R 5637   0.654   0.931   4.265
    1PA    H14S 5638   0.540   0.839   4.175
    1PA    C113 5639   0.676   0.719   4.288
    1PA    H13R 5640   0.664   0.631   4.224
    1PA    H13S 5641   0.782   0.709   4.312
    1PA    C112 5642   0.585   0.703   4.411
    1PA    H12R 5643   0.612   0.783   4.481
    1PA    H12S 5644   0.478   0.711   4.395
    1PA    C111 5645   0.616   0.569   4.478
    1PA    H11R 5646   0.592   0.488   4.409
    1PA    H11S 5647   0.722   0.560   4.502
    1PA    C110 5648   0.532   0.547   4.605
    1PA    H10R 5649   0.429   0.569   4.577
    1PA    H10S 5650   0.526   0.444   4.641
    1PA     C19 5651   0.573   0.628   4.729
    1PA     H9R 5652   0.668   0.584   4.761
    1PA     H9S 5653   0.592   0.731   4.701
    1PA     C18 5654   0.466   0.608   4.838
    1PA     H8R 5655   0.377   0.659   4.802
    1PA     H8S 5656   0.445   0.501   4.834
    1PA     C17 5657   0.500   0.649   4.982
    1PA     H7R 5658   0.416   0.634   5.051
    1PA     H7S 5659   0.587   0.600   5.026
    1PA     C16 5660   0.525   0.800   4.978
    1PA     H6R 5661   0.613   0.821   4.915
    1PA     H6S 5662   0.433   0.836   4.931
    1PA     C15 5663   0.544   0.852   5.121
    1PA     H5R 5664   0.454   0.845   5.181
    1PA     H5S 5665   0.620   0.799   5.179
    1PA     C14 5666   0.584   1.000   5.104
    1PA     H4R 5667   0.669   0.999   5.036
    1PA     H4S 5668   0.501   1.057   5.062
    1PA     C13 5669   0.638   1.057   5.236
    1PA     H3R 5670   0.703   0.978   5.274
    1PA     H3S 5671   0.685   1.146   5.194
    1PA     C12 5672   0.525   1.085   5.335
    1PA     H2R 5673   0.469   1.164   5.285
    1PA     H2S 5674   0.459   1.000   5.353
    2PC     C11 5675   0.581   1.124   5.470
    2PC     O12 5676   0.699   1.133   5.497
    2PC     O11 5677   0.480   1.141   5.557
    2PC      C1 5678   0.496   1.200   5.687
    2PC      HR 5679   0.404   1.196   5.746
    2PC      HS 5680   0.571   1.145   5.746
    2PC      C2 5681   0.531   1.349   5.672
    2PC      HX 5682   0.610   1.346   5.597
    2PC      C3 5683   0.602   1.399   5.798
    2PC      HA 5684   0.680   1.333   5.837
    2PC      HB 5685   0.650   1.496   5.778
    2PC     O31 5686   0.506   1.411   5.905
    2PC     P31 5687   0.557   1.457   6.049
    2PC     O32 5688   0.582   1.326   6.138
    2PC     C31 5689   0.491   1.215   6.120
    2PC     H1A 5690   0.395   1.247   6.160
    2PC     H1B 5691   0.489   1.187   6.015
    2PC     C32 5692   0.550   1.095   6.196
    2PC     H2A 5693   0.479   1.014   6.178
    2PC     H2B 5694   0.640   1.057   6.149
    2PC     N31 5695   0.575   1.104   6.343
    2PC     C33 5696   0.461   1.163   6.421
    2PC     H3A 5697   0.495   1.176   6.523
    2PC     H3B 5698   0.430   1.252   6.366
    2PC     H3C 5699   0.374   1.097   6.421
    2PC     C34 5700   0.601   0.969   6.403
    2PC     H4A 5701   0.666   0.915   6.334
    2PC     H4B 5702   0.649   0.967   6.502
    2PC     H4C 5703   0.508   0.913   6.409
    2PC     C35 5704   0.694   1.192   6.370
    2PC     H5A 5705   0.728   1.192   6.473
    2PC     H5B 5706   0.675   1.295   6.339
    2PC     H5C 5707   0.780   1.156   6.313
    2PC     O33 5708   0.685   1.528   6.029
    2PC     O34 5709   0.460   1.554   6.106
    2PC     O21 5710   0.417   1.429   5.637
    2PC     C21 5711   0.417   1.481   5.514
    2PC     O22 5712   0.508   1.468   5.435
    3OL     C12 5713   0.280   1.528   5.472
    3OL     H2R 5714   0.229   1.589   5.546
    3OL     H2S 5715   0.221   1.436   5.459
    3OL     C13 5716   0.281   1.608   5.340
    3OL     H3R 5717   0.178   1.610   5.305
    3OL     H3S 5718   0.342   1.558   5.265
    3OL     C14 5719   0.326   1.754   5.350
    3OL     H4R 5720   0.421   1.768   5.401
    3OL     H4S 5721   0.263   1.812   5.418
    3OL     C15 5722   0.318   1.820   5.211
    3OL     H5R 5723   0.224   1.802   5.159
    3OL     H5S 5724   0.399   1.780   5.149
    3OL     C16 5725   0.338   1.970   5.236
    3OL     H6R 5726   0.434   1.974   5.288
    3OL     H6S 5727   0.261   2.006   5.304
    3OL     C17 5728   0.345   2.061   5.113
    3OL     H7R 5729   0.379   2.162   5.140
    3OL     H7S 5730   0.243   2.082   5.081
    3OL     C18 5731   0.428   2.015   4.993
    3OL     H8R 5732   0.413   1.909   4.975
    3OL     H8S 5733   0.528   2.011   5.036
    3OL     C19 5734   0.422   2.112   4.877
    3OL     H9R 5735   0.496   2.191   4.885
    3OL    C110 5736   0.338   2.117   4.775
    3OL    H10R 5737   0.350   2.197   4.702
    3OL    C111 5738   0.222   2.027   4.740
    3OL    H11R 5739   0.131   2.085   4.760
    3OL    H11S 5740   0.229   1.943   4.809
    3OL    C112 5741   0.217   1.979   4.594
    3OL    H12R 5742   0.209   2.066   4.529
    3OL    H12S 5743   0.138   1.907   4.574
    3OL    C113 5744   0.350   1.910   4.561
    3OL    H13R 5745   0.363   1.819   4.620
    3OL    H13S 5746   0.434   1.976   4.584
    3OL    C114 5747   0.360   1.864   4.415
    3OL    H14R 5748   0.299   1.774   4.397
    3OL    H14S 5749   0.466   1.842   4.406
    3OL    C115 5750   0.323   1.969   4.310
    3OL    H15R 5751   0.393   2.052   4.316
    3OL    H15S 5752   0.221   2.006   4.325
    3OL    C116 5753   0.333   1.918   4.166
    3OL    H16R 5754   0.304   2.005   4.106
    3OL    H16S 5755   0.250   1.848   4.151
    3OL    C117 5756   0.469   1.863   4.122
    3OL    H17R 5757   0.496   1.787   4.196
    3OL    H17S 5758   0.551   1.935   4.125
    3OL    C118 5759   0.472   1.804   3.980
    3OL    H18R 5760   0.552   1.730   3.967
    3OL    H18S 5761   0.489   1.881   3.905
    3OL    H18T 5762   0.389   1.738   3.954
    1PA    C116 5763   3.540   0.173   3.541
    1PA    H16R 5764   3.619   0.247   3.531
    1PA    H16S 5765   3.452   0.215   3.589
    1PA    H16T 5766   3.508   0.146   3.440
    1PA    C115 5767   3.600   0.062   3.628
    1PA    H15R 5768   3.536   0.013   3.701
    1PA    H15S 5769   3.650  -0.020   3.574
    1PA    C114 5770   3.717   0.114   3.713
    1PA    H14R 5771   3.767   0.032   3.764
    1PA    H14S 5772   3.786   0.158   3.640
    1PA    C113 5773   3.673   0.229   3.805
    1PA    H13R 5774   3.662   0.314   3.737
    1PA    H13S 5775   3.582   0.201   3.857
    1PA    C112 5776   3.776   0.256   3.916
    1PA    H12R 5777   3.872   0.217   3.883
    1PA    H12S 5778   3.793   0.364   3.917
    1PA    C111 5779   3.730   0.188   4.046
    1PA    H11R 5780   3.632   0.227   4.074
    1PA    H11S 5781   3.718   0.081   4.029
    1PA    C110 5782   3.826   0.218   4.162
    1PA    H10R 5783   3.913   0.153   4.152
    1PA    H10S 5784   3.850   0.323   4.147
    1PA     C19 5785   3.764   0.180   4.297
    1PA     H9R 5786   3.676   0.241   4.318
    1PA     H9S 5787   3.753   0.071   4.302
    1PA     C18 5788   3.871   0.204   4.405
    1PA     H8R 5789   3.944   0.122   4.411
    1PA     H8S 5790   3.938   0.290   4.394
    1PA     C17 5791   3.808   0.194   4.545
    1PA     H7R 5792   3.725   0.259   4.574
    1PA     H7S 5793   3.755   0.100   4.529
    1PA     C16 5794   3.906   0.189   4.662
    1PA     H6R 5795   3.972   0.104   4.649
    1PA     H6S 5796   3.958   0.285   4.658
    1PA     C15 5797   3.823   0.196   4.792
    1PA     H5R 5798   3.756   0.281   4.801
    1PA     H5S 5799   3.768   0.102   4.801
    1PA     C14 5800   3.920   0.192   4.911
    1PA     H4R 5801   3.968   0.094   4.918
    1PA     H4S 5802   3.995   0.271   4.899
    1PA     C13 5803   3.848   0.203   5.045
    1PA     H3R 5804   3.774   0.123   5.044
    1PA     H3S 5805   3.918   0.184   5.127
    1PA     C12 5806   3.763   0.329   5.069
    1PA     H2R 5807   3.821   0.413   5.032
    1PA     H2S 5808   3.675   0.321   5.004
    2PC     C11 5809   3.744   0.350   5.217
    2PC     O12 5810   3.769   0.455   5.273
    2PC     O11 5811   3.702   0.240   5.281
    2PC      C1 5812   3.672   0.239   5.421
    2PC      HR 5813   3.675   0.134   5.448
    2PC      HS 5814   3.746   0.298   5.476
    2PC      C2 5815   3.537   0.306   5.454
    2PC      HX 5816   3.525   0.411   5.428
    2PC      C3 5817   3.507   0.282   5.603
    2PC      HA 5818   3.479   0.178   5.622
    2PC      HB 5819   3.601   0.295   5.657
    2PC     O31 5820   3.415   0.383   5.645
    2PC     P31 5821   3.404   0.400   5.804
    2PC     O32 5822   3.381   0.558   5.817
    2PC     C31 5823   3.434   0.623   5.935
    2PC     H1A 5824   3.406   0.565   6.023
    2PC     H1B 5825   3.543   0.631   5.931
    2PC     C32 5826   3.376   0.765   5.938
    2PC     H2A 5827   3.421   0.814   5.852
    2PC     H2B 5828   3.267   0.763   5.932
    2PC     N31 5829   3.410   0.856   6.052
    2PC     C33 5830   3.351   0.990   6.020
    2PC     H3A 5831   3.339   1.046   6.113
    2PC     H3B 5832   3.413   1.045   5.949
    2PC     H3C 5833   3.255   0.967   5.974
    2PC     C34 5834   3.353   0.824   6.187
    2PC     H4A 5835   3.351   0.917   6.244
    2PC     H4B 5836   3.250   0.788   6.186
    2PC     H4C 5837   3.414   0.747   6.235
    2PC     C35 5838   3.559   0.872   6.063
    2PC     H5A 5839   3.602   0.905   5.968
    2PC     H5B 5840   3.607   0.780   6.097
    2PC     H5C 5841   3.567   0.951   6.137
    2PC     O33 5842   3.298   0.323   5.873
    2PC     O34 5843   3.527   0.368   5.880
    2PC     O21 5844   3.441   0.227   5.383
    2PC     C21 5845   3.379   0.290   5.282
    2PC     O22 5846   3.398   0.402   5.241
    3OL     C12 5847   3.283   0.196   5.212
    3OL     H2R 5848   3.188   0.249   5.217
    3OL     H2S 5849   3.288   0.098   5.260
    3OL     C13 5850   3.320   0.187   5.063
    3OL     H3R 5851   3.348   0.283   5.018
    3OL     H3S 5852   3.235   0.152   5.004
    3OL     C14 5853   3.439   0.091   5.049
    3OL     H4R 5854   3.410  -0.004   5.093
    3OL     H4S 5855   3.529   0.131   5.096
    3OL     C15 5856   3.472   0.060   4.902
    3OL     H5R 5857   3.568   0.008   4.899
    3OL     H5S 5858   3.488   0.157   4.855
    3OL     C16 5859   3.373  -0.030   4.828
    3OL     H6R 5860   3.271   0.009   4.817
    3OL     H6S 5861   3.365  -0.123   4.885
    3OL     C17 5862   3.438  -0.072   4.696
    3OL     H7R 5863   3.365  -0.146   4.663
    3OL     H7S 5864   3.532  -0.127   4.707
    3OL     C18 5865   3.463   0.039   4.592
    3OL     H8R 5866   3.518  -0.011   4.512
    3OL     H8S 5867   3.529   0.119   4.627
    3OL     C19 5868   3.333   0.090   4.537
    3OL     H9R 5869   3.294   0.164   4.607
    3OL    C110 5870   3.283   0.073   4.416
    3OL    H10R 5871   3.193   0.134   4.406
    3OL    C111 5872   3.326  -0.014   4.301
    3OL    H11R 5873   3.250  -0.089   4.278
    3OL    H11S 5874   3.419  -0.070   4.313
    3OL    C112 5875   3.367   0.068   4.178
    3OL    H12R 5876   3.420   0.009   4.103
    3OL    H12S 5877   3.432   0.147   4.217
    3OL    C113 5878   3.253   0.147   4.112
    3OL    H13R 5879   3.194   0.201   4.186
    3OL    H13S 5880   3.203   0.062   4.064
    3OL    C114 5881   3.313   0.245   4.011
    3OL    H14R 5882   3.365   0.196   3.928
    3OL    H14S 5883   3.383   0.294   4.078
    3OL    C115 5884   3.204   0.347   3.974
    3OL    H15R 5885   3.171   0.409   4.058
    3OL    H15S 5886   3.122   0.289   3.930
    3OL    C116 5887   3.228   0.442   3.856
    3OL    H16R 5888   3.133   0.487   3.826
    3OL    H16S 5889   3.259   0.384   3.769
    3OL    C117 5890   3.324   0.556   3.891
    3OL    H17R 5891   3.420   0.511   3.919
    3OL    H17S 5892   3.275   0.608   3.972
    3OL    C118 5893   3.355   0.655   3.778
    3OL    H18R 5894   3.414   0.741   3.811
    3OL    H18S 5895   3.267   0.695   3.726
    3OL    H18T 5896   3.414   0.610   3.699
    1PA    C116 5897   0.719   2.513   3.731
    1PA    H16R 5898   0.645   2.470   3.798
    1PA    H16S 5899   0.772   2.424   3.697
    1PA    H16T 5900   0.684   2.569   3.644
    1PA    C115 5901   0.808   2.595   3.826
    1PA    H15R 5902   0.900   2.626   3.776
    1PA    H15S 5903   0.756   2.691   3.832
    1PA    C114 5904   0.833   2.530   3.962
    1PA    H14R 5905   0.740   2.521   4.018
    1PA    H14S 5906   0.868   2.428   3.946
    1PA    C113 5907   0.937   2.619   4.032
    1PA    H13R 5908   1.026   2.623   3.968
    1PA    H13S 5909   0.906   2.723   4.046
    1PA    C112 5910   0.972   2.554   4.166
    1PA    H12R 5911   0.877   2.531   4.215
    1PA    H12S 5912   1.015   2.455   4.148
    1PA    C111 5913   1.059   2.644   4.254
    1PA    H11R 5914   1.149   2.678   4.202
    1PA    H11S 5915   1.005   2.736   4.277
    1PA    C110 5916   1.104   2.576   4.384
    1PA    H10R 5917   1.011   2.540   4.428
    1PA    H10S 5918   1.173   2.494   4.364
    1PA     C19 5919   1.170   2.677   4.480
    1PA     H9R 5920   1.269   2.637   4.505
    1PA     H9S 5921   1.191   2.777   4.442
    1PA     C18 5922   1.095   2.697   4.612
    1PA     H8R 5923   0.994   2.731   4.586
    1PA     H8S 5924   1.091   2.604   4.670
    1PA     C17 5925   1.164   2.809   4.691
    1PA     H7R 5926   1.264   2.771   4.711
    1PA     H7S 5927   1.174   2.895   4.624
    1PA     C16 5928   1.078   2.850   4.812
    1PA     H6R 5929   1.091   2.953   4.844
    1PA     H6S 5930   0.975   2.829   4.781
    1PA     C15 5931   1.103   2.756   4.931
    1PA     H5R 5932   1.072   2.656   4.902
    1PA     H5S 5933   1.211   2.750   4.944
    1PA     C14 5934   1.026   2.792   5.059
    1PA     H4R 5935   1.064   2.726   5.138
    1PA     H4S 5936   1.056   2.893   5.085
    1PA     C13 5937   0.873   2.778   5.056
    1PA     H3R 5938   0.824   2.799   4.960
    1PA     H3S 5939   0.855   2.671   5.067
    1PA     C12 5940   0.800   2.849   5.170
    1PA     H2R 5941   0.805   2.958   5.170
    1PA     H2S 5942   0.699   2.807   5.173
    2PC     C11 5943   0.852   2.810   5.306
    2PC     O12 5944   0.883   2.893   5.389
    2PC     O11 5945   0.863   2.678   5.328
    2PC      C1 5946   0.933   2.636   5.446
    2PC      HR 5947   1.026   2.693   5.455
    2PC      HS 5948   0.877   2.659   5.538
    2PC      C2 5949   0.971   2.487   5.443
    2PC      HX 5950   0.882   2.430   5.414
    2PC      C3 5951   1.018   2.449   5.584
    2PC      HA 5952   0.933   2.469   5.648
    2PC      HB 5953   1.046   2.344   5.588
    2PC     O31 5954   1.121   2.539   5.630
    2PC     P31 5955   1.174   2.515   5.779
    2PC     O32 5956   1.073   2.586   5.882
    2PC     C31 5957   1.061   2.520   6.009
    2PC     H1A 5958   1.156   2.469   6.025
    2PC     H1B 5959   1.062   2.587   6.095
    2PC     C32 5960   0.951   2.413   6.002
    2PC     H2A 5961   0.850   2.451   5.987
    2PC     H2B 5962   0.963   2.353   5.912
    2PC     N31 5963   0.942   2.312   6.113
    2PC     C33 5964   1.066   2.230   6.132
    2PC     H3A 5965   1.052   2.145   6.198
    2PC     H3B 5966   1.091   2.197   6.031
    2PC     H3C 5967   1.146   2.293   6.172
    2PC     C34 5968   0.928   2.392   6.240
    2PC     H4A 5969   1.005   2.468   6.249
    2PC     H4B 5970   0.835   2.449   6.242
    2PC     H4C 5971   0.929   2.328   6.328
    2PC     C35 5972   0.831   2.212   6.098
    2PC     H5A 5973   0.839   2.151   6.008
    2PC     H5B 5974   0.738   2.269   6.104
    2PC     H5C 5975   0.843   2.140   6.179
    2PC     O33 5976   1.207   2.375   5.813
    2PC     O34 5977   1.308   2.575   5.796
    2PC     O21 5978   1.081   2.460   5.354
    2PC     C21 5979   1.054   2.454   5.223
    2PC     O22 5980   0.940   2.444   5.182
    3OL     C12 5981   1.182   2.445   5.144
    3OL     H2R 5982   1.263   2.420   5.213
    3OL     H2S 5983   1.212   2.540   5.100
    3OL     C13 5984   1.169   2.354   5.021
    3OL     H3R 5985   1.121   2.427   4.955
    3OL     H3S 5986   1.092   2.277   5.026
    3OL     C14 5987   1.301   2.305   4.959
    3OL     H4R 5988   1.363   2.254   5.033
    3OL     H4S 5989   1.357   2.396   4.937
    3OL     C15 5990   1.283   2.235   4.824
    3OL     H5R 5991   1.211   2.155   4.843
    3OL     H5S 5992   1.374   2.185   4.791
    3OL     C16 5993   1.226   2.332   4.720
    3OL     H6R 5994   1.303   2.407   4.700
    3OL     H6S 5995   1.126   2.361   4.752
    3OL     C17 5996   1.211   2.244   4.594
    3OL     H7R 5997   1.164   2.306   4.518
    3OL     H7S 5998   1.146   2.163   4.626
    3OL     C18 5999   1.344   2.202   4.531
    3OL     H8R 6000   1.374   2.098   4.550
    3OL     H8S 6001   1.427   2.260   4.573
    3OL     C19 6002   1.349   2.205   4.381
    3OL     H9R 6003   1.284   2.130   4.335
    3OL    C110 6004   1.419   2.288   4.306
    3OL    H10R 6005   1.416   2.289   4.197
    3OL    C111 6006   1.500   2.399   4.368
    3OL    H11R 6007   1.582   2.368   4.433
    3OL    H11S 6008   1.448   2.468   4.435
    3OL    C112 6009   1.551   2.494   4.259
    3OL    H12R 6010   1.604   2.441   4.180
    3OL    H12S 6011   1.632   2.552   4.304
    3OL    C113 6012   1.444   2.590   4.205
    3OL    H13R 6013   1.410   2.656   4.286
    3OL    H13S 6014   1.359   2.535   4.164
    3OL    C114 6015   1.501   2.675   4.090
    3OL    H14R 6016   1.410   2.706   4.037
    3OL    H14S 6017   1.560   2.611   4.024
    3OL    C115 6018   1.581   2.797   4.137
    3OL    H15R 6019   1.653   2.757   4.209
    3OL    H15S 6020   1.515   2.864   4.193
    3OL    C116 6021   1.647   2.868   4.019
    3OL    H16R 6022   1.571   2.909   3.952
    3OL    H16S 6023   1.709   2.792   3.970
    3OL    C117 6024   1.751   2.971   4.066
    3OL    H17R 6025   1.838   2.923   4.111
    3OL    H17S 6026   1.699   3.038   4.133
    3OL    C118 6027   1.802   3.062   3.953
    3OL    H18R 6028   1.857   2.993   3.889
    3OL    H18S 6029   1.880   3.136   3.975
    3OL    H18T 6030   1.716   3.110   3.905
    1PA    C116 6031   0.727   3.786   3.478
    1PA    H16R 6032   0.627   3.823   3.454
    1PA    H16S 6033   0.748   3.700   3.415
    1PA    H16T 6034   0.793   3.869   3.452
    1PA    C115 6035   0.752   3.757   3.627
    1PA    H15R 6036   0.827   3.678   3.632
    1PA    H15S 6037   0.795   3.841   3.683
    1PA    C114 6038   0.619   3.717   3.691
    1PA    H14R 6039   0.546   3.797   3.676
    1PA    H14S 6040   0.585   3.625   3.643
    1PA    C113 6041   0.624   3.686   3.842
    1PA    H13R 6042   0.529   3.640   3.867
    1PA    H13S 6043   0.706   3.617   3.865
    1PA    C112 6044   0.628   3.816   3.923
    1PA    H12R 6045   0.720   3.868   3.896
    1PA    H12S 6046   0.543   3.877   3.892
    1PA    C111 6047   0.628   3.796   4.075
    1PA    H11R 6048   0.533   3.750   4.102
    1PA    H11S 6049   0.717   3.745   4.113
    1PA    C110 6050   0.613   3.924   4.159
    1PA    H10R 6051   0.677   4.001   4.118
    1PA    H10S 6052   0.512   3.958   4.135
    1PA     C19 6053   0.628   3.915   4.312
    1PA     H9R 6054   0.580   4.008   4.342
    1PA     H9S 6055   0.578   3.824   4.346
    1PA     C18 6056   0.774   3.918   4.358
    1PA     H8R 6057   0.826   3.835   4.310
    1PA     H8S 6058   0.821   4.007   4.316
    1PA     C17 6059   0.786   3.922   4.511
    1PA     H7R 6060   0.758   3.820   4.536
    1PA     H7S 6061   0.889   3.937   4.543
    1PA     C16 6062   0.705   4.029   4.586
    1PA     H6R 6063   0.730   4.126   4.544
    1PA     H6S 6064   0.597   4.015   4.572
    1PA     C15 6065   0.730   4.036   4.738
    1PA     H5R 6066   0.687   3.940   4.769
    1PA     H5S 6067   0.835   4.037   4.767
    1PA     C14 6068   0.653   4.150   4.805
    1PA     H4R 6069   0.679   4.241   4.752
    1PA     H4S 6070   0.547   4.130   4.794
    1PA     C13 6071   0.673   4.156   4.957
    1PA     H3R 6072   0.773   4.184   4.991
    1PA     H3S 6073   0.609   4.231   5.005
    1PA     C12 6074   0.632   4.025   5.026
    1PA     H2R 6075   0.537   3.983   4.991
    1PA     H2S 6076   0.707   3.949   5.003
    2PC     C11 6077   0.632   4.047   5.175
    2PC     O12 6078   0.578   3.977   5.258
    2PC     O11 6079   0.717   4.144   5.212
    2PC      C1 6080   0.743   4.175   5.350
    2PC      HR 6081   0.650   4.194   5.405
    2PC      HS 6082   0.797   4.095   5.401
    2PC      C2 6083   0.824   4.305   5.353
    2PC      HX 6084   0.902   4.306   5.276
    2PC      C3 6085   0.888   4.328   5.491
    2PC      HA 6086   0.975   4.263   5.491
    2PC      HB 6087   0.933   4.427   5.504
    2PC     O31 6088   0.794   4.297   5.595
    2PC     P31 6089   0.852   4.307   5.743
    2PC     O32 6090   0.829   4.160   5.804
    2PC     C31 6091   0.693   4.116   5.816
    2PC     H1A 6092   0.633   4.198   5.856
    2PC     H1B 6093   0.651   4.086   5.719
    2PC     C32 6094   0.675   4.000   5.915
    2PC     H2A 6095   0.573   3.963   5.915
    2PC     H2B 6096   0.728   3.909   5.888
    2PC     N31 6097   0.706   4.022   6.060
    2PC     C33 6098   0.606   4.127   6.098
    2PC     H3A 6099   0.568   4.109   6.199
    2PC     H3B 6100   0.664   4.219   6.105
    2PC     H3C 6101   0.531   4.136   6.020
    2PC     C34 6102   0.680   3.907   6.154
    2PC     H4A 6103   0.664   3.937   6.257
    2PC     H4B 6104   0.582   3.864   6.133
    2PC     H4C 6105   0.767   3.841   6.157
    2PC     C35 6106   0.847   4.062   6.091
    2PC     H5A 6107   0.869   4.157   6.042
    2PC     H5B 6108   0.916   3.982   6.060
    2PC     H5C 6109   0.861   4.063   6.199
    2PC     O33 6110   0.988   4.366   5.737
    2PC     O34 6111   0.775   4.412   5.813
    2PC     O21 6112   0.734   4.414   5.325
    2PC     C21 6113   0.777   4.537   5.291
    2PC     O22 6114   0.894   4.571   5.294
    3OL     C12 6115   0.663   4.628   5.258
    3OL     H2R 6116   0.687   4.735   5.259
    3OL     H2S 6117   0.589   4.617   5.337
    3OL     C13 6118   0.588   4.591   5.128
    3OL     H3R 6119   0.486   4.629   5.125
    3OL     H3S 6120   0.574   4.483   5.131
    3OL     C14 6121   0.660   4.635   5.000
    3OL     H4R 6122   0.766   4.611   5.009
    3OL     H4S 6123   0.660   4.744   4.992
    3OL     C15 6124   0.587   4.579   4.877
    3OL     H5R 6125   0.481   4.600   4.895
    3OL     H5S 6126   0.596   4.470   4.876
    3OL     C16 6127   0.643   4.640   4.749
    3OL     H6R 6128   0.741   4.592   4.744
    3OL     H6S 6129   0.662   4.748   4.761
    3OL     C17 6130   0.546   4.619   4.632
    3OL     H7R 6131   0.444   4.643   4.662
    3OL     H7S 6132   0.540   4.515   4.600
    3OL     C18 6133   0.585   4.702   4.510
    3OL     H8R 6134   0.570   4.807   4.538
    3OL     H8S 6135   0.514   4.681   4.430
    3OL     C19 6136   0.724   4.677   4.455
    3OL     H9R 6137   0.737   4.579   4.410
    3OL    C110 6138   0.831   4.752   4.473
    3OL    H10R 6139   0.917   4.721   4.414
    3OL    C111 6140   0.829   4.891   4.532
    3OL    H11R 6141   0.897   4.894   4.618
    3OL    H11S 6142   0.729   4.923   4.560
    3OL    C112 6143   0.869   4.992   4.423
    3OL    H12R 6144   0.962   4.957   4.379
    3OL    H12S 6145   0.906   5.085   4.468
    3OL    C113 6146   0.765   5.017   4.312
    3OL    H13R 6147   0.773   5.123   4.286
    3OL    H13S 6148   0.664   5.027   4.353
    3OL    C114 6149   0.766   4.923   4.191
    3OL    H14R 6150   0.729   4.822   4.208
    3OL    H14S 6151   0.870   4.913   4.158
    3OL    C115 6152   0.690   4.984   4.072
    3OL    H15R 6153   0.736   4.946   3.981
    3OL    H15S 6154   0.695   5.093   4.066
    3OL    C116 6155   0.544   4.938   4.086
    3OL    H16R 6156   0.496   5.011   4.152
    3OL    H16S 6157   0.539   4.841   4.136
    3OL    C117 6158   0.481   4.938   3.946
    3OL    H17R 6159   0.524   4.854   3.891
    3OL    H17S 6160   0.507   5.029   3.891
    3OL    C118 6161   0.328   4.930   3.940
    3OL    H18R 6162   0.282   4.856   3.874
    3OL    H18S 6163   0.282   5.028   3.920
    3OL    H18T 6164   0.298   4.908   4.043
    1PA    C116 6165   4.168   1.187   4.549
    1PA    H16R 6166   4.243   1.110   4.528
    1PA    H16S 6167   4.106   1.155   4.633
    1PA    H16T 6168   4.223   1.277   4.577
    1PA    C115 6169   4.091   1.214   4.419
    1PA    H15R 6170   4.044   1.312   4.419
    1PA    H15S 6171   4.150   1.209   4.327
    1PA    C114 6172   3.974   1.117   4.397
    1PA    H14R 6173   3.957   1.128   4.290
    1PA    H14S 6174   4.010   1.014   4.400
    1PA    C113 6175   3.849   1.138   4.484
    1PA    H13R 6176   3.873   1.119   4.589
    1PA    H13S 6177   3.812   1.241   4.481
    1PA    C112 6178   3.730   1.053   4.438
    1PA    H12R 6179   3.700   1.082   4.337
    1PA    H12S 6180   3.745   0.945   4.433
    1PA    C111 6181   3.604   1.072   4.523
    1PA    H11R 6182   3.594   1.176   4.555
    1PA    H11S 6183   3.521   1.060   4.453
    1PA    C110 6184   3.578   0.977   4.641
    1PA    H10R 6185   3.598   0.873   4.614
    1PA    H10S 6186   3.654   0.977   4.719
    1PA     C19 6187   3.437   1.009   4.693
    1PA     H9R 6188   3.364   1.033   4.615
    1PA     H9S 6189   3.406   0.923   4.753
    1PA     C18 6190   3.428   1.126   4.792
    1PA     H8R 6191   3.489   1.113   4.881
    1PA     H8S 6192   3.462   1.215   4.740
    1PA     C17 6193   3.283   1.143   4.838
    1PA     H7R 6194   3.229   1.150   4.744
    1PA     H7S 6195   3.248   1.049   4.881
    1PA     C16 6196   3.277   1.270   4.925
    1PA     H6R 6197   3.298   1.357   4.863
    1PA     H6S 6198   3.174   1.279   4.959
    1PA     C15 6199   3.363   1.276   5.052
    1PA     H5R 6200   3.347   1.183   5.106
    1PA     H5S 6201   3.469   1.282   5.026
    1PA     C14 6202   3.322   1.392   5.144
    1PA     H4R 6203   3.412   1.439   5.182
    1PA     H4S 6204   3.268   1.465   5.083
    1PA     C13 6205   3.212   1.349   5.242
    1PA     H3R 6206   3.153   1.438   5.264
    1PA     H3S 6207   3.156   1.264   5.203
    1PA     C12 6208   3.281   1.292   5.367
    1PA     H2R 6209   3.200   1.245   5.424
    1PA     H2S 6210   3.351   1.215   5.334
    2PC     C11 6211   3.333   1.398   5.462
    2PC     O12 6212   3.259   1.485   5.502
    2PC     O11 6213   3.461   1.382   5.500
    2PC      C1 6214   3.519   1.490   5.576
    2PC      HR 6215   3.520   1.585   5.522
    2PC      HS 6216   3.456   1.501   5.664
    2PC      C2 6217   3.661   1.452   5.620
    2PC      HX 6218   3.649   1.344   5.632
    2PC      C3 6219   3.698   1.497   5.762
    2PC      HA 6220   3.636   1.437   5.829
    2PC      HB 6221   3.804   1.497   5.788
    2PC     O31 6222   3.660   1.635   5.782
    2PC     P31 6223   3.672   1.709   5.923
    2PC     O32 6224   3.580   1.638   6.033
    2PC     C31 6225   3.441   1.624   5.996
    2PC     H1A 6226   3.400   1.716   5.954
    2PC     H1B 6227   3.432   1.548   5.918
    2PC     C32 6228   3.354   1.576   6.113
    2PC     H2A 6229   3.251   1.563   6.081
    2PC     H2B 6230   3.399   1.491   6.164
    2PC     N31 6231   3.326   1.676   6.221
    2PC     C33 6232   3.218   1.775   6.189
    2PC     H3A 6233   3.234   1.817   6.089
    2PC     H3B 6234   3.121   1.726   6.190
    2PC     H3C 6235   3.209   1.857   6.261
    2PC     C34 6236   3.286   1.609   6.349
    2PC     H4A 6237   3.376   1.583   6.406
    2PC     H4B 6238   3.236   1.682   6.414
    2PC     H4C 6239   3.217   1.526   6.331
    2PC     C35 6240   3.448   1.758   6.250
    2PC     H5A 6241   3.537   1.697   6.264
    2PC     H5B 6242   3.430   1.822   6.337
    2PC     H5C 6243   3.465   1.822   6.164
    2PC     O33 6244   3.810   1.696   5.974
    2PC     O34 6245   3.642   1.854   5.917
    2PC     O21 6246   3.770   1.483   5.531
    2PC     C21 6247   3.803   1.607   5.492
    2PC     O22 6248   3.745   1.706   5.531
    3OL     C12 6249   3.916   1.609   5.391
    3OL     H2R 6250   3.879   1.545   5.311
    3OL     H2S 6251   4.001   1.563   5.442
    3OL     C13 6252   3.961   1.743   5.332
    3OL     H3R 6253   3.970   1.813   5.416
    3OL     H3S 6254   3.882   1.789   5.272
    3OL     C14 6255   4.088   1.740   5.247
    3OL     H4R 6256   4.171   1.715   5.314
    3OL     H4S 6257   4.109   1.837   5.202
    3OL     C15 6258   4.075   1.630   5.141
    3OL     H5R 6259   3.980   1.634   5.088
    3OL     H5S 6260   4.086   1.531   5.186
    3OL     C16 6261   4.187   1.651   5.039
    3OL     H6R 6262   4.276   1.664   5.101
    3OL     H6S 6263   4.165   1.736   4.974
    3OL     C17 6264   4.199   1.526   4.952
    3OL     H7R 6265   4.103   1.518   4.901
    3OL     H7S 6266   4.221   1.435   5.009
    3OL     C18 6267   4.299   1.547   4.838
    3OL     H8R 6268   4.301   1.465   4.766
    3OL     H8S 6269   4.399   1.527   4.878
    3OL     C19 6270   4.291   1.680   4.766
    3OL     H9R 6271   4.320   1.770   4.819
    3OL    C110 6272   4.243   1.697   4.644
    3OL    H10R 6273   4.247   1.800   4.610
    3OL    C111 6274   4.187   1.588   4.555
    3OL    H11R 6275   4.141   1.514   4.620
    3OL    H11S 6276   4.273   1.544   4.504
    3OL    C112 6277   4.089   1.640   4.449
    3OL    H12R 6278   4.000   1.680   4.497
    3OL    H12S 6279   4.061   1.554   4.388
    3OL    C113 6280   4.164   1.740   4.360
    3OL    H13R 6281   4.260   1.705   4.320
    3OL    H13S 6282   4.192   1.819   4.430
    3OL    C114 6283   4.067   1.774   4.247
    3OL    H14R 6284   3.987   1.837   4.288
    3OL    H14S 6285   4.035   1.676   4.211
    3OL    C115 6286   4.125   1.858   4.132
    3OL    H15R 6287   4.198   1.794   4.084
    3OL    H15S 6288   4.177   1.947   4.171
    3OL    C116 6289   4.022   1.872   4.019
    3OL    H16R 6290   3.972   1.776   4.005
    3OL    H16S 6291   4.071   1.891   3.924
    3OL    C117 6292   3.920   1.981   4.055
    3OL    H17R 6293   3.875   1.967   4.154
    3OL    H17S 6294   3.843   1.971   3.978
    3OL    C118 6295   3.977   2.123   4.045
    3OL    H18R 6296   3.996   2.154   3.942
    3OL    H18S 6297   4.071   2.135   4.100
    3OL    H18T 6298   3.907   2.196   4.086
    1PA    C116 6299   5.807   0.869   3.766
    1PA    H16R 6300   5.906   0.845   3.725
    1PA    H16S 6301   5.778   0.970   3.736
    1PA    H16T 6302   5.732   0.803   3.722
    1PA    C115 6303   5.808   0.829   3.914
    1PA    H15R 6304   5.800   0.720   3.917
    1PA    H15S 6305   5.900   0.855   3.967
    1PA    C114 6306   5.692   0.889   3.994
    1PA    H14R 6307   5.685   0.995   3.970
    1PA    H14S 6308   5.606   0.829   3.963
    1PA    C113 6309   5.701   0.874   4.147
    1PA    H13R 6310   5.713   0.767   4.167
    1PA    H13S 6311   5.792   0.912   4.195
    1PA    C112 6312   5.580   0.940   4.213
    1PA    H12R 6313   5.575   1.047   4.192
    1PA    H12S 6314   5.496   0.889   4.168
    1PA    C111 6315   5.574   0.914   4.364
    1PA    H11R 6316   5.580   0.805   4.375
    1PA    H11S 6317   5.665   0.945   4.415
    1PA    C110 6318   5.445   0.966   4.429
    1PA    H10R 6319   5.436   1.075   4.429
    1PA    H10S 6320   5.361   0.918   4.378
    1PA     C19 6321   5.446   0.918   4.575
    1PA     H9R 6322   5.454   0.810   4.560
    1PA     H9S 6323   5.538   0.952   4.624
    1PA     C18 6324   5.321   0.959   4.654
    1PA     H8R 6325   5.317   1.068   4.662
    1PA     H8S 6326   5.228   0.936   4.603
    1PA     C17 6327   5.316   0.898   4.795
    1PA     H7R 6328   5.223   0.915   4.851
    1PA     H7S 6329   5.336   0.791   4.798
    1PA     C16 6330   5.416   0.963   4.893
    1PA     H6R 6331   5.515   0.952   4.850
    1PA     H6S 6332   5.389   1.068   4.900
    1PA     C15 6333   5.433   0.896   5.030
    1PA     H5R 6334   5.338   0.894   5.084
    1PA     H5S 6335   5.464   0.793   5.012
    1PA     C14 6336   5.533   0.954   5.131
    1PA     H4R 6337   5.632   0.946   5.085
    1PA     H4S 6338   5.522   1.062   5.142
    1PA     C13 6339   5.524   0.884   5.267
    1PA     H3R 6340   5.422   0.895   5.302
    1PA     H3S 6341   5.537   0.780   5.236
    1PA     C12 6342   5.624   0.935   5.372
    1PA     H2R 6343   5.727   0.935   5.334
    1PA     H2S 6344   5.601   1.040   5.392
    2PC     C11 6345   5.612   0.850   5.496
    2PC     O12 6346   5.640   0.894   5.605
    2PC     O11 6347   5.574   0.724   5.472
    2PC      C1 6348   5.572   0.639   5.588
    2PC      HR 6349   5.553   0.536   5.558
    2PC      HS 6350   5.670   0.653   5.635
    2PC      C2 6351   5.451   0.672   5.677
    2PC      HX 6352   5.477   0.770   5.718
    2PC      C3 6353   5.424   0.572   5.790
    2PC      HA 6354   5.383   0.485   5.737
    2PC      HB 6355   5.515   0.545   5.843
    2PC     O31 6356   5.325   0.623   5.881
    2PC     P31 6357   5.255   0.517   5.979
    2PC     O32 6358   5.187   0.619   6.082
    2PC     C31 6359   5.074   0.695   6.037
    2PC     H1A 6360   5.119   0.755   5.957
    2PC     H1B 6361   4.994   0.630   6.001
    2PC     C32 6362   5.017   0.781   6.150
    2PC     H2A 6363   4.998   0.714   6.235
    2PC     H2B 6364   5.092   0.855   6.179
    2PC     N31 6365   4.895   0.860   6.115
    2PC     C33 6366   4.776   0.772   6.088
    2PC     H3A 6367   4.731   0.726   6.175
    2PC     H3B 6368   4.694   0.825   6.040
    2PC     H3C 6369   4.806   0.693   6.019
    2PC     C34 6370   4.864   0.948   6.233
    2PC     H4A 6371   4.868   0.897   6.329
    2PC     H4B 6372   4.949   1.015   6.243
    2PC     H4C 6373   4.774   1.005   6.209
    2PC     C35 6374   4.918   0.952   5.999
    2PC     H5A 6375   4.999   1.019   6.030
    2PC     H5B 6376   4.826   1.007   5.980
    2PC     H5C 6377   4.947   0.897   5.910
    2PC     O33 6378   5.148   0.441   5.910
    2PC     O34 6379   5.337   0.410   6.040
    2PC     O21 6380   5.332   0.696   5.599
    2PC     C21 6381   5.275   0.608   5.516
    2PC     O22 6382   5.313   0.494   5.499
    3OL     C12 6383   5.158   0.665   5.440
    3OL     H2R 6384   5.128   0.767   5.464
    3OL     H2S 6385   5.062   0.626   5.475
    3OL     C13 6386   5.160   0.648   5.288
    3OL     H3R 6387   5.160   0.539   5.282
    3OL     H3S 6388   5.256   0.690   5.257
    3OL     C14 6389   5.045   0.727   5.226
    3OL     H4R 6390   5.064   0.834   5.240
    3OL     H4S 6391   4.954   0.709   5.284
    3OL     C15 6392   5.039   0.699   5.075
    3OL     H5R 6393   4.989   0.602   5.067
    3OL     H5S 6394   5.133   0.683   5.022
    3OL     C16 6395   4.951   0.797   4.997
    3OL     H6R 6396   4.981   0.901   5.013
    3OL     H6S 6397   4.846   0.788   5.023
    3OL     C17 6398   4.969   0.767   4.847
    3OL     H7R 6399   4.933   0.670   4.813
    3OL     H7S 6400   5.075   0.759   4.823
    3OL     C18 6401   4.887   0.872   4.772
    3OL     H8R 6402   4.918   0.966   4.819
    3OL     H8S 6403   4.779   0.857   4.783
    3OL     C19 6404   4.922   0.878   4.625
    3OL     H9R 6405   5.023   0.848   4.601
    3OL    C110 6406   4.847   0.910   4.521
    3OL    H10R 6407   4.903   0.930   4.430
    3OL    C111 6408   4.706   0.962   4.532
    3OL    H11R 6409   4.707   1.071   4.534
    3OL    H11S 6410   4.660   0.943   4.630
    3OL    C112 6411   4.618   0.915   4.415
    3OL    H12R 6412   4.624   0.806   4.411
    3OL    H12S 6413   4.655   0.955   4.320
    3OL    C113 6414   4.477   0.972   4.434
    3OL    H13R 6415   4.486   1.080   4.426
    3OL    H13S 6416   4.450   0.954   4.539
    3OL    C114 6417   4.375   0.923   4.330
    3OL    H14R 6418   4.275   0.938   4.370
    3OL    H14S 6419   4.377   0.815   4.309
    3OL    C115 6420   4.381   1.003   4.200
    3OL    H15R 6421   4.471   0.984   4.142
    3OL    H15S 6422   4.395   1.106   4.234
    3OL    C116 6423   4.251   0.984   4.120
    3OL    H16R 6424   4.172   1.043   4.166
    3OL    H16S 6425   4.231   0.877   4.108
    3OL    C117 6426   4.274   1.034   3.976
    3OL    H17R 6427   4.350   0.972   3.930
    3OL    H17S 6428   4.307   1.138   3.980
    3OL    C118 6429   4.146   1.032   3.891
    3OL    H18R 6430   4.165   1.065   3.789
    3OL    H18S 6431   4.073   1.101   3.935
    3OL    H18T 6432   4.112   0.929   3.878
    1PA    C116 6433   0.908   0.584   3.980
    1PA    H16R 6434   0.851   0.624   4.064
    1PA    H16S 6435   0.844   0.555   3.896
    1PA    H16T 6436   0.970   0.670   3.952
    1PA    C115 6437   1.000   0.467   4.018
    1PA    H15R 6438   0.949   0.371   4.011
    1PA    H15S 6439   1.079   0.463   3.942
    1PA    C114 6440   1.059   0.485   4.159
    1PA    H14R 6441   1.118   0.576   4.172
    1PA    H14S 6442   0.973   0.495   4.225
    1PA    C113 6443   1.126   0.356   4.208
    1PA    H13R 6444   1.056   0.272   4.201
    1PA    H13S 6445   1.211   0.343   4.141
    1PA    C112 6446   1.172   0.367   4.353
    1PA    H12R 6447   1.093   0.411   4.415
    1PA    H12S 6448   1.195   0.269   4.396
    1PA    C111 6449   1.304   0.439   4.385
    1PA    H11R 6450   1.384   0.385   4.334
    1PA    H11S 6451   1.310   0.540   4.346
    1PA    C110 6452   1.339   0.434   4.535
    1PA    H10R 6453   1.278   0.501   4.596
    1PA    H10S 6454   1.319   0.337   4.581
    1PA     C19 6455   1.487   0.462   4.562
    1PA     H9R 6456   1.537   0.375   4.521
    1PA     H9S 6457   1.524   0.553   4.514
    1PA     C18 6458   1.503   0.468   4.715
    1PA     H8R 6459   1.425   0.534   4.754
    1PA     H8S 6460   1.477   0.371   4.758
    1PA     C17 6461   1.646   0.514   4.748
    1PA     H7R 6462   1.717   0.439   4.714
    1PA     H7S 6463   1.676   0.604   4.694
    1PA     C16 6464   1.657   0.533   4.900
    1PA     H6R 6465   1.598   0.619   4.934
    1PA     H6S 6466   1.626   0.446   4.958
    1PA     C15 6467   1.802   0.574   4.925
    1PA     H5R 6468   1.871   0.494   4.898
    1PA     H5S 6469   1.835   0.653   4.857
    1PA     C14 6470   1.817   0.621   5.071
    1PA     H4R 6471   1.742   0.697   5.095
    1PA     H4S 6472   1.806   0.538   5.141
    1PA     C13 6473   1.960   0.672   5.090
    1PA     H3R 6474   2.036   0.603   5.052
    1PA     H3S 6475   1.975   0.764   5.033
    1PA     C12 6476   1.980   0.715   5.236
    1PA     H2R 6477   1.912   0.798   5.258
    1PA     H2S 6478   1.948   0.636   5.303
    2PC     C11 6479   2.125   0.751   5.261
    2PC     O12 6480   2.195   0.787   5.168
    2PC     O11 6481   2.159   0.732   5.389
    2PC      C1 6482   2.289   0.764   5.442
    2PC      HR 6483   2.302   0.725   5.543
    2PC      HS 6484   2.365   0.717   5.381
    2PC      C2 6485   2.319   0.913   5.463
    2PC      HX 6486   2.417   0.932   5.506
    2PC      C3 6487   2.218   0.978   5.559
    2PC      HA 6488   2.117   0.985   5.518
    2PC      HB 6489   2.221   0.921   5.652
    2PC     O31 6490   2.263   1.111   5.591
    2PC     P31 6491   2.165   1.205   5.675
    2PC     O32 6492   2.067   1.271   5.567
    2PC     C31 6493   2.121   1.346   5.456
    2PC     H1A 6494   2.191   1.421   5.493
    2PC     H1B 6495   2.156   1.271   5.384
    2PC     C32 6496   2.004   1.415   5.386
    2PC     H2A 6497   1.989   1.353   5.297
    2PC     H2B 6498   1.920   1.423   5.455
    2PC     N31 6499   2.025   1.556   5.340
    2PC     C33 6500   2.128   1.553   5.231
    2PC     H3A 6501   2.126   1.451   5.193
    2PC     H3B 6502   2.104   1.622   5.150
    2PC     H3C 6503   2.228   1.568   5.271
    2PC     C34 6504   1.900   1.607   5.275
    2PC     H4A 6505   1.881   1.566   5.176
    2PC     H4B 6506   1.824   1.581   5.350
    2PC     H4C 6507   1.899   1.716   5.276
    2PC     C35 6508   2.055   1.654   5.449
    2PC     H5A 6509   2.150   1.622   5.491
    2PC     H5B 6510   1.987   1.643   5.534
    2PC     H5C 6511   2.049   1.754   5.405
    2PC     O33 6512   2.077   1.136   5.772
    2PC     O34 6513   2.237   1.311   5.750
    2PC     O21 6514   2.309   0.981   5.336
    2PC     C21 6515   2.421   0.989   5.263
    2PC     O22 6516   2.527   0.941   5.294
    3OL     C12 6517   2.385   1.071   5.141
    3OL     H2R 6518   2.279   1.095   5.133
    3OL     H2S 6519   2.405   1.018   5.048
    3OL     C13 6520   2.458   1.205   5.135
    3OL     H3R 6521   2.565   1.189   5.116
    3OL     H3S 6522   2.442   1.268   5.223
    3OL     C14 6523   2.399   1.292   5.024
    3OL     H4R 6524   2.441   1.393   5.027
    3OL     H4S 6525   2.291   1.306   5.032
    3OL     C15 6526   2.412   1.238   4.880
    3OL     H5R 6527   2.354   1.146   4.875
    3OL     H5S 6528   2.514   1.212   4.851
    3OL     C16 6529   2.345   1.327   4.775
    3OL     H6R 6530   2.417   1.410   4.778
    3OL     H6S 6531   2.248   1.360   4.810
    3OL     C17 6532   2.356   1.267   4.634
    3OL     H7R 6533   2.310   1.168   4.635
    3OL     H7S 6534   2.461   1.260   4.606
    3OL     C18 6535   2.292   1.367   4.537
    3OL     H8R 6536   2.326   1.467   4.563
    3OL     H8S 6537   2.184   1.382   4.543
    3OL     C19 6538   2.348   1.346   4.398
    3OL     H9R 6539   2.444   1.398   4.388
    3OL    C110 6540   2.299   1.285   4.292
    3OL    H10R 6541   2.346   1.292   4.194
    3OL    C111 6542   2.169   1.208   4.283
    3OL    H11R 6543   2.094   1.272   4.236
    3OL    H11S 6544   2.140   1.186   4.385
    3OL    C112 6545   2.192   1.085   4.193
    3OL    H12R 6546   2.258   1.020   4.251
    3OL    H12S 6547   2.258   1.116   4.112
    3OL    C113 6548   2.070   1.011   4.138
    3OL    H13R 6549   1.989   1.083   4.126
    3OL    H13S 6550   2.041   0.939   4.215
    3OL    C114 6551   2.093   0.938   4.005
    3OL    H14R 6552   2.177   0.869   4.008
    3OL    H14S 6553   2.128   1.009   3.930
    3OL    C115 6554   1.970   0.867   3.946
    3OL    H15R 6555   1.887   0.938   3.936
    3OL    H15S 6556   1.952   0.785   4.015
    3OL    C116 6557   2.000   0.806   3.809
    3OL    H16R 6558   1.921   0.733   3.791
    3OL    H16S 6559   2.099   0.759   3.815
    3OL    C117 6560   1.987   0.905   3.693
    3OL    H17R 6561   2.058   0.986   3.710
    3OL    H17S 6562   1.884   0.941   3.704
    3OL    C118 6563   1.998   0.848   3.550
    3OL    H18R 6564   1.959   0.930   3.489
    3OL    H18S 6565   1.939   0.758   3.533
    3OL    H18T 6566   2.097   0.821   3.514
    1PA    C116 6567   2.239   4.623   4.373
    1PA    H16R 6568   2.217   4.725   4.406
    1PA    H16S 6569   2.177   4.552   4.427
    1PA    H16T 6570   2.210   4.604   4.269
    1PA    C115 6571   2.389   4.593   4.387
    1PA    H15R 6572   2.411   4.574   4.492
    1PA    H15S 6573   2.409   4.498   4.337
    1PA    C114 6574   2.475   4.707   4.330
    1PA    H14R 6575   2.451   4.720   4.224
    1PA    H14S 6576   2.448   4.801   4.379
    1PA    C113 6577   2.625   4.681   4.343
    1PA    H13R 6578   2.659   4.641   4.439
    1PA    H13S 6579   2.649   4.606   4.267
    1PA    C112 6580   2.691   4.816   4.316
    1PA    H12R 6581   2.674   4.859   4.217
    1PA    H12S 6582   2.650   4.896   4.378
    1PA    C111 6583   2.844   4.802   4.323
    1PA    H11R 6584   2.866   4.766   4.424
    1PA    H11S 6585   2.870   4.731   4.243
    1PA    C110 6586   2.927   4.929   4.301
    1PA    H10R 6587   3.030   4.915   4.334
    1PA    H10S 6588   2.922   4.958   4.196
    1PA     C19 6589   2.874   5.047   4.384
    1PA     H9R 6590   2.769   5.072   4.365
    1PA     H9S 6591   2.877   5.018   4.489
    1PA     C18 6592   2.955   5.175   4.354
    1PA     H8R 6593   3.062   5.157   4.358
    1PA     H8S 6594   2.924   5.218   4.258
    1PA     C17 6595   2.923   5.277   4.464
    1PA     H7R 6596   2.815   5.287   4.477
    1PA     H7S 6597   2.967   5.233   4.554
    1PA     C16 6598   2.985   5.416   4.444
    1PA     H6R 6599   3.092   5.400   4.434
    1PA     H6S 6600   2.942   5.468   4.357
    1PA     C15 6601   2.971   5.490   4.577
    1PA     H5R 6602   2.990   5.594   4.547
    1PA     H5S 6603   2.869   5.485   4.617
    1PA     C14 6604   3.080   5.450   4.677
    1PA     H4R 6605   3.161   5.401   4.624
    1PA     H4S 6606   3.118   5.542   4.724
    1PA     C13 6607   3.027   5.366   4.794
    1PA     H3R 6608   2.968   5.284   4.753
    1PA     H3S 6609   3.117   5.317   4.834
    1PA     C12 6610   2.949   5.443   4.901
    1PA     H2R 6611   3.017   5.525   4.923
    1PA     H2S 6612   2.858   5.489   4.860
    2PC     C11 6613   2.918   5.364   5.026
    2PC     O12 6614   2.850   5.405   5.118
    2PC     O11 6615   2.969   5.240   5.027
    2PC      C1 6616   2.953   5.152   5.139
    2PC      HR 6617   3.023   5.069   5.125
    2PC      HS 6618   2.985   5.203   5.230
    2PC      C2 6619   2.813   5.095   5.167
    2PC      HX 6620   2.736   5.169   5.188
    2PC      C3 6621   2.814   5.012   5.296
    2PC      HA 6622   2.830   4.906   5.272
    2PC      HB 6623   2.883   5.045   5.374
    2PC     O31 6624   2.690   5.024   5.366
    2PC     P31 6625   2.651   4.936   5.494
    2PC     O32 6626   2.491   4.936   5.510
    2PC     C31 6627   2.435   5.045   5.585
    2PC     H1A 6628   2.479   5.050   5.685
    2PC     H1B 6629   2.468   5.136   5.535
    2PC     C32 6630   2.284   5.018   5.594
    2PC     H2A 6631   2.225   5.101   5.632
    2PC     H2B 6632   2.238   5.001   5.497
    2PC     N31 6633   2.243   4.892   5.665
    2PC     C33 6634   2.269   4.911   5.811
    2PC     H3A 6635   2.239   4.818   5.860
    2PC     H3B 6636   2.375   4.925   5.832
    2PC     H3C 6637   2.219   5.005   5.838
    2PC     C34 6638   2.096   4.869   5.646
    2PC     H4A 6639   2.076   4.777   5.701
    2PC     H4B 6640   2.042   4.954   5.688
    2PC     H4C 6641   2.070   4.854   5.541
    2PC     C35 6642   2.313   4.765   5.625
    2PC     H5A 6643   2.412   4.778   5.668
    2PC     H5B 6644   2.319   4.751   5.517
    2PC     H5C 6645   2.264   4.676   5.665
    2PC     O33 6646   2.689   4.795   5.472
    2PC     O34 6647   2.722   4.977   5.618
    2PC     O21 6648   2.782   5.014   5.052
    2PC     C21 6649   2.765   5.067   4.930
    2PC     O22 6650   2.717   5.176   4.908
    3OL     C12 6651   2.786   4.974   4.813
    3OL     H2R 6652   2.797   5.032   4.721
    3OL     H2S 6653   2.699   4.908   4.813
    3OL     C13 6654   2.916   4.894   4.831
    3OL     H3R 6655   2.928   4.842   4.926
    3OL     H3S 6656   3.008   4.951   4.815
    3OL     C14 6657   2.926   4.778   4.730
    3OL     H4R 6658   2.917   4.823   4.631
    3OL     H4S 6659   2.849   4.704   4.751
    3OL     C15 6660   3.054   4.692   4.738
    3OL     H5R 6661   3.056   4.629   4.826
    3OL     H5S 6662   3.137   4.762   4.744
    3OL     C16 6663   3.077   4.604   4.615
    3OL     H6R 6664   3.182   4.573   4.613
    3OL     H6S 6665   3.064   4.662   4.523
    3OL     C17 6666   2.988   4.479   4.618
    3OL     H7R 6667   2.883   4.503   4.638
    3OL     H7S 6668   3.021   4.403   4.689
    3OL     C18 6669   2.992   4.400   4.487
    3OL     H8R 6670   2.935   4.310   4.510
    3OL     H8S 6671   3.096   4.376   4.461
    3OL     C19 6672   2.919   4.477   4.379
    3OL     H9R 6673   2.880   4.574   4.409
    3OL    C110 6674   2.894   4.426   4.260
    3OL    H10R 6675   2.827   4.479   4.193
    3OL    C111 6676   2.956   4.298   4.207
    3OL    H11R 6677   2.898   4.214   4.245
    3OL    H11S 6678   3.062   4.288   4.229
    3OL    C112 6679   2.945   4.295   4.054
    3OL    H12R 6680   3.005   4.379   4.019
    3OL    H12S 6681   2.843   4.305   4.018
    3OL    C113 6682   2.998   4.158   4.008
    3OL    H13R 6683   3.072   4.119   4.078
    3OL    H13S 6684   3.047   4.171   3.911
    3OL    C114 6685   2.896   4.043   4.002
    3OL    H14R 6686   2.812   4.081   3.943
    3OL    H14S 6687   2.857   4.024   4.102
    3OL    C115 6688   2.949   3.913   3.942
    3OL    H15R 6689   3.038   3.883   3.997
    3OL    H15S 6690   2.992   3.941   3.845
    3OL    C116 6691   2.848   3.797   3.944
    3OL    H16R 6692   2.791   3.803   4.037
    3OL    H16S 6693   2.899   3.701   3.940
    3OL    C117 6694   2.744   3.796   3.831
    3OL    H17R 6695   2.706   3.899   3.831
    3OL    H17S 6696   2.659   3.734   3.858
    3OL    C118 6697   2.808   3.746   3.701
    3OL    H18R 6698   2.733   3.717   3.628
    3OL    H18S 6699   2.877   3.664   3.723
    3OL    H18T 6700   2.857   3.836   3.663
    1PA    C116 6701   1.023   4.979   3.588
    1PA    H16R 6702   1.093   5.036   3.527
    1PA    H16S 6703   0.925   5.027   3.584
    1PA    H16T 6704   1.019   4.888   3.528
    1PA    C115 6705   1.062   4.966   3.736
    1PA    H15R 6706   1.033   4.870   3.778
    1PA    H15S 6707   1.171   4.975   3.742
    1PA    C114 6708   1.010   5.089   3.812
    1PA    H14R 6709   1.037   5.186   3.770
    1PA    H14S 6710   0.901   5.094   3.811
    1PA    C113 6711   1.041   5.091   3.963
    1PA    H13R 6712   0.997   4.999   4.002
    1PA    H13S 6713   1.150   5.095   3.973
    1PA    C112 6714   0.982   5.212   4.035
    1PA    H12R 6715   1.003   5.300   3.974
    1PA    H12S 6716   0.873   5.207   4.044
    1PA    C111 6717   1.039   5.224   4.177
    1PA    H11R 6718   1.022   5.130   4.229
    1PA    H11S 6719   1.148   5.234   4.168
    1PA    C110 6720   0.973   5.337   4.256
    1PA    H10R 6721   0.988   5.432   4.204
    1PA    H10S 6722   0.865   5.322   4.263
    1PA     C19 6723   1.033   5.352   4.397
    1PA     H9R 6724   0.995   5.274   4.463
    1PA     H9S 6725   1.142   5.349   4.401
    1PA     C18 6726   0.982   5.480   4.465
    1PA     H8R 6727   1.007   5.564   4.399
    1PA     H8S 6728   0.873   5.484   4.466
    1PA     C17 6729   1.041   5.494   4.606
    1PA     H7R 6730   1.147   5.467   4.610
    1PA     H7S 6731   1.039   5.600   4.632
    1PA     C16 6732   0.956   5.428   4.715
    1PA     H6R 6733   0.860   5.480   4.726
    1PA     H6S 6734   0.944   5.320   4.705
    1PA     C15 6735   1.039   5.429   4.844
    1PA     H5R 6736   1.134   5.380   4.821
    1PA     H5S 6737   1.077   5.527   4.875
    1PA     C14 6738   0.968   5.357   4.959
    1PA     H4R 6739   0.863   5.338   4.937
    1PA     H4S 6740   1.024   5.264   4.967
    1PA     C13 6741   0.993   5.430   5.092
    1PA     H3R 6742   1.101   5.447   5.097
    1PA     H3S 6743   0.942   5.525   5.103
    1PA     C12 6744   0.956   5.343   5.213
    1PA     H2R 6745   0.854   5.308   5.195
    1PA     H2S 6746   1.008   5.248   5.220
    2PC     C11 6747   0.960   5.418   5.344
    2PC     O12 6748   0.863   5.455   5.408
    2PC     O11 6749   1.088   5.454   5.364
    2PC      C1 6750   1.113   5.529   5.484
    2PC      HR 6751   1.039   5.608   5.503
    2PC      HS 6752   1.107   5.460   5.568
    2PC      C2 6753   1.250   5.596   5.462
    2PC      HX 6754   1.329   5.521   5.455
    2PC      C3 6755   1.286   5.699   5.569
    2PC      HA 6756   1.309   5.655   5.666
    2PC      HB 6757   1.374   5.756   5.536
    2PC     O31 6758   1.177   5.792   5.582
    2PC     P31 6759   1.197   5.913   5.685
    2PC     O32 6760   1.202   5.841   5.828
    2PC     C31 6761   1.085   5.822   5.909
    2PC     H1A 6762   1.047   5.918   5.946
    2PC     H1B 6763   0.997   5.778   5.860
    2PC     C32 6764   1.121   5.721   6.019
    2PC     H2A 6765   1.028   5.676   6.056
    2PC     H2B 6766   1.191   5.649   5.978
    2PC     N31 6767   1.188   5.766   6.145
    2PC     C33 6768   1.241   5.654   6.230
    2PC     H3A 6769   1.151   5.604   6.266
    2PC     H3B 6770   1.307   5.591   6.170
    2PC     H3C 6771   1.291   5.691   6.319
    2PC     C34 6772   1.304   5.855   6.110
    2PC     H4A 6773   1.292   5.911   6.017
    2PC     H4B 6774   1.318   5.927   6.191
    2PC     H4C 6775   1.392   5.792   6.102
    2PC     C35 6776   1.105   5.861   6.226
    2PC     H5A 6777   1.026   5.800   6.271
    2PC     H5B 6778   1.060   5.923   6.149
    2PC     H5C 6779   1.159   5.915   6.304
    2PC     O33 6780   1.330   5.975   5.663
    2PC     O34 6781   1.095   6.021   5.687
    2PC     O21 6782   1.231   5.676   5.343
    2PC     C21 6783   1.343   5.712   5.278
    2PC     O22 6784   1.457   5.698   5.317
    3OL     C12 6785   1.306   5.796   5.159
    3OL     H2R 6786   1.367   5.771   5.072
    3OL     H2S 6787   1.333   5.900   5.177
    3OL     C13 6788   1.164   5.778   5.103
    3OL     H3R 6789   1.098   5.782   5.190
    3OL     H3S 6790   1.155   5.684   5.049
    3OL     C14 6791   1.135   5.885   4.996
    3OL     H4R 6792   1.166   5.987   5.021
    3OL     H4S 6793   1.027   5.887   4.978
    3OL     C15 6794   1.205   5.850   4.864
    3OL     H5R 6795   1.195   5.743   4.842
    3OL     H5S 6796   1.312   5.872   4.872
    3OL     C16 6797   1.139   5.913   4.741
    3OL     H6R 6798   1.032   5.897   4.753
    3OL     H6S 6799   1.182   5.857   4.658
    3OL     C17 6800   1.174   6.060   4.715
    3OL     H7R 6801   1.280   6.078   4.731
    3OL     H7S 6802   1.115   6.111   4.792
    3OL     C18 6803   1.137   6.119   4.578
    3OL     H8R 6804   1.179   6.059   4.497
    3OL     H8S 6805   1.179   6.219   4.574
    3OL     C19 6806   0.986   6.123   4.566
    3OL     H9R 6807   0.937   6.112   4.662
    3OL    C110 6808   0.914   6.142   4.457
    3OL    H10R 6809   0.806   6.151   4.466
    3OL    C111 6810   0.976   6.165   4.322
    3OL    H11R 6811   0.959   6.072   4.267
    3OL    H11S 6812   1.085   6.171   4.321
    3OL    C112 6813   0.920   6.283   4.243
    3OL    H12R 6814   0.973   6.368   4.288
    3OL    H12S 6815   0.812   6.286   4.255
    3OL    C113 6816   0.958   6.269   4.095
    3OL    H13R 6817   0.917   6.171   4.071
    3OL    H13S 6818   1.067   6.264   4.084
    3OL    C114 6819   0.906   6.384   4.008
    3OL    H14R 6820   0.956   6.477   4.035
    3OL    H14S 6821   0.799   6.397   4.023
    3OL    C115 6822   0.923   6.361   3.857
    3OL    H15R 6823   0.869   6.274   3.819
    3OL    H15S 6824   1.029   6.341   3.836
    3OL    C116 6825   0.869   6.480   3.777
    3OL    H16R 6826   0.917   6.573   3.808
    3OL    H16S 6827   0.764   6.491   3.804
    3OL    C117 6828   0.892   6.485   3.625
    3OL    H17R 6829   0.847   6.401   3.572
    3OL    H17S 6830   1.001   6.485   3.612
    3OL    C118 6831   0.840   6.620   3.576
    3OL    H18R 6832   0.732   6.606   3.572
    3OL    H18S 6833   0.880   6.641   3.476
    3OL    H18T 6834   0.850   6.704   3.644
    1PA    C116 6835   1.487   1.607   4.037
    1PA    H16R 6836   1.561   1.539   4.080
    1PA    H16S 6837   1.440   1.661   4.120
    1PA    H16T 6838   1.546   1.674   3.974
    1PA    C115 6839   1.390   1.528   3.949
    1PA    H15R 6840   1.311   1.599   3.926
    1PA    H15S 6841   1.434   1.499   3.854
    1PA    C114 6842   1.327   1.411   4.026
    1PA    H14R 6843   1.402   1.355   4.082
    1PA    H14S 6844   1.246   1.439   4.094
    1PA    C113 6845   1.265   1.312   3.926
    1PA    H13R 6846   1.208   1.374   3.857
    1PA    H13S 6847   1.340   1.263   3.865
    1PA    C112 6848   1.163   1.213   3.985
    1PA    H12R 6849   1.081   1.268   4.030
    1PA    H12S 6850   1.133   1.140   3.910
    1PA    C111 6851   1.214   1.118   4.095
    1PA    H11R 6852   1.301   1.066   4.056
    1PA    H11S 6853   1.236   1.175   4.186
    1PA    C110 6854   1.108   1.015   4.135
    1PA    H10R 6855   1.015   1.067   4.159
    1PA    H10S 6856   1.098   0.937   4.059
    1PA     C19 6857   1.151   0.944   4.264
    1PA     H9R 6858   1.250   0.899   4.250
    1PA     H9S 6859   1.166   1.026   4.335
    1PA     C18 6860   1.061   0.832   4.318
    1PA     H8R 6861   0.970   0.889   4.338
    1PA     H8S 6862   1.047   0.751   4.247
    1PA     C17 6863   1.110   0.778   4.453
    1PA     H7R 6864   1.207   0.728   4.446
    1PA     H7S 6865   1.133   0.863   4.517
    1PA     C16 6866   1.008   0.681   4.514
    1PA     H6R 6867   0.913   0.734   4.509
    1PA     H6S 6868   0.979   0.594   4.455
    1PA     C15 6869   1.028   0.644   4.662
    1PA     H5R 6870   0.950   0.571   4.684
    1PA     H5S 6871   1.129   0.611   4.687
    1PA     C14 6872   1.003   0.767   4.751
    1PA     H4R 6873   1.077   0.846   4.736
    1PA     H4S 6874   0.911   0.820   4.725
    1PA     C13 6875   1.016   0.727   4.899
    1PA     H3R 6876   0.967   0.632   4.923
    1PA     H3S 6877   1.120   0.708   4.926
    1PA     C12 6878   0.956   0.831   4.994
    1PA     H2R 6879   1.000   0.930   4.981
    1PA     H2S 6880   0.851   0.845   4.969
    2PC     C11 6881   0.976   0.794   5.139
    2PC     O12 6882   0.982   0.677   5.169
    2PC     O11 6883   0.985   0.900   5.221
    2PC      C1 6884   0.991   0.877   5.363
    2PC      HR 6885   0.943   0.964   5.408
    2PC      HS 6886   0.936   0.788   5.394
    2PC      C2 6887   1.137   0.862   5.406
    2PC      HX 6888   1.171   0.764   5.373
    2PC      C3 6889   1.156   0.869   5.558
    2PC      HA 6890   1.178   0.974   5.579
    2PC      HB 6891   1.069   0.825   5.606
    2PC     O31 6892   1.272   0.794   5.599
    2PC     P31 6893   1.329   0.803   5.748
    2PC     O32 6894   1.197   0.765   5.831
    2PC     C31 6895   1.216   0.744   5.972
    2PC     H1A 6896   1.259   0.646   5.992
    2PC     H1B 6897   1.286   0.827   5.987
    2PC     C32 6898   1.086   0.765   6.050
    2PC     H2A 6899   1.007   0.714   5.995
    2PC     H2B 6900   1.109   0.718   6.146
    2PC     N31 6901   1.038   0.906   6.066
    2PC     C33 6902   1.046   0.987   5.939
    2PC     H3A 6903   1.001   1.081   5.969
    2PC     H3B 6904   1.149   1.007   5.910
    2PC     H3C 6905   0.989   0.939   5.860
    2PC     C34 6906   0.900   0.916   6.123
    2PC     H4A 6907   0.883   1.024   6.125
    2PC     H4B 6908   0.832   0.867   6.054
    2PC     H4C 6909   0.892   0.869   6.222
    2PC     C35 6910   1.126   0.984   6.158
    2PC     H5A 6911   1.229   0.974   6.124
    2PC     H5B 6912   1.116   0.944   6.259
    2PC     H5C 6913   1.102   1.091   6.156
    2PC     O33 6914   1.437   0.703   5.762
    2PC     O34 6915   1.383   0.930   5.802
    2PC     O21 6916   1.213   0.967   5.342
    2PC     C21 6917   1.180   1.097   5.344
    2PC     O22 6918   1.082   1.137   5.403
    3OL     C12 6919   1.269   1.176   5.251
    3OL     H2R 6920   1.296   1.104   5.173
    3OL     H2S 6921   1.363   1.193   5.304
    3OL     C13 6922   1.224   1.312   5.196
    3OL     H3R 6923   1.301   1.348   5.126
    3OL     H3S 6924   1.214   1.378   5.282
    3OL     C14 6925   1.096   1.290   5.114
    3OL     H4R 6926   1.023   1.225   5.163
    3OL     H4S 6927   1.119   1.237   5.021
    3OL     C15 6928   1.032   1.426   5.083
    3OL     H5R 6929   0.967   1.425   4.996
    3OL     H5S 6930   1.113   1.499   5.073
    3OL     C16 6931   0.935   1.457   5.198
    3OL     H6R 6932   0.993   1.459   5.291
    3OL     H6S 6933   0.861   1.379   5.209
    3OL     C17 6934   0.873   1.596   5.173
    3OL     H7R 6935   0.949   1.673   5.159
    3OL     H7S 6936   0.841   1.615   5.275
    3OL     C18 6937   0.762   1.590   5.068
    3OL     H8R 6938   0.802   1.567   4.969
    3OL     H8S 6939   0.726   1.693   5.063
    3OL     C19 6940   0.647   1.502   5.110
    3OL     H9R 6941   0.647   1.484   5.217
    3OL    C110 6942   0.546   1.459   5.036
    3OL    H10R 6943   0.469   1.394   5.078
    3OL    C111 6944   0.526   1.497   4.891
    3OL    H11R 6945   0.502   1.400   4.846
    3OL    H11S 6946   0.618   1.531   4.844
    3OL    C112 6947   0.429   1.614   4.870
    3OL    H12R 6948   0.433   1.635   4.763
    3OL    H12S 6949   0.465   1.702   4.923
    3OL    C113 6950   0.291   1.577   4.925
    3OL    H13R 6951   0.232   1.665   4.949
    3OL    H13S 6952   0.308   1.528   5.021
    3OL    C114 6953   0.212   1.481   4.835
    3OL    H14R 6954   0.128   1.434   4.886
    3OL    H14S 6955   0.279   1.410   4.785
    3OL    C115 6956   0.148   1.564   4.722
    3OL    H15R 6957   0.227   1.625   4.678
    3OL    H15S 6958   0.067   1.619   4.770
    3OL    C116 6959   0.087   1.466   4.621
    3OL    H16R 6960   0.025   1.393   4.674
    3OL    H16S 6961   0.171   1.412   4.575
    3OL    C117 6962  -0.009   1.538   4.525
    3OL    H17R 6963   0.057   1.600   4.464
    3OL    H17S 6964  -0.081   1.599   4.580
    3OL    C118 6965  -0.093   1.448   4.434
    3OL    H18R 6966  -0.178   1.410   4.491
    3OL    H18S 6967  -0.033   1.375   4.379
    3OL    H18T 6968  -0.134   1.514   4.357
    1PA    C116 6969   1.663   0.739   4.182
    1PA    H16R 6970   1.676   0.739   4.073
    1PA    H16S 6971   1.631   0.640   4.215
    1PA    H16T 6972   1.764   0.745   4.224
    1PA    C115 6973   1.569   0.850   4.230
    1PA    H15R 6974   1.470   0.803   4.223
    1PA    H15S 6975   1.586   0.862   4.338
    1PA    C114 6976   1.569   0.981   4.151
    1PA    H14R 6977   1.564   0.956   4.045
    1PA    H14S 6978   1.480   1.038   4.182
    1PA    C113 6979   1.692   1.061   4.194
    1PA    H13R 6980   1.759   0.993   4.247
    1PA    H13S 6981   1.744   1.108   4.110
    1PA    C112 6982   1.653   1.178   4.286
    1PA    H12R 6983   1.596   1.245   4.221
    1PA    H12S 6984   1.595   1.146   4.372
    1PA    C111 6985   1.786   1.239   4.331
    1PA    H11R 6986   1.826   1.168   4.404
    1PA    H11S 6987   1.864   1.236   4.254
    1PA    C110 6988   1.783   1.378   4.396
    1PA    H10R 6989   1.711   1.370   4.477
    1PA    H10S 6990   1.880   1.400   4.442
    1PA     C19 6991   1.740   1.484   4.293
    1PA     H9R 6992   1.806   1.464   4.208
    1PA     H9S 6993   1.638   1.460   4.262
    1PA     C18 6994   1.768   1.628   4.335
    1PA     H8R 6995   1.844   1.633   4.413
    1PA     H8S 6996   1.806   1.675   4.243
    1PA     C17 6997   1.635   1.695   4.375
    1PA     H7R 6998   1.559   1.681   4.298
    1PA     H7S 6999   1.592   1.646   4.463
    1PA     C16 7000   1.663   1.842   4.409
    1PA     H6R 7001   1.726   1.890   4.334
    1PA     H6S 7002   1.570   1.898   4.393
    1PA     C15 7003   1.713   1.868   4.552
    1PA     H5R 7004   1.651   1.810   4.621
    1PA     H5S 7005   1.818   1.845   4.571
    1PA     C14 7006   1.704   2.018   4.581
    1PA     H4R 7007   1.770   2.072   4.513
    1PA     H4S 7008   1.601   2.043   4.551
    1PA     C13 7009   1.728   2.058   4.727
    1PA     H3R 7010   1.656   2.009   4.792
    1PA     H3S 7011   1.828   2.017   4.746
    1PA     C12 7012   1.733   2.209   4.748
    1PA     H2R 7013   1.812   2.257   4.689
    1PA     H2S 7014   1.647   2.266   4.713
    2PC     C11 7015   1.753   2.239   4.894
    2PC     O12 7016   1.672   2.208   4.978
    2PC     O11 7017   1.867   2.306   4.922
    2PC      C1 7018   1.883   2.333   5.062
    2PC      HR 7019   1.789   2.362   5.110
    2PC      HS 7020   1.923   2.242   5.108
    2PC      C2 7021   1.980   2.449   5.084
    2PC      HX 7022   2.069   2.426   5.025
    2PC      C3 7023   2.021   2.456   5.232
    2PC      HA 7024   2.091   2.540   5.239
    2PC      HB 7025   1.932   2.476   5.291
    2PC     O31 7026   2.089   2.332   5.258
    2PC     P31 7027   2.092   2.288   5.412
    2PC     O32 7028   2.208   2.387   5.460
    2PC     C31 7029   2.182   2.490   5.558
    2PC     H1A 7030   2.213   2.584   5.512
    2PC     H1B 7031   2.077   2.502   5.582
    2PC     C32 7032   2.250   2.456   5.692
    2PC     H2A 7033   2.218   2.357   5.725
    2PC     H2B 7034   2.358   2.449   5.677
    2PC     N31 7035   2.231   2.547   5.810
    2PC     C33 7036   2.086   2.563   5.845
    2PC     H3A 7037   2.027   2.613   5.769
    2PC     H3B 7038   2.042   2.466   5.869
    2PC     H3C 7039   2.088   2.625   5.935
    2PC     C34 7040   2.296   2.481   5.927
    2PC     H4A 7041   2.237   2.396   5.964
    2PC     H4B 7042   2.391   2.437   5.896
    2PC     H4C 7043   2.299   2.545   6.015
    2PC     C35 7044   2.296   2.680   5.788
    2PC     H5A 7045   2.396   2.660   5.749
    2PC     H5B 7046   2.309   2.739   5.880
    2PC     H5C 7047   2.234   2.739   5.720
    2PC     O33 7048   1.965   2.280   5.488
    2PC     O34 7049   2.153   2.153   5.406
    2PC     O21 7050   1.917   2.574   5.052
    2PC     C21 7051   1.987   2.689   5.048
    2PC     O22 7052   2.108   2.691   5.039
    3OL     C12 7053   1.893   2.801   5.013
    3OL     H2R 7054   1.818   2.804   5.093
    3OL     H2S 7055   1.848   2.763   4.921
    3OL     C13 7056   1.947   2.945   5.002
    3OL     H3R 7057   2.033   2.943   4.935
    3OL     H3S 7058   1.987   2.968   5.101
    3OL     C14 7059   1.840   3.050   4.969
    3OL     H4R 7060   1.756   3.041   5.037
    3OL     H4S 7061   1.797   3.024   4.871
    3OL     C15 7062   1.892   3.194   4.968
    3OL     H5R 7063   1.994   3.200   4.928
    3OL     H5S 7064   1.911   3.228   5.070
    3OL     C16 7065   1.802   3.295   4.896
    3OL     H6R 7066   1.819   3.400   4.920
    3OL     H6S 7067   1.701   3.273   4.932
    3OL     C17 7068   1.805   3.271   4.744
    3OL     H7R 7069   1.796   3.169   4.706
    3OL     H7S 7070   1.904   3.293   4.703
    3OL     C18 7071   1.696   3.362   4.685
    3OL     H8R 7072   1.595   3.331   4.714
    3OL     H8S 7073   1.695   3.344   4.577
    3OL     C19 7074   1.725   3.508   4.710
    3OL     H9R 7075   1.828   3.539   4.696
    3OL    C110 7076   1.647   3.607   4.752
    3OL    H10R 7077   1.696   3.702   4.771
    3OL    C111 7078   1.498   3.609   4.769
    3OL    H11R 7079   1.485   3.664   4.863
    3OL    H11S 7080   1.452   3.510   4.775
    3OL    C112 7081   1.423   3.692   4.664
    3OL    H12R 7082   1.494   3.759   4.614
    3OL    H12S 7083   1.345   3.748   4.716
    3OL    C113 7084   1.348   3.594   4.573
    3OL    H13R 7085   1.270   3.543   4.629
    3OL    H13S 7086   1.418   3.523   4.527
    3OL    C114 7087   1.288   3.672   4.455
    3OL    H14R 7088   1.378   3.714   4.409
    3OL    H14S 7089   1.219   3.751   4.483
    3OL    C115 7090   1.222   3.576   4.354
    3OL    H15R 7091   1.122   3.553   4.390
    3OL    H15S 7092   1.277   3.482   4.349
    3OL    C116 7093   1.208   3.630   4.211
    3OL    H16R 7094   1.311   3.644   4.178
    3OL    H16S 7095   1.180   3.734   4.225
    3OL    C117 7096   1.122   3.545   4.116
    3OL    H17R 7097   1.154   3.440   4.114
    3OL    H17S 7098   1.136   3.597   4.021
    3OL    C118 7099   0.971   3.546   4.143
    3OL    H18R 7100   0.919   3.508   4.055
    3OL    H18S 7101   0.939   3.648   4.164
    3OL    H18T 7102   0.948   3.482   4.229
    1PA    C116 7103   0.588   0.398   4.034
    1PA    H16R 7104   0.539   0.467   4.103
    1PA    H16S 7105   0.560   0.418   3.931
    1PA    H16T 7106   0.695   0.420   4.034
    1PA    C115 7107   0.545   0.257   4.077
    1PA    H15R 7108   0.437   0.243   4.063
    1PA    H15S 7109   0.597   0.186   4.013
    1PA    C114 7110   0.574   0.223   4.224
    1PA    H14R 7111   0.515   0.291   4.286
    1PA    H14S 7112   0.548   0.118   4.241
    1PA    C113 7113   0.718   0.241   4.274
    1PA    H13R 7114   0.786   0.181   4.213
    1PA    H13S 7115   0.741   0.348   4.271
    1PA    C112 7116   0.735   0.203   4.422
    1PA    H12R 7117   0.682   0.281   4.478
    1PA    H12S 7118   0.682   0.113   4.454
    1PA    C111 7119   0.883   0.187   4.460
    1PA    H11R 7120   0.918   0.101   4.403
    1PA    H11S 7121   0.952   0.269   4.436
    1PA    C110 7122   0.902   0.154   4.608
    1PA    H10R 7123   0.883   0.235   4.678
    1PA    H10S 7124   0.833   0.078   4.645
    1PA     C19 7125   1.041   0.093   4.635
    1PA     H9R 7126   1.053   0.008   4.568
    1PA     H9S 7127   1.116   0.168   4.610
    1PA     C18 7128   1.050   0.049   4.782
    1PA     H8R 7129   1.025   0.137   4.842
    1PA     H8S 7130   0.967  -0.021   4.796
    1PA     C17 7131   1.183  -0.010   4.829
    1PA     H7R 7132   1.212  -0.089   4.759
    1PA     H7S 7133   1.254   0.073   4.822
    1PA     C16 7134   1.178  -0.057   4.975
    1PA     H6R 7135   1.159   0.022   5.047
    1PA     H6S 7136   1.106  -0.135   4.999
    1PA     C15 7137   1.313  -0.115   5.020
    1PA     H5R 7138   1.307  -0.145   5.125
    1PA     H5S 7139   1.335  -0.201   4.957
    1PA     C14 7140   1.438  -0.028   5.003
    1PA     H4R 7141   1.524  -0.096   5.009
    1PA     H4S 7142   1.440   0.025   4.907
    1PA     C13 7143   1.456   0.081   5.110
    1PA     H3R 7144   1.359   0.131   5.123
    1PA     H3S 7145   1.498   0.035   5.200
    1PA     C12 7146   1.569   0.177   5.071
    1PA     H2R 7147   1.662   0.121   5.058
    1PA     H2S 7148   1.535   0.227   4.980
    2PC     C11 7149   1.609   0.278   5.176
    2PC     O12 7150   1.721   0.286   5.223
    2PC     O11 7151   1.508   0.353   5.223
    2PC      C1 7152   1.544   0.455   5.317
    2PC      HR 7153   1.589   0.410   5.406
    2PC      HS 7154   1.618   0.519   5.270
    2PC      C2 7155   1.415   0.534   5.347
    2PC      HX 7156   1.439   0.610   5.423
    2PC      C3 7157   1.304   0.444   5.403
    2PC      HA 7158   1.282   0.374   5.322
    2PC      HB 7159   1.344   0.387   5.487
    2PC     O31 7160   1.198   0.530   5.449
    2PC     P31 7161   1.069   0.462   5.516
    2PC     O32 7162   1.126   0.363   5.628
    2PC     C31 7163   1.113   0.401   5.766
    2PC     H1A 7164   1.187   0.479   5.786
    2PC     H1B 7165   1.015   0.428   5.806
    2PC     C32 7166   1.175   0.290   5.852
    2PC     H2A 7167   1.265   0.264   5.796
    2PC     H2B 7168   1.202   0.325   5.952
    2PC     N31 7169   1.090   0.167   5.861
    2PC     C33 7170   0.944   0.201   5.870
    2PC     H3A 7171   0.914   0.210   5.766
    2PC     H3B 7172   0.884   0.133   5.932
    2PC     H3C 7173   0.947   0.296   5.922
    2PC     C34 7174   1.118   0.079   5.743
    2PC     H4A 7175   1.070  -0.018   5.753
    2PC     H4B 7176   1.084   0.126   5.650
    2PC     H4C 7177   1.225   0.061   5.728
    2PC     C35 7178   1.136   0.090   5.981
    2PC     H5A 7179   1.241   0.061   5.969
    2PC     H5B 7180   1.070   0.004   5.987
    2PC     H5C 7181   1.128   0.156   6.067
    2PC     O33 7182   0.965   0.556   5.563
    2PC     O34 7183   0.994   0.391   5.410
    2PC     O21 7184   1.369   0.604   5.230
    2PC     C21 7185   1.426   0.718   5.187
    2PC     O22 7186   1.513   0.775   5.249
    3OL     C12 7187   1.362   0.762   5.058
    3OL     H2R 7188   1.262   0.802   5.076
    3OL     H2S 7189   1.360   0.670   4.998
    3OL     C13 7190   1.451   0.864   4.986
    3OL     H3R 7191   1.552   0.825   5.001
    3OL     H3S 7192   1.437   0.958   5.040
    3OL     C14 7193   1.418   0.880   4.837
    3OL     H4R 7194   1.317   0.922   4.828
    3OL     H4S 7195   1.425   0.780   4.793
    3OL     C15 7196   1.523   0.973   4.775
    3OL     H5R 7197   1.623   0.935   4.797
    3OL     H5S 7198   1.512   1.078   4.802
    3OL     C16 7199   1.503   0.964   4.623
    3OL     H6R 7200   1.484   0.862   4.588
    3OL     H6S 7201   1.593   1.004   4.576
    3OL     C17 7202   1.395   1.054   4.563
    3OL     H7R 7203   1.291   1.022   4.566
    3OL     H7S 7204   1.413   1.057   4.455
    3OL     C18 7205   1.401   1.198   4.617
    3OL     H8R 7206   1.504   1.231   4.630
    3OL     H8S 7207   1.355   1.205   4.715
    3OL     C19 7208   1.333   1.289   4.518
    3OL     H9R 7209   1.384   1.318   4.426
    3OL    C110 7210   1.217   1.351   4.532
    3OL    H10R 7211   1.184   1.403   4.442
    3OL    C111 7212   1.123   1.341   4.649
    3OL    H11R 7213   1.134   1.434   4.706
    3OL    H11S 7214   1.149   1.255   4.711
    3OL    C112 7215   0.979   1.321   4.598
    3OL    H12R 7216   0.954   1.401   4.528
    3OL    H12S 7217   0.909   1.322   4.682
    3OL    C113 7218   0.961   1.189   4.522
    3OL    H13R 7219   0.995   1.109   4.588
    3OL    H13S 7220   1.011   1.192   4.425
    3OL    C114 7221   0.818   1.159   4.477
    3OL    H14R 7222   0.815   1.076   4.407
    3OL    H14S 7223   0.776   1.244   4.422
    3OL    C115 7224   0.737   1.112   4.599
    3OL    H15R 7225   0.726   1.195   4.668
    3OL    H15S 7226   0.785   1.042   4.668
    3OL    C116 7227   0.594   1.064   4.565
    3OL    H16R 7228   0.610   0.997   4.480
    3OL    H16S 7229   0.530   1.148   4.537
    3OL    C117 7230   0.526   1.001   4.686
    3OL    H17R 7231   0.587   0.925   4.735
    3OL    H17S 7232   0.432   0.956   4.652
    3OL    C118 7233   0.492   1.105   4.794
    3OL    H18R 7234   0.596   1.123   4.825
    3OL    H18S 7235   0.434   1.061   4.875
    3OL    H18T 7236   0.454   1.203   4.766
    1PA    C116 7237   1.042   2.049   4.113
    1PA    H16R 7238   1.095   2.025   4.020
    1PA    H16S 7239   1.020   1.955   4.164
    1PA    H16T 7240   1.105   2.103   4.184
    1PA    C115 7241   0.921   2.143   4.098
    1PA    H15R 7242   0.950   2.215   4.021
    1PA    H15S 7243   0.832   2.084   4.078
    1PA    C114 7244   0.891   2.216   4.230
    1PA    H14R 7245   0.979   2.270   4.266
    1PA    H14S 7246   0.811   2.290   4.220
    1PA    C113 7247   0.878   2.123   4.351
    1PA    H13R 7248   0.811   2.040   4.327
    1PA    H13S 7249   0.969   2.067   4.375
    1PA    C112 7250   0.835   2.212   4.468
    1PA    H12R 7251   0.832   2.156   4.562
    1PA    H12S 7252   0.908   2.292   4.482
    1PA    C111 7253   0.693   2.269   4.456
    1PA    H11R 7254   0.678   2.349   4.382
    1PA    H11S 7255   0.618   2.190   4.445
    1PA    C110 7256   0.655   2.333   4.591
    1PA    H10R 7257   0.547   2.321   4.601
    1PA    H10S 7258   0.709   2.284   4.672
    1PA     C19 7259   0.691   2.482   4.604
    1PA     H9R 7260   0.800   2.485   4.593
    1PA     H9S 7261   0.645   2.550   4.532
    1PA     C18 7262   0.678   2.533   4.748
    1PA     H8R 7263   0.737   2.472   4.816
    1PA     H8S 7264   0.735   2.625   4.758
    1PA     C17 7265   0.531   2.536   4.792
    1PA     H7R 7266   0.480   2.596   4.716
    1PA     H7S 7267   0.482   2.438   4.796
    1PA     C16 7268   0.507   2.609   4.925
    1PA     H6R 7269   0.582   2.687   4.938
    1PA     H6S 7270   0.405   2.647   4.941
    1PA     C15 7271   0.539   2.514   5.041
    1PA     H5R 7272   0.480   2.423   5.027
    1PA     H5S 7273   0.640   2.474   5.037
    1PA     C14 7274   0.511   2.580   5.177
    1PA     H4R 7275   0.554   2.681   5.175
    1PA     H4S 7276   0.402   2.580   5.176
    1PA     C13 7277   0.556   2.496   5.297
    1PA     H3R 7278   0.661   2.468   5.285
    1PA     H3S 7279   0.546   2.559   5.386
    1PA     C12 7280   0.464   2.374   5.312
    1PA     H2R 7281   0.363   2.416   5.308
    1PA     H2S 7282   0.498   2.303   5.237
    2PC     C11 7283   0.469   2.298   5.442
    2PC     O12 7284   0.378   2.231   5.486
    2PC     O11 7285   0.585   2.321   5.506
    2PC      C1 7286   0.635   2.239   5.613
    2PC      HR 7287   0.730   2.276   5.652
    2PC      HS 7288   0.568   2.255   5.697
    2PC      C2 7289   0.656   2.094   5.565
    2PC      HX 7290   0.562   2.064   5.518
    2PC      C3 7291   0.695   2.006   5.685
    2PC      HA 7292   0.623   2.005   5.766
    2PC      HB 7293   0.712   1.902   5.655
    2PC     O31 7294   0.823   2.044   5.739
    2PC     P31 7295   0.887   1.938   5.840
    2PC     O32 7296   0.943   1.818   5.748
    2PC     C31 7297   0.967   1.688   5.805
    2PC     H1A 7298   1.043   1.693   5.884
    2PC     H1B 7299   0.876   1.647   5.851
    2PC     C32 7300   1.004   1.588   5.695
    2PC     H2A 7301   1.013   1.495   5.751
    2PC     H2B 7302   0.938   1.596   5.610
    2PC     N31 7303   1.140   1.613   5.637
    2PC     C33 7304   1.257   1.618   5.730
    2PC     H3A 7305   1.351   1.624   5.675
    2PC     H3B 7306   1.244   1.703   5.798
    2PC     H3C 7307   1.258   1.529   5.794
    2PC     C34 7308   1.163   1.501   5.540
    2PC     H4A 7309   1.261   1.513   5.493
    2PC     H4B 7310   1.165   1.405   5.592
    2PC     H4C 7311   1.087   1.484   5.464
    2PC     C35 7312   1.143   1.735   5.549
    2PC     H5A 7313   1.045   1.764   5.513
    2PC     H5B 7314   1.204   1.717   5.461
    2PC     H5C 7315   1.173   1.821   5.609
    2PC     O33 7316   0.998   2.006   5.910
    2PC     O34 7317   0.799   1.896   5.951
    2PC     O21 7318   0.759   2.100   5.465
    2PC     C21 7319   0.773   1.987   5.394
    2PC     O22 7320   0.724   1.880   5.425
    3OL     C12 7321   0.859   1.996   5.271
    3OL     H2R 7322   0.909   1.900   5.256
    3OL     H2S 7323   0.938   2.067   5.294
    3OL     C13 7324   0.782   2.025   5.141
    3OL     H3R 7325   0.727   2.119   5.153
    3OL     H3S 7326   0.716   1.938   5.136
    3OL     C14 7327   0.874   2.023   5.018
    3OL     H4R 7328   0.934   1.932   5.011
    3OL     H4S 7329   0.938   2.109   5.041
    3OL     C15 7330   0.802   2.038   4.884
    3OL     H5R 7331   0.876   2.052   4.805
    3OL     H5S 7332   0.731   2.122   4.883
    3OL     C16 7333   0.738   1.904   4.844
    3OL     H6R 7334   0.661   1.884   4.919
    3OL     H6S 7335   0.812   1.824   4.839
    3OL     C17 7336   0.661   1.910   4.712
    3OL     H7R 7337   0.628   2.011   4.685
    3OL     H7S 7338   0.577   1.842   4.730
    3OL     C18 7339   0.743   1.853   4.596
    3OL     H8R 7340   0.833   1.911   4.574
    3OL     H8S 7341   0.678   1.858   4.508
    3OL     C19 7342   0.794   1.715   4.625
    3OL     H9R 7343   0.887   1.698   4.680
    3OL    C110 7344   0.725   1.608   4.591
    3OL    H10R 7345   0.764   1.507   4.604
    3OL    C111 7346   0.601   1.603   4.504
    3OL    H11R 7347   0.637   1.632   4.405
    3OL    H11S 7348   0.528   1.676   4.540
    3OL    C112 7349   0.539   1.465   4.485
    3OL    H12R 7350   0.503   1.429   4.581
    3OL    H12S 7351   0.611   1.394   4.443
    3OL    C113 7352   0.414   1.476   4.395
    3OL    H13R 7353   0.441   1.538   4.309
    3OL    H13S 7354   0.338   1.532   4.449
    3OL    C114 7355   0.355   1.337   4.369
    3OL    H14R 7356   0.300   1.300   4.456
    3OL    H14S 7357   0.433   1.267   4.339
    3OL    C115 7358   0.255   1.346   4.252
    3OL    H15R 7359   0.285   1.405   4.165
    3OL    H15S 7360   0.179   1.412   4.294
    3OL    C116 7361   0.182   1.211   4.242
    3OL    H16R 7362   0.082   1.229   4.203
    3OL    H16S 7363   0.167   1.174   4.344
    3OL    C117 7364   0.253   1.099   4.165
    3OL    H17R 7365   0.208   1.004   4.195
    3OL    H17S 7366   0.357   1.075   4.189
    3OL    C118 7367   0.237   1.129   4.015
    3OL    H18R 7368   0.311   1.208   3.997
    3OL    H18S 7369   0.134   1.146   3.985
    3OL    H18T 7370   0.281   1.047   3.959
    1PA    C116 7371   2.959   6.179   4.189
    1PA    H16R 7372   2.887   6.187   4.107
    1PA    H16S 7373   2.997   6.281   4.199
    1PA    H16T 7374   2.911   6.159   4.285
    1PA    C115 7375   3.061   6.069   4.156
    1PA    H15R 7376   3.009   5.975   4.138
    1PA    H15S 7377   3.104   6.118   4.069
    1PA    C114 7378   3.158   6.030   4.268
    1PA    H14R 7379   3.242   5.977   4.221
    1PA    H14S 7380   3.214   6.119   4.297
    1PA    C113 7381   3.102   5.946   4.384
    1PA    H13R 7382   3.021   6.004   4.429
    1PA    H13S 7383   3.073   5.856   4.330
    1PA    C112 7384   3.218   5.911   4.479
    1PA    H12R 7385   3.274   5.830   4.433
    1PA    H12S 7386   3.287   5.993   4.500
    1PA    C111 7387   3.172   5.869   4.619
    1PA    H11R 7388   3.126   5.961   4.655
    1PA    H11S 7389   3.100   5.787   4.617
    1PA    C110 7390   3.297   5.836   4.701
    1PA    H10R 7391   3.271   5.751   4.765
    1PA    H10S 7392   3.378   5.798   4.638
    1PA     C19 7393   3.325   5.959   4.789
    1PA     H9R 7394   3.348   6.041   4.721
    1PA     H9S 7395   3.226   5.974   4.832
    1PA     C18 7396   3.445   5.926   4.880
    1PA     H8R 7397   3.422   5.843   4.946
    1PA     H8S 7398   3.533   5.914   4.818
    1PA     C17 7399   3.494   6.046   4.963
    1PA     H7R 7400   3.579   6.001   5.015
    1PA     H7S 7401   3.533   6.131   4.907
    1PA     C16 7402   3.394   6.089   5.071
    1PA     H6R 7403   3.333   6.168   5.026
    1PA     H6S 7404   3.326   6.017   5.117
    1PA     C15 7405   3.471   6.160   5.183
    1PA     H5R 7406   3.546   6.087   5.213
    1PA     H5S 7407   3.516   6.251   5.143
    1PA     C14 7408   3.381   6.194   5.302
    1PA     H4R 7409   3.291   6.243   5.264
    1PA     H4S 7410   3.342   6.105   5.352
    1PA     C13 7411   3.456   6.274   5.409
    1PA     H3R 7412   3.556   6.240   5.437
    1PA     H3S 7413   3.477   6.374   5.370
    1PA     C12 7414   3.372   6.284   5.537
    1PA     H2R 7415   3.346   6.182   5.568
    1PA     H2S 7416   3.444   6.322   5.610
    2PC     C11 7417   3.253   6.375   5.518
    2PC     O12 7418   3.246   6.479   5.579
    2PC     O11 7419   3.162   6.328   5.430
    2PC      C1 7420   3.033   6.390   5.417
    2PC      HR 7421   2.986   6.425   5.509
    2PC      HS 7422   3.049   6.480   5.358
    2PC      C2 7423   2.938   6.299   5.336
    2PC      HX 7424   2.840   6.344   5.319
    2PC      C3 7425   2.910   6.178   5.426
    2PC      HA 7426   2.877   6.096   5.360
    2PC      HB 7427   3.000   6.159   5.485
    2PC     O31 7428   2.800   6.223   5.507
    2PC     P31 7429   2.742   6.126   5.620
    2PC     O32 7430   2.743   6.210   5.756
    2PC     C31 7431   2.781   6.163   5.887
    2PC     H1A 7432   2.689   6.126   5.932
    2PC     H1B 7433   2.864   6.092   5.889
    2PC     C32 7434   2.825   6.288   5.964
    2PC     H2A 7435   2.755   6.372   5.956
    2PC     H2B 7436   2.824   6.262   6.070
    2PC     N31 7437   2.960   6.342   5.927
    2PC     C33 7438   3.068   6.261   5.993
    2PC     H3A 7439   3.153   6.329   5.983
    2PC     H3B 7440   3.044   6.246   6.098
    2PC     H3C 7441   3.091   6.166   5.947
    2PC     C34 7442   2.990   6.343   5.780
    2PC     H4A 7443   3.090   6.383   5.760
    2PC     H4B 7444   2.967   6.246   5.738
    2PC     H4C 7445   2.915   6.413   5.744
    2PC     C35 7446   2.968   6.483   5.978
    2PC     H5A 7447   3.053   6.536   5.935
    2PC     H5B 7448   2.979   6.472   6.086
    2PC     H5C 7449   2.881   6.537   5.941
    2PC     O33 7450   2.606   6.078   5.583
    2PC     O34 7451   2.815   5.998   5.630
    2PC     O21 7452   2.991   6.246   5.214
    2PC     C21 7453   2.998   6.326   5.106
    2PC     O22 7454   2.960   6.441   5.105
    3OL     C12 7455   3.052   6.256   4.983
    3OL     H2R 7456   3.048   6.147   4.984
    3OL     H2S 7457   3.159   6.278   4.973
    3OL     C13 7458   2.988   6.308   4.854
    3OL     H3R 7459   3.024   6.410   4.836
    3OL     H3S 7460   2.880   6.317   4.867
    3OL     C14 7461   3.023   6.228   4.728
    3OL     H4R 7462   2.983   6.126   4.735
    3OL     H4S 7463   3.131   6.218   4.720
    3OL     C15 7464   2.985   6.297   4.596
    3OL     H5R 7465   2.997   6.232   4.508
    3OL     H5S 7466   3.057   6.378   4.584
    3OL     C16 7467   2.838   6.342   4.600
    3OL     H6R 7468   2.808   6.399   4.512
    3OL     H6S 7469   2.831   6.410   4.685
    3OL     C17 7470   2.731   6.234   4.621
    3OL     H7R 7471   2.637   6.288   4.630
    3OL     H7S 7472   2.740   6.181   4.716
    3OL     C18 7473   2.726   6.131   4.507
    3OL     H8R 7474   2.822   6.080   4.512
    3OL     H8S 7475   2.717   6.186   4.413
    3OL     C19 7476   2.599   6.049   4.515
    3OL     H9R 7477   2.511   6.109   4.536
    3OL    C110 7478   2.592   5.919   4.492
    3OL    H10R 7479   2.498   5.864   4.494
    3OL    C111 7480   2.703   5.826   4.448
    3OL    H11R 7481   2.685   5.729   4.494
    3OL    H11S 7482   2.801   5.854   4.485
    3OL    C112 7483   2.697   5.810   4.295
    3OL    H12R 7484   2.728   5.907   4.256
    3OL    H12S 7485   2.603   5.788   4.244
    3OL    C113 7486   2.796   5.708   4.238
    3OL    H13R 7487   2.770   5.613   4.285
    3OL    H13S 7488   2.901   5.736   4.254
    3OL    C114 7489   2.776   5.684   4.088
    3OL    H14R 7490   2.869   5.640   4.051
    3OL    H14S 7491   2.777   5.783   4.041
    3OL    C115 7492   2.656   5.594   4.056
    3OL    H15R 7493   2.618   5.612   3.955
    3OL    H15S 7494   2.575   5.635   4.116
    3OL    C116 7495   2.684   5.445   4.079
    3OL    H16R 7496   2.589   5.391   4.089
    3OL    H16S 7497   2.739   5.425   4.171
    3OL    C117 7498   2.767   5.400   3.958
    3OL    H17R 7499   2.856   5.464   3.955
    3OL    H17S 7500   2.703   5.427   3.874
    3OL    C118 7501   2.804   5.251   3.961
    3OL    H18R 7502   2.827   5.233   4.066
    3OL    H18S 7503   2.881   5.225   3.888
    3OL    H18T 7504   2.726   5.175   3.947
    1PA    C116 7505   3.366   3.930   3.997
    1PA    H16R 7506   3.325   3.871   3.915
    1PA    H16S 7507   3.416   4.019   3.958
    1PA    H16T 7508   3.288   3.953   4.069
    1PA    C115 7509   3.475   3.861   4.080
    1PA    H15R 7510   3.564   3.842   4.021
    1PA    H15S 7511   3.514   3.929   4.156
    1PA    C114 7512   3.426   3.721   4.120
    1PA    H14R 7513   3.330   3.731   4.171
    1PA    H14S 7514   3.408   3.651   4.038
    1PA    C113 7515   3.529   3.643   4.204
    1PA    H13R 7516   3.517   3.536   4.184
    1PA    H13S 7517   3.630   3.676   4.178
    1PA    C112 7518   3.506   3.662   4.355
    1PA    H12R 7519   3.501   3.769   4.375
    1PA    H12S 7520   3.412   3.614   4.382
    1PA    C111 7521   3.616   3.609   4.447
    1PA    H11R 7522   3.715   3.615   4.400
    1PA    H11S 7523   3.626   3.680   4.529
    1PA    C110 7524   3.592   3.464   4.493
    1PA    H10R 7525   3.494   3.438   4.534
    1PA    H10S 7526   3.624   3.390   4.419
    1PA     C19 7527   3.699   3.436   4.599
    1PA     H9R 7528   3.793   3.463   4.551
    1PA     H9S 7529   3.690   3.508   4.681
    1PA     C18 7530   3.698   3.292   4.651
    1PA     H8R 7531   3.592   3.267   4.660
    1PA     H8S 7532   3.746   3.221   4.582
    1PA     C17 7533   3.779   3.278   4.780
    1PA     H7R 7534   3.734   3.357   4.841
    1PA     H7S 7535   3.762   3.180   4.823
    1PA     C16 7536   3.928   3.302   4.752
    1PA     H6R 7537   3.972   3.232   4.681
    1PA     H6S 7538   3.944   3.403   4.713
    1PA     C15 7539   4.009   3.282   4.881
    1PA     H5R 7540   3.985   3.369   4.943
    1PA     H5S 7541   3.995   3.194   4.943
    1PA     C14 7542   4.158   3.305   4.857
    1PA     H4R 7543   4.201   3.222   4.800
    1PA     H4S 7544   4.175   3.391   4.791
    1PA     C13 7545   4.229   3.322   4.992
    1PA     H3R 7546   4.337   3.338   4.979
    1PA     H3S 7547   4.191   3.415   5.034
    1PA     C12 7548   4.217   3.193   5.073
    1PA     H2R 7549   4.116   3.170   5.106
    1PA     H2S 7550   4.245   3.106   5.014
    2PC     C11 7551   4.303   3.193   5.198
    2PC     O12 7552   4.349   3.296   5.242
    2PC     O11 7553   4.315   3.068   5.244
    2PC      C1 7554   4.352   3.054   5.383
    2PC      HR 7555   4.442   3.112   5.405
    2PC      HS 7556   4.272   3.092   5.447
    2PC      C2 7557   4.375   2.907   5.419
    2PC      HX 7558   4.284   2.855   5.388
    2PC      C3 7559   4.387   2.885   5.571
    2PC      HA 7560   4.293   2.866   5.622
    2PC      HB 7561   4.460   2.809   5.602
    2PC     O31 7562   4.429   3.008   5.634
    2PC     P31 7563   4.454   3.021   5.791
    2PC     O32 7564   4.569   3.132   5.804
    2PC     C31 7565   4.540   3.261   5.747
    2PC     H1A 7566   4.543   3.250   5.638
    2PC     H1B 7567   4.438   3.294   5.769
    2PC     C32 7568   4.643   3.360   5.803
    2PC     H2A 7569   4.744   3.320   5.786
    2PC     H2B 7570   4.640   3.455   5.750
    2PC     N31 7571   4.637   3.395   5.948
    2PC     C33 7572   4.702   3.300   6.044
    2PC     H3A 7573   4.667   3.197   6.032
    2PC     H3B 7574   4.809   3.299   6.024
    2PC     H3C 7575   4.687   3.346   6.142
    2PC     C34 7576   4.702   3.530   5.954
    2PC     H4A 7577   4.660   3.598   5.880
    2PC     H4B 7578   4.686   3.577   6.051
    2PC     H4C 7579   4.803   3.501   5.926
    2PC     C35 7580   4.493   3.400   5.991
    2PC     H5A 7581   4.428   3.440   5.913
    2PC     H5B 7582   4.492   3.463   6.080
    2PC     H5C 7583   4.461   3.299   6.019
    2PC     O33 7584   4.329   3.045   5.867
    2PC     O34 7585   4.494   2.891   5.849
    2PC     O21 7586   4.494   2.860   5.352
    2PC     C21 7587   4.543   2.738   5.374
    2PC     O22 7588   4.490   2.644   5.430
    3OL     C12 7589   4.687   2.735   5.328
    3OL     H2R 7590   4.737   2.649   5.373
    3OL     H2S 7591   4.722   2.833   5.359
    3OL     C13 7592   4.696   2.712   5.177
    3OL     H3R 7593   4.652   2.615   5.152
    3OL     H3S 7594   4.800   2.716   5.144
    3OL     C14 7595   4.612   2.817   5.102
    3OL     H4R 7596   4.642   2.913   5.145
    3OL     H4S 7597   4.506   2.806   5.123
    3OL     C15 7598   4.638   2.815   4.951
    3OL     H5R 7599   4.617   2.714   4.915
    3OL     H5S 7600   4.745   2.833   4.935
    3OL     C16 7601   4.550   2.919   4.881
    3OL     H6R 7602   4.578   2.934   4.777
    3OL     H6S 7603   4.568   3.015   4.930
    3OL     C17 7604   4.403   2.875   4.877
    3OL     H7R 7605   4.358   2.890   4.976
    3OL     H7S 7606   4.394   2.774   4.837
    3OL     C18 7607   4.322   2.954   4.773
    3OL     H8R 7608   4.357   2.920   4.676
    3OL     H8S 7609   4.344   3.061   4.783
    3OL     C19 7610   4.173   2.934   4.778
    3OL     H9R 7611   4.130   2.974   4.870
    3OL    C110 7612   4.084   2.897   4.687
    3OL    H10R 7613   3.981   2.884   4.721
    3OL    C111 7614   4.120   2.833   4.556
    3OL    H11R 7615   4.080   2.733   4.539
    3OL    H11S 7616   4.229   2.829   4.551
    3OL    C112 7617   4.089   2.932   4.442
    3OL    H12R 7618   4.137   3.028   4.462
    3OL    H12S 7619   3.984   2.948   4.419
    3OL    C113 7620   4.157   2.867   4.321
    3OL    H13R 7621   4.114   2.769   4.298
    3OL    H13S 7622   4.260   2.844   4.351
    3OL    C114 7623   4.145   2.951   4.194
    3OL    H14R 7624   4.207   2.914   4.112
    3OL    H14S 7625   4.190   3.047   4.219
    3OL    C115 7626   4.001   2.955   4.140
    3OL    H15R 7627   3.937   3.000   4.216
    3OL    H15S 7628   3.964   2.856   4.113
    3OL    C116 7629   4.010   3.039   4.012
    3OL    H16R 7630   4.049   2.986   3.925
    3OL    H16S 7631   4.062   3.134   4.027
    3OL    C117 7632   3.867   3.082   3.975
    3OL    H17R 7633   3.835   3.139   4.062
    3OL    H17S 7634   3.812   2.989   3.962
    3OL    C118 7635   3.853   3.170   3.850
    3OL    H18R 7636   3.878   3.273   3.875
    3OL    H18S 7637   3.750   3.160   3.813
    3OL    H18T 7638   3.915   3.133   3.769
    1PA    C116 7639   5.083   1.360   3.744
    1PA    H16R 7640   5.002   1.287   3.734
    1PA    H16S 7641   5.171   1.311   3.702
    1PA    H16T 7642   5.042   1.440   3.684
    1PA    C115 7643   5.105   1.410   3.888
    1PA    H15R 7644   5.161   1.503   3.891
    1PA    H15S 7645   5.004   1.439   3.917
    1PA    C114 7646   5.147   1.299   3.985
    1PA    H14R 7647   5.077   1.215   3.988
    1PA    H14S 7648   5.245   1.255   3.966
    1PA    C113 7649   5.153   1.363   4.125
    1PA    H13R 7650   5.219   1.450   4.131
    1PA    H13S 7651   5.051   1.391   4.151
    1PA    C112 7652   5.202   1.261   4.229
    1PA    H12R 7653   5.131   1.181   4.249
    1PA    H12S 7654   5.294   1.217   4.189
    1PA    C111 7655   5.239   1.340   4.355
    1PA    H11R 7656   5.292   1.272   4.422
    1PA    H11S 7657   5.310   1.419   4.329
    1PA    C110 7658   5.117   1.411   4.416
    1PA    H10R 7659   5.068   1.484   4.352
    1PA    H10S 7660   5.047   1.331   4.444
    1PA     C19 7661   5.133   1.495   4.543
    1PA     H9R 7662   5.217   1.563   4.523
    1PA     H9S 7663   5.056   1.570   4.563
    1PA     C18 7664   5.163   1.403   4.662
    1PA     H8R 7665   5.216   1.313   4.630
    1PA     H8S 7666   5.216   1.471   4.729
    1PA     C17 7667   5.029   1.365   4.727
    1PA     H7R 7668   4.983   1.452   4.773
    1PA     H7S 7669   4.969   1.332   4.641
    1PA     C16 7670   5.044   1.251   4.829
    1PA     H6R 7671   4.944   1.234   4.870
    1PA     H6S 7672   5.063   1.151   4.789
    1PA     C15 7673   5.138   1.278   4.947
    1PA     H5R 7674   5.244   1.276   4.920
    1PA     H5S 7675   5.108   1.378   4.981
    1PA     C14 7676   5.121   1.177   5.061
    1PA     H4R 7677   5.014   1.168   5.084
    1PA     H4S 7678   5.153   1.077   5.031
    1PA     C13 7679   5.201   1.219   5.185
    1PA     H3R 7680   5.307   1.228   5.162
    1PA     H3S 7681   5.172   1.320   5.216
    1PA     C12 7682   5.178   1.108   5.288
    1PA     H2R 7683   5.074   1.101   5.319
    1PA     H2S 7684   5.218   1.011   5.256
    2PC     C11 7685   5.252   1.133   5.417
    2PC     O12 7686   5.300   1.239   5.452
    2PC     O11 7687   5.255   1.025   5.497
    2PC      C1 7688   5.272   1.055   5.637
    2PC      HR 7689   5.276   0.956   5.684
    2PC      HS 7690   5.370   1.101   5.646
    2PC      C2 7691   5.156   1.130   5.704
    2PC      HX 7692   5.144   1.226   5.653
    2PC      C3 7693   5.191   1.179   5.845
    2PC      HA 7694   5.271   1.253   5.845
    2PC      HB 7695   5.097   1.215   5.889
    2PC     O31 7696   5.236   1.062   5.916
    2PC     P31 7697   5.287   1.074   6.067
    2PC     O32 7698   5.338   0.927   6.104
    2PC     C31 7699   5.465   0.895   6.045
    2PC     H1A 7700   5.468   0.891   5.935
    2PC     H1B 7701   5.543   0.966   6.072
    2PC     C32 7702   5.511   0.767   6.116
    2PC     H2A 7703   5.437   0.698   6.076
    2PC     H2B 7704   5.605   0.731   6.074
    2PC     N31 7705   5.521   0.763   6.265
    2PC     C33 7706   5.613   0.652   6.306
    2PC     H3A 7707   5.575   0.552   6.285
    2PC     H3B 7708   5.703   0.669   6.247
    2PC     H3C 7709   5.636   0.660   6.412
    2PC     C34 7710   5.562   0.890   6.333
    2PC     H4A 7711   5.529   0.877   6.437
    2PC     H4B 7712   5.670   0.888   6.344
    2PC     H4C 7713   5.516   0.979   6.288
    2PC     C35 7714   5.383   0.743   6.320
    2PC     H5A 7715   5.347   0.654   6.268
    2PC     H5B 7716   5.315   0.828   6.308
    2PC     H5C 7717   5.390   0.717   6.425
    2PC     O33 7718   5.391   1.178   6.087
    2PC     O34 7719   5.169   1.103   6.152
    2PC     O21 7720   5.033   1.054   5.701
    2PC     C21 7721   4.939   1.072   5.607
    2PC     O22 7722   4.941   1.161   5.524
    3OL     C12 7723   4.825   0.974   5.615
    3OL     H2R 7724   4.796   0.961   5.719
    3OL     H2S 7725   4.860   0.875   5.586
    3OL     C13 7726   4.705   1.007   5.525
    3OL     H3R 7727   4.669   1.109   5.539
    3OL     H3S 7728   4.621   0.940   5.545
    3OL     C14 7729   4.727   1.003   5.373
    3OL     H4R 7730   4.777   0.910   5.344
    3OL     H4S 7731   4.803   1.077   5.347
    3OL     C15 7732   4.604   1.025   5.284
    3OL     H5R 7733   4.569   1.127   5.305
    3OL     H5S 7734   4.522   0.957   5.305
    3OL     C16 7735   4.651   1.013   5.138
    3OL     H6R 7736   4.692   0.913   5.124
    3OL     H6S 7737   4.732   1.081   5.114
    3OL     C17 7738   4.539   1.037   5.036
    3OL     H7R 7739   4.450   0.976   5.050
    3OL     H7S 7740   4.569   1.013   4.934
    3OL     C18 7741   4.469   1.173   5.042
    3OL     H8R 7742   4.396   1.179   5.123
    3OL     H8S 7743   4.407   1.199   4.956
    3OL     C19 7744   4.578   1.276   5.057
    3OL     H9R 7745   4.593   1.317   5.157
    3OL    C110 7746   4.654   1.323   4.960
    3OL    H10R 7747   4.735   1.391   4.986
    3OL    C111 7748   4.664   1.274   4.818
    3OL    H11R 7749   4.649   1.166   4.813
    3OL    H11S 7750   4.763   1.296   4.779
    3OL    C112 7751   4.562   1.357   4.739
    3OL    H12R 7752   4.586   1.463   4.742
    3OL    H12S 7753   4.467   1.328   4.785
    3OL    C113 7754   4.561   1.316   4.591
    3OL    H13R 7755   4.469   1.357   4.546
    3OL    H13S 7756   4.559   1.207   4.583
    3OL    C114 7757   4.689   1.373   4.529
    3OL    H14R 7758   4.779   1.374   4.592
    3OL    H14S 7759   4.671   1.480   4.519
    3OL    C115 7760   4.707   1.318   4.387
    3OL    H15R 7761   4.734   1.213   4.398
    3OL    H15S 7762   4.789   1.377   4.345
    3OL    C116 7763   4.582   1.340   4.301
    3OL    H16R 7764   4.542   1.441   4.307
    3OL    H16S 7765   4.507   1.267   4.335
    3OL    C117 7766   4.619   1.322   4.154
    3OL    H17R 7767   4.650   1.418   4.110
    3OL    H17S 7768   4.526   1.302   4.101
    3OL    C118 7769   4.721   1.210   4.129
    3OL    H18R 7770   4.743   1.208   4.022
    3OL    H18S 7771   4.680   1.113   4.160
    3OL    H18T 7772   4.816   1.228   4.178
    1PA    C116 7773   3.913   3.832   3.463
    1PA    H16R 7774   3.866   3.806   3.367
    1PA    H16S 7775   4.021   3.848   3.463
    1PA    H16T 7776   3.869   3.921   3.507
    1PA    C115 7777   3.876   3.715   3.555
    1PA    H15R 7778   3.767   3.708   3.554
    1PA    H15S 7779   3.904   3.620   3.508
    1PA    C114 7780   3.944   3.719   3.692
    1PA    H14R 7781   4.052   3.731   3.685
    1PA    H14S 7782   3.914   3.802   3.757
    1PA    C113 7783   3.921   3.585   3.763
    1PA    H13R 7784   3.813   3.572   3.764
    1PA    H13S 7785   3.970   3.509   3.700
    1PA    C112 7786   3.978   3.576   3.905
    1PA    H12R 7787   3.980   3.470   3.928
    1PA    H12S 7788   4.072   3.630   3.894
    1PA    C111 7789   3.880   3.632   4.010
    1PA    H11R 7790   3.844   3.729   3.974
    1PA    H11S 7791   3.793   3.566   4.010
    1PA    C110 7792   3.933   3.643   4.153
    1PA    H10R 7793   4.027   3.697   4.145
    1PA    H10S 7794   3.861   3.697   4.216
    1PA     C19 7795   3.948   3.499   4.203
    1PA     H9R 7796   3.848   3.456   4.198
    1PA     H9S 7797   4.011   3.445   4.132
    1PA     C18 7798   4.004   3.494   4.345
    1PA     H8R 7799   3.926   3.551   4.397
    1PA     H8S 7800   4.000   3.391   4.383
    1PA     C17 7801   4.149   3.544   4.352
    1PA     H7R 7802   4.209   3.469   4.300
    1PA     H7S 7803   4.153   3.647   4.319
    1PA     C16 7804   4.202   3.542   4.496
    1PA     H6R 7805   4.124   3.569   4.569
    1PA     H6S 7806   4.238   3.440   4.506
    1PA     C15 7807   4.323   3.635   4.515
    1PA     H5R 7808   4.397   3.614   4.438
    1PA     H5S 7809   4.288   3.737   4.496
    1PA     C14 7810   4.386   3.628   4.655
    1PA     H4R 7811   4.419   3.527   4.679
    1PA     H4S 7812   4.470   3.696   4.665
    1PA     C13 7813   4.286   3.677   4.760
    1PA     H3R 7814   4.250   3.780   4.749
    1PA     H3S 7815   4.199   3.611   4.764
    1PA     C12 7816   4.346   3.667   4.901
    1PA     H2R 7817   4.353   3.564   4.938
    1PA     H2S 7818   4.444   3.715   4.905
    2PC     C11 7819   4.265   3.750   4.996
    2PC     O12 7820   4.307   3.857   5.036
    2PC     O11 7821   4.147   3.692   5.026
    2PC      C1 7822   4.072   3.746   5.136
    2PC      HR 7823   4.011   3.671   5.186
    2PC      HS 7824   4.147   3.772   5.212
    2PC      C2 7825   3.990   3.868   5.089
    2PC      HX 7826   4.048   3.927   5.018
    2PC      C3 7827   3.961   3.962   5.207
    2PC      HA 7828   4.054   3.977   5.264
    2PC      HB 7829   3.918   4.055   5.169
    2PC     O31 7830   3.863   3.907   5.296
    2PC     P31 7831   3.813   3.978   5.431
    2PC     O32 7832   3.721   3.866   5.499
    2PC     C31 7833   3.643   3.908   5.612
    2PC     H1A 7834   3.697   3.973   5.681
    2PC     H1B 7835   3.544   3.940   5.579
    2PC     C32 7836   3.616   3.779   5.691
    2PC     H2A 7837   3.547   3.723   5.629
    2PC     H2B 7838   3.705   3.715   5.694
    2PC     N31 7839   3.570   3.795   5.832
    2PC     C33 7840   3.434   3.859   5.826
    2PC     H3A 7841   3.380   3.790   5.762
    2PC     H3B 7842   3.393   3.851   5.926
    2PC     H3C 7843   3.427   3.963   5.792
    2PC     C34 7844   3.566   3.667   5.911
    2PC     H4A 7845   3.486   3.674   5.985
    2PC     H4B 7846   3.545   3.584   5.843
    2PC     H4C 7847   3.661   3.646   5.959
    2PC     C35 7848   3.664   3.882   5.910
    2PC     H5A 7849   3.765   3.842   5.899
    2PC     H5B 7850   3.646   3.883   6.017
    2PC     H5C 7851   3.652   3.984   5.872
    2PC     O33 7852   3.930   4.015   5.513
    2PC     O34 7853   3.721   4.091   5.399
    2PC     O21 7854   3.876   3.812   5.022
    2PC     C21 7855   3.801   3.894   4.947
    2PC     O22 7856   3.831   4.009   4.921
    3OL     C12 7857   3.675   3.825   4.899
    3OL     H2R 7858   3.638   3.757   4.976
    3OL     H2S 7859   3.692   3.765   4.810
    3OL     C13 7860   3.571   3.933   4.866
    3OL     H3R 7861   3.610   4.016   4.807
    3OL     H3S 7862   3.537   3.971   4.963
    3OL     C14 7863   3.459   3.865   4.785
    3OL     H4R 7864   3.421   3.778   4.838
    3OL     H4S 7865   3.482   3.832   4.684
    3OL     C15 7866   3.348   3.971   4.777
    3OL     H5R 7867   3.391   4.068   4.749
    3OL     H5S 7868   3.303   3.969   4.876
    3OL     C16 7869   3.257   3.930   4.661
    3OL     H6R 7870   3.157   3.973   4.670
    3OL     H6S 7871   3.242   3.822   4.665
    3OL     C17 7872   3.317   3.963   4.524
    3OL     H7R 7873   3.411   3.912   4.502
    3OL     H7S 7874   3.331   4.071   4.513
    3OL     C18 7875   3.228   3.921   4.406
    3OL     H8R 7876   3.248   3.815   4.386
    3OL     H8S 7877   3.261   3.983   4.323
    3OL     C19 7878   3.081   3.948   4.427
    3OL     H9R 7879   3.071   4.048   4.469
    3OL    C110 7880   2.982   3.862   4.413
    3OL    H10R 7881   2.881   3.890   4.443
    3OL    C111 7882   2.993   3.730   4.341
    3OL    H11R 7883   3.049   3.737   4.248
    3OL    H11S 7884   2.892   3.713   4.304
    3OL    C112 7885   3.037   3.620   4.440
    3OL    H12R 7886   2.981   3.649   4.529
    3OL    H12S 7887   3.144   3.637   4.453
    3OL    C113 7888   3.006   3.479   4.390
    3OL    H13R 7889   3.054   3.466   4.293
    3OL    H13S 7890   2.899   3.462   4.374
    3OL    C114 7891   3.046   3.372   4.493
    3OL    H14R 7892   2.998   3.381   4.590
    3OL    H14S 7893   3.153   3.389   4.508
    3OL    C115 7894   3.031   3.231   4.435
    3OL    H15R 7895   3.078   3.155   4.499
    3OL    H15S 7896   3.083   3.226   4.339
    3OL    C116 7897   2.890   3.185   4.396
    3OL    H16R 7898   2.831   3.269   4.359
    3OL    H16S 7899   2.845   3.156   4.491
    3OL    C117 7900   2.890   3.074   4.290
    3OL    H17R 7901   2.946   3.105   4.201
    3OL    H17S 7902   2.790   3.048   4.253
    3OL    C118 7903   2.953   2.943   4.339
    3OL    H18R 7904   2.900   2.915   4.431
    3OL    H18S 7905   3.061   2.944   4.355
    3OL    H18T 7906   2.946   2.867   4.261
    1PA    C116 7907   2.152   1.314   3.915
    1PA    H16R 7908   2.097   1.247   3.849
    1PA    H16S 7909   2.108   1.301   4.014
    1PA    H16T 7910   2.260   1.296   3.918
    1PA    C115 7911   2.145   1.461   3.870
    1PA    H15R 7912   2.202   1.468   3.777
    1PA    H15S 7913   2.043   1.499   3.870
    1PA    C114 7914   2.218   1.559   3.963
    1PA    H14R 7915   2.322   1.527   3.973
    1PA    H14S 7916   2.221   1.650   3.903
    1PA    C113 7917   2.137   1.588   4.090
    1PA    H13R 7918   2.035   1.616   4.064
    1PA    H13S 7919   2.134   1.492   4.142
    1PA    C112 7920   2.212   1.692   4.174
    1PA    H12R 7921   2.318   1.669   4.182
    1PA    H12S 7922   2.194   1.791   4.130
    1PA    C111 7923   2.159   1.689   4.318
    1PA    H11R 7924   2.050   1.687   4.323
    1PA    H11S 7925   2.182   1.589   4.357
    1PA    C110 7926   2.223   1.801   4.400
    1PA    H10R 7927   2.332   1.799   4.394
    1PA    H10S 7928   2.182   1.893   4.358
    1PA     C19 7929   2.182   1.791   4.548
    1PA     H9R 7930   2.087   1.839   4.569
    1PA     H9S 7931   2.161   1.688   4.578
    1PA     C18 7932   2.290   1.860   4.633
    1PA     H8R 7933   2.307   1.955   4.584
    1PA     H8S 7934   2.250   1.875   4.734
    1PA     C17 7935   2.416   1.772   4.642
    1PA     H7R 7936   2.393   1.679   4.695
    1PA     H7S 7937   2.449   1.741   4.543
    1PA     C16 7938   2.533   1.848   4.705
    1PA     H6R 7939   2.627   1.794   4.689
    1PA     H6S 7940   2.541   1.949   4.664
    1PA     C15 7941   2.533   1.852   4.858
    1PA     H5R 7942   2.452   1.915   4.896
    1PA     H5S 7943   2.505   1.754   4.898
    1PA     C14 7944   2.663   1.914   4.910
    1PA     H4R 7945   2.746   1.870   4.855
    1PA     H4S 7946   2.663   2.021   4.887
    1PA     C13 7947   2.676   1.890   5.061
    1PA     H3R 7948   2.607   1.962   5.106
    1PA     H3S 7949   2.661   1.786   5.091
    1PA     C12 7950   2.820   1.925   5.100
    1PA     H2R 7951   2.879   1.856   5.040
    1PA     H2S 7952   2.844   2.029   5.080
    2PC     C11 7953   2.846   1.883   5.243
    2PC     O12 7954   2.767   1.919   5.328
    2PC     O11 7955   2.950   1.799   5.253
    2PC      C1 7956   2.978   1.737   5.380
    2PC      HR 7957   3.066   1.674   5.360
    2PC      HS 7958   2.997   1.817   5.452
    2PC      C2 7959   2.865   1.641   5.420
    2PC      HX 7960   2.769   1.694   5.428
    2PC      C3 7961   2.910   1.591   5.557
    2PC      HA 7962   2.975   1.503   5.546
    2PC      HB 7963   2.966   1.673   5.602
    2PC     O31 7964   2.799   1.546   5.637
    2PC     P31 7965   2.840   1.473   5.774
    2PC     O32 7966   2.743   1.550   5.876
    2PC     C31 7967   2.778   1.676   5.935
    2PC     H1A 7968   2.876   1.672   5.984
    2PC     H1B 7969   2.777   1.750   5.855
    2PC     C32 7970   2.676   1.717   6.041
    2PC     H2A 7971   2.647   1.632   6.103
    2PC     H2B 7972   2.725   1.789   6.107
    2PC     N31 7973   2.552   1.784   5.990
    2PC     C33 7974   2.454   1.786   6.104
    2PC     H3A 7975   2.482   1.856   6.183
    2PC     H3B 7976   2.365   1.827   6.056
    2PC     H3C 7977   2.436   1.686   6.143
    2PC     C34 7978   2.587   1.921   5.941
    2PC     H4A 7979   2.682   1.949   5.987
    2PC     H4B 7980   2.593   1.932   5.833
    2PC     H4C 7981   2.523   1.991   5.996
    2PC     C35 7982   2.488   1.712   5.875
    2PC     H5A 7983   2.547   1.737   5.787
    2PC     H5B 7984   2.385   1.747   5.868
    2PC     H5C 7985   2.501   1.608   5.905
    2PC     O33 7986   2.815   1.327   5.774
    2PC     O34 7987   2.981   1.492   5.815
    2PC     O21 7988   2.873   1.533   5.326
    2PC     C21 7989   2.780   1.514   5.232
    2PC     O22 7990   2.664   1.545   5.250
    3OL     C12 7991   2.841   1.450   5.109
    3OL     H2R 7992   2.851   1.342   5.121
    3OL     H2S 7993   2.928   1.508   5.078
    3OL     C13 7994   2.744   1.479   4.994
    3OL     H3R 7995   2.720   1.585   5.007
    3OL     H3S 7996   2.654   1.419   5.009
    3OL     C14 7997   2.801   1.453   4.854
    3OL     H4R 7998   2.814   1.346   4.841
    3OL     H4S 7999   2.897   1.506   4.845
    3OL     C15 8000   2.710   1.496   4.737
    3OL     H5R 8001   2.694   1.604   4.744
    3OL     H5S 8002   2.610   1.454   4.735
    3OL     C16 8003   2.762   1.473   4.595
    3OL     H6R 8004   2.759   1.366   4.574
    3OL     H6S 8005   2.866   1.505   4.585
    3OL     C17 8006   2.678   1.540   4.484
    3OL     H7R 8007   2.660   1.647   4.494
    3OL     H7S 8008   2.585   1.488   4.508
    3OL     C18 8009   2.733   1.507   4.345
    3OL     H8R 8010   2.793   1.416   4.345
    3OL     H8S 8011   2.805   1.586   4.320
    3OL     C19 8012   2.623   1.509   4.242
    3OL     H9R 8013   2.567   1.603   4.234
    3OL    C110 8014   2.607   1.416   4.150
    3OL    H10R 8015   2.535   1.430   4.070
    3OL    C111 8016   2.679   1.283   4.143
    3OL    H11R 8017   2.701   1.244   4.242
    3OL    H11S 8018   2.776   1.298   4.094
    3OL    C112 8019   2.604   1.178   4.060
    3OL    H12R 8020   2.513   1.157   4.117
    3OL    H12S 8021   2.655   1.082   4.072
    3OL    C113 8022   2.582   1.200   3.909
    3OL    H13R 8023   2.680   1.200   3.860
    3OL    H13S 8024   2.538   1.299   3.901
    3OL    C114 8025   2.496   1.090   3.847
    3OL    H14R 8026   2.396   1.080   3.890
    3OL    H14S 8027   2.543   0.995   3.873
    3OL    C115 8028   2.485   1.110   3.695
    3OL    H15R 8029   2.582   1.088   3.649
    3OL    H15S 8030   2.455   1.213   3.675
    3OL    C116 8031   2.371   1.022   3.642
    3OL    H16R 8032   2.333   1.073   3.553
    3OL    H16S 8033   2.292   1.010   3.715
    3OL    C117 8034   2.414   0.878   3.611
    3OL    H17R 8035   2.322   0.821   3.623
    3OL    H17S 8036   2.491   0.857   3.687
    3OL    C118 8037   2.474   0.857   3.471
    3OL    H18R 8038   2.494   0.754   3.442
    3OL    H18S 8039   2.565   0.916   3.473
    3OL    H18T 8040   2.401   0.895   3.399
    1PA    C116 8041   1.980  -0.197   4.103
    1PA    H16R 8042   1.871  -0.206   4.107
    1PA    H16S 8043   2.019  -0.261   4.183
    1PA    H16T 8044   2.030  -0.231   4.012
    1PA    C115 8045   2.029  -0.054   4.131
    1PA    H15R 8046   2.138  -0.060   4.141
    1PA    H15S 8047   2.006   0.007   4.043
    1PA    C114 8048   1.956   0.028   4.237
    1PA    H14R 8049   1.855   0.043   4.199
    1PA    H14S 8050   1.950  -0.025   4.333
    1PA    C113 8051   2.015   0.166   4.267
    1PA    H13R 8052   2.124   0.164   4.278
    1PA    H13S 8053   1.998   0.229   4.180
    1PA    C112 8054   1.955   0.228   4.394
    1PA    H12R 8055   1.847   0.239   4.386
    1PA    H12S 8056   1.964   0.157   4.476
    1PA    C111 8057   1.999   0.370   4.434
    1PA    H11R 8058   1.961   0.389   4.535
    1PA    H11S 8059   2.108   0.376   4.436
    1PA    C110 8060   1.949   0.482   4.342
    1PA    H10R 8061   1.982   0.449   4.244
    1PA    H10S 8062   1.840   0.482   4.342
    1PA     C19 8063   1.995   0.625   4.378
    1PA     H9R 8064   2.103   0.627   4.394
    1PA     H9S 8065   1.970   0.689   4.293
    1PA     C18 8066   1.945   0.684   4.511
    1PA     H8R 8067   1.836   0.684   4.500
    1PA     H8S 8068   1.974   0.619   4.594
    1PA     C17 8069   2.023   0.813   4.539
    1PA     H7R 8070   2.123   0.796   4.579
    1PA     H7S 8071   2.035   0.871   4.447
    1PA     C16 8072   1.943   0.900   4.638
    1PA     H6R 8073   1.849   0.927   4.590
    1PA     H6S 8074   1.918   0.842   4.727
    1PA     C15 8075   2.033   1.017   4.679
    1PA     H5R 8076   2.107   0.989   4.755
    1PA     H5S 8077   2.101   1.047   4.599
    1PA     C14 8078   1.955   1.135   4.739
    1PA     H4R 8079   2.032   1.210   4.762
    1PA     H4S 8080   1.891   1.178   4.662
    1PA     C13 8081   1.889   1.115   4.876
    1PA     H3R 8082   1.847   1.210   4.911
    1PA     H3S 8083   1.808   1.042   4.887
    1PA     C12 8084   1.993   1.093   4.987
    1PA     H2R 8085   2.043   0.998   4.965
    1PA     H2S 8086   2.063   1.177   4.988
    2PC     C11 8087   1.937   1.082   5.126
    2PC     O12 8088   2.010   1.107   5.219
    2PC     O11 8089   1.806   1.055   5.134
    2PC      C1 8090   1.746   1.064   5.264
    2PC      HR 8091   1.657   1.001   5.258
    2PC      HS 8092   1.815   1.023   5.338
    2PC      C2 8093   1.716   1.210   5.302
    2PC      HX 8094   1.805   1.270   5.320
    2PC      C3 8095   1.652   1.209   5.441
    2PC      HA 8096   1.548   1.176   5.435
    2PC      HB 8097   1.696   1.129   5.502
    2PC     O31 8098   1.678   1.339   5.497
    2PC     P31 8099   1.591   1.413   5.609
    2PC     O32 8100   1.696   1.489   5.703
    2PC     C31 8101   1.819   1.422   5.737
    2PC     H1A 8102   1.783   1.323   5.765
    2PC     H1B 8103   1.877   1.410   5.645
    2PC     C32 8104   1.899   1.513   5.831
    2PC     H2A 8105   1.988   1.455   5.856
    2PC     H2B 8106   1.927   1.606   5.782
    2PC     N31 8107   1.831   1.574   5.950
    2PC     C33 8108   1.761   1.477   6.041
    2PC     H3A 8109   1.687   1.431   5.975
    2PC     H3B 8110   1.836   1.409   6.081
    2PC     H3C 8111   1.719   1.539   6.120
    2PC     C34 8112   1.938   1.632   6.038
    2PC     H4A 8113   2.010   1.690   5.980
    2PC     H4B 8114   1.903   1.690   6.123
    2PC     H4C 8115   1.998   1.546   6.067
    2PC     C35 8116   1.741   1.685   5.906
    2PC     H5A 8117   1.790   1.739   5.825
    2PC     H5B 8118   1.715   1.759   5.983
    2PC     H5C 8119   1.645   1.643   5.874
    2PC     O33 8120   1.502   1.516   5.551
    2PC     O34 8121   1.514   1.318   5.693
    2PC     O21 8122   1.629   1.273   5.205
    2PC     C21 8123   1.680   1.342   5.102
    2PC     O22 8124   1.797   1.364   5.080
    3OL     C12 8125   1.570   1.372   5.003
    3OL     H2R 8126   1.477   1.403   5.050
    3OL     H2S 8127   1.542   1.279   4.953
    3OL     C13 8128   1.615   1.481   4.905
    3OL     H3R 8129   1.676   1.427   4.832
    3OL     H3S 8130   1.668   1.560   4.957
    3OL     C14 8131   1.493   1.534   4.828
    3OL     H4R 8132   1.422   1.454   4.805
    3OL     H4S 8133   1.515   1.585   4.734
    3OL     C15 8134   1.409   1.635   4.907
    3OL     H5R 8135   1.469   1.726   4.914
    3OL     H5S 8136   1.396   1.615   5.014
    3OL     C16 8137   1.274   1.670   4.842
    3OL     H6R 8138   1.226   1.744   4.907
    3OL     H6S 8139   1.204   1.586   4.841
    3OL     C17 8140   1.299   1.725   4.701
    3OL     H7R 8141   1.315   1.637   4.638
    3OL     H7S 8142   1.393   1.780   4.703
    3OL     C18 8143   1.180   1.806   4.647
    3OL     H8R 8144   1.172   1.895   4.710
    3OL     H8S 8145   1.089   1.747   4.662
    3OL     C19 8146   1.199   1.854   4.506
    3OL     H9R 8147   1.264   1.938   4.485
    3OL    C110 8148   1.130   1.800   4.406
    3OL    H10R 8149   1.134   1.851   4.309
    3OL    C111 8150   1.049   1.673   4.406
    3OL    H11R 8151   0.942   1.698   4.405
    3OL    H11S 8152   1.081   1.601   4.481
    3OL    C112 8153   1.061   1.600   4.272
    3OL    H12R 8154   1.150   1.536   4.266
    3OL    H12S 8155   1.076   1.667   4.188
    3OL    C113 8156   0.937   1.516   4.241
    3OL    H13R 8157   0.876   1.480   4.324
    3OL    H13S 8158   0.967   1.426   4.187
    3OL    C114 8159   0.835   1.600   4.162
    3OL    H14R 8160   0.888   1.628   4.070
    3OL    H14S 8161   0.812   1.687   4.223
    3OL    C115 8162   0.709   1.520   4.128
    3OL    H15R 8163   0.627   1.591   4.114
    3OL    H15S 8164   0.687   1.449   4.208
    3OL    C116 8165   0.726   1.442   3.997
    3OL    H16R 8166   0.803   1.365   4.008
    3OL    H16S 8167   0.746   1.510   3.914
    3OL    C117 8168   0.596   1.372   3.957
    3OL    H17R 8169   0.507   1.435   3.969
    3OL    H17S 8170   0.570   1.281   4.012
    3OL    C118 8171   0.607   1.326   3.811
    3OL    H18R 8172   0.511   1.295   3.768
    3OL    H18S 8173   0.675   1.241   3.804
    3OL    H18T 8174   0.649   1.403   3.746
    1PA    C116 8175   3.866   2.916   3.401
    1PA    H16R 8176   3.876   2.867   3.304
    1PA    H16S 8177   3.961   2.958   3.434
    1PA    H16T 8178   3.790   2.993   3.398
    1PA    C115 8179   3.826   2.806   3.501
    1PA    H15R 8180   3.728   2.766   3.474
    1PA    H15S 8181   3.895   2.723   3.493
    1PA    C114 8182   3.821   2.852   3.648
    1PA    H14R 8183   3.914   2.906   3.666
    1PA    H14S 8184   3.732   2.916   3.651
    1PA    C113 8185   3.808   2.740   3.752
    1PA    H13R 8186   3.768   2.782   3.845
    1PA    H13S 8187   3.733   2.668   3.719
    1PA    C112 8188   3.944   2.679   3.788
    1PA    H12R 8189   3.985   2.638   3.696
    1PA    H12S 8190   4.010   2.756   3.829
    1PA    C111 8191   3.931   2.559   3.883
    1PA    H11R 8192   3.917   2.469   3.824
    1PA    H11S 8193   4.029   2.537   3.927
    1PA    C110 8194   3.816   2.565   3.984
    1PA    H10R 8195   3.811   2.663   4.032
    1PA    H10S 8196   3.720   2.539   3.938
    1PA     C19 8197   3.838   2.457   4.091
    1PA     H9R 8198   3.839   2.372   4.023
    1PA     H9S 8199   3.937   2.461   4.137
    1PA     C18 8200   3.733   2.434   4.200
    1PA     H8R 8201   3.635   2.444   4.153
    1PA     H8S 8202   3.755   2.331   4.230
    1PA     C17 8203   3.756   2.515   4.328
    1PA     H7R 8204   3.707   2.462   4.410
    1PA     H7S 8205   3.863   2.511   4.354
    1PA     C16 8206   3.715   2.663   4.329
    1PA     H6R 8207   3.760   2.714   4.243
    1PA     H6S 8208   3.606   2.671   4.333
    1PA     C15 8209   3.766   2.733   4.455
    1PA     H5R 8210   3.875   2.741   4.458
    1PA     H5S 8211   3.727   2.834   4.460
    1PA     C14 8212   3.717   2.677   4.589
    1PA     H4R 8213   3.609   2.665   4.575
    1PA     H4S 8214   3.760   2.581   4.617
    1PA     C13 8215   3.739   2.763   4.715
    1PA     H3R 8216   3.843   2.749   4.748
    1PA     H3S 8217   3.726   2.871   4.705
    1PA     C12 8218   3.655   2.714   4.833
    1PA     H2R 8219   3.552   2.732   4.802
    1PA     H2S 8220   3.658   2.607   4.854
    2PC     C11 8221   3.684   2.781   4.965
    2PC     O12 8222   3.635   2.755   5.073
    2PC     O11 8223   3.790   2.863   4.962
    2PC      C1 8224   3.832   2.939   5.077
    2PC      HR 8225   3.892   3.020   5.036
    2PC      HS 8226   3.737   2.983   5.109
    2PC      C2 8227   3.900   2.849   5.181
    2PC      HX 8228   3.845   2.758   5.203
    2PC      C3 8229   3.893   2.931   5.311
    2PC      HA 8230   3.797   2.980   5.330
    2PC      HB 8231   3.931   2.876   5.397
    2PC     O31 8232   3.987   3.040   5.308
    2PC     P31 8233   3.994   3.137   5.435
    2PC     O32 8234   4.055   3.031   5.538
    2PC     C31 8235   3.982   3.017   5.661
    2PC     H1A 8236   3.970   3.115   5.708
    2PC     H1B 8237   3.885   2.971   5.639
    2PC     C32 8238   4.049   2.924   5.764
    2PC     H2A 8239   4.076   2.829   5.719
    2PC     H2B 8240   4.137   2.976   5.801
    2PC     N31 8241   3.970   2.875   5.882
    2PC     C33 8242   3.849   2.798   5.837
    2PC     H3A 8243   3.878   2.734   5.754
    2PC     H3B 8244   3.812   2.750   5.928
    2PC     H3C 8245   3.774   2.871   5.806
    2PC     C34 8246   4.056   2.779   5.958
    2PC     H4A 8247   4.159   2.810   5.941
    2PC     H4B 8248   4.038   2.798   6.064
    2PC     H4C 8249   4.025   2.680   5.927
    2PC     C35 8250   3.940   2.987   5.977
    2PC     H5A 8251   3.918   3.077   5.920
    2PC     H5B 8252   4.031   2.996   6.036
    2PC     H5C 8253   3.858   2.955   6.042
    2PC     O33 8254   4.075   3.260   5.420
    2PC     O34 8255   3.854   3.179   5.459
    2PC     O21 8256   4.034   2.820   5.138
    2PC     C21 8257   4.097   2.720   5.202
    2PC     O22 8258   4.059   2.677   5.309
    3OL     C12 8259   4.216   2.669   5.124
    3OL     H2R 8260   4.303   2.731   5.143
    3OL     H2S 8261   4.193   2.665   5.018
    3OL     C13 8262   4.255   2.526   5.168
    3OL     H3R 8263   4.188   2.454   5.121
    3OL     H3S 8264   4.260   2.513   5.276
    3OL     C14 8265   4.399   2.488   5.129
    3OL     H4R 8266   4.462   2.553   5.190
    3OL     H4S 8267   4.425   2.509   5.026
    3OL     C15 8268   4.444   2.345   5.159
    3OL     H5R 8269   4.451   2.336   5.268
    3OL     H5S 8270   4.545   2.324   5.123
    3OL     C16 8271   4.357   2.235   5.097
    3OL     H6R 8272   4.257   2.247   5.138
    3OL     H6S 8273   4.389   2.137   5.130
    3OL     C17 8274   4.352   2.230   4.943
    3OL     H7R 8275   4.453   2.208   4.909
    3OL     H7S 8276   4.317   2.327   4.906
    3OL     C18 8277   4.254   2.119   4.905
    3OL     H8R 8278   4.164   2.114   4.967
    3OL     H8S 8279   4.308   2.027   4.929
    3OL     C19 8280   4.229   2.122   4.756
    3OL     H9R 8281   4.322   2.141   4.702
    3OL    C110 8282   4.112   2.113   4.695
    3OL    H10R 8283   4.093   2.120   4.588
    3OL    C111 8284   3.976   2.089   4.756
    3OL    H11R 8285   3.919   2.182   4.753
    3OL    H11S 8286   3.989   2.060   4.861
    3OL    C112 8287   3.905   1.981   4.674
    3OL    H12R 8288   3.973   1.896   4.667
    3OL    H12S 8289   3.891   2.025   4.575
    3OL    C113 8290   3.763   1.950   4.722
    3OL    H13R 8291   3.696   1.896   4.654
    3OL    H13S 8292   3.727   2.051   4.741
    3OL    C114 8293   3.752   1.888   4.863
    3OL    H14R 8294   3.792   1.966   4.928
    3OL    H14S 8295   3.813   1.799   4.851
    3OL    C115 8296   3.609   1.856   4.907
    3OL    H15R 8297   3.562   1.779   4.846
    3OL    H15S 8298   3.544   1.942   4.886
    3OL    C116 8299   3.591   1.810   5.053
    3OL    H16R 8300   3.486   1.818   5.081
    3OL    H16S 8301   3.656   1.876   5.111
    3OL    C117 8302   3.632   1.663   5.071
    3OL    H17R 8303   3.734   1.645   5.037
    3OL    H17S 8304   3.566   1.600   5.010
    3OL    C118 8305   3.625   1.623   5.219
    3OL    H18R 8306   3.700   1.667   5.285
    3OL    H18S 8307   3.645   1.516   5.231
    3OL    H18T 8308   3.524   1.644   5.254
    1PA    C116 8309   2.254   2.755   2.646
    1PA    H16R 8310   2.354   2.747   2.603
    1PA    H16S 8311   2.190   2.793   2.566
    1PA    H16T 8312   2.212   2.656   2.665
    1PA    C115 8313   2.258   2.842   2.773
    1PA    H15R 8314   2.325   2.925   2.752
    1PA    H15S 8315   2.159   2.876   2.805
    1PA    C114 8316   2.326   2.768   2.889
    1PA    H14R 8317   2.269   2.675   2.896
    1PA    H14S 8318   2.431   2.743   2.874
    1PA    C113 8319   2.318   2.842   3.022
    1PA    H13R 8320   2.380   2.931   3.009
    1PA    H13S 8321   2.218   2.884   3.035
    1PA    C112 8322   2.370   2.755   3.138
    1PA    H12R 8323   2.306   2.667   3.136
    1PA    H12S 8324   2.475   2.737   3.116
    1PA    C111 8325   2.362   2.831   3.271
    1PA    H11R 8326   2.411   2.928   3.268
    1PA    H11S 8327   2.257   2.847   3.298
    1PA    C110 8328   2.436   2.759   3.384
    1PA    H10R 8329   2.380   2.666   3.394
    1PA    H10S 8330   2.539   2.729   3.363
    1PA     C19 8331   2.440   2.833   3.519
    1PA     H9R 8332   2.507   2.918   3.511
    1PA     H9S 8333   2.341   2.871   3.547
    1PA     C18 8334   2.491   2.733   3.623
    1PA     H8R 8335   2.418   2.653   3.633
    1PA     H8S 8336   2.582   2.681   3.593
    1PA     C17 8337   2.493   2.800   3.762
    1PA     H7R 8338   2.578   2.868   3.761
    1PA     H7S 8339   2.398   2.851   3.782
    1PA     C16 8340   2.504   2.696   3.874
    1PA     H6R 8341   2.427   2.621   3.858
    1PA     H6S 8342   2.607   2.658   3.867
    1PA     C15 8343   2.481   2.761   4.011
    1PA     H5R 8344   2.543   2.850   4.028
    1PA     H5S 8345   2.377   2.796   4.007
    1PA     C14 8346   2.504   2.661   4.124
    1PA     H4R 8347   2.442   2.571   4.116
    1PA     H4S 8348   2.603   2.618   4.106
    1PA     C13 8349   2.495   2.722   4.265
    1PA     H3R 8350   2.425   2.806   4.266
    1PA     H3S 8351   2.445   2.645   4.325
    1PA     C12 8352   2.629   2.774   4.318
    1PA     H2R 8353   2.703   2.694   4.319
    1PA     H2S 8354   2.677   2.853   4.260
    2PC     C11 8355   2.617   2.826   4.459
    2PC     O12 8356   2.577   2.937   4.488
    2PC     O11 8357   2.651   2.741   4.558
    2PC      C1 8358   2.663   2.784   4.695
    2PC      HR 8359   2.754   2.840   4.721
    2PC      HS 8360   2.573   2.842   4.716
    2PC      C2 8361   2.663   2.663   4.790
    2PC      HX 8362   2.584   2.597   4.754
    2PC      C3 8363   2.631   2.719   4.929
    2PC      HA 8364   2.552   2.795   4.930
    2PC      HB 8365   2.599   2.638   4.995
    2PC     O31 8366   2.751   2.777   4.984
    2PC     P31 8367   2.770   2.792   5.142
    2PC     O32 8368   2.900   2.707   5.178
    2PC     C31 8369   3.020   2.769   5.229
    2PC     H1A 8370   3.096   2.691   5.234
    2PC     H1B 8371   3.058   2.853   5.171
    2PC     C32 8372   2.996   2.803   5.376
    2PC     H2A 8373   2.909   2.869   5.383
    2PC     H2B 8374   2.966   2.706   5.416
    2PC     N31 8375   3.108   2.851   5.465
    2PC     C33 8376   3.071   2.838   5.609
    2PC     H3A 8377   3.145   2.898   5.661
    2PC     H3B 8378   2.970   2.877   5.618
    2PC     H3C 8379   3.077   2.730   5.628
    2PC     C34 8380   3.238   2.785   5.433
    2PC     H4A 8381   3.277   2.812   5.335
    2PC     H4B 8382   3.307   2.808   5.515
    2PC     H4C 8383   3.209   2.680   5.438
    2PC     C35 8384   3.120   3.000   5.453
    2PC     H5A 8385   3.137   3.020   5.347
    2PC     H5B 8386   3.208   3.027   5.512
    2PC     H5C 8387   3.035   3.055   5.493
    2PC     O33 8388   2.780   2.935   5.180
    2PC     O34 8389   2.645   2.748   5.209
    2PC     O21 8390   2.794   2.603   4.796
    2PC     C21 8391   2.819   2.480   4.844
    2PC     O22 8392   2.733   2.407   4.889
    3OL     C12 8393   2.961   2.430   4.837
    3OL     H2R 8394   3.018   2.479   4.917
    3OL     H2S 8395   2.997   2.465   4.740
    3OL     C13 8396   2.995   2.281   4.851
    3OL     H3R 8397   2.949   2.242   4.942
    3OL     H3S 8398   3.102   2.272   4.872
    3OL     C14 8399   2.959   2.201   4.725
    3OL     H4R 8400   3.023   2.239   4.645
    3OL     H4S 8401   2.858   2.217   4.689
    3OL     C15 8402   2.987   2.052   4.744
    3OL     H5R 8403   2.934   2.017   4.832
    3OL     H5S 8404   3.095   2.039   4.759
    3OL     C16 8405   2.936   1.968   4.626
    3OL     H6R 8406   2.844   2.006   4.582
    3OL     H6S 8407   2.912   1.872   4.671
    3OL     C17 8408   3.049   1.958   4.522
    3OL     H7R 8409   3.145   1.937   4.570
    3OL     H7S 8410   3.062   2.057   4.477
    3OL     C18 8411   3.016   1.869   4.401
    3OL     H8R 8412   3.005   1.765   4.429
    3OL     H8S 8413   3.109   1.861   4.343
    3OL     C19 8414   2.898   1.923   4.325
    3OL     H9R 8415   2.797   1.891   4.351
    3OL    C110 8416   2.900   2.008   4.224
    3OL    H10R 8417   2.808   2.041   4.175
    3OL    C111 8418   3.029   2.070   4.177
    3OL    H11R 8419   3.117   2.032   4.230
    3OL    H11S 8420   3.026   2.177   4.195
    3OL    C112 8421   3.059   2.050   4.028
    3OL    H12R 8422   3.078   1.943   4.017
    3OL    H12S 8423   3.154   2.096   4.002
    3OL    C113 8424   2.957   2.106   3.928
    3OL    H13R 8425   2.865   2.052   3.950
    3OL    H13S 8426   2.978   2.083   3.824
    3OL    C114 8427   2.927   2.254   3.957
    3OL    H14R 8428   3.018   2.312   3.971
    3OL    H14S 8429   2.864   2.272   4.045
    3OL    C115 8430   2.844   2.317   3.844
    3OL    H15R 8431   2.743   2.277   3.838
    3OL    H15S 8432   2.888   2.294   3.747
    3OL    C116 8433   2.827   2.467   3.869
    3OL    H16R 8434   2.773   2.483   3.963
    3OL    H16S 8435   2.767   2.503   3.785
    3OL    C117 8436   2.959   2.546   3.864
    3OL    H17R 8437   2.995   2.566   3.763
    3OL    H17S 8438   3.032   2.500   3.930
    3OL    C118 8439   2.943   2.686   3.924
    3OL    H18R 8440   2.959   2.667   4.030
    3OL    H18S 8441   2.853   2.747   3.913
    3OL    H18T 8442   3.019   2.755   3.887
    1PA    C116 8443   2.854   0.599   3.681
    1PA    H16R 8444   2.941   0.606   3.615
    1PA    H16S 8445   2.778   0.548   3.622
    1PA    H16T 8446   2.888   0.545   3.770
    1PA    C115 8447   2.797   0.737   3.715
    1PA    H15R 8448   2.779   0.789   3.620
    1PA    H15S 8449   2.701   0.739   3.768
    1PA    C114 8450   2.893   0.812   3.807
    1PA    H14R 8451   2.905   0.762   3.904
    1PA    H14S 8452   2.991   0.806   3.759
    1PA    C113 8453   2.841   0.956   3.819
    1PA    H13R 8454   2.817   0.997   3.720
    1PA    H13S 8455   2.747   0.949   3.875
    1PA    C112 8456   2.939   1.042   3.899
    1PA    H12R 8457   3.033   1.041   3.844
    1PA    H12S 8458   2.901   1.144   3.893
    1PA    C111 8459   2.962   0.979   4.037
    1PA    H11R 8460   2.864   0.947   4.073
    1PA    H11S 8461   3.028   0.893   4.025
    1PA    C110 8462   3.021   1.083   4.132
    1PA    H10R 8463   2.967   1.175   4.111
    1PA    H10S 8464   2.986   1.051   4.231
    1PA     C19 8465   3.174   1.095   4.125
    1PA     H9R 8466   3.199   0.994   4.159
    1PA     H9S 8467   3.215   1.107   4.024
    1PA     C18 8468   3.232   1.203   4.218
    1PA     H8R 8469   3.336   1.183   4.245
    1PA     H8S 8470   3.230   1.292   4.155
    1PA     C17 8471   3.149   1.232   4.344
    1PA     H7R 8472   3.046   1.266   4.328
    1PA     H7S 8473   3.142   1.143   4.406
    1PA     C16 8474   3.212   1.350   4.419
    1PA     H6R 8475   3.311   1.320   4.452
    1PA     H6S 8476   3.218   1.435   4.351
    1PA     C15 8477   3.144   1.395   4.549
    1PA     H5R 8478   3.041   1.422   4.526
    1PA     H5S 8479   3.137   1.322   4.630
    1PA     C14 8480   3.229   1.510   4.606
    1PA     H4R 8481   3.319   1.468   4.651
    1PA     H4S 8482   3.249   1.581   4.525
    1PA     C13 8483   3.159   1.590   4.717
    1PA     H3R 8484   3.066   1.635   4.683
    1PA     H3S 8485   3.122   1.517   4.789
    1PA     C12 8486   3.254   1.685   4.791
    1PA     H2R 8487   3.346   1.637   4.825
    1PA     H2S 8488   3.284   1.755   4.713
    2PC     C11 8489   3.182   1.756   4.904
    2PC     O12 8490   3.072   1.722   4.941
    2PC     O11 8491   3.253   1.862   4.947
    2PC      C1 8492   3.188   1.947   5.044
    2PC      HR 8493   3.100   1.988   4.994
    2PC      HS 8494   3.165   1.878   5.126
    2PC      C2 8495   3.285   2.044   5.112
    2PC      HX 8496   3.368   1.986   5.154
    2PC      C3 8497   3.204   2.112   5.224
    2PC      HA 8498   3.193   2.047   5.311
    2PC      HB 8499   3.267   2.196   5.254
    2PC     O31 8500   3.070   2.152   5.191
    2PC     P31 8501   2.991   2.235   5.302
    2PC     O32 8502   2.841   2.238   5.245
    2PC     C31 8503   2.774   2.365   5.235
    2PC     H1A 8504   2.777   2.419   5.330
    2PC     H1B 8505   2.819   2.428   5.157
    2PC     C32 8506   2.627   2.347   5.193
    2PC     H2A 8507   2.587   2.437   5.146
    2PC     H2B 8508   2.634   2.275   5.111
    2PC     N31 8509   2.520   2.301   5.287
    2PC     C33 8510   2.386   2.306   5.220
    2PC     H3A 8511   2.311   2.254   5.278
    2PC     H3B 8512   2.349   2.406   5.198
    2PC     H3C 8513   2.399   2.259   5.122
    2PC     C34 8514   2.536   2.162   5.340
    2PC     H4A 8515   2.522   2.087   5.262
    2PC     H4B 8516   2.633   2.155   5.389
    2PC     H4C 8517   2.449   2.147   5.404
    2PC     C35 8518   2.509   2.391   5.406
    2PC     H5A 8519   2.610   2.395   5.447
    2PC     H5B 8520   2.437   2.347   5.475
    2PC     H5C 8521   2.482   2.494   5.381
    2PC     O33 8522   2.994   2.177   5.438
    2PC     O34 8523   3.054   2.369   5.309
    2PC     O21 8524   3.323   2.141   5.012
    2PC     C21 8525   3.429   2.218   5.043
    2PC     O22 8526   3.495   2.196   5.142
    3OL     C12 8527   3.449   2.330   4.944
    3OL     H2R 8528   3.507   2.406   4.996
    3OL     H2S 8529   3.351   2.368   4.912
    3OL     C13 8530   3.533   2.297   4.819
    3OL     H3R 8531   3.636   2.266   4.839
    3OL     H3S 8532   3.539   2.394   4.769
    3OL     C14 8533   3.448   2.202   4.733
    3OL     H4R 8534   3.351   2.251   4.729
    3OL     H4S 8535   3.432   2.101   4.771
    3OL     C15 8536   3.516   2.194   4.595
    3OL     H5R 8537   3.619   2.164   4.614
    3OL     H5S 8538   3.531   2.293   4.551
    3OL     C16 8539   3.425   2.107   4.507
    3OL     H6R 8540   3.381   2.028   4.568
    3OL     H6S 8541   3.483   2.055   4.430
    3OL     C17 8542   3.319   2.188   4.431
    3OL     H7R 8543   3.249   2.227   4.506
    3OL     H7S 8544   3.273   2.114   4.365
    3OL     C18 8545   3.375   2.311   4.359
    3OL     H8R 8546   3.476   2.296   4.320
    3OL     H8S 8547   3.394   2.395   4.428
    3OL     C19 8548   3.278   2.356   4.254
    3OL     H9R 8549   3.276   2.300   4.160
    3OL    C110 8550   3.200   2.463   4.243
    3OL    H10R 8551   3.140   2.472   4.153
    3OL    C111 8552   3.180   2.566   4.351
    3OL    H11R 8553   3.145   2.665   4.319
    3OL    H11S 8554   3.275   2.582   4.402
    3OL    C112 8555   3.079   2.519   4.457
    3OL    H12R 8556   3.084   2.590   4.540
    3OL    H12S 8557   3.108   2.420   4.492
    3OL    C113 8558   2.933   2.515   4.409
    3OL    H13R 8559   2.914   2.607   4.353
    3OL    H13S 8560   2.868   2.532   4.496
    3OL    C114 8561   2.898   2.384   4.337
    3OL    H14R 8562   2.929   2.291   4.385
    3OL    H14S 8563   2.945   2.393   4.239
    3OL    C115 8564   2.747   2.387   4.308
    3OL    H15R 8565   2.741   2.313   4.228
    3OL    H15S 8566   2.713   2.488   4.285
    3OL    C116 8567   2.681   2.328   4.433
    3OL    H16R 8568   2.698   2.410   4.503
    3OL    H16S 8569   2.735   2.236   4.457
    3OL    C117 8570   2.531   2.296   4.425
    3OL    H17R 8571   2.514   2.223   4.345
    3OL    H17S 8572   2.479   2.384   4.386
    3OL    C118 8573   2.464   2.244   4.553
    3OL    H18R 8574   2.534   2.170   4.592
    3OL    H18S 8575   2.361   2.208   4.543
    3OL    H18T 8576   2.460   2.320   4.631
    1PA    C116 8577   4.237   4.885   2.748
    1PA    H16R 8578   4.278   4.894   2.647
    1PA    H16S 8579   4.152   4.953   2.758
    1PA    H16T 8580   4.213   4.782   2.772
    1PA    C115 8581   4.348   4.931   2.843
    1PA    H15R 8582   4.441   4.878   2.823
    1PA    H15S 8583   4.368   5.037   2.826
    1PA    C114 8584   4.309   4.915   2.991
    1PA    H14R 8585   4.288   4.811   3.018
    1PA    H14S 8586   4.390   4.951   3.055
    1PA    C113 8587   4.182   4.984   3.041
    1PA    H13R 8588   4.098   4.933   2.993
    1PA    H13S 8589   4.187   4.966   3.148
    1PA    C112 8590   4.181   5.135   3.013
    1PA    H12R 8591   4.272   5.181   3.053
    1PA    H12S 8592   4.168   5.147   2.905
    1PA    C111 8593   4.059   5.200   3.080
    1PA    H11R 8594   3.962   5.194   3.031
    1PA    H11S 8595   4.061   5.154   3.179
    1PA    C110 8596   4.086   5.349   3.105
    1PA    H10R 8597   4.000   5.380   3.165
    1PA    H10S 8598   4.175   5.365   3.167
    1PA     C19 8599   4.093   5.425   2.972
    1PA     H9R 8600   4.180   5.388   2.917
    1PA     H9S 8601   4.011   5.388   2.910
    1PA     C18 8602   4.092   5.577   2.992
    1PA     H8R 8603   4.003   5.603   3.050
    1PA     H8S 8604   4.176   5.614   3.052
    1PA     C17 8605   4.080   5.642   2.854
    1PA     H7R 8606   4.126   5.741   2.862
    1PA     H7S 8607   4.137   5.581   2.784
    1PA     C16 8608   3.931   5.656   2.821
    1PA     H6R 8609   3.889   5.555   2.813
    1PA     H6S 8610   3.883   5.699   2.909
    1PA     C15 8611   3.904   5.738   2.694
    1PA     H5R 8612   3.895   5.842   2.725
    1PA     H5S 8613   3.980   5.728   2.616
    1PA     C14 8614   3.778   5.698   2.616
    1PA     H4R 8615   3.794   5.607   2.558
    1PA     H4S 8616   3.700   5.663   2.684
    1PA     C13 8617   3.747   5.808   2.514
    1PA     H3R 8618   3.725   5.896   2.573
    1PA     H3S 8619   3.830   5.832   2.447
    1PA     C12 8620   3.623   5.791   2.425
    1PA     H2R 8621   3.536   5.774   2.488
    1PA     H2S 8622   3.618   5.880   2.362
    2PC     C11 8623   3.646   5.673   2.334
    2PC     O12 8624   3.625   5.557   2.362
    2PC     O11 8625   3.688   5.716   2.214
    2PC      C1 8626   3.733   5.624   2.112
    2PC      HR 8627   3.687   5.525   2.120
    2PC      HS 8628   3.710   5.666   2.014
    2PC      C2 8629   3.885   5.605   2.118
    2PC      HX 8630   3.937   5.693   2.155
    2PC      C3 8631   3.945   5.581   1.979
    2PC      HA 8632   4.040   5.528   1.976
    2PC      HB 8633   3.950   5.675   1.923
    2PC     O31 8634   3.858   5.490   1.909
    2PC     P31 8635   3.881   5.488   1.750
    2PC     O32 8636   3.994   5.378   1.724
    2PC     C31 8637   4.002   5.322   1.592
    2PC     H1A 8638   3.915   5.262   1.567
    2PC     H1B 8639   4.002   5.404   1.519
    2PC     C32 8640   4.134   5.244   1.577
    2PC     H2A 8641   4.142   5.170   1.657
    2PC     H2B 8642   4.135   5.176   1.492
    2PC     N31 8643   4.260   5.324   1.573
    2PC     C33 8644   4.275   5.413   1.693
    2PC     H3A 8645   4.368   5.467   1.680
    2PC     H3B 8646   4.190   5.483   1.694
    2PC     H3C 8647   4.271   5.359   1.787
    2PC     C34 8648   4.381   5.234   1.572
    2PC     H4A 8649   4.359   5.142   1.517
    2PC     H4B 8650   4.451   5.279   1.501
    2PC     H4C 8651   4.413   5.221   1.675
    2PC     C35 8652   4.277   5.409   1.451
    2PC     H5A 8653   4.254   5.346   1.365
    2PC     H5B 8654   4.381   5.441   1.451
    2PC     H5C 8655   4.219   5.501   1.457
    2PC     O33 8656   3.753   5.460   1.681
    2PC     O34 8657   3.927   5.617   1.693
    2PC     O21 8658   3.922   5.485   2.189
    2PC     C21 8659   3.981   5.507   2.307
    2PC     O22 8660   4.001   5.617   2.354
    3OL     C12 8661   4.023   5.379   2.374
    3OL     H2R 8662   4.131   5.390   2.388
    3OL     H2S 8663   4.005   5.298   2.302
    3OL     C13 8664   3.985   5.362   2.522
    3OL     H3R 8665   3.996   5.460   2.568
    3OL     H3S 8666   4.054   5.296   2.574
    3OL     C14 8667   3.839   5.315   2.529
    3OL     H4R 8668   3.825   5.219   2.479
    3OL     H4S 8669   3.780   5.386   2.470
    3OL     C15 8670   3.786   5.301   2.672
    3OL     H5R 8671   3.678   5.314   2.665
    3OL     H5S 8672   3.837   5.378   2.730
    3OL     C16 8673   3.814   5.161   2.730
    3OL     H6R 8674   3.922   5.155   2.746
    3OL     H6S 8675   3.788   5.087   2.655
    3OL     C17 8676   3.731   5.139   2.857
    3OL     H7R 8677   3.676   5.230   2.884
    3OL     H7S 8678   3.794   5.107   2.940
    3OL     C18 8679   3.618   5.037   2.839
    3OL     H8R 8680   3.582   5.013   2.939
    3OL     H8S 8681   3.665   4.942   2.813
    3OL     C19 8682   3.513   5.068   2.735
    3OL     H9R 8683   3.534   5.049   2.630
    3OL    C110 8684   3.387   5.101   2.761
    3OL    H10R 8685   3.313   5.097   2.681
    3OL    C111 8686   3.327   5.132   2.895
    3OL    H11R 8687   3.284   5.233   2.900
    3OL    H11S 8688   3.400   5.141   2.976
    3OL    C112 8689   3.228   5.022   2.936
    3OL    H12R 8690   3.279   4.928   2.914
    3OL    H12S 8691   3.142   5.008   2.869
    3OL    C113 8692   3.177   5.030   3.080
    3OL    H13R 8693   3.093   4.960   3.083
    3OL    H13S 8694   3.140   5.129   3.108
    3OL    C114 8695   3.283   4.975   3.176
    3OL    H14R 8696   3.379   5.024   3.157
    3OL    H14S 8697   3.301   4.870   3.149
    3OL    C115 8698   3.251   4.997   3.324
    3OL    H15R 8699   3.146   4.970   3.335
    3OL    H15S 8700   3.266   5.103   3.347
    3OL    C116 8701   3.352   4.915   3.405
    3OL    H16R 8702   3.370   4.970   3.498
    3OL    H16S 8703   3.450   4.894   3.362
    3OL    C117 8704   3.288   4.776   3.425
    3OL    H17R 8705   3.375   4.715   3.452
    3OL    H17S 8706   3.252   4.744   3.327
    3OL    C118 8707   3.189   4.771   3.541
    3OL    H18R 8708   3.245   4.774   3.635
    3OL    H18S 8709   3.140   4.674   3.538
    3OL    H18T 8710   3.116   4.852   3.548
    1PA    C116 8711   5.226   4.877   3.619
    1PA    H16R 8712   5.161   4.819   3.685
    1PA    H16S 8713   5.248   4.969   3.673
    1PA    H16T 8714   5.322   4.830   3.598
    1PA    C115 8715   5.137   4.911   3.498
    1PA    H15R 8716   5.063   4.982   3.536
    1PA    H15S 8717   5.210   4.962   3.434
    1PA    C114 8718   5.073   4.791   3.428
    1PA    H14R 8719   5.145   4.715   3.396
    1PA    H14S 8720   5.002   4.743   3.497
    1PA    C113 8721   4.990   4.851   3.314
    1PA    H13R 8722   4.923   4.922   3.362
    1PA    H13S 8723   5.042   4.914   3.242
    1PA    C112 8724   4.905   4.751   3.234
    1PA    H12R 8725   4.869   4.683   3.311
    1PA    H12S 8726   4.814   4.797   3.196
    1PA    C111 8727   4.980   4.689   3.116
    1PA    H11R 8728   4.905   4.641   3.052
    1PA    H11S 8729   5.034   4.769   3.065
    1PA    C110 8730   5.082   4.582   3.157
    1PA    H10R 8731   5.167   4.640   3.194
    1PA    H10S 8732   5.032   4.516   3.228
    1PA     C19 8733   5.138   4.507   3.036
    1PA     H9R 8734   5.148   4.585   2.960
    1PA     H9S 8735   5.237   4.471   3.067
    1PA     C18 8736   5.042   4.399   2.983
    1PA     H8R 8737   5.022   4.319   3.054
    1PA     H8S 8738   4.951   4.455   2.958
    1PA     C17 8739   5.091   4.347   2.847
    1PA     H7R 8740   5.109   4.430   2.778
    1PA     H7S 8741   5.179   4.287   2.868
    1PA     C16 8742   4.983   4.263   2.777
    1PA     H6R 8743   4.961   4.178   2.842
    1PA     H6S 8744   4.889   4.318   2.779
    1PA     C15 8745   5.030   4.216   2.639
    1PA     H5R 8746   4.938   4.202   2.582
    1PA     H5S 8747   5.078   4.290   2.574
    1PA     C14 8748   5.120   4.092   2.638
    1PA     H4R 8749   5.069   4.018   2.700
    1PA     H4S 8750   5.139   4.057   2.536
    1PA     C13 8751   5.261   4.112   2.695
    1PA     H3R 8752   5.261   4.104   2.804
    1PA     H3S 8753   5.323   4.027   2.668
    1PA     C12 8754   5.344   4.233   2.649
    1PA     H2R 8755   5.290   4.322   2.683
    1PA     H2S 8756   5.443   4.234   2.695
    2PC     C11 8757   5.363   4.230   2.499
    2PC     O12 8758   5.310   4.317   2.433
    2PC     O11 8759   5.433   4.128   2.446
    2PC      C1 8760   5.479   4.122   2.310
    2PC      HR 8761   5.530   4.026   2.300
    2PC      HS 8762   5.393   4.128   2.243
    2PC      C2 8763   5.586   4.227   2.279
    2PC      HX 8764   5.546   4.328   2.292
    2PC      C3 8765   5.640   4.212   2.136
    2PC      HA 8766   5.713   4.131   2.135
    2PC      HB 8767   5.559   4.204   2.065
    2PC     O31 8768   5.702   4.338   2.103
    2PC     P31 8769   5.749   4.353   1.950
    2PC     O32 8770   5.862   4.463   1.978
    2PC     C31 8771   5.824   4.581   2.052
    2PC     H1A 8772   5.772   4.644   1.979
    2PC     H1B 8773   5.761   4.561   2.139
    2PC     C32 8774   5.955   4.652   2.091
    2PC     H2A 8775   6.001   4.697   2.003
    2PC     H2B 8776   5.922   4.735   2.154
    2PC     N31 8777   6.060   4.579   2.168
    2PC     C33 8778   6.139   4.685   2.241
    2PC     H3A 8779   6.204   4.639   2.316
    2PC     H3B 8780   6.210   4.730   2.172
    2PC     H3C 8781   6.067   4.750   2.291
    2PC     C34 8782   5.998   4.491   2.272
    2PC     H4A 8783   5.956   4.396   2.236
    2PC     H4B 8784   6.075   4.468   2.346
    2PC     H4C 8785   5.912   4.536   2.322
    2PC     C35 8786   6.152   4.498   2.082
    2PC     H5A 8787   6.086   4.423   2.039
    2PC     H5B 8788   6.220   4.445   2.149
    2PC     H5C 8789   6.202   4.557   2.005
    2PC     O33 8790   5.791   4.227   1.886
    2PC     O34 8791   5.647   4.402   1.855
    2PC     O21 8792   5.696   4.199   2.368
    2PC     C21 8793   5.711   4.286   2.469
    2PC     O22 8794   5.638   4.378   2.501
    3OL     C12 8795   5.838   4.272   2.549
    3OL     H2R 8796   5.909   4.249   2.469
    3OL     H2S 8797   5.836   4.181   2.609
    3OL     C13 8798   5.883   4.402   2.617
    3OL     H3R 8799   5.849   4.496   2.571
    3OL     H3S 8800   5.992   4.408   2.612
    3OL     C14 8801   5.847   4.393   2.766
    3OL     H4R 8802   5.880   4.299   2.812
    3OL     H4S 8803   5.739   4.383   2.777
    3OL     C15 8804   5.889   4.511   2.853
    3OL     H5R 8805   5.839   4.603   2.821
    3OL     H5S 8806   5.996   4.532   2.843
    3OL     C16 8807   5.847   4.484   2.998
    3OL     H6R 8808   5.903   4.397   3.031
    3OL     H6S 8809   5.743   4.450   3.001
    3OL     C17 8810   5.858   4.611   3.084
    3OL     H7R 8811   5.807   4.698   3.042
    3OL     H7S 8812   5.960   4.649   3.085
    3OL     C18 8813   5.819   4.593   3.232
    3OL     H8R 8814   5.879   4.516   3.281
    3OL     H8S 8815   5.712   4.579   3.245
    3OL     C19 8816   5.856   4.722   3.301
    3OL     H9R 8817   5.928   4.772   3.236
    3OL    C110 8818   5.828   4.765   3.423
    3OL    H10R 8819   5.861   4.861   3.461
    3OL    C111 8820   5.729   4.686   3.504
    3OL    H11R 8821   5.788   4.641   3.584
    3OL    H11S 8822   5.674   4.613   3.444
    3OL    C112 8823   5.624   4.777   3.570
    3OL    H12R 8824   5.551   4.707   3.613
    3OL    H12S 8825   5.585   4.831   3.484
    3OL    C113 8826   5.691   4.864   3.677
    3OL    H13R 8827   5.775   4.918   3.633
    3OL    H13S 8828   5.733   4.791   3.746
    3OL    C114 8829   5.590   4.959   3.742
    3OL    H14R 8830   5.519   4.900   3.801
    3OL    H14S 8831   5.536   5.006   3.660
    3OL    C115 8832   5.663   5.063   3.828
    3OL    H15R 8833   5.592   5.141   3.856
    3OL    H15S 8834   5.735   5.109   3.761
    3OL    C116 8835   5.715   5.008   3.962
    3OL    H16R 8836   5.808   4.955   3.941
    3OL    H16S 8837   5.642   4.936   4.000
    3OL    C117 8838   5.737   5.120   4.064
    3OL    H17R 8839   5.643   5.175   4.069
    3OL    H17S 8840   5.810   5.189   4.022
    3OL    C118 8841   5.772   5.077   4.208
    3OL    H18R 8842   5.735   4.975   4.222
    3OL    H18S 8843   5.720   5.142   4.278
    3OL    H18T 8844   5.877   5.074   4.238
    1PA    C116 8845   6.258   6.481   3.722
    1PA    H16R 8846   6.199   6.567   3.687
    1PA    H16S 8847   6.363   6.483   3.693
    1PA    H16T 8848   6.246   6.483   3.830
    1PA    C115 8849   6.181   6.360   3.668
    1PA    H15R 8850   6.207   6.337   3.564
    1PA    H15S 8851   6.193   6.274   3.735
    1PA    C114 8852   6.033   6.395   3.651
    1PA    H14R 8853   5.995   6.435   3.746
    1PA    H14S 8854   6.020   6.468   3.571
    1PA    C113 8855   5.952   6.267   3.628
    1PA    H13R 8856   5.989   6.172   3.667
    1PA    H13S 8857   5.851   6.280   3.669
    1PA    C112 8858   5.933   6.256   3.476
    1PA    H12R 8859   5.863   6.333   3.443
    1PA    H12S 8860   6.028   6.282   3.428
    1PA    C111 8861   5.887   6.112   3.446
    1PA    H11R 8862   5.971   6.045   3.465
    1PA    H11S 8863   5.818   6.077   3.523
    1PA    C110 8864   5.829   6.094   3.306
    1PA    H10R 8865   5.747   6.022   3.315
    1PA    H10S 8866   5.777   6.185   3.275
    1PA     C19 8867   5.946   6.040   3.222
    1PA     H9R 8868   6.031   6.109   3.229
    1PA     H9S 8869   5.984   5.943   3.255
    1PA     C18 8870   5.906   6.033   3.073
    1PA     H8R 8871   5.856   6.126   3.046
    1PA     H8S 8872   5.997   6.012   3.016
    1PA     C17 8873   5.826   5.904   3.055
    1PA     H7R 8874   5.899   5.826   3.031
    1PA     H7S 8875   5.779   5.867   3.147
    1PA     C16 8876   5.719   5.915   2.945
    1PA     H6R 8877   5.686   5.814   2.924
    1PA     H6S 8878   5.646   5.986   2.986
    1PA     C15 8879   5.787   5.949   2.812
    1PA     H5R 8880   5.823   6.052   2.815
    1PA     H5S 8881   5.876   5.887   2.795
    1PA     C14 8882   5.684   5.936   2.699
    1PA     H4R 8883   5.642   5.835   2.690
    1PA     H4S 8884   5.601   6.005   2.714
    1PA     C13 8885   5.750   5.963   2.563
    1PA     H3R 8886   5.667   5.957   2.492
    1PA     H3S 8887   5.787   6.065   2.546
    1PA     C12 8888   5.871   5.878   2.524
    1PA     H2R 8889   5.959   5.910   2.581
    1PA     H2S 8890   5.854   5.772   2.544
    2PC     C11 8891   5.901   5.884   2.376
    2PC     O12 8892   5.890   5.978   2.300
    2PC     O11 8893   5.921   5.757   2.337
    2PC      C1 8894   5.929   5.722   2.198
    2PC      HR 8895   5.911   5.615   2.184
    2PC      HS 8896   5.848   5.772   2.145
    2PC      C2 8897   6.062   5.770   2.137
    2PC      HX 8898   6.082   5.876   2.156
    2PC      C3 8899   6.075   5.735   1.988
    2PC      HA 8900   6.085   5.627   1.978
    2PC      HB 8901   5.992   5.778   1.931
    2PC     O31 8902   6.188   5.802   1.930
    2PC     P31 8903   6.180   5.856   1.779
    2PC     O32 8904   6.186   5.723   1.690
    2PC     C31 8905   6.276   5.711   1.578
    2PC     H1A 8906   6.257   5.795   1.511
    2PC     H1B 8907   6.378   5.721   1.615
    2PC     C32 8908   6.258   5.574   1.511
    2PC     H2A 8909   6.327   5.580   1.428
    2PC     H2B 8910   6.267   5.499   1.590
    2PC     N31 8911   6.121   5.537   1.461
    2PC     C33 8912   6.075   5.641   1.364
    2PC     H3A 8913   6.135   5.646   1.273
    2PC     H3B 8914   5.975   5.610   1.333
    2PC     H3C 8915   6.069   5.741   1.407
    2PC     C34 8916   6.131   5.406   1.388
    2PC     H4A 8917   6.123   5.318   1.451
    2PC     H4B 8918   6.049   5.403   1.316
    2PC     H4C 8919   6.237   5.399   1.364
    2PC     C35 8920   6.029   5.514   1.577
    2PC     H5A 8921   6.087   5.447   1.642
    2PC     H5B 8922   5.937   5.474   1.534
    2PC     H5C 8923   6.005   5.611   1.620
    2PC     O33 8924   6.054   5.930   1.756
    2PC     O34 8925   6.295   5.946   1.754
    2PC     O21 8926   6.162   5.684   2.193
    2PC     C21 8927   6.288   5.721   2.220
    2PC     O22 8928   6.331   5.834   2.215
    3OL     C12 8929   6.374   5.598   2.240
    3OL     H2R 8930   6.418   5.582   2.142
    3OL     H2S 8931   6.310   5.516   2.273
    3OL     C13 8932   6.487   5.625   2.340
    3OL     H3R 8933   6.522   5.727   2.327
    3OL     H3S 8934   6.572   5.561   2.312
    3OL     C14 8935   6.454   5.595   2.487
    3OL     H4R 8936   6.548   5.584   2.541
    3OL     H4S 8937   6.395   5.503   2.498
    3OL     C15 8938   6.372   5.712   2.543
    3OL     H5R 8939   6.274   5.721   2.495
    3OL     H5S 8940   6.422   5.808   2.550
    3OL     C16 8941   6.343   5.677   2.690
    3OL     H6R 8942   6.435   5.668   2.748
    3OL     H6S 8943   6.289   5.582   2.697
    3OL     C17 8944   6.250   5.784   2.748
    3OL     H7R 8945   6.181   5.741   2.821
    3OL     H7S 8946   6.195   5.829   2.665
    3OL     C18 8947   6.318   5.905   2.814
    3OL     H8R 8948   6.388   5.932   2.734
    3OL     H8S 8949   6.380   5.871   2.897
    3OL     C19 8950   6.221   6.018   2.839
    3OL     H9R 8951   6.167   6.051   2.751
    3OL    C110 8952   6.215   6.087   2.952
    3OL    H10R 8953   6.147   6.169   2.973
    3OL    C111 8954   6.296   6.056   3.075
    3OL    H11R 8955   6.307   5.947   3.077
    3OL    H11S 8956   6.245   6.086   3.167
    3OL    C112 8957   6.436   6.119   3.092
    3OL    H12R 8958   6.506   6.077   3.019
    3OL    H12S 8959   6.477   6.082   3.186
    3OL    C113 8960   6.443   6.272   3.089
    3OL    H13R 8961   6.377   6.312   3.011
    3OL    H13S 8962   6.542   6.305   3.058
    3OL    C114 8963   6.406   6.337   3.223
    3OL    H14R 8964   6.475   6.307   3.303
    3OL    H14S 8965   6.305   6.305   3.247
    3OL    C115 8966   6.405   6.490   3.209
    3OL    H15R 8967   6.334   6.529   3.135
    3OL    H15S 8968   6.501   6.518   3.166
    3OL    C116 8969   6.379   6.557   3.345
    3OL    H16R 8970   6.458   6.522   3.411
    3OL    H16S 8971   6.282   6.528   3.386
    3OL    C117 8972   6.384   6.710   3.334
    3OL    H17R 8973   6.308   6.746   3.264
    3OL    H17S 8974   6.477   6.745   3.289
    3OL    C118 8975   6.364   6.766   3.476
    3OL    H18R 8976   6.421   6.714   3.553
    3OL    H18S 8977   6.258   6.751   3.495
    3OL    H18T 8978   6.372   6.875   3.481
    1PA    C116 8979   5.696   5.513   3.437
    1PA    H16R 8980   5.691   5.622   3.423
    1PA    H16S 8981   5.746   5.468   3.351
    1PA    H16T 8982   5.752   5.487   3.527
    1PA    C115 8983   5.554   5.457   3.432
    1PA    H15R 8984   5.487   5.507   3.503
    1PA    H15S 8985   5.502   5.464   3.336
    1PA    C114 8986   5.563   5.311   3.480
    1PA    H14R 8987   5.618   5.294   3.572
    1PA    H14S 8988   5.456   5.293   3.497
    1PA    C113 8989   5.605   5.200   3.383
    1PA    H13R 8990   5.672   5.240   3.306
    1PA    H13S 8991   5.670   5.123   3.424
    1PA    C112 8992   5.495   5.133   3.300
    1PA    H12R 8993   5.426   5.099   3.377
    1PA    H12S 8994   5.465   5.204   3.223
    1PA    C111 8995   5.546   5.013   3.220
    1PA    H11R 8996   5.607   5.045   3.135
    1PA    H11S 8997   5.615   4.955   3.282
    1PA    C110 8998   5.446   4.914   3.159
    1PA    H10R 8999   5.378   4.859   3.225
    1PA    H10S 9000   5.381   4.982   3.105
    1PA     C19 9001   5.517   4.813   3.067
    1PA     H9R 9002   5.555   4.860   2.976
    1PA     H9S 9003   5.604   4.777   3.122
    1PA     C18 9004   5.431   4.696   3.017
    1PA     H8R 9005   5.387   4.641   3.101
    1PA     H8S 9006   5.343   4.745   2.974
    1PA     C17 9007   5.503   4.595   2.928
    1PA     H7R 9008   5.582   4.558   2.994
    1PA     H7S 9009   5.440   4.507   2.909
    1PA     C16 9010   5.567   4.648   2.798
    1PA     H6R 9011   5.649   4.714   2.825
    1PA     H6S 9012   5.604   4.566   2.736
    1PA     C15 9013   5.478   4.730   2.705
    1PA     H5R 9014   5.437   4.823   2.745
    1PA     H5S 9015   5.548   4.758   2.626
    1PA     C14 9016   5.352   4.660   2.653
    1PA     H4R 9017   5.391   4.572   2.601
    1PA     H4S 9018   5.279   4.625   2.727
    1PA     C13 9019   5.279   4.752   2.554
    1PA     H3R 9020   5.346   4.806   2.487
    1PA     H3S 9021   5.228   4.686   2.483
    1PA     C12 9022   5.183   4.852   2.620
    1PA     H2R 9023   5.114   4.782   2.667
    1PA     H2S 9024   5.216   4.911   2.706
    2PC     C11 9025   5.110   4.936   2.519
    2PC     O12 9026   5.117   4.920   2.398
    2PC     O11 9027   5.041   5.036   2.576
    2PC      C1 9028   4.990   5.139   2.489
    2PC      HR 9029   4.975   5.224   2.556
    2PC      HS 9030   5.061   5.179   2.416
    2PC      C2 9031   4.864   5.083   2.422
    2PC      HX 9032   4.897   4.983   2.391
    2PC      C3 9033   4.821   5.162   2.298
    2PC      HA 9034   4.900   5.169   2.223
    2PC      HB 9035   4.736   5.116   2.246
    2PC     O31 9036   4.783   5.294   2.340
    2PC     P31 9037   4.720   5.383   2.223
    2PC     O32 9038   4.689   5.524   2.293
    2PC     C31 9039   4.692   5.640   2.207
    2PC     H1A 9040   4.799   5.656   2.196
    2PC     H1B 9041   4.641   5.608   2.116
    2PC     C32 9042   4.619   5.765   2.259
    2PC     H2A 9043   4.675   5.812   2.340
    2PC     H2B 9044   4.621   5.849   2.189
    2PC     N31 9045   4.478   5.745   2.305
    2PC     C33 9046   4.419   5.877   2.345
    2PC     H3A 9047   4.473   5.930   2.424
    2PC     H3B 9048   4.427   5.943   2.259
    2PC     H3C 9049   4.314   5.873   2.375
    2PC     C34 9050   4.383   5.694   2.200
    2PC     H4A 9051   4.282   5.719   2.232
    2PC     H4B 9052   4.405   5.743   2.105
    2PC     H4C 9053   4.396   5.586   2.191
    2PC     C35 9054   4.465   5.647   2.417
    2PC     H5A 9055   4.539   5.674   2.493
    2PC     H5B 9056   4.504   5.553   2.380
    2PC     H5C 9057   4.361   5.646   2.452
    2PC     O33 9058   4.804   5.392   2.102
    2PC     O34 9059   4.598   5.329   2.159
    2PC     O21 9060   4.767   5.086   2.528
    2PC     C21 9061   4.646   5.030   2.507
    2PC     O22 9062   4.620   4.953   2.417
    3OL     C12 9063   4.542   5.067   2.609
    3OL     H2R 9064   4.590   5.087   2.705
    3OL     H2S 9065   4.475   4.982   2.617
    3OL     C13 9066   4.468   5.189   2.552
    3OL     H3R 9067   4.370   5.187   2.600
    3OL     H3S 9068   4.454   5.177   2.444
    3OL     C14 9069   4.540   5.320   2.589
    3OL     H4R 9070   4.532   5.391   2.507
    3OL     H4S 9071   4.648   5.305   2.599
    3OL     C15 9072   4.492   5.380   2.722
    3OL     H5R 9073   4.478   5.306   2.801
    3OL     H5S 9074   4.393   5.416   2.693
    3OL     C16 9075   4.578   5.500   2.762
    3OL     H6R 9076   4.597   5.568   2.679
    3OL     H6S 9077   4.675   5.471   2.805
    3OL     C17 9078   4.509   5.580   2.874
    3OL     H7R 9079   4.401   5.591   2.860
    3OL     H7S 9080   4.548   5.681   2.884
    3OL     C18 9081   4.528   5.519   3.014
    3OL     H8R 9082   4.469   5.580   3.083
    3OL     H8S 9083   4.633   5.523   3.043
    3OL     C19 9084   4.471   5.382   3.042
    3OL     H9R 9085   4.398   5.346   2.969
    3OL    C110 9086   4.511   5.312   3.146
    3OL    H10R 9087   4.466   5.214   3.157
    3OL    C111 9088   4.601   5.361   3.257
    3OL    H11R 9089   4.537   5.404   3.334
    3OL    H11S 9090   4.669   5.439   3.221
    3OL    C112 9091   4.678   5.244   3.320
    3OL    H12R 9092   4.738   5.208   3.236
    3OL    H12S 9093   4.609   5.166   3.354
    3OL    C113 9094   4.770   5.293   3.432
    3OL    H13R 9095   4.720   5.344   3.514
    3OL    H13S 9096   4.824   5.381   3.395
    3OL    C114 9097   4.875   5.194   3.485
    3OL    H14R 9098   4.957   5.211   3.416
    3OL    H14S 9099   4.847   5.090   3.465
    3OL    C115 9100   4.925   5.223   3.627
    3OL    H15R 9101   4.949   5.330   3.629
    3OL    H15S 9102   5.013   5.163   3.652
    3OL    C116 9103   4.822   5.191   3.736
    3OL    H16R 9104   4.796   5.085   3.735
    3OL    H16S 9105   4.731   5.249   3.718
    3OL    C117 9106   4.874   5.235   3.873
    3OL    H17R 9107   4.788   5.230   3.940
    3OL    H17S 9108   4.912   5.338   3.876
    3OL    C118 9109   4.972   5.126   3.920
    3OL    H18R 9110   4.913   5.037   3.943
    3OL    H18S 9111   5.034   5.150   4.006
    3OL    H18T 9112   5.036   5.095   3.837
    1PA    C116 9113   5.247   3.992   3.883
    1PA    H16R 9114   5.282   4.039   3.975
    1PA    H16S 9115   5.205   3.899   3.923
    1PA    H16T 9116   5.173   4.062   3.842
    1PA    C115 9117   5.363   3.962   3.788
    1PA    H15R 9118   5.399   4.055   3.741
    1PA    H15S 9119   5.444   3.913   3.842
    1PA    C114 9120   5.316   3.875   3.671
    1PA    H14R 9121   5.355   3.775   3.689
    1PA    H14S 9122   5.207   3.871   3.665
    1PA    C113 9123   5.369   3.927   3.537
    1PA    H13R 9124   5.342   4.033   3.530
    1PA    H13S 9125   5.477   3.912   3.532
    1PA    C112 9126   5.311   3.841   3.425
    1PA    H12R 9127   5.347   3.738   3.419
    1PA    H12S 9128   5.202   3.837   3.432
    1PA    C111 9129   5.337   3.907   3.289
    1PA    H11R 9130   5.301   4.009   3.283
    1PA    H11S 9131   5.446   3.895   3.281
    1PA    C110 9132   5.293   3.824   3.168
    1PA    H10R 9133   5.346   3.872   3.086
    1PA    H10S 9134   5.326   3.720   3.176
    1PA     C19 9135   5.141   3.821   3.146
    1PA     H9R 9136   5.108   3.747   3.073
    1PA     H9S 9137   5.101   3.797   3.245
    1PA     C18 9138   5.073   3.952   3.103
    1PA     H8R 9139   5.100   4.028   3.177
    1PA     H8S 9140   5.125   3.984   3.013
    1PA     C17 9141   4.925   3.947   3.064
    1PA     H7R 9142   4.869   3.914   3.152
    1PA     H7S 9143   4.883   4.044   3.036
    1PA     C16 9144   4.899   3.851   2.946
    1PA     H6R 9145   4.960   3.880   2.860
    1PA     H6S 9146   4.929   3.751   2.978
    1PA     C15 9147   4.751   3.847   2.905
    1PA     H5R 9148   4.724   3.758   2.849
    1PA     H5S 9149   4.674   3.848   2.983
    1PA     C14 9150   4.707   3.970   2.824
    1PA     H4R 9151   4.743   4.064   2.866
    1PA     H4S 9152   4.750   3.957   2.724
    1PA     C13 9153   4.557   3.975   2.794
    1PA     H3R 9154   4.539   3.904   2.713
    1PA     H3S 9155   4.503   3.954   2.886
    1PA     C12 9156   4.507   4.109   2.737
    1PA     H2R 9157   4.444   4.162   2.809
    1PA     H2S 9158   4.590   4.177   2.715
    2PC     C11 9159   4.427   4.089   2.610
    2PC     O12 9160   4.330   4.016   2.605
    2PC     O11 9161   4.466   4.167   2.508
    2PC      C1 9162   4.416   4.152   2.374
    2PC      HR 9163   4.441   4.054   2.333
    2PC      HS 9164   4.307   4.155   2.373
    2PC      C2 9165   4.471   4.259   2.280
    2PC      HX 9166   4.423   4.353   2.308
    2PC      C3 9167   4.427   4.226   2.136
    2PC      HA 9168   4.322   4.197   2.127
    2PC      HB 9169   4.444   4.313   2.072
    2PC     O31 9170   4.516   4.125   2.086
    2PC     P31 9171   4.487   4.062   1.942
    2PC     O32 9172   4.537   4.187   1.856
    2PC     C31 9173   4.679   4.204   1.847
    2PC     H1A 9174   4.719   4.227   1.946
    2PC     H1B 9175   4.724   4.111   1.813
    2PC     C32 9176   4.712   4.321   1.752
    2PC     H2A 9177   4.668   4.414   1.789
    2PC     H2B 9178   4.817   4.342   1.731
    2PC     N31 9179   4.658   4.323   1.612
    2PC     C33 9180   4.728   4.422   1.525
    2PC     H3A 9181   4.830   4.390   1.503
    2PC     H3B 9182   4.678   4.425   1.429
    2PC     H3C 9183   4.733   4.516   1.580
    2PC     C34 9184   4.676   4.193   1.539
    2PC     H4A 9185   4.679   4.222   1.433
    2PC     H4B 9186   4.771   4.148   1.565
    2PC     H4C 9187   4.606   4.113   1.565
    2PC     C35 9188   4.510   4.347   1.617
    2PC     H5A 9189   4.486   4.446   1.655
    2PC     H5B 9190   4.451   4.275   1.674
    2PC     H5C 9191   4.472   4.353   1.515
    2PC     O33 9192   4.563   3.938   1.917
    2PC     O34 9193   4.343   4.030   1.927
    2PC     O21 9194   4.614   4.280   2.278
    2PC     C21 9195   4.675   4.378   2.209
    2PC     O22 9196   4.613   4.461   2.146
    3OL     C12 9197   4.824   4.369   2.226
    3OL     H2R 9198   4.858   4.319   2.135
    3OL     H2S 9199   4.843   4.305   2.313
    3OL     C13 9200   4.907   4.498   2.229
    3OL     H3R 9201   5.002   4.480   2.178
    3OL     H3S 9202   4.851   4.577   2.180
    3OL     C14 9203   4.934   4.563   2.366
    3OL     H4R 9204   4.995   4.652   2.351
    3OL     H4S 9205   4.992   4.488   2.420
    3OL     C15 9206   4.818   4.591   2.462
    3OL     H5R 9207   4.782   4.495   2.500
    3OL     H5S 9208   4.747   4.654   2.409
    3OL     C16 9209   4.872   4.666   2.585
    3OL     H6R 9210   4.929   4.753   2.550
    3OL     H6S 9211   4.946   4.603   2.634
    3OL     C17 9212   4.764   4.717   2.681
    3OL     H7R 9213   4.699   4.635   2.712
    3OL     H7S 9214   4.702   4.793   2.632
    3OL     C18 9215   4.834   4.775   2.804
    3OL     H8R 9216   4.913   4.843   2.770
    3OL     H8S 9217   4.880   4.692   2.857
    3OL     C19 9218   4.720   4.837   2.882
    3OL     H9R 9219   4.647   4.763   2.916
    3OL    C110 9220   4.714   4.964   2.917
    3OL    H10R 9221   4.625   5.001   2.967
    3OL    C111 9222   4.811   5.077   2.891
    3OL    H11R 9223   4.762   5.151   2.828
    3OL    H11S 9224   4.899   5.044   2.835
    3OL    C112 9225   4.859   5.145   3.020
    3OL    H12R 9226   4.873   5.068   3.097
    3OL    H12S 9227   4.788   5.219   3.058
    3OL    C113 9228   4.989   5.224   2.996
    3OL    H13R 9229   4.976   5.283   2.905
    3OL    H13S 9230   5.071   5.160   2.965
    3OL    C114 9231   5.020   5.324   3.108
    3OL    H14R 9232   4.932   5.351   3.167
    3OL    H14S 9233   5.053   5.413   3.053
    3OL    C115 9234   5.140   5.271   3.187
    3OL    H15R 9235   5.215   5.240   3.113
    3OL    H15S 9236   5.113   5.184   3.246
    3OL    C116 9237   5.210   5.389   3.254
    3OL    H16R 9238   5.229   5.457   3.171
    3OL    H16S 9239   5.307   5.362   3.297
    3OL    C117 9240   5.132   5.463   3.364
    3OL    H17R 9241   5.118   5.399   3.451
    3OL    H17S 9242   5.033   5.492   3.330
    3OL    C118 9243   5.194   5.597   3.407
    3OL    H18R 9244   5.295   5.611   3.370
    3OL    H18S 9245   5.189   5.600   3.516
    3OL    H18T 9246   5.135   5.679   3.366
    1PA    C116 9247   5.468   3.068   3.788
    1PA    H16R 9248   5.475   3.052   3.680
    1PA    H16S 9249   5.563   3.040   3.833
    1PA    H16T 9250   5.446   3.173   3.804
    1PA    C115 9251   5.356   2.973   3.832
    1PA    H15R 9252   5.380   2.866   3.825
    1PA    H15S 9253   5.341   2.983   3.940
    1PA    C114 9254   5.226   2.995   3.752
    1PA    H14R 9255   5.246   2.992   3.645
    1PA    H14S 9256   5.159   2.910   3.768
    1PA    C113 9257   5.166   3.133   3.782
    1PA    H13R 9258   5.135   3.132   3.886
    1PA    H13S 9259   5.238   3.210   3.752
    1PA    C112 9260   5.037   3.159   3.704
    1PA    H12R 9261   5.011   3.265   3.704
    1PA    H12S 9262   5.055   3.133   3.600
    1PA    C111 9263   4.912   3.084   3.754
    1PA    H11R 9264   4.936   2.979   3.736
    1PA    H11S 9265   4.903   3.101   3.861
    1PA    C110 9266   4.785   3.134   3.683
    1PA    H10R 9267   4.703   3.082   3.733
    1PA    H10S 9268   4.767   3.240   3.703
    1PA     C19 9269   4.795   3.117   3.531
    1PA     H9R 9270   4.865   3.196   3.502
    1PA     H9S 9271   4.846   3.024   3.505
    1PA     C18 9272   4.660   3.123   3.459
    1PA     H8R 9273   4.590   3.048   3.496
    1PA     H8S 9274   4.612   3.219   3.479
    1PA     C17 9275   4.683   3.112   3.307
    1PA     H7R 9276   4.760   3.187   3.286
    1PA     H7S 9277   4.719   3.011   3.286
    1PA     C16 9278   4.551   3.141   3.236
    1PA     H6R 9279   4.476   3.073   3.279
    1PA     H6S 9280   4.513   3.242   3.249
    1PA     C15 9281   4.567   3.104   3.088
    1PA     H5R 9282   4.656   3.154   3.049
    1PA     H5S 9283   4.587   2.996   3.091
    1PA     C14 9284   4.443   3.133   3.002
    1PA     H4R 9285   4.358   3.085   3.052
    1PA     H4S 9286   4.417   3.239   3.002
    1PA     C13 9287   4.461   3.083   2.858
    1PA     H3R 9288   4.539   3.145   2.813
    1PA     H3S 9289   4.507   2.984   2.860
    1PA     C12 9290   4.332   3.092   2.775
    1PA     H2R 9291   4.259   3.017   2.807
    1PA     H2S 9292   4.282   3.185   2.803
    2PC     C11 9293   4.356   3.088   2.627
    2PC     O12 9294   4.302   3.167   2.552
    2PC     O11 9295   4.446   2.998   2.584
    2PC      C1 9296   4.499   3.015   2.451
    2PC      HR 9297   4.562   2.928   2.432
    2PC      HS 9298   4.417   3.010   2.378
    2PC      C2 9299   4.589   3.139   2.449
    2PC      HX 9300   4.527   3.229   2.450
    2PC      C3 9301   4.675   3.150   2.322
    2PC      HA 9302   4.619   3.192   2.239
    2PC      HB 9303   4.768   3.204   2.341
    2PC     O31 9304   4.715   3.017   2.283
    2PC     P31 9305   4.746   3.004   2.126
    2PC     O32 9306   4.770   2.846   2.141
    2PC     C31 9307   4.659   2.759   2.167
    2PC     H1A 9308   4.629   2.774   2.270
    2PC     H1B 9309   4.573   2.786   2.104
    2PC     C32 9310   4.685   2.613   2.127
    2PC     H2A 9311   4.784   2.580   2.157
    2PC     H2B 9312   4.621   2.551   2.191
    2PC     N31 9313   4.660   2.578   1.983
    2PC     C33 9314   4.519   2.572   1.932
    2PC     H3A 9315   4.468   2.498   1.994
    2PC     H3B 9316   4.477   2.673   1.935
    2PC     H3C 9317   4.516   2.542   1.827
    2PC     C34 9318   4.733   2.673   1.893
    2PC     H4A 9319   4.839   2.675   1.918
    2PC     H4B 9320   4.725   2.629   1.794
    2PC     H4C 9321   4.696   2.776   1.898
    2PC     C35 9322   4.718   2.441   1.970
    2PC     H5A 9323   4.710   2.401   1.869
    2PC     H5B 9324   4.674   2.368   2.039
    2PC     H5C 9325   4.824   2.449   1.995
    2PC     O33 9326   4.635   3.019   2.029
    2PC     O34 9327   4.857   3.087   2.075
    2PC     O21 9328   4.672   3.144   2.566
    2PC     C21 9329   4.718   3.259   2.618
    2PC     O22 9330   4.675   3.369   2.588
    3OL     C12 9331   4.832   3.233   2.713
    3OL     H2R 9332   4.927   3.214   2.664
    3OL     H2S 9333   4.804   3.149   2.777
    3OL     C13 9334   4.838   3.351   2.811
    3OL     H3R 9335   4.736   3.346   2.851
    3OL     H3S 9336   4.844   3.450   2.766
    3OL     C14 9337   4.945   3.318   2.916
    3OL     H4R 9338   5.048   3.335   2.885
    3OL     H4S 9339   4.929   3.215   2.947
    3OL     C15 9340   4.928   3.417   3.032
    3OL     H5R 9341   4.823   3.425   3.060
    3OL     H5S 9342   4.961   3.516   2.998
    3OL     C16 9343   5.027   3.385   3.145
    3OL     H6R 9344   5.133   3.379   3.117
    3OL     H6S 9345   5.007   3.284   3.182
    3OL     C17 9346   4.997   3.473   3.266
    3OL     H7R 9347   4.915   3.434   3.326
    3OL     H7S 9348   4.965   3.573   3.235
    3OL     C18 9349   5.121   3.493   3.356
    3OL     H8R 9350   5.093   3.572   3.426
    3OL     H8S 9351   5.199   3.537   3.294
    3OL     C19 9352   5.152   3.362   3.424
    3OL     H9R 9353   5.069   3.323   3.483
    3OL    C110 9354   5.262   3.289   3.416
    3OL    H10R 9355   5.272   3.193   3.467
    3OL    C111 9356   5.390   3.324   3.345
    3OL    H11R 9357   5.373   3.380   3.253
    3OL    H11S 9358   5.443   3.232   3.322
    3OL    C112 9359   5.483   3.417   3.426
    3OL    H12R 9360   5.434   3.513   3.444
    3OL    H12S 9361   5.572   3.435   3.367
    3OL    C113 9362   5.523   3.357   3.561
    3OL    H13R 9363   5.553   3.253   3.543
    3OL    H13S 9364   5.435   3.349   3.625
    3OL    C114 9365   5.641   3.433   3.623
    3OL    H14R 9366   5.606   3.528   3.664
    3OL    H14S 9367   5.719   3.456   3.550
    3OL    C115 9368   5.692   3.361   3.749
    3OL    H15R 9369   5.621   3.281   3.771
    3OL    H15S 9370   5.700   3.421   3.840
    3OL    C116 9371   5.827   3.293   3.724
    3OL    H16R 9372   5.877   3.273   3.819
    3OL    H16S 9373   5.904   3.355   3.676
    3OL    C117 9374   5.818   3.158   3.652
    3OL    H17R 9375   5.796   3.159   3.545
    3OL    H17S 9376   5.737   3.102   3.700
    3OL    C118 9377   5.951   3.081   3.659
    3OL    H18R 9378   6.032   3.136   3.611
    3OL    H18S 9379   5.959   2.984   3.609
    3OL    H18T 9380   5.970   3.060   3.764
    1PA    C116 9381   1.151   4.576   3.684
    1PA    H16R 9382   1.241   4.556   3.742
    1PA    H16S 9383   1.096   4.488   3.717
    1PA    H16T 9384   1.099   4.665   3.720
    1PA    C115 9385   1.170   4.566   3.532
    1PA    H15R 9386   1.205   4.660   3.487
    1PA    H15S 9387   1.245   4.490   3.511
    1PA    C114 9388   1.038   4.531   3.462
    1PA    H14R 9389   1.009   4.427   3.481
    1PA    H14S 9390   0.961   4.590   3.512
    1PA    C113 9391   1.030   4.564   3.312
    1PA    H13R 9392   1.050   4.669   3.289
    1PA    H13S 9393   1.082   4.485   3.256
    1PA    C112 9394   0.883   4.545   3.272
    1PA    H12R 9395   0.861   4.454   3.328
    1PA    H12S 9396   0.823   4.627   3.312
    1PA    C111 9397   0.867   4.534   3.120
    1PA    H11R 9398   0.898   4.631   3.082
    1PA    H11S 9399   0.941   4.460   3.087
    1PA    C110 9400   0.728   4.496   3.069
    1PA    H10R 9401   0.707   4.392   3.096
    1PA    H10S 9402   0.666   4.560   3.133
    1PA     C19 9403   0.704   4.520   2.919
    1PA     H9R 9404   0.733   4.625   2.906
    1PA     H9S 9405   0.763   4.450   2.860
    1PA     C18 9406   0.559   4.499   2.875
    1PA     H8R 9407   0.551   4.390   2.871
    1PA     H8S 9408   0.490   4.543   2.947
    1PA     C17 9409   0.521   4.553   2.736
    1PA     H7R 9410   0.608   4.550   2.669
    1PA     H7S 9411   0.439   4.496   2.693
    1PA     C16 9412   0.459   4.693   2.749
    1PA     H6R 9413   0.366   4.690   2.806
    1PA     H6S 9414   0.526   4.762   2.801
    1PA     C15 9415   0.421   4.754   2.614
    1PA     H5R 9416   0.500   4.732   2.541
    1PA     H5S 9417   0.328   4.708   2.580
    1PA     C14 9418   0.398   4.905   2.601
    1PA     H4R 9419   0.310   4.935   2.659
    1PA     H4S 9420   0.481   4.967   2.636
    1PA     C13 9421   0.368   4.932   2.453
    1PA     H3R 9422   0.461   4.923   2.396
    1PA     H3S 9423   0.302   4.850   2.423
    1PA     C12 9424   0.299   5.068   2.440
    1PA     H2R 9425   0.212   5.071   2.506
    1PA     H2S 9426   0.365   5.148   2.474
    2PC     C11 9427   0.241   5.107   2.306
    2PC     O12 9428   0.276   5.050   2.204
    2PC     O11 9429   0.149   5.204   2.309
    2PC      C1 9430   0.095   5.249   2.183
    2PC      HR 9431   0.032   5.334   2.207
    2PC      HS 9432   0.173   5.278   2.112
    2PC      C2 9433   0.007   5.142   2.117
    2PC      HX 9434   0.081   5.064   2.098
    2PC      C3 9435  -0.044   5.180   1.977
    2PC      HA 9436   0.022   5.124   1.912
    2PC      HB 9437  -0.150   5.156   1.962
    2PC     O31 9438  -0.038   5.323   1.956
    2PC     P31 9439  -0.046   5.382   1.808
    2PC     O32 9440  -0.035   5.541   1.816
    2PC     C31 9441   0.093   5.592   1.858
    2PC     H1A 9442   0.126   5.544   1.950
    2PC     H1B 9443   0.161   5.580   1.773
    2PC     C32 9444   0.075   5.741   1.890
    2PC     H2A 9445   0.012   5.781   1.811
    2PC     H2B 9446   0.016   5.751   1.981
    2PC     N31 9447   0.195   5.831   1.892
    2PC     C33 9448   0.289   5.794   2.003
    2PC     H3A 9449   0.352   5.874   2.043
    2PC     H3B 9450   0.234   5.760   2.091
    2PC     H3C 9451   0.351   5.713   1.965
    2PC     C34 9452   0.265   5.846   1.760
    2PC     H4A 9453   0.343   5.771   1.743
    2PC     H4B 9454   0.191   5.825   1.683
    2PC     H4C 9455   0.299   5.948   1.747
    2PC     C35 9456   0.129   5.961   1.927
    2PC     H5A 9457   0.205   6.039   1.921
    2PC     H5B 9458   0.095   5.962   2.031
    2PC     H5C 9459   0.051   5.994   1.859
    2PC     O33 9460   0.065   5.332   1.723
    2PC     O34 9461  -0.173   5.335   1.747
    2PC     O21 9462  -0.105   5.103   2.199
    2PC     C21 9463  -0.203   5.186   2.238
    2PC     O22 9464  -0.234   5.289   2.181
    3OL     C12 9465  -0.285   5.146   2.358
    3OL     H2R 9466  -0.270   5.043   2.389
    3OL     H2S 9467  -0.390   5.147   2.330
    3OL     C13 9468  -0.250   5.228   2.484
    3OL     H3R 9469  -0.335   5.205   2.549
    3OL     H3S 9470  -0.262   5.335   2.468
    3OL     C14 9471  -0.112   5.180   2.528
    3OL     H4R 9472  -0.051   5.205   2.441
    3OL     H4S 9473  -0.112   5.071   2.539
    3OL     C15 9474  -0.070   5.255   2.655
    3OL     H5R 9475  -0.111   5.199   2.739
    3OL     H5S 9476  -0.120   5.353   2.654
    3OL     C16 9477   0.079   5.290   2.661
    3OL     H6R 9478   0.116   5.335   2.568
    3OL     H6S 9479   0.136   5.199   2.681
    3OL     C17 9480   0.106   5.369   2.790
    3OL     H7R 9481   0.063   5.317   2.875
    3OL     H7S 9482   0.051   5.463   2.780
    3OL     C18 9483   0.257   5.388   2.808
    3OL     H8R 9484   0.298   5.287   2.806
    3OL     H8S 9485   0.279   5.442   2.900
    3OL     C19 9486   0.309   5.480   2.700
    3OL     H9R 9487   0.258   5.576   2.699
    3OL    C110 9488   0.416   5.448   2.629
    3OL    H10R 9489   0.451   5.520   2.556
    3OL    C111 9490   0.510   5.332   2.644
    3OL    H11R 9491   0.453   5.243   2.673
    3OL    H11S 9492   0.587   5.355   2.718
    3OL    C112 9493   0.592   5.310   2.515
    3OL    H12R 9494   0.658   5.394   2.498
    3OL    H12S 9495   0.535   5.296   2.423
    3OL    C113 9496   0.687   5.189   2.517
    3OL    H13R 9497   0.748   5.190   2.427
    3OL    H13S 9498   0.628   5.098   2.530
    3OL    C114 9499   0.798   5.196   2.622
    3OL    H14R 9500   0.821   5.303   2.630
    3OL    H14S 9501   0.892   5.161   2.578
    3OL    C115 9502   0.757   5.118   2.747
    3OL    H15R 9503   0.734   5.017   2.713
    3OL    H15S 9504   0.665   5.165   2.784
    3OL    C116 9505   0.860   5.115   2.861
    3OL    H16R 9506   0.880   5.215   2.898
    3OL    H16S 9507   0.947   5.057   2.828
    3OL    C117 9508   0.808   5.034   2.981
    3OL    H17R 9509   0.746   4.950   2.950
    3OL    H17S 9510   0.731   5.091   3.033
    3OL    C118 9511   0.930   4.987   3.062
    3OL    H18R 9512   0.995   4.942   2.986
    3OL    H18S 9513   0.895   4.904   3.124
    3OL    H18T 9514   0.970   5.075   3.113
    1PA    C116 9515   0.259   5.146   3.062
    1PA    H16R 9516   0.218   5.097   3.150
    1PA    H16S 9517   0.185   5.134   2.983
    1PA    H16T 9518   0.267   5.252   3.088
    1PA    C115 9519   0.394   5.083   3.024
    1PA    H15R 9520   0.413   5.129   2.927
    1PA    H15S 9521   0.470   5.110   3.097
    1PA    C114 9522   0.393   4.930   3.010
    1PA    H14R 9523   0.317   4.906   2.935
    1PA    H14S 9524   0.491   4.898   2.975
    1PA    C113 9525   0.349   4.867   3.143
    1PA    H13R 9526   0.419   4.885   3.225
    1PA    H13S 9527   0.249   4.901   3.169
    1PA    C112 9528   0.350   4.714   3.128
    1PA    H12R 9529   0.278   4.687   3.050
    1PA    H12S 9530   0.449   4.674   3.105
    1PA    C111 9531   0.324   4.636   3.258
    1PA    H11R 9532   0.383   4.683   3.337
    1PA    H11S 9533   0.220   4.657   3.283
    1PA    C110 9534   0.359   4.488   3.237
    1PA    H10R 9535   0.453   4.475   3.182
    1PA    H10S 9536   0.383   4.447   3.335
    1PA     C19 9537   0.251   4.406   3.165
    1PA     H9R 9538   0.151   4.419   3.206
    1PA     H9S 9539   0.255   4.442   3.062
    1PA     C18 9540   0.282   4.256   3.164
    1PA     H8R 9541   0.369   4.225   3.106
    1PA     H8S 9542   0.309   4.222   3.265
    1PA     C17 9543   0.164   4.174   3.108
    1PA     H7R 9544   0.092   4.167   3.190
    1PA     H7S 9545   0.109   4.224   3.028
    1PA     C16 9546   0.197   4.027   3.079
    1PA     H6R 9547   0.272   3.983   3.146
    1PA     H6S 9548   0.105   3.973   3.100
    1PA     C15 9549   0.219   4.000   2.930
    1PA     H5R 9550   0.233   3.892   2.917
    1PA     H5S 9551   0.137   4.038   2.868
    1PA     C14 9552   0.348   4.067   2.880
    1PA     H4R 9553   0.348   4.175   2.896
    1PA     H4S 9554   0.435   4.032   2.935
    1PA     C13 9555   0.357   4.057   2.727
    1PA     H3R 9556   0.464   4.057   2.702
    1PA     H3S 9557   0.310   3.966   2.691
    1PA     C12 9558   0.304   4.186   2.663
    1PA     H2R 9559   0.195   4.191   2.667
    1PA     H2S 9560   0.350   4.264   2.725
    2PC     C11 9561   0.351   4.201   2.521
    2PC     O12 9562   0.294   4.130   2.440
    2PC     O11 9563   0.441   4.296   2.489
    2PC      C1 9564   0.475   4.313   2.351
    2PC      HR 9565   0.556   4.245   2.326
    2PC      HS 9566   0.391   4.282   2.288
    2PC      C2 9567   0.504   4.455   2.299
    2PC      HX 9568   0.438   4.522   2.354
    2PC      C3 9569   0.491   4.473   2.148
    2PC      HA 9570   0.389   4.465   2.109
    2PC      HB 9571   0.537   4.567   2.115
    2PC     O31 9572   0.571   4.373   2.082
    2PC     P31 9573   0.564   4.360   1.922
    2PC     O32 9574   0.709   4.422   1.893
    2PC     C31 9575   0.739   4.443   1.754
    2PC     H1A 9576   0.708   4.355   1.697
    2PC     H1B 9577   0.676   4.530   1.730
    2PC     C32 9578   0.888   4.478   1.741
    2PC     H2A 9579   0.937   4.380   1.743
    2PC     H2B 9580   0.889   4.539   1.651
    2PC     N31 9581   0.956   4.568   1.840
    2PC     C33 9582   1.083   4.621   1.781
    2PC     H3A 9583   1.144   4.537   1.748
    2PC     H3B 9584   1.059   4.683   1.694
    2PC     H3C 9585   1.139   4.684   1.851
    2PC     C34 9586   0.873   4.691   1.860
    2PC     H4A 9587   0.777   4.666   1.905
    2PC     H4B 9588   0.930   4.756   1.927
    2PC     H4C 9589   0.863   4.740   1.763
    2PC     C35 9590   0.980   4.494   1.969
    2PC     H5A 9591   0.888   4.509   2.025
    2PC     H5B 9592   1.061   4.547   2.019
    2PC     H5C 9593   0.996   4.391   1.939
    2PC     O33 9594   0.556   4.222   1.871
    2PC     O34 9595   0.454   4.443   1.868
    2PC     O21 9596   0.636   4.497   2.339
    2PC     C21 9597   0.689   4.621   2.333
    2PC     O22 9598   0.617   4.715   2.311
    3OL     C12 9599   0.840   4.621   2.344
    3OL     H2R 9600   0.879   4.652   2.247
    3OL     H2S 9601   0.875   4.525   2.381
    3OL     C13 9602   0.883   4.731   2.442
    3OL     H3R 9603   0.847   4.698   2.539
    3OL     H3S 9604   0.837   4.824   2.408
    3OL     C14 9605   1.034   4.759   2.451
    3OL     H4R 9606   1.065   4.849   2.504
    3OL     H4S 9607   1.078   4.759   2.352
    3OL     C15 9608   1.108   4.645   2.522
    3OL     H5R 9609   1.214   4.646   2.496
    3OL     H5S 9610   1.072   4.547   2.489
    3OL     C16 9611   1.104   4.673   2.673
    3OL     H6R 9612   1.004   4.693   2.713
    3OL     H6S 9613   1.166   4.760   2.697
    3OL     C17 9614   1.168   4.559   2.753
    3OL     H7R 9615   1.269   4.537   2.719
    3OL     H7S 9616   1.109   4.468   2.740
    3OL     C18 9617   1.180   4.610   2.897
    3OL     H8R 9618   1.086   4.640   2.943
    3OL     H8S 9619   1.235   4.705   2.896
    3OL     C19 9620   1.245   4.504   2.982
    3OL     H9R 9621   1.203   4.409   2.950
    3OL    C110 9622   1.344   4.514   3.070
    3OL    H10R 9623   1.373   4.419   3.114
    3OL    C111 9624   1.414   4.638   3.118
    3OL    H11R 9625   1.418   4.718   3.044
    3OL    H11S 9626   1.518   4.610   3.138
    3OL    C112 9627   1.350   4.693   3.247
    3OL    H12R 9628   1.349   4.615   3.323
    3OL    H12S 9629   1.247   4.724   3.231
    3OL    C113 9630   1.432   4.816   3.288
    3OL    H13R 9631   1.431   4.886   3.204
    3OL    H13S 9632   1.535   4.781   3.299
    3OL    C114 9633   1.386   4.883   3.418
    3OL    H14R 9634   1.390   4.816   3.505
    3OL    H14S 9635   1.285   4.921   3.404
    3OL    C115 9636   1.470   5.005   3.456
    3OL    H15R 9637   1.473   5.079   3.376
    3OL    H15S 9638   1.568   4.958   3.470
    3OL    C116 9639   1.441   5.062   3.595
    3OL    H16R 9640   1.422   4.990   3.675
    3OL    H16S 9641   1.345   5.114   3.589
    3OL    C117 9642   1.537   5.168   3.650
    3OL    H17R 9643   1.640   5.134   3.640
    3OL    H17S 9644   1.535   5.189   3.758
    3OL    C118 9645   1.529   5.300   3.572
    3OL    H18R 9646   1.598   5.378   3.606
    3OL    H18S 9647   1.424   5.330   3.571
    3OL    H18T 9648   1.555   5.268   3.471
    1PA    C116 9649   5.724   6.430   4.090
    1PA    H16R 9650   5.720   6.503   4.010
    1PA    H16S 9651   5.826   6.390   4.094
    1PA    H16T 9652   5.699   6.478   4.185
    1PA    C115 9653   5.614   6.329   4.055
    1PA    H15R 9654   5.639   6.235   4.105
    1PA    H15S 9655   5.516   6.365   4.085
    1PA    C114 9656   5.621   6.302   3.904
    1PA    H14R 9657   5.591   6.388   3.843
    1PA    H14S 9658   5.719   6.265   3.876
    1PA    C113 9659   5.527   6.186   3.868
    1PA    H13R 9660   5.566   6.102   3.925
    1PA    H13S 9661   5.430   6.216   3.909
    1PA    C112 9662   5.523   6.145   3.720
    1PA    H12R 9663   5.492   6.233   3.664
    1PA    H12S 9664   5.623   6.122   3.684
    1PA    C111 9665   5.422   6.034   3.690
    1PA    H11R 9666   5.452   5.950   3.754
    1PA    H11S 9667   5.328   6.075   3.727
    1PA    C110 9668   5.401   5.993   3.543
    1PA    H10R 9669   5.305   5.942   3.535
    1PA    H10S 9670   5.395   6.089   3.490
    1PA     C19 9671   5.522   5.916   3.489
    1PA     H9R 9672   5.598   5.993   3.474
    1PA     H9S 9673   5.560   5.829   3.543
    1PA     C18 9674   5.498   5.837   3.360
    1PA     H8R 9675   5.587   5.795   3.314
    1PA     H8S 9676   5.428   5.757   3.386
    1PA     C17 9677   5.443   5.925   3.247
    1PA     H7R 9678   5.347   5.971   3.273
    1PA     H7S 9679   5.521   5.994   3.214
    1PA     C16 9680   5.415   5.831   3.128
    1PA     H6R 9681   5.514   5.790   3.106
    1PA     H6S 9682   5.343   5.753   3.154
    1PA     C15 9683   5.365   5.912   3.009
    1PA     H5R 9684   5.262   5.949   3.018
    1PA     H5S 9685   5.429   5.999   2.993
    1PA     C14 9686   5.366   5.828   2.880
    1PA     H4R 9687   5.467   5.794   2.859
    1PA     H4S 9688   5.316   5.733   2.900
    1PA     C13 9689   5.298   5.895   2.760
    1PA     H3R 9690   5.189   5.894   2.769
    1PA     H3S 9691   5.341   5.995   2.755
    1PA     C12 9692   5.340   5.831   2.627
    1PA     H2R 9693   5.447   5.807   2.635
    1PA     H2S 9694   5.287   5.738   2.608
    2PC     C11 9695   5.325   5.926   2.511
    2PC     O12 9696   5.413   5.960   2.435
    2PC     O11 9697   5.207   5.989   2.525
    2PC      C1 9698   5.128   6.031   2.412
    2PC      HR 9699   5.032   6.057   2.458
    2PC      HS 9700   5.173   6.118   2.364
    2PC      C2 9701   5.118   5.917   2.310
    2PC      HX 9702   5.198   5.917   2.235
    2PC      C3 9703   4.994   5.949   2.226
    2PC      HA 9704   4.895   5.929   2.269
    2PC      HB 9705   4.995   6.057   2.208
    2PC     O31 9706   5.006   5.879   2.102
    2PC     P31 9707   4.902   5.887   1.980
    2PC     O32 9708   5.011   5.932   1.872
    2PC     C31 9709   5.099   5.832   1.818
    2PC     H1A 9710   5.167   5.811   1.902
    2PC     H1B 9711   5.039   5.743   1.795
    2PC     C32 9712   5.174   5.889   1.697
    2PC     H2A 9713   5.247   5.820   1.655
    2PC     H2B 9714   5.095   5.907   1.625
    2PC     N31 9715   5.247   6.020   1.702
    2PC     C33 9716   5.152   6.136   1.685
    2PC     H3A 9717   5.096   6.126   1.592
    2PC     H3B 9718   5.079   6.137   1.765
    2PC     H3C 9719   5.224   6.218   1.688
    2PC     C34 9720   5.326   6.038   1.828
    2PC     H4A 9721   5.362   6.140   1.817
    2PC     H4B 9722   5.257   6.022   1.911
    2PC     H4C 9723   5.405   5.964   1.835
    2PC     C35 9724   5.347   6.024   1.591
    2PC     H5A 9725   5.383   6.126   1.575
    2PC     H5B 9726   5.289   6.004   1.501
    2PC     H5C 9727   5.434   5.961   1.608
    2PC     O33 9728   4.827   5.764   1.948
    2PC     O34 9729   4.798   5.988   2.012
    2PC     O21 9730   5.109   5.787   2.371
    2PC     C21 9731   4.999   5.734   2.428
    2PC     O22 9732   4.902   5.802   2.457
    3OL     C12 9733   5.010   5.585   2.442
    3OL     H2R 9734   5.115   5.559   2.462
    3OL     H2S 9735   4.987   5.548   2.342
    3OL     C13 9736   4.906   5.540   2.546
    3OL     H3R 9737   4.891   5.433   2.537
    3OL     H3S 9738   4.809   5.588   2.531
    3OL     C14 9739   4.953   5.557   2.691
    3OL     H4R 9740   5.061   5.541   2.682
    3OL     H4S 9741   4.911   5.476   2.751
    3OL     C15 9742   4.904   5.687   2.755
    3OL     H5R 9743   4.796   5.702   2.749
    3OL     H5S 9744   4.956   5.772   2.710
    3OL     C16 9745   4.938   5.695   2.905
    3OL     H6R 9746   5.041   5.674   2.932
    3OL     H6S 9747   4.874   5.616   2.946
    3OL     C17 9748   4.901   5.828   2.971
    3OL     H7R 9749   4.793   5.832   2.957
    3OL     H7S 9750   4.946   5.911   2.916
    3OL     C18 9751   4.932   5.821   3.121
    3OL     H8R 9752   4.916   5.917   3.169
    3OL     H8S 9753   5.032   5.787   3.147
    3OL     C19 9754   4.824   5.735   3.184
    3OL     H9R 9755   4.796   5.652   3.120
    3OL    C110 9756   4.768   5.744   3.303
    3OL    H10R 9757   4.695   5.668   3.331
    3OL    C111 9758   4.794   5.856   3.400
    3OL    H11R 9759   4.706   5.915   3.423
    3OL    H11S 9760   4.870   5.924   3.359
    3OL    C112 9761   4.850   5.786   3.524
    3OL    H12R 9762   4.949   5.743   3.508
    3OL    H12S 9763   4.789   5.702   3.557
    3OL    C113 9764   4.862   5.884   3.642
    3OL    H13R 9765   4.771   5.937   3.670
    3OL    H13S 9766   4.935   5.963   3.624
    3OL    C114 9767   4.896   5.810   3.773
    3OL    H14R 9768   4.980   5.744   3.753
    3OL    H14S 9769   4.817   5.741   3.803
    3OL    C115 9770   4.915   5.908   3.890
    3OL    H15R 9771   4.817   5.953   3.904
    3OL    H15S 9772   4.982   5.988   3.858
    3OL    C116 9773   4.977   5.842   4.014
    3OL    H16R 9774   5.086   5.846   4.020
    3OL    H16S 9775   4.963   5.734   4.011
    3OL    C117 9776   4.906   5.896   4.139
    3OL    H17R 9777   4.924   5.816   4.211
    3OL    H17S 9778   4.797   5.901   4.137
    3OL    C118 9779   4.969   6.030   4.178
    3OL    H18R 9780   4.995   6.020   4.283
    3OL    H18S 9781   4.898   6.111   4.159
    3OL    H18T 9782   5.064   6.051   4.127
    1PA    C116 9783   4.476  -0.176   4.103
    1PA    H16R 9784   4.494  -0.148   4.207
    1PA    H16S 9785   4.369  -0.163   4.088
    1PA    H16T 9786   4.529  -0.095   4.052
    1PA    C115 9787   4.514  -0.322   4.074
    1PA    H15R 9788   4.620  -0.344   4.089
    1PA    H15S 9789   4.455  -0.384   4.142
    1PA    C114 9790   4.467  -0.362   3.934
    1PA    H14R 9791   4.466  -0.471   3.928
    1PA    H14S 9792   4.362  -0.332   3.931
    1PA    C113 9793   4.539  -0.284   3.823
    1PA    H13R 9794   4.510  -0.179   3.830
    1PA    H13S 9795   4.647  -0.293   3.834
    1PA    C112 9796   4.499  -0.331   3.682
    1PA    H12R 9797   4.516  -0.436   3.662
    1PA    H12S 9798   4.391  -0.314   3.673
    1PA    C111 9799   4.558  -0.244   3.570
    1PA    H11R 9800   4.565  -0.138   3.594
    1PA    H11S 9801   4.666  -0.260   3.560
    1PA    C110 9802   4.483  -0.280   3.441
    1PA    H10R 9803   4.484  -0.386   3.417
    1PA    H10S 9804   4.381  -0.249   3.462
    1PA     C19 9805   4.533  -0.207   3.315
    1PA     H9R 9806   4.454  -0.199   3.240
    1PA     H9S 9807   4.560  -0.102   3.327
    1PA     C18 9808   4.656  -0.275   3.254
    1PA     H8R 9809   4.734  -0.278   3.329
    1PA     H8S 9810   4.635  -0.376   3.218
    1PA     C17 9811   4.701  -0.187   3.137
    1PA     H7R 9812   4.608  -0.181   3.081
    1PA     H7S 9813   4.715  -0.083   3.166
    1PA     C16 9814   4.820  -0.245   3.059
    1PA     H6R 9815   4.876  -0.313   3.124
    1PA     H6S 9816   4.778  -0.298   2.973
    1PA     C15 9817   4.909  -0.129   3.013
    1PA     H5R 9818   4.852  -0.064   2.947
    1PA     H5S 9819   4.947  -0.088   3.107
    1PA     C14 9820   5.032  -0.194   2.947
    1PA     H4R 9821   5.068  -0.279   3.005
    1PA     H4S 9822   5.013  -0.230   2.846
    1PA     C13 9823   5.146  -0.093   2.926
    1PA     H3R 9824   5.176  -0.054   3.023
    1PA     H3S 9825   5.222  -0.155   2.878
    1PA     C12 9826   5.113   0.022   2.830
    1PA     H2R 9827   5.047   0.098   2.871
    1PA     H2S 9828   5.209   0.074   2.828
    2PC     C11 9829   5.058  -0.020   2.696
    2PC     O12 9830   5.123  -0.043   2.596
    2PC     O11 9831   4.925  -0.036   2.707
    2PC      C1 9832   4.843  -0.073   2.595
    2PC      HR 9833   4.822   0.011   2.527
    2PC      HS 9834   4.890  -0.152   2.537
    2PC      C2 9835   4.705  -0.118   2.644
    2PC      HX 9836   4.730  -0.210   2.698
    2PC      C3 9837   4.603  -0.152   2.534
    2PC      HA 9838   4.627  -0.235   2.467
    2PC      HB 9839   4.511  -0.178   2.588
    2PC     O31 9840   4.577  -0.040   2.448
    2PC     P31 9841   4.556  -0.053   2.289
    2PC     O32 9842   4.531   0.101   2.252
    2PC     C31 9843   4.641   0.194   2.262
    2PC     H1A 9844   4.606   0.296   2.274
    2PC     H1B 9845   4.715   0.165   2.337
    2PC     C32 9846   4.715   0.190   2.127
    2PC     H2A 9847   4.811   0.240   2.143
    2PC     H2B 9848   4.748   0.089   2.102
    2PC     N31 9849   4.648   0.240   2.002
    2PC     C33 9850   4.724   0.187   1.884
    2PC     H3A 9851   4.819   0.239   1.871
    2PC     H3B 9852   4.751   0.084   1.904
    2PC     H3C 9853   4.661   0.208   1.797
    2PC     C34 9854   4.509   0.186   1.986
    2PC     H4A 9855   4.464   0.223   1.894
    2PC     H4B 9856   4.504   0.077   1.984
    2PC     H4C 9857   4.445   0.218   2.068
    2PC     C35 9858   4.642   0.389   2.010
    2PC     H5A 9859   4.617   0.435   1.914
    2PC     H5B 9860   4.742   0.415   2.045
    2PC     H5C 9861   4.561   0.413   2.080
    2PC     O33 9862   4.673  -0.109   2.217
    2PC     O34 9863   4.458  -0.151   2.237
    2PC     O21 9864   4.653  -0.024   2.739
    2PC     C21 9865   4.560  -0.068   2.825
    2PC     O22 9866   4.518  -0.182   2.817
    3OL     C12 9867   4.510   0.029   2.928
    3OL     H2R 9868   4.508   0.131   2.888
    3OL     H2S 9869   4.592   0.041   3.000
    3OL     C13 9870   4.375  -0.010   2.991
    3OL     H3R 9871   4.379  -0.116   3.016
    3OL     H3S 9872   4.307  -0.007   2.906
    3OL     C14 9873   4.327   0.088   3.099
    3OL     H4R 9874   4.329   0.186   3.050
    3OL     H4S 9875   4.393   0.084   3.187
    3OL     C15 9876   4.179   0.067   3.131
    3OL     H5R 9877   4.166  -0.038   3.159
    3OL     H5S 9878   4.128   0.074   3.035
    3OL     C16 9879   4.122   0.157   3.242
    3OL     H6R 9880   4.153   0.260   3.226
    3OL     H6S 9881   4.164   0.128   3.338
    3OL     C17 9882   3.968   0.156   3.239
    3OL     H7R 9883   3.927   0.057   3.262
    3OL     H7S 9884   3.948   0.173   3.134
    3OL     C18 9885   3.911   0.265   3.331
    3OL     H8R 9886   3.956   0.358   3.295
    3OL     H8S 9887   3.943   0.233   3.431
    3OL     C19 9888   3.761   0.264   3.322
    3OL     H9R 9889   3.726   0.163   3.302
    3OL    C110 9890   3.686   0.373   3.317
    3OL    H10R 9891   3.580   0.353   3.304
    3OL    C111 9892   3.715   0.520   3.330
    3OL    H11R 9893   3.658   0.586   3.264
    3OL    H11S 9894   3.822   0.539   3.318
    3OL    C112 9895   3.686   0.564   3.474
    3OL    H12R 9896   3.727   0.487   3.539
    3OL    H12S 9897   3.578   0.572   3.483
    3OL    C113 9898   3.749   0.700   3.510
    3OL    H13R 9899   3.698   0.776   3.450
    3OL    H13S 9900   3.851   0.710   3.473
    3OL    C114 9901   3.752   0.741   3.658
    3OL    H14R 9902   3.835   0.679   3.694
    3OL    H14S 9903   3.663   0.698   3.704
    3OL    C115 9904   3.764   0.888   3.699
    3OL    H15R 9905   3.827   0.955   3.639
    3OL    H15S 9906   3.806   0.892   3.799
    3OL    C116 9907   3.629   0.961   3.708
    3OL    H16R 9908   3.562   0.896   3.764
    3OL    H16S 9909   3.587   0.969   3.607
    3OL    C117 9910   3.655   1.096   3.775
    3OL    H17R 9911   3.712   1.152   3.701
    3OL    H17S 9912   3.708   1.083   3.870
    3OL    C118 9913   3.516   1.160   3.784
    3OL    H18R 9914   3.525   1.250   3.846
    3OL    H18S 9915   3.442   1.095   3.832
    3OL    H18T 9916   3.479   1.192   3.686
    1PA    C116 9917   5.550   0.668   3.387
    1PA    H16R 9918   5.472   0.744   3.396
    1PA    H16S 9919   5.549   0.609   3.479
    1PA    H16T 9920   5.535   0.601   3.302
    1PA    C115 9921   5.690   0.727   3.371
    1PA    H15R 9922   5.687   0.782   3.277
    1PA    H15S 9923   5.703   0.793   3.458
    1PA    C114 9924   5.797   0.617   3.376
    1PA    H14R 9925   5.893   0.661   3.403
    1PA    H14S 9926   5.784   0.540   3.452
    1PA    C113 9927   5.796   0.548   3.238
    1PA    H13R 9928   5.694   0.516   3.219
    1PA    H13S 9929   5.813   0.625   3.163
    1PA    C112 9930   5.900   0.436   3.228
    1PA    H12R 9931   5.935   0.432   3.124
    1PA    H12S 9932   5.989   0.476   3.277
    1PA    C111 9933   5.845   0.302   3.278
    1PA    H11R 9934   5.829   0.306   3.386
    1PA    H11S 9935   5.748   0.281   3.233
    1PA    C110 9936   5.945   0.189   3.250
    1PA    H10R 9937   6.034   0.222   3.196
    1PA    H10S 9938   5.987   0.148   3.342
    1PA     C19 9939   5.878   0.068   3.183
    1PA     H9R 9940   5.802   0.019   3.244
    1PA     H9S 9941   5.824   0.104   3.095
    1PA     C18 9942   5.986  -0.037   3.153
    1PA     H8R 9943   6.059  -0.043   3.234
    1PA     H8S 9944   5.940  -0.136   3.140
    1PA     C17 9945   6.054  -0.006   3.019
    1PA     H7R 9946   6.057   0.102   3.008
    1PA     H7S 9947   6.156  -0.042   3.031
    1PA     C16 9948   5.973  -0.065   2.902
    1PA     H6R 9949   5.981  -0.174   2.906
    1PA     H6S 9950   5.865  -0.052   2.903
    1PA     C15 9951   6.037  -0.031   2.766
    1PA     H5R 9952   6.000   0.069   2.743
    1PA     H5S 9953   6.142  -0.009   2.784
    1PA     C14 9954   6.013  -0.129   2.650
    1PA     H4R 9955   6.061  -0.226   2.662
    1PA     H4S 9956   5.906  -0.144   2.638
    1PA     C13 9957   6.068  -0.070   2.519
    1PA     H3R 9958   6.036   0.031   2.491
    1PA     H3S 9959   6.177  -0.073   2.510
    1PA     C12 9960   6.015  -0.154   2.402
    1PA     H2R 9961   6.045  -0.258   2.413
    1PA     H2S 9962   5.907  -0.155   2.388
    2PC     C11 9963   6.082  -0.123   2.270
    2PC     O12 9964   6.159  -0.201   2.216
    2PC     O11 9965   6.043  -0.008   2.214
    2PC      C1 9966   6.085   0.023   2.080
    2PC      HR 9967   6.191   0.051   2.082
    2PC      HS 9968   6.072  -0.064   2.015
    2PC      C2 9969   5.987   0.127   2.025
    2PC      HX 9970   5.905   0.076   1.974
    2PC      C3 9971   6.056   0.211   1.916
    2PC      HA 9972   6.151   0.253   1.948
    2PC      HB 9973   6.101   0.143   1.843
    2PC     O31 9974   5.978   0.315   1.854
    2PC     P31 9975   6.045   0.389   1.729
    2PC     O32 9976   6.071   0.262   1.635
    2PC     C31 9977   6.073   0.271   1.491
    2PC     H1A 9978   5.973   0.294   1.452
    2PC     H1B 9979   6.136   0.358   1.469
    2PC     C32 9980   6.125   0.138   1.434
    2PC     H2A 9981   6.212   0.122   1.498
    2PC     H2B 9982   6.050   0.060   1.445
    2PC     N31 9983   6.168   0.143   1.290
    2PC     C33 9984   6.067   0.213   1.204
    2PC     H3A 9985   6.020   0.296   1.258
    2PC     H3B 9986   6.114   0.246   1.111
    2PC     H3C 9987   5.997   0.133   1.181
    2PC     C34 9988   6.303   0.208   1.291
    2PC     H4A 9989   6.377   0.128   1.298
    2PC     H4B 9990   6.326   0.263   1.200
    2PC     H4C 9991   6.300   0.277   1.376
    2PC     C35 9992   6.195   0.005   1.238
    2PC     H5A 9993   6.237  -0.062   1.313
    2PC     H5B 9994   6.261   0.017   1.153
    2PC     H5C 9995   6.098  -0.037   1.211
    2PC     O33 9996   5.942   0.475   1.667
    2PC     O34 9997   6.168   0.462   1.767
    2PC     O21 9998   5.943   0.202   2.139
    2PC     C21 9999   5.838   0.285   2.126
    2PC     O2210000   5.757   0.294   2.036
    3OL     C1210001   5.822   0.357   2.257
    3OL     H2R10002   5.775   0.450   2.225
    3OL     H2S10003   5.910   0.384   2.316
    3OL     C1310004   5.721   0.280   2.344
    3OL     H3R10005   5.631   0.254   2.289
    3OL     H3S10006   5.691   0.353   2.420
    3OL     C1410007   5.774   0.151   2.407
    3OL     H4R10008   5.870   0.167   2.457
    3OL     H4S10009   5.792   0.085   2.322
    3OL     C1510010   5.673   0.087   2.504
    3OL     H5R10011   5.632   0.163   2.571
    3OL     H5S10012   5.733   0.019   2.566
    3OL     C1610013   5.567   0.008   2.427
    3OL     H6R10014   5.605  -0.086   2.386
    3OL     H6S10015   5.533   0.072   2.345
    3OL     C1710016   5.451  -0.024   2.522
    3OL     H7R10017   5.355  -0.036   2.472
    3OL     H7S10018   5.439   0.058   2.594
    3OL     C1810019   5.472  -0.155   2.600
    3OL     H8R10020   5.464  -0.239   2.531
    3OL     H8S10021   5.383  -0.162   2.662
    3OL     C1910022   5.597  -0.168   2.682
    3OL     H9R10023   5.692  -0.186   2.631
    3OL    C11010024   5.612  -0.144   2.811
    3OL    H10R10025   5.710  -0.162   2.855
    3OL    C11110026   5.510  -0.088   2.907
    3OL    H11R10027   5.455  -0.178   2.934
    3OL    H11S10028   5.439  -0.016   2.866
    3OL    C11210029   5.578  -0.031   3.032
    3OL    H12R10030   5.623   0.063   3.002
    3OL    H12S10031   5.665  -0.090   3.062
    3OL    C11310032   5.476  -0.025   3.146
    3OL    H13R10033   5.448  -0.126   3.177
    3OL    H13S10034   5.379   0.015   3.114
    3OL    C11410035   5.519   0.063   3.264
    3OL    H14R10036   5.538   0.165   3.229
    3OL    H14S10037   5.613   0.021   3.300
    3OL    C11510038   5.402   0.083   3.362
    3OL    H15R10039   5.332   0.000   3.370
    3OL    H15S10040   5.342   0.164   3.320
    3OL    C11610041   5.461   0.117   3.500
    3OL    H16R10042   5.535   0.195   3.482
    3OL    H16S10043   5.507   0.025   3.535
    3OL    C11710044   5.356   0.168   3.600
    3OL    H17R10045   5.268   0.103   3.593
    3OL    H17S10046   5.332   0.270   3.572
    3OL    C11810047   5.411   0.163   3.743
    3OL    H18R10048   5.345   0.221   3.809
    3OL    H18S10049   5.413   0.058   3.773
    3OL    H18T10050   5.517   0.188   3.748
    1PA    C11610051   6.536   4.261   3.661
    1PA    H16R10052   6.448   4.326   3.668
    1PA    H16S10053   6.514   4.204   3.570
    1PA    H16T10054   6.532   4.196   3.748
    1PA    C11510055   6.665   4.343   3.642
    1PA    H15R10056   6.752   4.281   3.665
    1PA    H15S10057   6.675   4.378   3.539
    1PA    C11410058   6.667   4.455   3.748
    1PA    H14R10059   6.632   4.413   3.842
    1PA    H14S10060   6.767   4.498   3.759
    1PA    C11310061   6.571   4.571   3.720
    1PA    H13R10062   6.470   4.532   3.702
    1PA    H13S10063   6.559   4.630   3.811
    1PA    C11210064   6.610   4.655   3.597
    1PA    H12R10065   6.716   4.673   3.613
    1PA    H12S10066   6.597   4.603   3.502
    1PA    C11110067   6.526   4.783   3.590
    1PA    H11R10068   6.424   4.760   3.624
    1PA    H11S10069   6.571   4.851   3.663
    1PA    C11010070   6.539   4.855   3.455
    1PA    H10R10071   6.642   4.869   3.423
    1PA    H10S10072   6.502   4.794   3.372
    1PA     C1910073   6.473   4.994   3.461
    1PA     H9R10074   6.489   5.042   3.557
    1PA     H9S10075   6.507   5.066   3.386
    1PA     C1810076   6.322   4.973   3.444
    1PA     H8R10077   6.296   4.904   3.524
    1PA     H8S10078   6.274   5.068   3.463
    1PA     C1710079   6.273   4.917   3.309
    1PA     H7R10080   6.324   4.822   3.294
    1PA     H7S10081   6.169   4.886   3.316
    1PA     C1610082   6.303   5.008   3.189
    1PA     H6R10083   6.245   5.100   3.200
    1PA     H6S10084   6.406   5.045   3.184
    1PA     C1510085   6.262   4.949   3.053
    1PA     H5R10086   6.215   4.851   3.067
    1PA     H5S10087   6.189   5.004   2.994
    1PA     C1410088   6.392   4.933   2.973
    1PA     H4R10089   6.455   5.022   2.962
    1PA     H4S10090   6.458   4.863   3.025
    1PA     C1310091   6.345   4.894   2.832
    1PA     H3R10092   6.299   4.797   2.850
    1PA     H3S10093   6.271   4.959   2.785
    1PA     C1210094   6.468   4.870   2.744
    1PA     H2R10095   6.523   4.963   2.732
    1PA     H2S10096   6.535   4.800   2.794
    2PC     C1110097   6.416   4.821   2.611
    2PC     O1210098   6.315   4.756   2.595
    2PC     O1110099   6.497   4.853   2.509
    2PC      C110100   6.463   4.827   2.372
    2PC      HR10101   6.355   4.822   2.357
    2PC      HS10102   6.498   4.920   2.326
    2PC      C210103   6.538   4.703   2.321
    2PC      HX10104   6.632   4.696   2.376
    2PC      C310105   6.577   4.694   2.173
    2PC      HA10106   6.650   4.772   2.151
    2PC      HB10107   6.621   4.600   2.138
    2PC     O3110108   6.458   4.709   2.093
    2PC     P3110109   6.470   4.682   1.935
    2PC     O3210110   6.457   4.523   1.946
    2PC     C3110111   6.454   4.446   1.825
    2PC     H1A10112   6.364   4.475   1.769
    2PC     H1B10113   6.543   4.456   1.762
    2PC     C3210114   6.431   4.297   1.853
    2PC     H2A10115   6.328   4.278   1.883
    2PC     H2B10116   6.445   4.249   1.756
    2PC     N3110117   6.522   4.223   1.947
    2PC     C3310118   6.541   4.078   1.913
    2PC     H3A10119   6.573   4.066   1.809
    2PC     H3B10120   6.620   4.040   1.978
    2PC     H3C10121   6.450   4.024   1.939
    2PC     C3410122   6.661   4.279   1.958
    2PC     H4A10123   6.701   4.285   1.857
    2PC     H4B10124   6.662   4.379   2.001
    2PC     H4C10125   6.728   4.211   2.011
    2PC     C3510126   6.455   4.215   2.081
    2PC     H5A10127   6.518   4.157   2.148
    2PC     H5B10128   6.357   4.169   2.077
    2PC     H5C10129   6.447   4.313   2.128
    2PC     O3310130   6.352   4.739   1.866
    2PC     O3410131   6.591   4.725   1.861
    2PC     O2110132   6.458   4.590   2.360
    2PC     C2110133   6.518   4.470   2.357
    2PC     O2210134   6.637   4.454   2.340
    3OL     C1210135   6.417   4.367   2.402
    3OL     H2R10136   6.466   4.272   2.427
    3OL     H2S10137   6.358   4.350   2.312
    3OL     C1310138   6.328   4.405   2.521
    3OL     H3R10139   6.245   4.334   2.520
    3OL     H3S10140   6.291   4.507   2.506
    3OL     C1410141   6.406   4.406   2.653
    3OL     H4R10142   6.499   4.462   2.640
    3OL     H4S10143   6.435   4.305   2.681
    3OL     C1510144   6.323   4.459   2.772
    3OL     H5R10145   6.237   4.400   2.804
    3OL     H5S10146   6.291   4.559   2.742
    3OL     C1610147   6.422   4.467   2.889
    3OL     H6R10148   6.499   4.535   2.851
    3OL     H6S10149   6.475   4.376   2.915
    3OL     C1710150   6.385   4.544   3.016
    3OL     H7R10151   6.356   4.644   2.983
    3OL     H7S10152   6.476   4.553   3.075
    3OL     C1810153   6.283   4.470   3.104
    3OL     H8R10154   6.327   4.382   3.152
    3OL     H8S10155   6.199   4.436   3.042
    3OL     C1910156   6.238   4.568   3.209
    3OL     H9R10157   6.218   4.668   3.172
    3OL    C11010158   6.228   4.556   3.340
    3OL    H10R10159   6.198   4.651   3.384
    3OL    C11110160   6.243   4.440   3.435
    3OL    H11R10161   6.317   4.478   3.507
    3OL    H11S10162   6.288   4.362   3.374
    3OL    C11210163   6.120   4.388   3.511
    3OL    H12R10164   6.141   4.303   3.577
    3OL    H12S10165   6.055   4.364   3.428
    3OL    C11310166   6.056   4.504   3.588
    3OL    H13R10167   5.953   4.471   3.606
    3OL    H13S10168   6.045   4.590   3.522
    3OL    C11410169   6.123   4.545   3.720
    3OL    H14R10170   6.068   4.627   3.768
    3OL    H14S10171   6.215   4.601   3.700
    3OL    C11510172   6.127   4.429   3.821
    3OL    H15R10173   6.186   4.350   3.773
    3OL    H15S10174   6.024   4.394   3.833
    3OL    C11610175   6.193   4.480   3.950
    3OL    H16R10176   6.120   4.547   3.996
    3OL    H16S10177   6.288   4.533   3.941
    3OL    C11710178   6.219   4.362   4.044
    3OL    H17R10179   6.142   4.286   4.043
    3OL    H17S10180   6.237   4.402   4.144
    3OL    C11810181   6.347   4.291   3.997
    3OL    H18R10182   6.340   4.267   3.891
    3OL    H18S10183   6.356   4.197   4.051
    3OL    H18T10184   6.436   4.348   4.025
    1PA    C11610185   4.214   3.893   4.051
    1PA    H16R10186   4.189   3.788   4.036
    1PA    H16S10187   4.144   3.927   4.128
    1PA    H16T10188   4.314   3.901   4.093
    1PA    C11510189   4.193   3.983   3.927
    1PA    H15R10190   4.092   3.962   3.890
    1PA    H15S10191   4.197   4.086   3.963
    1PA    C11410192   4.302   3.965   3.821
    1PA    H14R10193   4.395   4.011   3.853
    1PA    H14S10194   4.317   3.858   3.812
    1PA    C11310195   4.258   4.037   3.692
    1PA    H13R10196   4.156   4.007   3.669
    1PA    H13S10197   4.245   4.144   3.707
    1PA    C11210198   4.359   4.021   3.577
    1PA    H12R10199   4.339   4.102   3.506
    1PA    H12S10200   4.461   4.031   3.616
    1PA    C11110201   4.343   3.887   3.504
    1PA    H11R10202   4.330   3.805   3.575
    1PA    H11S10203   4.253   3.886   3.442
    1PA    C11010204   4.465   3.866   3.414
    1PA    H10R10205   4.456   3.932   3.327
    1PA    H10S10206   4.554   3.883   3.475
    1PA     C1910207   4.480   3.721   3.365
    1PA     H9R10208   4.507   3.657   3.449
    1PA     H9S10209   4.383   3.693   3.321
    1PA     C1810210   4.586   3.717   3.255
    1PA     H8R10211   4.546   3.775   3.171
    1PA     H8S10212   4.682   3.760   3.284
    1PA     C1710213   4.615   3.571   3.217
    1PA     H7R10214   4.706   3.574   3.158
    1PA     H7S10215   4.631   3.506   3.304
    1PA     C1610216   4.506   3.511   3.127
    1PA     H6R10217   4.525   3.404   3.113
    1PA     H6S10218   4.410   3.530   3.175
    1PA     C1510219   4.488   3.571   2.987
    1PA     H5R10220   4.492   3.680   2.997
    1PA     H5S10221   4.569   3.552   2.916
    1PA     C1410222   4.350   3.537   2.929
    1PA     H4R10223   4.326   3.430   2.933
    1PA     H4S10224   4.281   3.590   2.995
    1PA     C1310225   4.330   3.592   2.787
    1PA     H3R10226   4.295   3.696   2.793
    1PA     H3S10227   4.425   3.589   2.734
    1PA     C1210228   4.223   3.507   2.717
    1PA     H2R10229   4.256   3.405   2.734
    1PA     H2S10230   4.124   3.520   2.761
    2PC     C1110231   4.201   3.537   2.571
    2PC     O1210232   4.288   3.581   2.498
    2PC     O1110233   4.074   3.521   2.530
    2PC      C110234   4.041   3.554   2.394
    2PC      HR10235   4.061   3.659   2.372
    2PC      HS10236   4.103   3.505   2.319
    2PC      C210237   3.891   3.524   2.382
    2PC      HX10238   3.870   3.437   2.445
    2PC      C310239   3.847   3.479   2.242
    2PC      HA10240   3.907   3.395   2.205
    2PC      HB10241   3.749   3.431   2.247
    2PC     O3110242   3.836   3.580   2.139
    2PC     P3110243   3.827   3.540   1.984
    2PC     O3210244   3.851   3.684   1.919
    2PC     C3110245   3.983   3.742   1.928
    2PC     H1A10246   4.029   3.712   2.022
    2PC     H1B10247   4.041   3.700   1.846
    2PC     C3210248   3.963   3.894   1.918
    2PC     H2A10249   4.061   3.940   1.933
    2PC     H2B10250   3.933   3.920   1.816
    2PC     N3110251   3.873   3.964   2.015
    2PC     C3310252   3.905   4.110   2.030
    2PC     H3A10253   4.009   4.105   2.063
    2PC     H3B10254   3.908   4.162   1.934
    2PC     H3C10255   3.841   4.165   2.099
    2PC     C3410256   3.729   3.966   1.972
    2PC     H4A10257   3.723   4.037   1.889
    2PC     H4B10258   3.710   3.861   1.951
    2PC     H4C10259   3.665   3.984   2.059
    2PC     C3510260   3.880   3.907   2.153
    2PC     H5A10261   3.825   3.969   2.224
    2PC     H5B10262   3.984   3.904   2.187
    2PC     H5C10263   3.848   3.804   2.166
    2PC     O3310264   3.925   3.440   1.936
    2PC     O3410265   3.694   3.490   1.945
    2PC     O2110266   3.818   3.640   2.426
    2PC     C2110267   3.687   3.637   2.455
    2PC     O2210268   3.622   3.534   2.457
    3OL     C1210269   3.636   3.773   2.494
    3OL     H2R10270   3.553   3.804   2.430
    3OL     H2S10271   3.709   3.853   2.481
    3OL     C1310272   3.597   3.769   2.643
    3OL     H3R10273   3.580   3.875   2.666
    3OL     H3S10274   3.674   3.718   2.701
    3OL     C1410275   3.463   3.698   2.665
    3OL     H4R10276   3.471   3.590   2.648
    3OL     H4S10277   3.378   3.735   2.607
    3OL     C1510278   3.427   3.708   2.814
    3OL     H5R10279   3.442   3.815   2.832
    3OL     H5S10280   3.500   3.648   2.869
    3OL     C1610281   3.285   3.651   2.828
    3OL     H6R10282   3.281   3.562   2.766
    3OL     H6S10283   3.203   3.718   2.803
    3OL     C1710284   3.268   3.620   2.978
    3OL     H7R10285   3.281   3.709   3.040
    3OL     H7S10286   3.348   3.551   3.005
    3OL     C1810287   3.129   3.566   3.014
    3OL     H8R10288   3.044   3.620   2.971
    3OL     H8S10289   3.117   3.571   3.123
    3OL     C1910290   3.104   3.424   2.970
    3OL     H9R10291   3.089   3.418   2.863
    3OL    C11010292   3.106   3.310   3.038
    3OL    H10R10293   3.070   3.221   2.987
    3OL    C11110294   3.136   3.289   3.184
    3OL    H11R10295   3.038   3.257   3.221
    3OL    H11S10296   3.173   3.379   3.234
    3OL    C11210297   3.224   3.166   3.213
    3OL    H12R10298   3.321   3.190   3.169
    3OL    H12S10299   3.171   3.080   3.173
    3OL    C11310300   3.246   3.165   3.365
    3OL    H13R10301   3.151   3.177   3.417
    3OL    H13S10302   3.305   3.249   3.400
    3OL    C11410303   3.313   3.035   3.413
    3OL    H14R10304   3.407   3.023   3.359
    3OL    H14S10305   3.249   2.948   3.396
    3OL    C11510306   3.347   3.039   3.562
    3OL    H15R10307   3.253   3.056   3.615
    3OL    H15S10308   3.407   3.130   3.569
    3OL    C11610309   3.423   2.922   3.626
    3OL    H16R10310   3.479   2.957   3.713
    3OL    H16S10311   3.487   2.879   3.549
    3OL    C11710312   3.341   2.808   3.687
    3OL    H17R10313   3.276   2.754   3.618
    3OL    H17S10314   3.278   2.851   3.766
    3OL    C11810315   3.430   2.698   3.746
    3OL    H18R10316   3.507   2.729   3.816
    3OL    H18S10317   3.485   2.651   3.664
    3OL    H18T10318   3.368   2.622   3.793
    1PA    C11610319   5.269   2.294   3.731
    1PA    H16R10320   5.197   2.356   3.785
    1PA    H16S10321   5.370   2.333   3.743
    1PA    H16T10322   5.271   2.192   3.769
    1PA    C11510323   5.238   2.304   3.581
    1PA    H15R10324   5.143   2.258   3.555
    1PA    H15S10325   5.218   2.411   3.574
    1PA    C11410326   5.358   2.254   3.499
    1PA    H14R10327   5.431   2.329   3.533
    1PA    H14S10328   5.385   2.152   3.526
    1PA    C11310329   5.331   2.279   3.350
    1PA    H13R10330   5.426   2.282   3.295
    1PA    H13S10331   5.268   2.202   3.305
    1PA    C11210332   5.263   2.415   3.327
    1PA    H12R10333   5.164   2.434   3.368
    1PA    H12S10334   5.332   2.492   3.362
    1PA    C11110335   5.261   2.444   3.176
    1PA    H11R10336   5.294   2.547   3.167
    1PA    H11S10337   5.334   2.381   3.126
    1PA    C11010338   5.124   2.413   3.115
    1PA    H10R10339   5.081   2.316   3.142
    1PA    H10S10340   5.052   2.485   3.157
    1PA     C1910341   5.130   2.413   2.962
    1PA     H9R10342   5.219   2.355   2.935
    1PA     H9S10343   5.039   2.366   2.923
    1PA     C1810344   5.135   2.557   2.909
    1PA     H8R10345   5.048   2.611   2.948
    1PA     H8S10346   5.223   2.603   2.954
    1PA     C1710347   5.152   2.561   2.757
    1PA     H7R10348   5.096   2.482   2.705
    1PA     H7S10349   5.096   2.651   2.731
    1PA     C1610350   5.299   2.581   2.719
    1PA     H6R10351   5.335   2.676   2.758
    1PA     H6S10352   5.354   2.500   2.769
    1PA     C1510353   5.314   2.574   2.567
    1PA     H5R10354   5.277   2.477   2.533
    1PA     H5S10355   5.250   2.651   2.524
    1PA     C1410356   5.458   2.608   2.525
    1PA     H4R10357   5.492   2.701   2.572
    1PA     H4S10358   5.520   2.529   2.568
    1PA     C1310359   5.470   2.609   2.372
    1PA     H3R10360   5.438   2.509   2.340
    1PA     H3S10361   5.407   2.682   2.322
    1PA     C1210362   5.608   2.646   2.317
    1PA     H2R10363   5.641   2.744   2.351
    1PA     H2S10364   5.683   2.571   2.346
    2PC     C1110365   5.623   2.661   2.168
    2PC     O1210366   5.536   2.690   2.089
    2PC     O1110367   5.751   2.650   2.129
    2PC      C110368   5.784   2.691   1.995
    2PC      HR10369   5.712   2.763   1.956
    2PC      HS10370   5.883   2.737   2.005
    2PC      C210371   5.783   2.567   1.905
    2PC      HX10372   5.859   2.571   1.826
    2PC      C310373   5.652   2.561   1.826
    2PC      HA10374   5.567   2.541   1.891
    2PC      HB10375   5.636   2.656   1.774
    2PC     O3110376   5.674   2.456   1.729
    2PC     P3110377   5.551   2.395   1.647
    2PC     O3210378   5.550   2.249   1.713
    2PC     C3110379   5.517   2.142   1.623
    2PC     H1A10380   5.421   2.162   1.575
    2PC     H1B10381   5.584   2.150   1.538
    2PC     C3210382   5.513   2.010   1.699
    2PC     H2A10383   5.613   1.990   1.736
    2PC     H2B10384   5.445   2.022   1.784
    2PC     N3110385   5.464   1.886   1.630
    2PC     C3310386   5.475   1.776   1.732
    2PC     H3A10387   5.582   1.760   1.745
    2PC     H3B10388   5.444   1.804   1.833
    2PC     H3C10389   5.417   1.695   1.689
    2PC     C3410390   5.326   1.904   1.576
    2PC     H4A10391   5.259   1.926   1.659
    2PC     H4B10392   5.325   1.985   1.503
    2PC     H4C10393   5.290   1.810   1.532
    2PC     C3510394   5.543   1.845   1.509
    2PC     H5A10395   5.494   1.874   1.416
    2PC     H5B10396   5.566   1.739   1.510
    2PC     H5C10397   5.637   1.900   1.505
    2PC     O3310398   5.425   2.463   1.685
    2PC     O3410399   5.573   2.397   1.500
    2PC     O2110400   5.801   2.446   1.981
    2PC     C2110401   5.917   2.416   2.040
    2PC     O2210402   6.025   2.468   2.019
    3OL     C1210403   5.896   2.321   2.154
    3OL     H2R10404   5.875   2.222   2.112
    3OL     H2S10405   5.794   2.347   2.185
    3OL     C1310406   5.997   2.326   2.270
    3OL     H3R10407   6.037   2.427   2.283
    3OL     H3S10408   6.084   2.277   2.226
    3OL     C1410409   5.935   2.262   2.395
    3OL     H4R10410   6.009   2.212   2.458
    3OL     H4S10411   5.861   2.190   2.360
    3OL     C1510412   5.866   2.359   2.492
    3OL     H5R10413   5.787   2.416   2.444
    3OL     H5S10414   5.939   2.435   2.520
    3OL     C1610415   5.820   2.276   2.613
    3OL     H6R10416   5.899   2.206   2.643
    3OL     H6S10417   5.731   2.223   2.580
    3OL     C1710418   5.779   2.368   2.729
    3OL     H7R10419   5.714   2.449   2.695
    3OL     H7S10420   5.866   2.428   2.756
    3OL     C1810421   5.741   2.287   2.854
    3OL     H8R10422   5.652   2.227   2.832
    3OL     H8S10423   5.717   2.372   2.919
    3OL     C1910424   5.850   2.197   2.905
    3OL     H9R10425   5.917   2.162   2.827
    3OL    C11010426   5.869   2.171   3.033
    3OL    H10R10427   5.960   2.112   3.046
    3OL    C11110428   5.779   2.199   3.151
    3OL    H11R10429   5.751   2.104   3.197
    3OL    H11S10430   5.690   2.253   3.116
    3OL    C11210431   5.855   2.288   3.250
    3OL    H12R10432   5.895   2.373   3.194
    3OL    H12S10433   5.938   2.235   3.297
    3OL    C11310434   5.778   2.347   3.369
    3OL    H13R10435   5.758   2.258   3.428
    3OL    H13S10436   5.686   2.396   3.336
    3OL    C11410437   5.855   2.453   3.450
    3OL    H14R10438   5.794   2.517   3.515
    3OL    H14S10439   5.895   2.516   3.370
    3OL    C11510440   5.980   2.402   3.521
    3OL    H15R10441   6.020   2.326   3.453
    3OL    H15S10442   5.944   2.354   3.612
    3OL    C11610443   6.088   2.506   3.553
    3OL    H16R10444   6.053   2.576   3.629
    3OL    H16S10445   6.112   2.562   3.461
    3OL    C11710446   6.208   2.423   3.601
    3OL    H17R10447   6.226   2.327   3.554
    3OL    H17S10448   6.183   2.393   3.703
    3OL    C11810449   6.334   2.510   3.610
    3OL    H18R10450   6.414   2.463   3.667
    3OL    H18S10451   6.318   2.603   3.665
    3OL    H18T10452   6.365   2.558   3.516
    1PA    C11610453   3.834   3.602   3.029
    1PA    H16R10454   3.823   3.493   3.022
    1PA    H16S10455   3.780   3.643   2.943
    1PA    H16T10456   3.793   3.634   3.125
    1PA    C11510457   3.980   3.644   3.011
    1PA    H15R10458   4.045   3.593   3.083
    1PA    H15S10459   4.021   3.630   2.911
    1PA    C11410460   3.994   3.794   3.039
    1PA    H14R10461   3.943   3.846   2.957
    1PA    H14S10462   3.946   3.822   3.133
    1PA    C11310463   4.141   3.837   3.048
    1PA    H13R10464   4.175   3.787   3.139
    1PA    H13S10465   4.193   3.796   2.961
    1PA    C11210466   4.154   3.990   3.052
    1PA    H12R10467   4.242   4.021   2.994
    1PA    H12S10468   4.070   4.051   3.020
    1PA    C11110469   4.182   4.037   3.195
    1PA    H11R10470   4.114   3.997   3.271
    1PA    H11S10471   4.277   3.987   3.219
    1PA    C11010472   4.199   4.189   3.206
    1PA    H10R10473   4.229   4.211   3.308
    1PA    H10S10474   4.273   4.231   3.138
    1PA     C1910475   4.072   4.272   3.181
    1PA     H9R10476   4.035   4.258   3.079
    1PA     H9S10477   3.996   4.225   3.245
    1PA     C1810478   4.101   4.419   3.213
    1PA     H8R10479   4.005   4.471   3.212
    1PA     H8S10480   4.141   4.433   3.313
    1PA     C1710481   4.205   4.483   3.121
    1PA     H7R10482   4.208   4.587   3.155
    1PA     H7S10483   4.303   4.437   3.132
    1PA     C1610484   4.158   4.493   2.975
    1PA     H6R10485   4.052   4.468   2.977
    1PA     H6S10486   4.171   4.593   2.934
    1PA     C1510487   4.226   4.385   2.889
    1PA     H5R10488   4.334   4.401   2.892
    1PA     H5S10489   4.213   4.285   2.932
    1PA     C1410490   4.175   4.371   2.745
    1PA     H4R10491   4.190   4.277   2.693
    1PA     H4S10492   4.066   4.381   2.739
    1PA     C1310493   4.226   4.484   2.654
    1PA     H3R10494   4.169   4.572   2.683
    1PA     H3S10495   4.333   4.500   2.673
    1PA     C1210496   4.204   4.454   2.505
    1PA     H2R10497   4.250   4.355   2.490
    1PA     H2S10498   4.098   4.434   2.490
    2PC     C1110499   4.258   4.557   2.409
    2PC     O1210500   4.282   4.533   2.293
    2PC     O1110501   4.266   4.683   2.457
    2PC      C110502   4.313   4.786   2.369
    2PC      HR10503   4.331   4.870   2.437
    2PC      HS10504   4.407   4.750   2.326
    2PC      C210505   4.213   4.830   2.261
    2PC      HX10506   4.181   4.742   2.204
    2PC      C310507   4.262   4.939   2.165
    2PC      HA10508   4.225   5.038   2.192
    2PC      HB10509   4.371   4.941   2.172
    2PC     O3110510   4.220   4.911   2.030
    2PC     P3110511   4.213   5.027   1.920
    2PC     O3210512   4.061   5.077   1.928
    2PC     C3110513   3.967   5.021   1.835
    2PC     H1A10514   4.008   5.027   1.734
    2PC     H1B10515   3.949   4.916   1.861
    2PC     C3210516   3.840   5.106   1.843
    2PC     H2A10517   3.860   5.198   1.788
    2PC     H2B10518   3.758   5.056   1.791
    2PC     N3110519   3.779   5.133   1.977
    2PC     C3310520   3.866   5.210   2.072
    2PC     H3A10521   3.806   5.271   2.140
    2PC     H3B10522   3.918   5.134   2.131
    2PC     H3C10523   3.920   5.278   2.007
    2PC     C3410524   3.659   5.216   1.942
    2PC     H4A10525   3.702   5.309   1.904
    2PC     H4B10526   3.595   5.170   1.866
    2PC     H4C10527   3.595   5.238   2.028
    2PC     C3510528   3.735   5.005   2.041
    2PC     H5A10529   3.654   4.963   1.982
    2PC     H5B10530   3.699   5.033   2.140
    2PC     H5C10531   3.813   4.930   2.037
    2PC     O3310532   4.303   5.141   1.950
    2PC     O3410533   4.262   4.978   1.789
    2PC     O2110534   4.098   4.877   2.334
    2PC     C2110535   4.004   4.792   2.380
    2PC     O2210536   4.009   4.675   2.348
    3OL     C1210537   3.904   4.858   2.471
    3OL     H2R10538   3.813   4.876   2.414
    3OL     H2S10539   3.947   4.957   2.485
    3OL     C1310540   3.892   4.792   2.609
    3OL     H3R10541   3.858   4.866   2.682
    3OL     H3S10542   3.994   4.769   2.640
    3OL     C1410543   3.805   4.667   2.597
    3OL     H4R10544   3.857   4.592   2.537
    3OL     H4S10545   3.705   4.686   2.557
    3OL     C1510546   3.793   4.591   2.730
    3OL     H5R10547   3.749   4.656   2.806
    3OL     H5S10548   3.887   4.561   2.778
    3OL     C1610549   3.708   4.464   2.714
    3OL     H6R10550   3.767   4.385   2.667
    3OL     H6S10551   3.616   4.490   2.661
    3OL     C1710552   3.658   4.396   2.842
    3OL     H7R10553   3.584   4.317   2.824
    3OL     H7S10554   3.616   4.475   2.903
    3OL     C1810555   3.770   4.325   2.919
    3OL     H8R10556   3.853   4.392   2.941
    3OL     H8S10557   3.820   4.243   2.867
    3OL     C1910558   3.713   4.294   3.056
    3OL     H9R10559   3.708   4.383   3.118
    3OL    C11010560   3.714   4.177   3.117
    3OL    H10R10561   3.683   4.172   3.221
    3OL    C11110562   3.742   4.039   3.063
    3OL    H11R10563   3.823   4.000   3.126
    3OL    H11S10564   3.771   4.035   2.958
    3OL    C11210565   3.617   3.956   3.092
    3OL    H12R10566   3.619   3.859   3.041
    3OL    H12S10567   3.537   4.008   3.039
    3OL    C11310568   3.578   3.944   3.240
    3OL    H13R10569   3.582   4.042   3.286
    3OL    H13S10570   3.648   3.876   3.290
    3OL    C11410571   3.437   3.884   3.257
    3OL    H14R10572   3.424   3.790   3.202
    3OL    H14S10573   3.366   3.946   3.202
    3OL    C11510574   3.392   3.875   3.403
    3OL    H15R10575   3.290   3.836   3.410
    3OL    H15S10576   3.387   3.978   3.440
    3OL    C11610577   3.490   3.787   3.483
    3OL    H16R10578   3.594   3.820   3.489
    3OL    H16S10579   3.480   3.683   3.451
    3OL    C11710580   3.450   3.790   3.631
    3OL    H17R10581   3.344   3.772   3.651
    3OL    H17S10582   3.470   3.890   3.671
    3OL    C11810583   3.522   3.694   3.726
    3OL    H18R10584   3.470   3.599   3.739
    3OL    H18S10585   3.528   3.739   3.826
    3OL    H18T10586   3.621   3.667   3.689
    1PA    C11610587   5.284   4.395   3.855
    1PA    H16R10588   5.237   4.442   3.942
    1PA    H16S10589   5.390   4.423   3.858
    1PA    H16T10590   5.274   4.287   3.862
    1PA    C11510591   5.227   4.454   3.725
    1PA    H15R10592   5.123   4.419   3.719
    1PA    H15S10593   5.234   4.562   3.718
    1PA    C11410594   5.297   4.390   3.605
    1PA    H14R10595   5.403   4.415   3.613
    1PA    H14S10596   5.287   4.283   3.623
    1PA    C11310597   5.237   4.426   3.468
    1PA    H13R10598   5.129   4.420   3.457
    1PA    H13S10599   5.257   4.531   3.447
    1PA    C11210600   5.303   4.334   3.364
    1PA    H12R10601   5.313   4.230   3.396
    1PA    H12S10602   5.235   4.322   3.280
    1PA    C11110603   5.439   4.382   3.312
    1PA    H11R10604   5.415   4.445   3.226
    1PA    H11S10605   5.504   4.445   3.373
    1PA    C11010606   5.530   4.269   3.261
    1PA    H10R10607   5.631   4.307   3.276
    1PA    H10S10608   5.512   4.174   3.311
    1PA     C1910609   5.510   4.253   3.109
    1PA     H9R10610   5.408   4.213   3.105
    1PA     H9S10611   5.512   4.347   3.054
    1PA     C1810612   5.608   4.148   3.057
    1PA     H8R10613   5.705   4.199   3.058
    1PA     H8S10614   5.619   4.060   3.122
    1PA     C1710615   5.583   4.108   2.911
    1PA     H7R10616   5.484   4.065   2.896
    1PA     H7S10617   5.577   4.195   2.846
    1PA     C1610618   5.692   4.007   2.873
    1PA     H6R10619   5.789   4.057   2.871
    1PA     H6S10620   5.693   3.925   2.945
    1PA     C1510621   5.673   3.960   2.728
    1PA     H5R10622   5.571   3.925   2.708
    1PA     H5S10623   5.689   4.042   2.659
    1PA     C1410624   5.763   3.839   2.697
    1PA     H4R10625   5.861   3.870   2.735
    1PA     H4S10626   5.727   3.757   2.758
    1PA     C1310627   5.771   3.805   2.547
    1PA     H3R10628   5.783   3.697   2.538
    1PA     H3S10629   5.672   3.821   2.504
    1PA     C1210630   5.890   3.877   2.481
    1PA     H2R10631   5.891   3.986   2.481
    1PA     H2S10632   5.982   3.843   2.530
    2PC     C1110633   5.903   3.827   2.339
    2PC     O1210634   5.842   3.884   2.251
    2PC     O1110635   5.990   3.726   2.322
    2PC      C110636   6.019   3.684   2.188
    2PC      HR10637   6.084   3.596   2.201
    2PC      HS10638   5.929   3.655   2.133
    2PC      C210639   6.100   3.792   2.116
    2PC      HX10640   6.061   3.890   2.144
    2PC      C310641   6.107   3.774   1.964
    2PC      HA10642   6.147   3.673   1.947
    2PC      HB10643   6.004   3.775   1.927
    2PC     O3110644   6.188   3.874   1.900
    2PC     P3110645   6.153   3.933   1.755
    2PC     O3210646   6.141   3.798   1.670
    2PC     C3110647   6.088   3.794   1.536
    2PC     H1A10648   5.984   3.827   1.545
    2PC     H1B10649   6.144   3.865   1.476
    2PC     C3210650   6.095   3.652   1.479
    2PC     H2A10651   6.030   3.595   1.545
    2PC     H2B10652   6.054   3.644   1.378
    2PC     N3110653   6.228   3.582   1.472
    2PC     C3310654   6.216   3.445   1.412
    2PC     H3A10655   6.181   3.459   1.309
    2PC     H3B10656   6.318   3.407   1.400
    2PC     H3C10657   6.158   3.388   1.485
    2PC     C3410658   6.319   3.657   1.379
    2PC     H4A10659   6.273   3.667   1.281
    2PC     H4B10660   6.327   3.761   1.413
    2PC     H4C10661   6.417   3.610   1.373
    2PC     C3510662   6.292   3.572   1.607
    2PC     H5A10663   6.217   3.541   1.679
    2PC     H5B10664   6.325   3.669   1.645
    2PC     H5C10665   6.367   3.494   1.619
    2PC     O3310666   6.031   4.015   1.769
    2PC     O3410667   6.262   4.028   1.723
    2PC     O2110668   6.237   3.777   2.159
    2PC     C2110669   6.321   3.876   2.191
    2PC     O2210670   6.287   3.993   2.197
    3OL     C1210671   6.457   3.820   2.222
    3OL     H2R10672   6.514   3.849   2.133
    3OL     H2S10673   6.452   3.711   2.217
    3OL     C1310674   6.518   3.853   2.359
    3OL     H3R10675   6.538   3.960   2.358
    3OL     H3S10676   6.616   3.807   2.367
    3OL     C1410677   6.418   3.819   2.471
    3OL     H4R10678   6.374   3.720   2.458
    3OL     H4S10679   6.341   3.895   2.462
    3OL     C1510680   6.486   3.848   2.606
    3OL     H5R10681   6.508   3.954   2.599
    3OL     H5S10682   6.572   3.783   2.625
    3OL     C1610683   6.380   3.842   2.717
    3OL     H6R10684   6.421   3.816   2.815
    3OL     H6S10685   6.301   3.769   2.694
    3OL     C1710686   6.313   3.977   2.746
    3OL     H7R10687   6.266   4.017   2.656
    3OL     H7S10688   6.381   4.051   2.787
    3OL     C1810689   6.201   3.952   2.848
    3OL     H8R10690   6.244   3.907   2.937
    3OL     H8S10691   6.130   3.880   2.806
    3OL     C1910692   6.138   4.084   2.888
    3OL     H9R10693   6.062   4.123   2.821
    3OL    C11010694   6.149   4.143   3.006
    3OL    H10R10695   6.087   4.228   3.029
    3OL    C11110696   6.230   4.099   3.126
    3OL    H11R10697   6.302   4.180   3.134
    3OL    H11S10698   6.278   4.002   3.110
    3OL    C11210699   6.141   4.098   3.251
    3OL    H12R10700   6.052   4.035   3.250
    3OL    H12S10701   6.113   4.201   3.276
    3OL    C11310702   6.221   4.035   3.366
    3OL    H13R10703   6.172   4.058   3.460
    3OL    H13S10704   6.318   4.084   3.379
    3OL    C11410705   6.244   3.885   3.344
    3OL    H14R10706   6.297   3.849   3.256
    3OL    H14S10707   6.146   3.838   3.333
    3OL    C11510708   6.304   3.832   3.475
    3OL    H15R10709   6.304   3.723   3.463
    3OL    H15S10710   6.241   3.850   3.563
    3OL    C11610711   6.447   3.869   3.516
    3OL    H16R10712   6.489   3.806   3.595
    3OL    H16S10713   6.452   3.969   3.560
    3OL    C11710714   6.541   3.864   3.395
    3OL    H17R10715   6.513   3.941   3.322
    3OL    H17S10716   6.533   3.763   3.354
    3OL    C11810717   6.688   3.891   3.431
    3OL    H18R10718   6.754   3.858   3.351
    3OL    H18S10719   6.727   3.827   3.510
    3OL    H18T10720   6.712   3.994   3.457
    1PA    C11610721   6.795   1.017   3.593
    1PA    H16R10722   6.857   0.968   3.518
    1PA    H16S10723   6.755   0.935   3.653
    1PA    H16T10724   6.842   1.094   3.653
    1PA    C11510725   6.674   1.084   3.526
    1PA    H15R10726   6.607   1.009   3.484
    1PA    H15S10727   6.614   1.137   3.600
    1PA    C11410728   6.713   1.172   3.406
    1PA    H14R10729   6.782   1.251   3.436
    1PA    H14S10730   6.772   1.111   3.338
    1PA    C11310731   6.593   1.226   3.327
    1PA    H13R10732   6.531   1.141   3.300
    1PA    H13S10733   6.539   1.295   3.392
    1PA    C11210734   6.639   1.304   3.203
    1PA    H12R10735   6.572   1.389   3.187
    1PA    H12S10736   6.736   1.352   3.217
    1PA    C11110737   6.643   1.220   3.074
    1PA    H11R10738   6.691   1.123   3.075
    1PA    H11S10739   6.538   1.204   3.050
    1PA    C11010740   6.699   1.296   2.953
    1PA    H10R10741   6.803   1.317   2.978
    1PA    H10S10742   6.696   1.225   2.870
    1PA     C1910743   6.629   1.431   2.934
    1PA     H9R10744   6.655   1.498   3.016
    1PA     H9S10745   6.660   1.486   2.845
    1PA     C1810746   6.476   1.434   2.934
    1PA     H8R10747   6.429   1.371   3.010
    1PA     H8S10748   6.453   1.538   2.960
    1PA     C1710749   6.411   1.390   2.802
    1PA     H7R10750   6.465   1.439   2.720
    1PA     H7S10751   6.419   1.281   2.796
    1PA     C1610752   6.260   1.417   2.799
    1PA     H6R10753   6.218   1.370   2.887
    1PA     H6S10754   6.241   1.524   2.808
    1PA     C1510755   6.211   1.368   2.662
    1PA     H5R10756   6.270   1.419   2.586
    1PA     H5S10757   6.231   1.261   2.660
    1PA     C1410758   6.060   1.395   2.650
    1PA     H4R10759   6.012   1.323   2.716
    1PA     H4S10760   6.035   1.498   2.676
    1PA     C1310761   6.018   1.367   2.505
    1PA     H3R10762   6.081   1.421   2.434
    1PA     H3S10763   6.024   1.260   2.486
    1PA     C1210764   5.870   1.406   2.485
    1PA     H2R10765   5.813   1.352   2.561
    1PA     H2S10766   5.868   1.512   2.509
    2PC     C1110767   5.808   1.392   2.348
    2PC     O1210768   5.876   1.385   2.248
    2PC     O1110769   5.674   1.379   2.352
    2PC      C110770   5.603   1.350   2.230
    2PC      HR10771   5.496   1.369   2.237
    2PC      HS10772   5.641   1.420   2.155
    2PC      C210773   5.633   1.207   2.184
    2PC      HX10774   5.738   1.184   2.202
    2PC      C310775   5.604   1.188   2.034
    2PC      HA10776   5.496   1.188   2.022
    2PC      HB10777   5.652   1.271   1.981
    2PC     O3110778   5.670   1.066   1.994
    2PC     P3110779   5.692   1.040   1.837
    2PC     O3210780   5.651   0.887   1.815
    2PC     C3110781   5.522   0.846   1.768
    2PC     H1A10782   5.458   0.848   1.856
    2PC     H1B10783   5.485   0.926   1.703
    2PC     C3210784   5.529   0.710   1.697
    2PC     H2A10785   5.590   0.641   1.756
    2PC     H2B10786   5.428   0.671   1.688
    2PC     N3110787   5.600   0.697   1.566
    2PC     C3310788   5.729   0.772   1.572
    2PC     H3A10789   5.783   0.745   1.481
    2PC     H3B10790   5.707   0.878   1.561
    2PC     H3C10791   5.781   0.747   1.664
    2PC     C3410792   5.625   0.556   1.524
    2PC     H4A10793   5.688   0.515   1.603
    2PC     H4B10794   5.528   0.507   1.524
    2PC     H4C10795   5.679   0.558   1.429
    2PC     C3510796   5.516   0.768   1.464
    2PC     H5A10797   5.498   0.872   1.491
    2PC     H5B10798   5.420   0.719   1.450
    2PC     H5C10799   5.557   0.758   1.363
    2PC     O3310800   5.610   1.120   1.743
    2PC     O3410801   5.831   1.077   1.804
    2PC     O2110802   5.541   1.119   2.250
    2PC     C2110803   5.589   1.030   2.338
    2PC     O2210804   5.707   1.021   2.368
    3OL     C1210805   5.485   0.941   2.400
    3OL     H2R10806   5.407   0.927   2.325
    3OL     H2S10807   5.431   0.992   2.480
    3OL     C1310808   5.554   0.817   2.460
    3OL     H3R10809   5.605   0.843   2.553
    3OL     H3S10810   5.631   0.772   2.399
    3OL     C1410811   5.449   0.714   2.505
    3OL     H4R10812   5.411   0.680   2.408
    3OL     H4S10813   5.369   0.749   2.570
    3OL     C1510814   5.518   0.596   2.574
    3OL     H5R10815   5.592   0.628   2.647
    3OL     H5S10816   5.573   0.536   2.502
    3OL     C1610817   5.423   0.509   2.657
    3OL     H6R10818   5.361   0.576   2.717
    3OL     H6S10819   5.500   0.460   2.717
    3OL     C1710820   5.336   0.415   2.572
    3OL     H7R10821   5.392   0.369   2.491
    3OL     H7S10822   5.250   0.475   2.539
    3OL     C1810823   5.286   0.302   2.662
    3OL     H8R10824   5.375   0.253   2.702
    3OL     H8S10825   5.234   0.227   2.601
    3OL     C1910826   5.189   0.353   2.766
    3OL     H9R10827   5.097   0.383   2.716
    3OL    C11010828   5.212   0.360   2.896
    3OL    H10R10829   5.130   0.379   2.965
    3OL    C11110830   5.332   0.317   2.976
    3OL    H11R10831   5.423   0.328   2.915
    3OL    H11S10832   5.325   0.211   3.000
    3OL    C11210833   5.346   0.389   3.111
    3OL    H12R10834   5.384   0.490   3.098
    3OL    H12S10835   5.426   0.327   3.153
    3OL    C11310836   5.227   0.394   3.208
    3OL    H13R10837   5.196   0.289   3.216
    3OL    H13S10838   5.148   0.442   3.151
    3OL    C11410839   5.252   0.473   3.337
    3OL    H14R10840   5.268   0.579   3.317
    3OL    H14S10841   5.344   0.440   3.387
    3OL    C11510842   5.134   0.449   3.432
    3OL    H15R10843   5.131   0.342   3.453
    3OL    H15S10844   5.035   0.477   3.394
    3OL    C11610845   5.165   0.522   3.563
    3OL    H16R10846   5.167   0.628   3.538
    3OL    H16S10847   5.255   0.488   3.614
    3OL    C11710848   5.054   0.515   3.669
    3OL    H17R10849   4.961   0.546   3.620
    3OL    H17S10850   5.069   0.590   3.748
    3OL    C11810851   5.051   0.374   3.729
    3OL    H18R10852   5.060   0.296   3.652
    3OL    H18S10853   4.957   0.373   3.784
    3OL    H18T10854   5.135   0.357   3.796
    1PA    C11610855   4.911   2.472   3.797
    1PA    H16R10856   4.884   2.390   3.865
    1PA    H16S10857   4.849   2.557   3.826
    1PA    H16T10858   5.013   2.509   3.808
    1PA    C11510859   4.876   2.430   3.654
    1PA    H15R10860   4.917   2.333   3.625
    1PA    H15S10861   4.768   2.419   3.646
    1PA    C11410862   4.934   2.534   3.557
    1PA    H14R10863   5.035   2.558   3.591
    1PA    H14S10864   4.950   2.490   3.458
    1PA    C11310865   4.852   2.662   3.540
    1PA    H13R10866   4.752   2.620   3.528
    1PA    H13S10867   4.862   2.728   3.627
    1PA    C11210868   4.874   2.757   3.421
    1PA    H12R10869   4.901   2.700   3.332
    1PA    H12S10870   4.776   2.804   3.414
    1PA    C11110871   4.999   2.840   3.452
    1PA    H11R10872   4.984   2.889   3.549
    1PA    H11S10873   5.083   2.772   3.467
    1PA    C11010874   5.038   2.940   3.342
    1PA    H10R10875   4.945   2.986   3.311
    1PA    H10S10876   5.109   3.014   3.379
    1PA     C1910877   5.107   2.880   3.218
    1PA     H9R10878   5.207   2.849   3.247
    1PA     H9S10879   5.043   2.800   3.181
    1PA     C1810880   5.121   2.980   3.102
    1PA     H8R10881   5.018   3.014   3.087
    1PA     H8S10882   5.176   3.068   3.135
    1PA     C1710883   5.180   2.923   2.972
    1PA     H7R10884   5.277   2.890   3.008
    1PA     H7S10885   5.119   2.841   2.934
    1PA     C1610886   5.198   3.035   2.868
    1PA     H6R10887   5.103   3.061   2.821
    1PA     H6S10888   5.250   3.118   2.917
    1PA     C1510889   5.293   2.990   2.756
    1PA     H5R10890   5.390   2.957   2.794
    1PA     H5S10891   5.256   2.905   2.697
    1PA     C1410892   5.332   3.089   2.646
    1PA     H4R10893   5.241   3.136   2.608
    1PA     H4S10894   5.401   3.167   2.680
    1PA     C1310895   5.389   3.014   2.525
    1PA     H3R10896   5.476   2.955   2.553
    1PA     H3S10897   5.314   2.945   2.484
    1PA     C1210898   5.425   3.113   2.414
    1PA     H2R10899   5.344   3.186   2.411
    1PA     H2S10900   5.522   3.158   2.437
    2PC     C1110901   5.440   3.054   2.276
    2PC     O1210902   5.377   2.957   2.240
    2PC     O1110903   5.536   3.118   2.207
    2PC      C110904   5.562   3.089   2.068
    2PC      HR10905   5.552   2.981   2.056
    2PC      HS10906   5.483   3.131   2.005
    2PC      C210907   5.698   3.142   2.022
    2PC      HX10908   5.698   3.250   2.040
    2PC      C310909   5.726   3.126   1.872
    2PC      HA10910   5.662   3.195   1.818
    2PC      HB10911   5.831   3.155   1.856
    2PC     O3110912   5.700   2.988   1.840
    2PC     P3110913   5.661   2.950   1.690
    2PC     O3210914   5.502   2.956   1.679
    2PC     C3110915   5.429   2.837   1.717
    2PC     H1A10916   5.462   2.742   1.676
    2PC     H1B10917   5.447   2.834   1.824
    2PC     C3210918   5.278   2.856   1.697
    2PC     H2A10919   5.238   2.756   1.717
    2PC     H2B10920   5.235   2.922   1.772
    2PC     N3110921   5.229   2.910   1.566
    2PC     C3310922   5.084   2.873   1.549
    2PC     H3A10923   5.079   2.764   1.548
    2PC     H3B10924   5.019   2.911   1.628
    2PC     H3C10925   5.058   2.908   1.449
    2PC     C3410926   5.247   3.059   1.572
    2PC     H4A10927   5.174   3.092   1.647
    2PC     H4B10928   5.346   3.091   1.603
    2PC     H4C10929   5.229   3.098   1.472
    2PC     C3510930   5.311   2.858   1.452
    2PC     H5A10931   5.290   2.753   1.433
    2PC     H5B10932   5.417   2.882   1.464
    2PC     H5C10933   5.275   2.915   1.366
    2PC     O3310934   5.710   3.051   1.593
    2PC     O3410935   5.735   2.833   1.637
    2PC     O2110936   5.796   3.072   2.100
    2PC     C2110937   5.918   3.125   2.116
    2PC     O2210938   5.953   3.233   2.073
    3OL     C1210939   6.007   3.048   2.211
    3OL     H2R10940   6.026   2.950   2.167
    3OL     H2S10941   5.953   3.026   2.303
    3OL     C1310942   6.143   3.109   2.251
    3OL     H3R10943   6.121   3.206   2.295
    3OL     H3S10944   6.199   3.133   2.161
    3OL     C1410945   6.218   3.010   2.341
    3OL     H4R10946   6.148   2.971   2.416
    3OL     H4S10947   6.301   3.067   2.382
    3OL     C1510948   6.281   2.887   2.273
    3OL     H5R10949   6.359   2.938   2.216
    3OL     H5S10950   6.218   2.838   2.198
    3OL     C1610951   6.347   2.801   2.381
    3OL     H6R10952   6.381   2.860   2.466
    3OL     H6S10953   6.430   2.742   2.343
    3OL     C1710954   6.250   2.693   2.432
    3OL     H7R10955   6.183   2.663   2.351
    3OL     H7S10956   6.185   2.733   2.510
    3OL     C1810957   6.314   2.575   2.505
    3OL     H8R10958   6.352   2.621   2.597
    3OL     H8S10959   6.398   2.545   2.441
    3OL     C1910960   6.222   2.455   2.514
    3OL     H9R10961   6.190   2.419   2.417
    3OL    C11010962   6.193   2.391   2.626
    3OL    H10R10963   6.121   2.310   2.625
    3OL    C11110964   6.240   2.436   2.762
    3OL    H11R10965   6.217   2.542   2.775
    3OL    H11S10966   6.349   2.428   2.759
    3OL    C11210967   6.163   2.360   2.870
    3OL    H12R10968   6.207   2.262   2.884
    3OL    H12S10969   6.057   2.344   2.845
    3OL    C11310970   6.153   2.434   3.004
    3OL    H13R10971   6.083   2.377   3.065
    3OL    H13S10972   6.113   2.534   2.984
    3OL    C11410973   6.286   2.456   3.077
    3OL    H14R10974   6.273   2.487   3.181
    3OL    H14S10975   6.324   2.552   3.042
    3OL    C11510976   6.384   2.338   3.070
    3OL    H15R10977   6.478   2.372   3.114
    3OL    H15S10978   6.413   2.323   2.966
    3OL    C11610979   6.327   2.208   3.127
    3OL    H16R10980   6.394   2.125   3.105
    3OL    H16S10981   6.224   2.199   3.090
    3OL    C11710982   6.313   2.225   3.279
    3OL    H17R10983   6.249   2.313   3.292
    3OL    H17S10984   6.411   2.254   3.317
    3OL    C11810985   6.262   2.101   3.353
    3OL    H18R10986   6.171   2.065   3.305
    3OL    H18S10987   6.234   2.126   3.456
    3OL    H18T10988   6.340   2.025   3.354
    1PA    C11610989   5.934   5.844   3.755
    1PA    H16R10990   5.859   5.921   3.775
    1PA    H16S10991   5.902   5.788   3.667
    1PA    H16T10992   6.023   5.896   3.716
    1PA    C11510993   5.947   5.751   3.876
    1PA    H15R10994   5.977   5.817   3.958
    1PA    H15S10995   5.855   5.700   3.905
    1PA    C11410996   6.053   5.640   3.866
    1PA    H14R10997   6.149   5.670   3.823
    1PA    H14S10998   6.073   5.610   3.969
    1PA    C11310999   6.000   5.515   3.793
    1PA    H13R11000   5.928   5.471   3.862
    1PA    H13S11001   5.938   5.537   3.706
    1PA    C11211002   6.113   5.416   3.763
    1PA    H12R11003   6.195   5.461   3.706
    1PA    H12S11004   6.143   5.377   3.861
    1PA    C11111005   6.054   5.293   3.692
    1PA    H11R11006   6.116   5.204   3.709
    1PA    H11S11007   5.956   5.268   3.732
    1PA    C11011008   6.018   5.322   3.546
    1PA    H10R11009   5.944   5.402   3.542
    1PA    H10S11010   6.106   5.363   3.495
    1PA     C1911011   5.970   5.197   3.470
    1PA     H9R11012   6.051   5.124   3.482
    1PA     H9S11013   5.880   5.157   3.518
    1PA     C1811014   5.955   5.221   3.320
    1PA     H8R11015   5.873   5.292   3.306
    1PA     H8S11016   6.052   5.257   3.284
    1PA     C1711017   5.913   5.091   3.250
    1PA     H7R11018   5.985   5.013   3.276
    1PA     H7S11019   5.817   5.051   3.284
    1PA     C1611020   5.917   5.099   3.097
    1PA     H6R11021   5.837   5.171   3.077
    1PA     H6S11022   6.016   5.136   3.070
    1PA     C1511023   5.889   4.960   3.037
    1PA     H5R11024   5.949   4.884   3.087
    1PA     H5S11025   5.783   4.941   3.056
    1PA     C1411026   5.910   4.954   2.886
    1PA     H4R11027   6.016   4.973   2.865
    1PA     H4S11028   5.883   4.852   2.857
    1PA     C1311029   5.810   5.033   2.801
    1PA     H3R11030   5.710   4.992   2.815
    1PA     H3S11031   5.816   5.142   2.808
    1PA     C1211032   5.838   5.001   2.653
    1PA     H2R11033   5.946   5.006   2.637
    1PA     H2S11034   5.806   4.902   2.620
    2PC     C1111035   5.775   5.108   2.568
    2PC     O1211036   5.834   5.209   2.537
    2PC     O1111037   5.650   5.073   2.533
    2PC      C111038   5.580   5.168   2.450
    2PC      HR11039   5.569   5.264   2.499
    2PC      HS11040   5.640   5.172   2.358
    2PC      C211041   5.441   5.108   2.422
    2PC      HX11042   5.470   5.003   2.418
    2PC      C311043   5.391   5.165   2.288
    2PC      HA11044   5.285   5.146   2.267
    2PC      HB11045   5.410   5.272   2.287
    2PC     O3111046   5.466   5.081   2.199
    2PC     P3111047   5.468   5.125   2.045
    2PC     O3211048   5.337   5.057   1.983
    2PC     C3111049   5.342   4.926   1.923
    2PC     H1A11050   5.402   4.859   1.984
    2PC     H1B11051   5.242   4.885   1.912
    2PC     C3211052   5.411   4.937   1.787
    2PC     H2A11053   5.357   5.002   1.717
    2PC     H2B11054   5.511   4.979   1.798
    2PC     N3111055   5.435   4.806   1.717
    2PC     C3311056   5.506   4.835   1.589
    2PC     H3A11057   5.447   4.911   1.538
    2PC     H3B11058   5.595   4.889   1.619
    2PC     H3C11059   5.527   4.743   1.533
    2PC     C3411060   5.506   4.706   1.802
    2PC     H4A11061   5.531   4.627   1.731
    2PC     H4B11062   5.600   4.751   1.834
    2PC     H4C11063   5.443   4.658   1.878
    2PC     C3511064   5.305   4.744   1.674
    2PC     H5A11065   5.228   4.751   1.751
    2PC     H5B11066   5.320   4.640   1.646
    2PC     H5C11067   5.282   4.804   1.586
    2PC     O3311068   5.488   5.269   2.018
    2PC     O3411069   5.588   5.067   1.981
    2PC     O2111070   5.356   5.126   2.537
    2PC     C2111071   5.313   5.246   2.580
    2PC     O2211072   5.328   5.352   2.523
    3OL     C1211073   5.258   5.232   2.719
    3OL     H2R11074   5.174   5.164   2.702
    3OL     H2S11075   5.231   5.336   2.741
    3OL     C1311076   5.355   5.169   2.820
    3OL     H3R11077   5.385   5.069   2.789
    3OL     H3S11078   5.303   5.157   2.915
    3OL     C1411079   5.486   5.248   2.835
    3OL     H4R11080   5.530   5.270   2.738
    3OL     H4S11081   5.562   5.196   2.894
    3OL     C1511082   5.455   5.376   2.915
    3OL     H5R11083   5.401   5.351   3.006
    3OL     H5S11084   5.400   5.448   2.854
    3OL     C1611085   5.584   5.435   2.973
    3OL     H6R11086   5.627   5.354   3.032
    3OL     H6S11087   5.573   5.516   3.045
    3OL     C1711088   5.675   5.485   2.860
    3OL     H7R11089   5.620   5.561   2.804
    3OL     H7S11090   5.702   5.416   2.780
    3OL     C1811091   5.809   5.539   2.911
    3OL     H8R11092   5.841   5.467   2.987
    3OL     H8S11093   5.782   5.636   2.955
    3OL     C1911094   5.912   5.559   2.802
    3OL     H9R11095   5.886   5.643   2.739
    3OL    C11011096   6.018   5.484   2.775
    3OL    H10R11097   6.070   5.516   2.685
    3OL    C11111098   6.062   5.354   2.837
    3OL    H11R11099   6.085   5.283   2.756
    3OL    H11S11100   5.985   5.302   2.894
    3OL    C11211101   6.190   5.364   2.920
    3OL    H12R11102   6.265   5.427   2.872
    3OL    H12S11103   6.234   5.266   2.940
    3OL    C11311104   6.160   5.424   3.058
    3OL    H13R11105   6.081   5.363   3.101
    3OL    H13S11106   6.125   5.528   3.055
    3OL    C11411107   6.286   5.416   3.146
    3OL    H14R11108   6.336   5.322   3.122
    3OL    H14S11109   6.258   5.407   3.252
    3OL    C11511110   6.378   5.535   3.115
    3OL    H15R11111   6.318   5.620   3.150
    3OL    H15S11112   6.406   5.542   3.010
    3OL    C11611113   6.509   5.525   3.194
    3OL    H16R11114   6.573   5.462   3.132
    3OL    H16S11115   6.486   5.490   3.295
    3OL    C11711116   6.586   5.658   3.196
    3OL    H17R11117   6.670   5.652   3.265
    3OL    H17S11118   6.518   5.735   3.233
    3OL    C11811119   6.631   5.694   3.053
    3OL    H18R11120   6.649   5.801   3.057
    3OL    H18S11121   6.557   5.684   2.974
    3OL    H18T11122   6.718   5.635   3.022
    1PA    C11611123  -0.762   4.175   3.552
    1PA    H16R11124  -0.828   4.146   3.470
    1PA    H16S11125  -0.733   4.280   3.542
    1PA    H16T11126  -0.817   4.170   3.646
    1PA    C11511127  -0.632   4.094   3.566
    1PA    H15R11128  -0.553   4.135   3.503
    1PA    H15S11129  -0.585   4.100   3.665
    1PA    C11411130  -0.656   3.946   3.535
    1PA    H14R11131  -0.576   3.883   3.574
    1PA    H14S11132  -0.744   3.913   3.590
    1PA    C11311133  -0.675   3.926   3.384
    1PA    H13R11134  -0.752   3.992   3.344
    1PA    H13S11135  -0.580   3.949   3.336
    1PA    C11211136  -0.706   3.776   3.369
    1PA    H12R11137  -0.635   3.712   3.421
    1PA    H12S11138  -0.806   3.764   3.411
    1PA    C11111139  -0.725   3.744   3.220
    1PA    H11R11140  -0.793   3.660   3.209
    1PA    H11S11141  -0.755   3.833   3.163
    1PA    C11011142  -0.594   3.687   3.163
    1PA    H10R11143  -0.511   3.751   3.195
    1PA    H10S11144  -0.567   3.592   3.209
    1PA     C1911145  -0.598   3.668   3.011
    1PA     H9R11146  -0.683   3.612   2.973
    1PA     H9S11147  -0.594   3.769   2.969
    1PA     C1811148  -0.472   3.599   2.957
    1PA     H8R11149  -0.383   3.656   2.985
    1PA     H8S11150  -0.453   3.498   2.995
    1PA     C1711151  -0.472   3.582   2.805
    1PA     H7R11152  -0.545   3.504   2.784
    1PA     H7S11153  -0.506   3.675   2.758
    1PA     C1611154  -0.336   3.535   2.752
    1PA     H6R11155  -0.265   3.610   2.786
    1PA     H6S11156  -0.310   3.441   2.803
    1PA     C1511157  -0.338   3.503   2.602
    1PA     H5R11158  -0.410   3.423   2.584
    1PA     H5S11159  -0.366   3.598   2.555
    1PA     C1411160  -0.198   3.460   2.557
    1PA     H4R11161  -0.117   3.529   2.584
    1PA     H4S11162  -0.161   3.367   2.601
    1PA     C1311163  -0.204   3.460   2.403
    1PA     H3R11164  -0.281   3.392   2.367
    1PA     H3S11165  -0.239   3.556   2.367
    1PA     C1211166  -0.065   3.422   2.349
    1PA     H2R11167  -0.005   3.512   2.349
    1PA     H2S11168  -0.023   3.343   2.412
    2PC     C1111169  -0.069   3.389   2.202
    2PC     O1211170  -0.156   3.416   2.121
    2PC     O1111171   0.036   3.312   2.169
    2PC      C111172   0.031   3.236   2.047
    2PC      HR11173   0.098   3.151   2.060
    2PC      HS11174  -0.068   3.194   2.026
    2PC      C211175   0.083   3.321   1.931
    2PC      HX11176   0.012   3.397   1.898
    2PC      C311177   0.095   3.227   1.810
    2PC      HA11178   0.190   3.174   1.812
    2PC      HB11179   0.014   3.154   1.817
    2PC     O3111180   0.088   3.309   1.692
    2PC     P3111181   0.130   3.246   1.551
    2PC     O3211182   0.232   3.364   1.515
    2PC     C3111183   0.359   3.352   1.582
    2PC     H1A11184   0.349   3.341   1.691
    2PC     H1B11185   0.402   3.265   1.533
    2PC     C3211186   0.427   3.485   1.548
    2PC     H2A11187   0.533   3.461   1.538
    2PC     H2B11188   0.398   3.523   1.450
    2PC     N3111189   0.415   3.599   1.644
    2PC     C3311190   0.503   3.586   1.764
    2PC     H3A11191   0.514   3.684   1.810
    2PC     H3B11192   0.463   3.517   1.839
    2PC     H3C11193   0.602   3.555   1.732
    2PC     C3411194   0.454   3.724   1.570
    2PC     H4A11195   0.459   3.812   1.634
    2PC     H4B11196   0.543   3.707   1.509
    2PC     H4C11197   0.377   3.753   1.498
    2PC     C3511198   0.277   3.605   1.702
    2PC     H5A11199   0.217   3.666   1.635
    2PC     H5B11200   0.286   3.661   1.796
    2PC     H5C11201   0.231   3.509   1.725
    2PC     O3311202   0.193   3.112   1.542
    2PC     O3411203   0.027   3.235   1.445
    2PC     O2111204   0.210   3.375   1.972
    2PC     C2111205   0.215   3.490   2.041
    2PC     O2211206   0.119   3.563   2.058
    3OL     C1211207   0.351   3.518   2.100
    3OL     H2R11208   0.416   3.546   2.017
    3OL     H2S11209   0.396   3.429   2.145
    3OL     C1311210   0.360   3.615   2.219
    3OL     H3R11211   0.306   3.571   2.304
    3OL     H3S11212   0.299   3.703   2.193
    3OL     C1411213   0.501   3.661   2.256
    3OL     H4R11214   0.557   3.721   2.184
    3OL     H4S11215   0.560   3.575   2.286
    3OL     C1511216   0.481   3.750   2.381
    3OL     H5R11217   0.436   3.688   2.458
    3OL     H5S11218   0.413   3.834   2.368
    3OL     C1611219   0.609   3.814   2.437
    3OL     H6R11220   0.570   3.900   2.492
    3OL     H6S11221   0.671   3.850   2.355
    3OL     C1711222   0.694   3.722   2.527
    3OL     H7R11223   0.765   3.785   2.581
    3OL     H7S11224   0.743   3.646   2.467
    3OL     C1811225   0.622   3.635   2.631
    3OL     H8R11226   0.695   3.592   2.699
    3OL     H8S11227   0.562   3.567   2.571
    3OL     C1911228   0.541   3.719   2.726
    3OL     H9R11229   0.486   3.802   2.682
    3OL    C11011230   0.523   3.703   2.856
    3OL    H10R11231   0.457   3.771   2.908
    3OL    C11111232   0.591   3.602   2.947
    3OL    H11R11233   0.690   3.573   2.913
    3OL    H11S11234   0.533   3.512   2.965
    3OL    C11211235   0.600   3.669   3.085
    3OL    H12R11236   0.654   3.764   3.086
    3OL    H12S11237   0.654   3.597   3.146
    3OL    C11311238   0.457   3.681   3.141
    3OL    H13R11239   0.385   3.702   3.062
    3OL    H13S11240   0.460   3.771   3.202
    3OL    C11411241   0.410   3.558   3.221
    3OL    H14R11242   0.441   3.469   3.166
    3OL    H14S11243   0.302   3.564   3.234
    3OL    C11511244   0.479   3.551   3.358
    3OL    H15R11245   0.469   3.648   3.409
    3OL    H15S11246   0.587   3.539   3.352
    3OL    C11611247   0.419   3.432   3.434
    3OL    H16R11248   0.495   3.397   3.505
    3OL    H16S11249   0.391   3.351   3.366
    3OL    C11711250   0.296   3.489   3.505
    3OL    H17R11251   0.219   3.522   3.434
    3OL    H17S11252   0.326   3.577   3.562
    3OL    C11811253   0.242   3.372   3.588
    3OL    H18R11254   0.320   3.315   3.638
    3OL    H18S11255   0.193   3.301   3.520
    3OL    H18T11256   0.167   3.427   3.645
    1PA    C11611257   0.797   3.378   3.642
    1PA    H16R11258   0.692   3.405   3.628
    1PA    H16S11259   0.846   3.436   3.720
    1PA    H16T11260   0.794   3.271   3.667
    1PA    C11511261   0.879   3.401   3.514
    1PA    H15R11262   0.886   3.506   3.487
    1PA    H15S11263   0.971   3.345   3.529
    1PA    C11411264   0.827   3.352   3.378
    1PA    H14R11265   0.864   3.249   3.374
    1PA    H14S11266   0.719   3.367   3.377
    1PA    C11311267   0.883   3.421   3.253
    1PA    H13R11268   0.827   3.514   3.248
    1PA    H13S11269   0.986   3.442   3.283
    1PA    C11211270   0.865   3.344   3.122
    1PA    H12R11271   0.888   3.239   3.142
    1PA    H12S11272   0.761   3.344   3.087
    1PA    C11111273   0.953   3.409   3.014
    1PA    H11R11274   0.946   3.518   3.023
    1PA    H11S11275   1.061   3.395   3.022
    1PA    C11011276   0.905   3.370   2.874
    1PA    H10R11277   0.915   3.262   2.858
    1PA    H10S11278   0.806   3.409   2.848
    1PA     C1911279   1.012   3.425   2.779
    1PA     H9R11280   1.114   3.415   2.817
    1PA     H9S11281   1.009   3.367   2.687
    1PA     C1811282   0.996   3.574   2.748
    1PA     H8R11283   0.894   3.606   2.727
    1PA     H8S11284   1.026   3.642   2.828
    1PA     C1711285   1.079   3.608   2.623
    1PA     H7R11286   1.181   3.570   2.627
    1PA     H7S11287   1.032   3.546   2.546
    1PA     C1611288   1.074   3.760   2.603
    1PA     H6R11289   0.969   3.786   2.589
    1PA     H6S11290   1.112   3.816   2.689
    1PA     C1511291   1.154   3.808   2.481
    1PA     H5R11292   1.135   3.916   2.481
    1PA     H5S11293   1.260   3.785   2.493
    1PA     C1411294   1.115   3.751   2.344
    1PA     H4R11295   1.108   3.642   2.348
    1PA     H4S11296   1.013   3.789   2.334
    1PA     C1311297   1.215   3.799   2.237
    1PA     H3R11298   1.215   3.908   2.234
    1PA     H3S11299   1.313   3.759   2.262
    1PA     C1211300   1.168   3.757   2.097
    1PA     H2R11301   1.203   3.654   2.084
    1PA     H2S11302   1.060   3.759   2.085
    2PC     C1111303   1.228   3.844   1.989
    2PC     O1211304   1.224   3.818   1.871
    2PC     O1111305   1.292   3.954   2.033
    2PC      C111306   1.350   4.042   1.936
    2PC      HR11307   1.407   4.121   1.986
    2PC      HS11308   1.417   3.983   1.872
    2PC      C211309   1.237   4.113   1.861
    2PC      HX11310   1.170   4.042   1.812
    2PC      C311311   1.293   4.212   1.757
    2PC      HA11312   1.332   4.299   1.810
    2PC      HB11313   1.364   4.161   1.691
    2PC     O3111314   1.178   4.243   1.675
    2PC     P3111315   1.206   4.318   1.536
    2PC     O3211316   1.081   4.248   1.465
    2PC     C3111317   1.106   4.177   1.343
    2PC     H1A11318   1.178   4.228   1.278
    2PC     H1B11319   1.160   4.083   1.359
    2PC     C3211320   0.978   4.140   1.267
    2PC     H2A11321   0.994   4.076   1.181
    2PC     H2B11322   0.927   4.075   1.338
    2PC     N3111323   0.876   4.247   1.237
    2PC     C3311324   0.800   4.284   1.360
    2PC     H3A11325   0.718   4.349   1.330
    2PC     H3B11326   0.762   4.193   1.408
    2PC     H3C11327   0.855   4.338   1.437
    2PC     C3411328   0.935   4.368   1.171
    2PC     H4A11329   0.857   4.443   1.159
    2PC     H4B11330   1.007   4.408   1.242
    2PC     H4C11331   0.994   4.337   1.085
    2PC     C3511332   0.772   4.181   1.152
    2PC     H5A11333   0.826   4.122   1.078
    2PC     H5B11334   0.714   4.263   1.108
    2PC     H5C11335   0.713   4.112   1.212
    2PC     O3311336   1.181   4.464   1.533
    2PC     O3411337   1.343   4.295   1.486
    2PC     O2111338   1.169   4.181   1.967
    2PC     C2111339   1.049   4.137   2.008
    2PC     O2211340   0.994   4.039   1.962
    3OL     C1211341   1.002   4.214   2.129
    3OL     H2R11342   0.928   4.285   2.091
    3OL     H2S11343   1.084   4.279   2.158
    3OL     C1311344   0.944   4.136   2.248
    3OL     H3R11345   1.032   4.078   2.276
    3OL     H3S11346   0.860   4.071   2.224
    3OL     C1411347   0.894   4.230   2.358
    3OL     H4R11348   0.809   4.288   2.322
    3OL     H4S11349   0.972   4.302   2.385
    3OL     C1511350   0.854   4.144   2.479
    3OL     H5R11351   0.934   4.072   2.496
    3OL     H5S11352   0.768   4.082   2.456
    3OL     C1611353   0.829   4.237   2.599
    3OL     H6R11354   0.767   4.322   2.571
    3OL     H6S11355   0.926   4.270   2.637
    3OL     C1711356   0.768   4.152   2.712
    3OL     H7R11357   0.711   4.070   2.668
    3OL     H7S11358   0.710   4.229   2.763
    3OL     C1811359   0.865   4.086   2.811
    3OL     H8R11360   0.929   4.167   2.848
    3OL     H8S11361   0.920   4.007   2.760
    3OL     C1911362   0.790   4.014   2.920
    3OL     H9R11363   0.733   3.931   2.879
    3OL    C11011364   0.797   4.039   3.050
    3OL    H10R11365   0.752   3.968   3.118
    3OL    C11111366   0.895   4.132   3.118
    3OL    H11R11367   0.840   4.220   3.152
    3OL    H11S11368   0.974   4.169   3.051
    3OL    C11211369   0.967   4.060   3.232
    3OL    H12R11370   1.028   3.989   3.174
    3OL    H12S11371   0.909   4.000   3.302
    3OL    C11311372   1.046   4.163   3.313
    3OL    H13R11373   0.982   4.240   3.356
    3OL    H13S11374   1.121   4.220   3.257
    3OL    C11411375   1.125   4.104   3.431
    3OL    H14R11376   1.192   4.021   3.409
    3OL    H14S11377   1.053   4.068   3.506
    3OL    C11511378   1.212   4.211   3.498
    3OL    H15R11379   1.150   4.285   3.550
    3OL    H15S11380   1.278   4.263   3.428
    3OL    C11611381   1.307   4.144   3.598
    3OL    H16R11382   1.364   4.067   3.545
    3OL    H16S11383   1.246   4.104   3.679
    3OL    C11711384   1.397   4.249   3.665
    3OL    H17R11385   1.453   4.214   3.752
    3OL    H17S11386   1.336   4.334   3.696
    3OL    C11811387   1.503   4.289   3.561
    3OL    H18R11388   1.474   4.348   3.474
    3OL    H18S11389   1.543   4.200   3.512
    3OL    H18T11390   1.591   4.327   3.614
    1PA    C11611391   2.329   0.533   4.187
    1PA    H16R11392   2.222   0.542   4.167
    1PA    H16S11393   2.384   0.618   4.147
    1PA    H16T11394   2.338   0.529   4.295
    1PA    C11511395   2.387   0.404   4.126
    1PA    H15R11396   2.495   0.420   4.127
    1PA    H15S11397   2.356   0.314   4.179
    1PA    C11411398   2.347   0.387   3.979
    1PA    H14R11399   2.355   0.481   3.924
    1PA    H14S11400   2.417   0.318   3.930
    1PA    C11311401   2.201   0.340   3.968
    1PA    H13R11402   2.205   0.242   4.017
    1PA    H13S11403   2.135   0.406   4.026
    1PA    C11211404   2.152   0.317   3.825
    1PA    H12R11405   2.229   0.265   3.767
    1PA    H12S11406   2.071   0.248   3.802
    1PA    C11111407   2.124   0.457   3.769
    1PA    H11R11408   2.058   0.506   3.841
    1PA    H11S11409   2.218   0.511   3.760
    1PA    C11011410   2.056   0.461   3.631
    1PA    H10R11411   1.960   0.408   3.632
    1PA    H10S11412   2.035   0.563   3.600
    1PA     C1911413   2.142   0.395   3.523
    1PA     H9R11414   2.182   0.296   3.546
    1PA     H9S11415   2.086   0.389   3.430
    1PA     C1811416   2.272   0.474   3.499
    1PA     H8R11417   2.252   0.581   3.496
    1PA     H8S11418   2.336   0.459   3.587
    1PA     C1711419   2.356   0.429   3.379
    1PA     H7R11420   2.458   0.469   3.383
    1PA     H7S11421   2.370   0.321   3.387
    1PA     C1611422   2.301   0.471   3.242
    1PA     H6R11423   2.204   0.426   3.222
    1PA     H6S11424   2.284   0.579   3.240
    1PA     C1511425   2.398   0.419   3.135
    1PA     H5R11426   2.429   0.317   3.158
    1PA     H5S11427   2.354   0.414   3.035
    1PA     C1411428   2.531   0.495   3.127
    1PA     H4R11429   2.519   0.602   3.147
    1PA     H4S11430   2.588   0.470   3.216
    1PA     C1311431   2.601   0.473   2.992
    1PA     H3R11432   2.594   0.374   2.946
    1PA     H3S11433   2.554   0.548   2.929
    1PA     C1211434   2.753   0.496   2.991
    1PA     H2R11435   2.773   0.598   3.024
    1PA     H2S11436   2.805   0.419   3.048
    2PC     C1111437   2.810   0.478   2.852
    2PC     O1211438   2.927   0.448   2.838
    2PC     O1111439   2.717   0.498   2.758
    2PC      C111440   2.741   0.485   2.616
    2PC      HR11441   2.654   0.528   2.567
    2PC      HS11442   2.833   0.537   2.587
    2PC      C211443   2.744   0.333   2.593
    2PC      HX11444   2.824   0.290   2.654
    2PC      C311445   2.759   0.283   2.448
    2PC      HA11446   2.858   0.306   2.407
    2PC      HB11447   2.750   0.175   2.456
    2PC     O3111448   2.651   0.328   2.363
    2PC     P3111449   2.654   0.277   2.211
    2PC     O3211450   2.631   0.120   2.236
    2PC     C3111451   2.563   0.043   2.136
    2PC     H1A11452   2.457   0.067   2.121
    2PC     H1B11453   2.620   0.055   2.044
    2PC     C3211454   2.577  -0.102   2.185
    2PC     H2A11455   2.559  -0.175   2.106
    2PC     H2B11456   2.677  -0.129   2.219
    2PC     N3111457   2.485  -0.147   2.295
    2PC     C3311458   2.521  -0.292   2.314
    2PC     H3A11459   2.507  -0.343   2.219
    2PC     H3B11460   2.624  -0.297   2.348
    2PC     H3C11461   2.454  -0.320   2.395
    2PC     C3411462   2.509  -0.065   2.418
    2PC     H4A11463   2.616  -0.044   2.417
    2PC     H4B11464   2.449   0.026   2.409
    2PC     H4C11465   2.483  -0.132   2.500
    2PC     C3511466   2.342  -0.141   2.249
    2PC     H5A11467   2.330  -0.220   2.175
    2PC     H5B11468   2.314  -0.040   2.222
    2PC     H5C11469   2.280  -0.171   2.333
    2PC     O3311470   2.558   0.344   2.121
    2PC     O3411471   2.781   0.298   2.138
    2PC     O2111472   2.622   0.282   2.649
    2PC     C2111473   2.621   0.155   2.693
    2PC     O2211474   2.701   0.065   2.677
    3OL     C1211475   2.490   0.138   2.765
    3OL     H2R11476   2.405   0.180   2.710
    3OL     H2S11477   2.515   0.195   2.855
    3OL     C1311478   2.461  -0.009   2.800
    3OL     H3R11479   2.538  -0.038   2.872
    3OL     H3S11480   2.471  -0.073   2.712
    3OL     C1411481   2.325  -0.041   2.863
    3OL     H4R11482   2.305  -0.148   2.863
    3OL     H4S11483   2.250  -0.009   2.790
    3OL     C1511484   2.301   0.017   3.003
    3OL     H5R11485   2.309   0.125   2.991
    3OL     H5S11486   2.382  -0.008   3.072
    3OL     C1611487   2.162  -0.017   3.058
    3OL     H6R11488   2.155  -0.126   3.060
    3OL     H6S11489   2.089   0.014   2.984
    3OL     C1711490   2.125   0.060   3.186
    3OL     H7R11491   2.021   0.035   3.210
    3OL     H7S11492   2.142   0.164   3.160
    3OL     C1811493   2.205   0.026   3.312
    3OL     H8R11494   2.189   0.112   3.377
    3OL     H8S11495   2.312   0.027   3.290
    3OL     C1911496   2.166  -0.111   3.362
    3OL     H9R11497   2.145  -0.182   3.283
    3OL    C11011498   2.159  -0.137   3.491
    3OL    H10R11499   2.111  -0.230   3.522
    3OL    C11111500   2.197  -0.040   3.600
    3OL    H11R11501   2.104   0.008   3.630
    3OL    H11S11502   2.264   0.039   3.564
    3OL    C11211503   2.255  -0.114   3.722
    3OL    H12R11504   2.342  -0.175   3.698
    3OL    H12S11505   2.180  -0.186   3.757
    3OL    C11311506   2.292  -0.014   3.832
    3OL    H13R11507   2.193   0.024   3.860
    3OL    H13S11508   2.364   0.062   3.802
    3OL    C11411509   2.344  -0.098   3.949
    3OL    H14R11510   2.413  -0.175   3.915
    3OL    H14S11511   2.262  -0.160   3.986
    3OL    C11511512   2.394  -0.007   4.062
    3OL    H15R11513   2.329   0.070   4.104
    3OL    H15S11514   2.471   0.056   4.018
    3OL    C11611515   2.473  -0.079   4.172
    3OL    H16R11516   2.558  -0.126   4.122
    3OL    H16S11517   2.411  -0.164   4.202
    3OL    C11711518   2.511   0.004   4.295
    3OL    H17R11519   2.568   0.094   4.271
    3OL    H17S11520   2.574  -0.057   4.360
    3OL    C11811521   2.384   0.050   4.367
    3OL    H18R11522   2.322  -0.040   4.379
    3OL    H18S11523   2.324   0.127   4.318
    3OL    H18T11524   2.407   0.085   4.468
    1PA    C11611525   1.136   3.640   3.612
    1PA    H16R11526   1.186   3.652   3.709
    1PA    H16S11527   1.148   3.533   3.591
    1PA    H16T11528   1.030   3.666   3.623
    1PA    C11511529   1.213   3.715   3.503
    1PA    H15R11530   1.220   3.824   3.505
    1PA    H15S11531   1.316   3.680   3.510
    1PA    C11411532   1.158   3.687   3.362
    1PA    H14R11533   1.147   3.579   3.352
    1PA    H14S11534   1.055   3.721   3.350
    1PA    C11311535   1.248   3.747   3.253
    1PA    H13R11536   1.234   3.855   3.254
    1PA    H13S11537   1.348   3.718   3.284
    1PA    C11211538   1.210   3.695   3.114
    1PA    H12R11539   1.229   3.588   3.117
    1PA    H12S11540   1.105   3.711   3.088
    1PA    C11111541   1.295   3.751   2.999
    1PA    H11R11542   1.402   3.733   3.010
    1PA    H11S11543   1.260   3.705   2.905
    1PA    C11011544   1.258   3.897   2.970
    1PA    H10R11545   1.152   3.902   2.946
    1PA    H10S11546   1.265   3.952   3.064
    1PA     C1911547   1.345   3.957   2.858
    1PA     H9R11548   1.448   3.952   2.893
    1PA     H9S11549   1.326   3.901   2.766
    1PA     C1811550   1.293   4.099   2.833
    1PA     H8R11551   1.186   4.099   2.813
    1PA     H8S11552   1.299   4.151   2.929
    1PA     C1711553   1.369   4.175   2.723
    1PA     H7R11554   1.320   4.273   2.721
    1PA     H7S11555   1.475   4.194   2.740
    1PA     C1611556   1.349   4.115   2.583
    1PA     H6R11557   1.384   4.011   2.586
    1PA     H6S11558   1.243   4.103   2.558
    1PA     C1511559   1.427   4.191   2.475
    1PA     H5R11560   1.516   4.238   2.519
    1PA     H5S11561   1.450   4.120   2.396
    1PA     C1411562   1.339   4.301   2.415
    1PA     H4R11563   1.241   4.260   2.389
    1PA     H4S11564   1.319   4.392   2.472
    1PA     C1311565   1.397   4.354   2.283
    1PA     H3R11566   1.418   4.274   2.211
    1PA     H3S11567   1.328   4.421   2.232
    1PA     C1211568   1.521   4.441   2.309
    1PA     H2R11569   1.491   4.514   2.384
    1PA     H2S11570   1.609   4.387   2.345
    2PC     C1111571   1.567   4.524   2.192
    2PC     O1211572   1.544   4.492   2.078
    2PC     O1111573   1.650   4.622   2.231
    2PC      C111574   1.687   4.732   2.145
    2PC      HR11575   1.768   4.791   2.188
    2PC      HS11576   1.722   4.676   2.058
    2PC      C211577   1.573   4.823   2.096
    2PC      HX11578   1.486   4.765   2.066
    2PC      C311579   1.617   4.899   1.970
    2PC      HA11580   1.709   4.954   1.991
    2PC      HB11581   1.637   4.840   1.881
    2PC     O3111582   1.516   4.997   1.936
    2PC     P3111583   1.388   4.947   1.855
    2PC     O3211584   1.430   5.023   1.720
    2PC     C3111585   1.376   5.157   1.709
    2PC     H1A11586   1.267   5.154   1.712
    2PC     H1B11587   1.404   5.211   1.800
    2PC     C3211588   1.457   5.212   1.591
    2PC     H2A11589   1.454   5.321   1.595
    2PC     H2B11590   1.558   5.173   1.606
    2PC     N3111591   1.418   5.171   1.452
    2PC     C3311592   1.402   5.023   1.435
    2PC     H3A11593   1.503   4.983   1.429
    2PC     H3B11594   1.351   4.990   1.525
    2PC     H3C11595   1.341   5.008   1.346
    2PC     C3411596   1.290   5.243   1.423
    2PC     H4A11597   1.311   5.345   1.389
    2PC     H4B11598   1.237   5.177   1.355
    2PC     H4C11599   1.230   5.251   1.514
    2PC     C3511600   1.522   5.213   1.353
    2PC     H5A11601   1.618   5.167   1.373
    2PC     H5B11602   1.536   5.321   1.346
    2PC     H5C11603   1.493   5.182   1.252
    2PC     O3311604   1.380   4.800   1.852
    2PC     O3411605   1.263   5.002   1.913
    2PC     O2111606   1.548   4.911   2.207
    2PC     C2111607   1.456   4.889   2.303
    2PC     O2211608   1.368   4.806   2.293
    3OL     C1211609   1.473   4.971   2.428
    3OL     H2R11610   1.462   5.078   2.413
    3OL     H2S11611   1.571   4.947   2.469
    3OL     C1311612   1.379   4.935   2.545
    3OL     H3R11613   1.384   4.829   2.569
    3OL     H3S11614   1.273   4.956   2.534
    3OL     C1411615   1.406   5.014   2.674
    3OL     H4R11616   1.371   5.117   2.660
    3OL     H4S11617   1.513   5.007   2.692
    3OL     C1511618   1.322   4.963   2.792
    3OL     H5R11619   1.365   4.864   2.809
    3OL     H5S11620   1.215   4.952   2.774
    3OL     C1611621   1.339   5.060   2.910
    3OL     H6R11622   1.438   5.107   2.913
    3OL     H6S11623   1.335   5.006   3.005
    3OL     C1711624   1.230   5.167   2.902
    3OL     H7R11625   1.135   5.114   2.920
    3OL     H7S11626   1.229   5.210   2.802
    3OL     C1811627   1.245   5.284   3.000
    3OL     H8R11628   1.152   5.341   2.992
    3OL     H8S11629   1.311   5.356   2.951
    3OL     C1911630   1.289   5.240   3.138
    3OL     H9R11631   1.385   5.190   3.130
    3OL    C11011632   1.239   5.282   3.253
    3OL    H10R11633   1.307   5.261   3.335
    3OL    C11111634   1.127   5.381   3.273
    3OL    H11R11635   1.039   5.315   3.277
    3OL    H11S11636   1.111   5.449   3.189
    3OL    C11211637   1.139   5.448   3.411
    3OL    H12R11638   1.242   5.475   3.438
    3OL    H12S11639   1.108   5.377   3.487
    3OL    C11311640   1.060   5.579   3.411
    3OL    H13R11641   1.102   5.636   3.328
    3OL    H13S11642   1.075   5.639   3.501
    3OL    C11411643   0.909   5.568   3.387
    3OL    H14R11644   0.849   5.539   3.474
    3OL    H14S11645   0.892   5.488   3.315
    3OL    C11511646   0.847   5.701   3.339
    3OL    H15R11647   0.752   5.671   3.295
    3OL    H15S11648   0.915   5.741   3.264
    3OL    C11611649   0.816   5.802   3.450
    3OL    H16R11650   0.883   5.802   3.536
    3OL    H16S11651   0.720   5.766   3.488
    3OL    C11711652   0.801   5.944   3.393
    3OL    H17R11653   0.727   5.940   3.314
    3OL    H17S11654   0.899   5.972   3.352
    3OL    C11811655   0.750   6.038   3.503
    3OL    H18R11656   0.834   6.061   3.570
    3OL    H18S11657   0.669   5.989   3.556
    3OL    H18T11658   0.712   6.132   3.461
    1PA    C11611659   4.798  -0.942   4.290
    1PA    H16R11660   4.699  -0.978   4.322
    1PA    H16S11661   4.799  -0.840   4.328
    1PA    H16T11662   4.875  -1.007   4.331
    1PA    C11511663   4.804  -0.962   4.138
    1PA    H15R11664   4.888  -0.922   4.082
    1PA    H15S11665   4.809  -1.069   4.114
    1PA    C11411666   4.678  -0.910   4.066
    1PA    H14R11667   4.590  -0.951   4.116
    1PA    H14S11668   4.675  -0.806   4.099
    1PA    C11311669   4.667  -0.926   3.914
    1PA    H13R11670   4.764  -0.896   3.874
    1PA    H13S11671   4.657  -1.033   3.895
    1PA    C11211672   4.548  -0.850   3.855
    1PA    H12R11673   4.455  -0.880   3.904
    1PA    H12S11674   4.565  -0.748   3.891
    1PA    C11111675   4.539  -0.863   3.703
    1PA    H11R11676   4.633  -0.822   3.666
    1PA    H11S11677   4.539  -0.965   3.664
    1PA    C11011678   4.427  -0.778   3.643
    1PA    H10R11679   4.323  -0.805   3.662
    1PA    H10S11680   4.436  -0.678   3.687
    1PA     C1911681   4.433  -0.764   3.490
    1PA     H9R11682   4.536  -0.745   3.458
    1PA     H9S11683   4.406  -0.857   3.439
    1PA     C1811684   4.330  -0.660   3.446
    1PA     H8R11685   4.227  -0.685   3.473
    1PA     H8S11686   4.345  -0.567   3.501
    1PA     C1711687   4.340  -0.639   3.294
    1PA     H7R11688   4.441  -0.616   3.259
    1PA     H7S11689   4.311  -0.732   3.245
    1PA     C1611690   4.248  -0.524   3.252
    1PA     H6R11691   4.149  -0.546   3.292
    1PA     H6S11692   4.279  -0.431   3.300
    1PA     C1511693   4.249  -0.502   3.100
    1PA     H5R11694   4.350  -0.478   3.068
    1PA     H5S11695   4.203  -0.584   3.045
    1PA     C1411696   4.165  -0.375   3.075
    1PA     H4R11697   4.060  -0.383   3.105
    1PA     H4S11698   4.192  -0.283   3.128
    1PA     C1311699   4.170  -0.357   2.923
    1PA     H3R11700   4.268  -0.323   2.891
    1PA     H3S11701   4.155  -0.452   2.871
    1PA     C1211702   4.078  -0.252   2.859
    1PA     H2R11703   3.973  -0.278   2.863
    1PA     H2S11704   4.088  -0.159   2.916
    2PC     C1111705   4.113  -0.217   2.717
    2PC     O1211706   4.096  -0.297   2.626
    2PC     O1111707   4.154  -0.090   2.702
    2PC      C111708   4.207  -0.042   2.577
    2PC      HR11709   4.268   0.046   2.599
    2PC      HS11710   4.273  -0.117   2.532
    2PC      C211711   4.095   0.010   2.486
    2PC      HX11712   4.027  -0.074   2.468
    2PC      C311713   4.152   0.071   2.357
    2PC      HA11714   4.211   0.155   2.393
    2PC      HB11715   4.216   0.002   2.301
    2PC     O3111716   4.051   0.124   2.269
    2PC     P3111717   4.101   0.156   2.121
    2PC     O3211718   3.961   0.165   2.044
    2PC     C3111719   3.874   0.276   2.075
    2PC     H1A11720   3.867   0.302   2.181
    2PC     H1B11721   3.927   0.362   2.034
    2PC     C3211722   3.738   0.256   2.008
    2PC     H2A11723   3.699   0.156   2.027
    2PC     H2B11724   3.656   0.314   2.054
    2PC     N3111725   3.739   0.285   1.861
    2PC     C3311726   3.608   0.240   1.804
    2PC     H3A11727   3.603   0.272   1.700
    2PC     H3B11728   3.605   0.131   1.813
    2PC     H3C11729   3.531   0.294   1.859
    2PC     C3411730   3.762   0.430   1.832
    2PC     H4A11731   3.865   0.467   1.841
    2PC     H4B11732   3.720   0.450   1.733
    2PC     H4C11733   3.709   0.482   1.912
    2PC     C3511734   3.846   0.203   1.797
    2PC     H5A11735   3.934   0.250   1.842
    2PC     H5B11736   3.848   0.213   1.688
    2PC     H5C11737   3.836   0.099   1.829
    2PC     O3311738   4.188   0.274   2.100
    2PC     O3411739   4.169   0.044   2.052
    2PC     O2111740   4.025   0.103   2.571
    2PC     C2111741   3.904   0.142   2.527
    2PC     O2211742   3.823   0.080   2.462
    3OL     C1211743   3.876   0.282   2.577
    3OL     H2R11744   3.850   0.344   2.491
    3OL     H2S11745   3.967   0.319   2.626
    3OL     C1311746   3.754   0.284   2.670
    3OL     H3R11747   3.769   0.220   2.757
    3OL     H3S11748   3.661   0.253   2.622
    3OL     C1411749   3.726   0.427   2.720
    3OL     H4R11750   3.698   0.482   2.629
    3OL     H4S11751   3.821   0.462   2.759
    3OL     C1511752   3.613   0.441   2.823
    3OL     H5R11753   3.661   0.396   2.910
    3OL     H5S11754   3.520   0.390   2.796
    3OL     C1611755   3.573   0.587   2.848
    3OL     H6R11756   3.464   0.594   2.848
    3OL     H6S11757   3.593   0.650   2.761
    3OL     C1711758   3.629   0.634   2.983
    3OL     H7R11759   3.737   0.627   2.979
    3OL     H7S11760   3.601   0.564   3.062
    3OL     C1811761   3.600   0.782   3.012
    3OL     H8R11762   3.495   0.810   3.005
    3OL     H8S11763   3.652   0.826   2.926
    3OL     C1911764   3.663   0.845   3.134
    3OL     H9R11765   3.771   0.838   3.140
    3OL    C11011766   3.591   0.909   3.225
    3OL    H10R11767   3.637   0.969   3.303
    3OL    C11111768   3.441   0.918   3.214
    3OL    H11R11769   3.404   0.816   3.223
    3OL    H11S11770   3.415   0.964   3.119
    3OL    C11211771   3.389   1.010   3.326
    3OL    H12R11772   3.426   1.112   3.313
    3OL    H12S11773   3.416   0.975   3.426
    3OL    C11311774   3.238   1.035   3.312
    3OL    H13R11775   3.188   0.945   3.348
    3OL    H13S11776   3.207   1.039   3.207
    3OL    C11411777   3.194   1.150   3.404
    3OL    H14R11778   3.205   1.251   3.364
    3OL    H14S11779   3.249   1.145   3.499
    3OL    C11511780   3.049   1.136   3.452
    3OL    H15R11781   3.042   1.059   3.529
    3OL    H15S11782   2.980   1.111   3.371
    3OL    C11611783   3.010   1.268   3.520
    3OL    H16R11784   3.035   1.350   3.454
    3OL    H16S11785   3.083   1.279   3.601
    3OL    C11711786   2.867   1.292   3.570
    3OL    H17R11787   2.844   1.224   3.652
    3OL    H17S11788   2.800   1.257   3.492
    3OL    C11811789   2.845   1.440   3.607
    3OL    H18R11790   2.859   1.501   3.518
    3OL    H18S11791   2.927   1.462   3.676
    3OL    H18T11792   2.750   1.455   3.657
    1PA    C11611793   2.666  -0.345   3.695
    1PA    H16R11794   2.720  -0.330   3.601
    1PA    H16S11795   2.568  -0.380   3.660
    1PA    H16T11796   2.712  -0.427   3.749
    1PA    C11511797   2.647  -0.217   3.778
    1PA    H15R11798   2.564  -0.157   3.741
    1PA    H15S11799   2.613  -0.244   3.878
    1PA    C11411800   2.777  -0.136   3.793
    1PA    H14R11801   2.852  -0.207   3.828
    1PA    H14S11802   2.820  -0.111   3.696
    1PA    C11311803   2.753  -0.013   3.880
    1PA    H13R11804   2.703  -0.046   3.972
    1PA    H13S11805   2.847   0.036   3.911
    1PA    C11211806   2.662   0.096   3.823
    1PA    H12R11807   2.565   0.056   3.792
    1PA    H12S11808   2.639   0.170   3.901
    1PA    C11111809   2.736   0.172   3.712
    1PA    H11R11810   2.819   0.230   3.754
    1PA    H11S11811   2.782   0.105   3.639
    1PA    C11011812   2.653   0.267   3.626
    1PA    H10R11813   2.549   0.235   3.617
    1PA    H10S11814   2.642   0.364   3.676
    1PA     C1911815   2.709   0.301   3.487
    1PA     H9R11816   2.662   0.390   3.445
    1PA     H9S11817   2.816   0.319   3.491
    1PA     C1811818   2.675   0.184   3.394
    1PA     H8R11819   2.713   0.094   3.443
    1PA     H8S11820   2.566   0.181   3.380
    1PA     C1711821   2.749   0.207   3.261
    1PA     H7R11822   2.706   0.295   3.213
    1PA     H7S11823   2.851   0.234   3.287
    1PA     C1611824   2.735   0.087   3.166
    1PA     H6R11825   2.760  -0.009   3.212
    1PA     H6S11826   2.630   0.092   3.135
    1PA     C1511827   2.800   0.107   3.029
    1PA     H5R11828   2.796   0.008   2.983
    1PA     H5S11829   2.750   0.178   2.962
    1PA     C1411830   2.943   0.159   3.047
    1PA     H4R11831   2.944   0.265   3.072
    1PA     H4S11832   2.995   0.101   3.122
    1PA     C1311833   3.014   0.151   2.911
    1PA     H3R11834   2.955   0.194   2.829
    1PA     H3S11835   3.107   0.208   2.913
    1PA     C1211836   3.056   0.012   2.862
    1PA     H2R11837   3.112  -0.040   2.940
    1PA     H2S11838   2.968  -0.045   2.829
    2PC     C1111839   3.137   0.025   2.736
    2PC     O1211840   3.095  -0.014   2.629
    2PC     O1111841   3.255   0.085   2.756
    2PC      C111842   3.341   0.108   2.643
    2PC      HR11843   3.437   0.145   2.680
    2PC      HS11844   3.356   0.017   2.585
    2PC      C211845   3.284   0.214   2.549
    2PC      HX11846   3.180   0.198   2.520
    2PC      C311847   3.376   0.243   2.429
    2PC      HA11848   3.470   0.200   2.461
    2PC      HB11849   3.352   0.186   2.338
    2PC     O3111850   3.372   0.379   2.381
    2PC     P3111851   3.494   0.432   2.292
    2PC     O3211852   3.461   0.588   2.304
    2PC     C3111853   3.512   0.636   2.430
    2PC     H1A11854   3.463   0.585   2.513
    2PC     H1B11855   3.619   0.616   2.432
    2PC     C3211856   3.495   0.789   2.439
    2PC     H2A11857   3.388   0.809   2.440
    2PC     H2B11858   3.537   0.820   2.535
    2PC     N3111859   3.555   0.870   2.329
    2PC     C3311860   3.477   0.853   2.202
    2PC     H3A11861   3.489   0.753   2.159
    2PC     H3B11862   3.372   0.867   2.229
    2PC     H3C11863   3.516   0.920   2.126
    2PC     C3411864   3.538   1.013   2.372
    2PC     H4A11865   3.593   1.082   2.308
    2PC     H4B11866   3.432   1.041   2.372
    2PC     H4C11867   3.581   1.025   2.472
    2PC     C3511868   3.701   0.854   2.298
    2PC     H5A11869   3.728   0.889   2.199
    2PC     H5B11870   3.733   0.750   2.313
    2PC     H5C11871   3.758   0.908   2.374
    2PC     O3311872   3.626   0.394   2.347
    2PC     O3411873   3.487   0.384   2.152
    2PC     O2111874   3.284   0.329   2.635
    2PC     C2111875   3.191   0.425   2.623
    2PC     O2211876   3.088   0.411   2.559
    3OL     C1211877   3.229   0.549   2.700
    3OL     H2R11878   3.337   0.563   2.688
    3OL     H2S11879   3.207   0.537   2.806
    3OL     C1311880   3.152   0.668   2.642
    3OL     H3R11881   3.045   0.648   2.633
    3OL     H3S11882   3.186   0.691   2.541
    3OL     C1411883   3.176   0.792   2.729
    3OL     H4R11884   3.153   0.874   2.660
    3OL     H4S11885   3.282   0.803   2.751
    3OL     C1511886   3.099   0.793   2.861
    3OL     H5R11887   3.133   0.709   2.922
    3OL     H5S11888   2.990   0.781   2.853
    3OL     C1611889   3.128   0.921   2.940
    3OL     H6R11890   3.235   0.945   2.936
    3OL     H6S11891   3.097   0.898   3.042
    3OL     C1711892   3.062   1.041   2.871
    3OL     H7R11893   2.959   1.016   2.845
    3OL     H7S11894   3.112   1.056   2.775
    3OL     C1811895   3.081   1.170   2.953
    3OL     H8R11896   3.185   1.202   2.948
    3OL     H8S11897   3.039   1.146   3.051
    3OL     C1911898   3.000   1.282   2.892
    3OL     H9R11899   2.946   1.249   2.803
    3OL    C11011900   2.984   1.393   2.961
    3OL    H10R11901   2.924   1.474   2.920
    3OL    C11111902   3.049   1.434   3.090
    3OL    H11R11903   3.094   1.534   3.083
    3OL    H11S11904   3.130   1.368   3.121
    3OL    C11211905   2.955   1.451   3.211
    3OL    H12R11906   3.020   1.494   3.287
    3OL    H12S11907   2.910   1.357   3.245
    3OL    C11311908   2.846   1.556   3.187
    3OL    H13R11909   2.881   1.630   3.115
    3OL    H13S11910   2.827   1.615   3.276
    3OL    C11411911   2.710   1.506   3.135
    3OL    H14R11912   2.744   1.438   3.056
    3OL    H14S11913   2.648   1.584   3.091
    3OL    C11511914   2.622   1.432   3.237
    3OL    H15R11915   2.615   1.483   3.333
    3OL    H15S11916   2.673   1.338   3.254
    3OL    C11611917   2.481   1.413   3.179
    3OL    H16R11918   2.483   1.357   3.085
    3OL    H16S11919   2.444   1.515   3.169
    3OL    C11711920   2.389   1.335   3.274
    3OL    H17R11921   2.287   1.355   3.239
    3OL    H17S11922   2.398   1.383   3.372
    3OL    C11811923   2.413   1.185   3.295
    3OL    H18R11924   2.339   1.136   3.359
    3OL    H18S11925   2.512   1.179   3.340
    3OL    H18T11926   2.424   1.139   3.196
    1PA    C11611927   0.646   7.171   2.765
    1PA    H16R11928   0.607   7.222   2.677
    1PA    H16S11929   0.735   7.224   2.799
    1PA    H16T11930   0.577   7.187   2.848
    1PA    C11511931   0.674   7.022   2.741
    1PA    H15R11932   0.751   7.016   2.664
    1PA    H15S11933   0.712   6.970   2.830
    1PA    C11411934   0.555   6.948   2.679
    1PA    H14R11935   0.510   7.004   2.598
    1PA    H14S11936   0.573   6.844   2.650
    1PA    C11311937   0.444   6.931   2.784
    1PA    H13R11938   0.485   6.888   2.876
    1PA    H13S11939   0.411   7.030   2.818
    1PA    C11211940   0.319   6.855   2.741
    1PA    H12R11941   0.276   6.906   2.655
    1PA    H12S11942   0.342   6.754   2.704
    1PA    C11111943   0.213   6.846   2.852
    1PA    H11R11944   0.253   6.796   2.940
    1PA    H11S11945   0.180   6.947   2.879
    1PA    C11011946   0.086   6.770   2.808
    1PA    H10R11947  -0.002   6.812   2.858
    1PA    H10S11948   0.080   6.797   2.702
    1PA     C1911949   0.099   6.618   2.823
    1PA     H9R11950   0.181   6.580   2.763
    1PA     H9S11951   0.114   6.577   2.923
    1PA     C1811952  -0.037   6.568   2.773
    1PA     H8R11953  -0.116   6.591   2.845
    1PA     H8S11954  -0.072   6.625   2.686
    1PA     C1711955  -0.024   6.420   2.736
    1PA     H7R11956   0.047   6.376   2.806
    1PA     H7S11957  -0.117   6.365   2.756
    1PA     C1611958   0.030   6.393   2.595
    1PA     H6R11959  -0.025   6.447   2.518
    1PA     H6S11960   0.129   6.438   2.580
    1PA     C1511961   0.031   6.243   2.562
    1PA     H5R11962   0.112   6.192   2.615
    1PA     H5S11963  -0.063   6.195   2.588
    1PA     C1411964   0.051   6.224   2.411
    1PA     H4R11965   0.032   6.118   2.388
    1PA     H4S11966  -0.024   6.270   2.346
    1PA     C1311967   0.192   6.262   2.364
    1PA     H3R11968   0.213   6.364   2.396
    1PA     H3S11969   0.267   6.200   2.412
    1PA     C1211970   0.210   6.262   2.211
    1PA     H2R11971   0.175   6.167   2.171
    1PA     H2S11972   0.142   6.332   2.164
    2PC     C1111973   0.352   6.288   2.167
    2PC     O1211974   0.406   6.397   2.164
    2PC     O1111975   0.408   6.175   2.122
    2PC      C111976   0.552   6.169   2.109
    2PC      HR11977   0.590   6.250   2.047
    2PC      HS11978   0.588   6.187   2.211
    2PC      C211979   0.596   6.029   2.063
    2PC      HX11980   0.704   6.020   2.076
    2PC      C311981   0.557   6.018   1.915
    2PC      HA11982   0.451   6.041   1.904
    2PC      HB11983   0.611   6.095   1.859
    2PC     O3111984   0.595   5.891   1.861
    2PC     P3111985   0.630   5.857   1.708
    2PC     O3211986   0.506   5.924   1.633
    2PC     C3111987   0.518   5.942   1.491
    2PC     H1A11988   0.593   6.021   1.475
    2PC     H1B11989   0.568   5.855   1.448
    2PC     C3211990   0.380   5.973   1.433
    2PC     H2A11991   0.312   5.897   1.471
    2PC     H2B11992   0.362   6.073   1.471
    2PC     N3111993   0.356   5.974   1.284
    2PC     C3311994   0.437   5.865   1.221
    2PC     H3A11995   0.396   5.851   1.121
    2PC     H3B11996   0.545   5.883   1.215
    2PC     H3C11997   0.427   5.776   1.284
    2PC     C3411998   0.211   5.955   1.252
    2PC     H4A11999   0.159   6.026   1.317
    2PC     H4B12000   0.186   5.991   1.152
    2PC     H4C12001   0.194   5.852   1.282
    2PC     C3512002   0.409   6.103   1.229
    2PC     H5A12003   0.392   6.108   1.122
    2PC     H5B12004   0.517   6.117   1.239
    2PC     H5C12005   0.354   6.184   1.277
    2PC     O3312006   0.761   5.915   1.670
    2PC     O3412007   0.635   5.710   1.689
    2PC     O2112008   0.529   5.932   2.145
    2PC     C2112009   0.578   5.901   2.266
    2PC     O2212010   0.685   5.937   2.311
    3OL     C1212011   0.476   5.829   2.350
    3OL     H2R12012   0.492   5.721   2.345
    3OL     H2S12013   0.380   5.846   2.302
    3OL     C1312014   0.481   5.888   2.492
    3OL     H3R12015   0.460   5.995   2.481
    3OL     H3S12016   0.579   5.868   2.534
    3OL     C1412017   0.371   5.823   2.577
    3OL     H4R12018   0.415   5.725   2.597
    3OL     H4S12019   0.284   5.824   2.513
    3OL     C1512020   0.350   5.898   2.709
    3OL     H5R12021   0.253   5.886   2.758
    3OL     H5S12022   0.333   6.002   2.681
    3OL     C1612023   0.465   5.883   2.810
    3OL     H6R12024   0.563   5.899   2.762
    3OL     H6S12025   0.461   5.779   2.843
    3OL     C1712026   0.453   5.960   2.942
    3OL     H7R12027   0.352   5.942   2.981
    3OL     H7S12028   0.465   6.067   2.926
    3OL     C1812029   0.556   5.919   3.048
    3OL     H8R12030   0.660   5.916   3.015
    3OL     H8S12031   0.513   5.822   3.073
    3OL     C1912032   0.537   6.019   3.159
    3OL     H9R12033   0.576   6.115   3.128
    3OL    C11012034   0.487   5.993   3.279
    3OL    H10R12035   0.481   6.080   3.344
    3OL    C11112036   0.434   5.860   3.325
    3OL    H11R12037   0.516   5.793   3.352
    3OL    H11S12038   0.379   5.806   3.248
    3OL    C11212039   0.335   5.873   3.442
    3OL    H12R12040   0.390   5.903   3.532
    3OL    H12S12041   0.289   5.779   3.471
    3OL    C11312042   0.216   5.965   3.409
    3OL    H13R12043   0.156   5.911   3.336
    3OL    H13S12044   0.239   6.054   3.350
    3OL    C11412045   0.127   5.991   3.531
    3OL    H14R12046   0.075   6.085   3.506
    3OL    H14S12047   0.194   6.020   3.612
    3OL    C11512048   0.041   5.871   3.573
    3OL    H15R12049   0.005   5.895   3.673
    3OL    H15S12050   0.103   5.781   3.575
    3OL    C11612051  -0.077   5.853   3.477
    3OL    H16R12052  -0.032   5.824   3.382
    3OL    H16S12053  -0.133   5.941   3.445
    3OL    C11712054  -0.167   5.733   3.510
    3OL    H17R12055  -0.205   5.726   3.613
    3OL    H17S12056  -0.104   5.645   3.498
    3OL    C11812057  -0.288   5.717   3.417
    3OL    H18R12058  -0.350   5.632   3.447
    3OL    H18S12059  -0.244   5.690   3.321
    3OL    H18T12060  -0.353   5.805   3.416
    1PA    C11612061   1.647   6.795   4.104
    1PA    H16R12062   1.642   6.871   4.026
    1PA    H16S12063   1.747   6.755   4.124
    1PA    H16T12064   1.610   6.825   4.202
    1PA    C11512065   1.551   6.682   4.063
    1PA    H15R12066   1.540   6.611   4.145
    1PA    H15S12067   1.454   6.730   4.053
    1PA    C11412068   1.589   6.619   3.929
    1PA    H14R12069   1.523   6.535   3.904
    1PA    H14S12070   1.586   6.683   3.841
    1PA    C11312071   1.730   6.562   3.947
    1PA    H13R12072   1.800   6.643   3.968
    1PA    H13S12073   1.733   6.483   4.022
    1PA    C11212074   1.768   6.512   3.806
    1PA    H12R12075   1.706   6.563   3.732
    1PA    H12S12076   1.867   6.536   3.768
    1PA    C11112077   1.745   6.361   3.788
    1PA    H11R12078   1.815   6.301   3.847
    1PA    H11S12079   1.644   6.345   3.826
    1PA    C11012080   1.768   6.327   3.640
    1PA    H10R12081   1.712   6.393   3.572
    1PA    H10S12082   1.875   6.350   3.639
    1PA     C1912083   1.724   6.184   3.607
    1PA     H9R12084   1.775   6.112   3.672
    1PA     H9S12085   1.618   6.166   3.624
    1PA     C1812086   1.765   6.152   3.462
    1PA     H8R12087   1.864   6.192   3.439
    1PA     H8S12088   1.774   6.046   3.436
    1PA     C1712089   1.670   6.211   3.358
    1PA     H7R12090   1.569   6.195   3.396
    1PA     H7S12091   1.684   6.319   3.362
    1PA     C1612092   1.685   6.156   3.215
    1PA     H6R12093   1.706   6.050   3.205
    1PA     H6S12094   1.589   6.171   3.164
    1PA     C1512095   1.791   6.231   3.134
    1PA     H5R12096   1.764   6.332   3.102
    1PA     H5S12097   1.879   6.242   3.199
    1PA     C1412098   1.823   6.156   3.004
    1PA     H4R12099   1.904   6.088   3.030
    1PA     H4S12100   1.745   6.088   2.970
    1PA     C1312101   1.881   6.255   2.903
    1PA     H3R12102   1.934   6.336   2.953
    1PA     H3S12103   1.953   6.196   2.845
    1PA     C1212104   1.768   6.303   2.812
    1PA     H2R12105   1.726   6.212   2.768
    1PA     H2S12106   1.685   6.345   2.870
    2PC     C1112107   1.805   6.387   2.692
    2PC     O1212108   1.909   6.369   2.633
    2PC     O1112109   1.707   6.469   2.649
    2PC      C112110   1.704   6.519   2.514
    2PC      HR12111   1.624   6.593   2.524
    2PC      HS12112   1.800   6.563   2.486
    2PC      C212113   1.661   6.409   2.417
    2PC      HX12114   1.725   6.323   2.440
    2PC      C312115   1.678   6.441   2.268
    2PC      HA12116   1.594   6.507   2.245
    2PC      HB12117   1.771   6.493   2.246
    2PC     O3112118   1.648   6.322   2.193
    2PC     P3112119   1.616   6.334   2.036
    2PC     O3212120   1.752   6.266   1.985
    2PC     C3112121   1.873   6.344   1.979
    2PC     H1A12122   1.860   6.430   1.913
    2PC     H1B12123   1.902   6.389   2.075
    2PC     C3212124   2.002   6.269   1.941
    2PC     H2A12125   2.089   6.328   1.969
    2PC     H2B12126   2.016   6.166   1.976
    2PC     N3112127   2.019   6.245   1.794
    2PC     C3312128   1.906   6.164   1.738
    2PC     H3A12129   1.812   6.212   1.765
    2PC     H3B12130   1.930   6.157   1.632
    2PC     H3C12131   1.919   6.061   1.771
    2PC     C3412132   2.023   6.371   1.713
    2PC     H4A12133   1.926   6.419   1.728
    2PC     H4B12134   2.097   6.442   1.749
    2PC     H4C12135   2.031   6.338   1.609
    2PC     C3512136   2.145   6.171   1.764
    2PC     H5A12137   2.133   6.068   1.798
    2PC     H5B12138   2.226   6.229   1.810
    2PC     H5C12139   2.163   6.174   1.657
    2PC     O3312140   1.491   6.265   1.999
    2PC     O3412141   1.597   6.468   1.976
    2PC     O2112142   1.521   6.385   2.442
    2PC     C2112143   1.490   6.289   2.531
    2PC     O2212144   1.560   6.193   2.556
    3OL     C1212145   1.356   6.308   2.596
    3OL     H2R12146   1.300   6.221   2.562
    3OL     H2S12147   1.307   6.387   2.539
    3OL     C1312148   1.354   6.314   2.750
    3OL     H3R12149   1.422   6.242   2.795
    3OL     H3S12150   1.251   6.293   2.778
    3OL     C1412151   1.409   6.447   2.804
    3OL     H4R12152   1.378   6.526   2.734
    3OL     H4S12153   1.517   6.462   2.804
    3OL     C1512154   1.359   6.463   2.948
    3OL     H5R12155   1.258   6.424   2.958
    3OL     H5S12156   1.351   6.570   2.963
    3OL     C1612157   1.454   6.394   3.048
    3OL     H6R12158   1.547   6.450   3.059
    3OL     H6S12159   1.487   6.296   3.012
    3OL     C1712160   1.388   6.378   3.185
    3OL     H7R12161   1.331   6.469   3.205
    3OL     H7S12162   1.468   6.382   3.259
    3OL     C1812163   1.299   6.253   3.196
    3OL     H8R12164   1.358   6.163   3.178
    3OL     H8S12165   1.221   6.250   3.119
    3OL     C1912166   1.224   6.253   3.326
    3OL     H9R12167   1.279   6.204   3.407
    3OL    C11012168   1.096   6.280   3.344
    3OL    H10R12169   1.050   6.269   3.442
    3OL    C11112170   1.009   6.351   3.243
    3OL    H11R12171   1.066   6.386   3.157
    3OL    H11S12172   0.975   6.444   3.290
    3OL    C11212173   0.887   6.268   3.201
    3OL    H12R12174   0.809   6.337   3.172
    3OL    H12S12175   0.845   6.232   3.295
    3OL    C11312176   0.919   6.157   3.099
    3OL    H13R12177   0.829   6.097   3.085
    3OL    H13S12178   0.997   6.098   3.147
    3OL    C11412179   0.953   6.202   2.957
    3OL    H14R12180   1.050   6.252   2.949
    3OL    H14S12181   0.878   6.275   2.926
    3OL    C11512182   0.947   6.072   2.875
    3OL    H15R12183   0.844   6.037   2.878
    3OL    H15S12184   1.018   6.009   2.929
    3OL    C11612185   1.011   6.075   2.735
    3OL    H16R12186   1.024   5.978   2.686
    3OL    H16S12187   1.105   6.128   2.749
    3OL    C11712188   0.926   6.158   2.638
    3OL    H17R12189   0.975   6.159   2.540
    3OL    H17S12190   0.923   6.262   2.671
    3OL    C11812191   0.787   6.096   2.617
    3OL    H18R12192   0.743   6.084   2.716
    3OL    H18S12193   0.790   5.997   2.572
    3OL    H18T12194   0.715   6.160   2.566
    1PA    C11612195   2.579   3.423   4.246
    1PA    H16R12196   2.491   3.485   4.227
    1PA    H16S12197   2.658   3.497   4.263
    1PA    H16T12198   2.574   3.351   4.328
    1PA    C11512199   2.615   3.342   4.121
    1PA    H15R12200   2.614   3.408   4.035
    1PA    H15S12201   2.712   3.294   4.133
    1PA    C11412202   2.514   3.228   4.101
    1PA    H14R12203   2.527   3.154   4.180
    1PA    H14S12204   2.410   3.264   4.104
    1PA    C11312205   2.522   3.150   3.969
    1PA    H13R12206   2.612   3.088   3.968
    1PA    H13S12207   2.437   3.083   3.970
    1PA    C11212208   2.530   3.226   3.835
    1PA    H12R12209   2.458   3.307   3.825
    1PA    H12S12210   2.630   3.270   3.844
    1PA    C11112211   2.524   3.133   3.713
    1PA    H11R12212   2.607   3.062   3.712
    1PA    H11S12213   2.431   3.076   3.715
    1PA    C11012214   2.525   3.208   3.579
    1PA    H10R12215   2.504   3.144   3.493
    1PA    H10S12216   2.443   3.279   3.592
    1PA     C1912217   2.651   3.293   3.559
    1PA     H9R12218   2.659   3.358   3.646
    1PA     H9S12219   2.738   3.227   3.563
    1PA     C1812220   2.641   3.373   3.428
    1PA     H8R12221   2.619   3.311   3.341
    1PA     H8S12222   2.564   3.449   3.447
    1PA     C1712223   2.766   3.460   3.409
    1PA     H7R12224   2.782   3.528   3.492
    1PA     H7S12225   2.853   3.394   3.413
    1PA     C1612226   2.746   3.533   3.276
    1PA     H6R12227   2.645   3.575   3.272
    1PA     H6S12228   2.810   3.622   3.276
    1PA     C1512229   2.769   3.449   3.150
    1PA     H5R12230   2.875   3.428   3.135
    1PA     H5S12231   2.718   3.353   3.154
    1PA     C1412232   2.720   3.526   3.026
    1PA     H4R12233   2.619   3.567   3.035
    1PA     H4S12234   2.791   3.609   3.018
    1PA     C1312235   2.727   3.433   2.905
    1PA     H3R12236   2.820   3.376   2.905
    1PA     H3S12237   2.652   3.358   2.933
    1PA     C1212238   2.691   3.505   2.774
    1PA     H2R12239   2.608   3.454   2.724
    1PA     H2S12240   2.672   3.612   2.781
    2PC     C1112241   2.810   3.488   2.684
    2PC     O1212242   2.833   3.385   2.625
    2PC     O1112243   2.887   3.598   2.671
    2PC      C112244   2.982   3.614   2.564
    2PC      HR12245   3.040   3.706   2.575
    2PC      HS12246   3.052   3.530   2.555
    2PC      C212247   2.917   3.625   2.425
    2PC      HX12248   2.849   3.541   2.411
    2PC      C312249   3.012   3.629   2.304
    2PC      HA12250   3.054   3.729   2.303
    2PC      HB12251   3.092   3.554   2.307
    2PC     O3112252   2.937   3.607   2.184
    2PC     P3112253   3.010   3.602   2.041
    2PC     O3212254   2.975   3.753   1.999
    2PC     C3112255   3.075   3.853   2.023
    2PC     H1A12256   3.114   3.851   2.125
    2PC     H1B12257   3.161   3.837   1.958
    2PC     C3212258   3.019   3.991   1.986
    2PC     H2A12259   3.095   4.067   1.967
    2PC     H2B12260   2.967   3.965   1.894
    2PC     N3112261   2.923   4.047   2.087
    2PC     C3312262   2.810   3.957   2.127
    2PC     H3A12263   2.742   4.017   2.188
    2PC     H3B12264   2.772   3.934   2.028
    2PC     H3C12265   2.839   3.868   2.183
    2PC     C3412266   3.006   4.081   2.207
    2PC     H4A12267   3.044   3.988   2.248
    2PC     H4B12268   3.084   4.142   2.161
    2PC     H4C12269   2.941   4.125   2.282
    2PC     C3512270   2.852   4.170   2.039
    2PC     H5A12271   2.925   4.239   1.997
    2PC     H5B12272   2.798   4.216   2.122
    2PC     H5C12273   2.780   4.137   1.964
    2PC     O3312274   3.155   3.572   2.037
    2PC     O3412275   2.955   3.499   1.950
    2PC     O2112276   2.839   3.746   2.413
    2PC     C2112277   2.710   3.757   2.449
    2PC     O2212278   2.644   3.662   2.487
    3OL     C1212279   2.664   3.899   2.432
    3OL     H2R12280   2.626   3.915   2.331
    3OL     H2S12281   2.749   3.967   2.442
    3OL     C1312282   2.550   3.930   2.530
    3OL     H3R12283   2.480   3.846   2.527
    3OL     H3S12284   2.506   4.025   2.501
    3OL     C1412285   2.601   3.944   2.674
    3OL     H4R12286   2.687   4.011   2.675
    3OL     H4S12287   2.638   3.850   2.715
    3OL     C1512288   2.488   3.992   2.766
    3OL     H5R12289   2.406   3.921   2.766
    3OL     H5S12290   2.448   4.090   2.739
    3OL     C1612291   2.535   4.009   2.912
    3OL     H6R12292   2.474   4.090   2.952
    3OL     H6S12293   2.632   4.058   2.902
    3OL     C1712294   2.528   3.872   2.982
    3OL     H7R12295   2.589   3.799   2.929
    3OL     H7S12296   2.425   3.835   2.984
    3OL     C1812297   2.573   3.882   3.128
    3OL     H8R12298   2.675   3.922   3.131
    3OL     H8S12299   2.592   3.783   3.169
    3OL     C1912300   2.477   3.962   3.213
    3OL     H9R12301   2.406   4.021   3.156
    3OL    C11012302   2.463   3.948   3.344
    3OL    H10R12303   2.386   4.001   3.400
    3OL    C11112304   2.544   3.855   3.430
    3OL    H11R12305   2.551   3.899   3.530
    3OL    H11S12306   2.648   3.840   3.400
    3OL    C11212307   2.473   3.719   3.430
    3OL    H12R12308   2.548   3.649   3.468
    3OL    H12S12309   2.461   3.688   3.326
    3OL    C11312310   2.347   3.712   3.517
    3OL    H13R12311   2.258   3.745   3.463
    3OL    H13S12312   2.360   3.769   3.610
    3OL    C11412313   2.311   3.567   3.551
    3OL    H14R12314   2.398   3.518   3.595
    3OL    H14S12315   2.280   3.514   3.461
    3OL    C11512316   2.200   3.560   3.657
    3OL    H15R12317   2.223   3.641   3.727
    3OL    H15S12318   2.215   3.465   3.709
    3OL    C11612319   2.053   3.565   3.616
    3OL    H16R12320   2.029   3.482   3.549
    3OL    H16S12321   2.042   3.662   3.568
    3OL    C11712322   1.965   3.552   3.741
    3OL    H17R12323   1.982   3.641   3.803
    3OL    H17S12324   1.978   3.460   3.797
    3OL    C11812325   1.815   3.566   3.708
    3OL    H18R12326   1.756   3.574   3.799
    3OL    H18S12327   1.775   3.488   3.644
    3OL    H18T12328   1.794   3.655   3.648
    1PA    C11612329   4.309   3.350   3.932
    1PA    H16R12330   4.211   3.330   3.975
    1PA    H16S12331   4.371   3.410   3.999
    1PA    H16T12332   4.359   3.255   3.915
    1PA    C11512333   4.287   3.421   3.797
    1PA    H15R12334   4.219   3.506   3.804
    1PA    H15S12335   4.379   3.449   3.746
    1PA    C11412336   4.223   3.319   3.702
    1PA    H14R12337   4.284   3.229   3.704
    1PA    H14S12338   4.121   3.295   3.733
    1PA    C11312339   4.203   3.381   3.563
    1PA    H13R12340   4.155   3.478   3.576
    1PA    H13S12341   4.298   3.405   3.513
    1PA    C11212342   4.129   3.284   3.469
    1PA    H12R12343   4.173   3.184   3.475
    1PA    H12S12344   4.023   3.285   3.495
    1PA    C11112345   4.143   3.325   3.322
    1PA    H11R12346   4.100   3.425   3.319
    1PA    H11S12347   4.251   3.335   3.307
    1PA    C11012348   4.090   3.217   3.227
    1PA    H10R12349   4.161   3.133   3.225
    1PA    H10S12350   3.997   3.176   3.267
    1PA     C1912351   4.053   3.281   3.093
    1PA     H9R12352   3.964   3.339   3.119
    1PA     H9S12353   4.128   3.345   3.046
    1PA     C1812354   4.008   3.178   2.988
    1PA     H8R12355   4.101   3.130   2.957
    1PA     H8S12356   3.931   3.113   3.030
    1PA     C1712357   3.966   3.249   2.859
    1PA     H7R12358   3.871   3.302   2.872
    1PA     H7S12359   4.044   3.325   2.849
    1PA     C1612360   3.961   3.141   2.749
    1PA     H6R12361   4.055   3.086   2.745
    1PA     H6S12362   3.882   3.068   2.762
    1PA     C1512363   3.939   3.195   2.607
    1PA     H5R12364   3.836   3.229   2.621
    1PA     H5S12365   3.999   3.285   2.589
    1PA     C1412366   3.941   3.098   2.489
    1PA     H4R12367   3.905   3.150   2.400
    1PA     H4S12368   4.043   3.070   2.462
    1PA     C1312369   3.855   2.971   2.499
    1PA     H3R12370   3.891   2.914   2.585
    1PA     H3S12371   3.753   3.004   2.519
    1PA     C1212372   3.841   2.887   2.371
    1PA     H2R12373   3.757   2.821   2.395
    1PA     H2S12374   3.804   2.955   2.294
    2PC     C1112375   3.965   2.812   2.331
    2PC     O1212376   4.079   2.851   2.348
    2PC     O1112377   3.934   2.690   2.287
    2PC      C112378   4.037   2.604   2.235
    2PC      HR12379   4.091   2.650   2.151
    2PC      HS12380   4.109   2.591   2.316
    2PC      C212381   3.982   2.470   2.186
    2PC      HX12382   4.047   2.405   2.127
    2PC      C312383   3.847   2.483   2.114
    2PC      HA12384   3.768   2.532   2.171
    2PC      HB12385   3.865   2.529   2.016
    2PC     O3112386   3.799   2.350   2.086
    2PC     P3112387   3.647   2.322   2.045
    2PC     O3212388   3.607   2.439   1.942
    2PC     C3112389   3.581   2.408   1.804
    2PC     H1A12390   3.666   2.348   1.768
    2PC     H1B12391   3.492   2.346   1.793
    2PC     C3212392   3.555   2.532   1.717
    2PC     H2A12393   3.640   2.597   1.735
    2PC     H2B12394   3.542   2.510   1.611
    2PC     N3112395   3.436   2.615   1.756
    2PC     C3312396   3.466   2.684   1.885
    2PC     H3A12397   3.450   2.620   1.971
    2PC     H3B12398   3.571   2.712   1.886
    2PC     H3C12399   3.407   2.776   1.891
    2PC     C3412400   3.404   2.717   1.651
    2PC     H4A12401   3.359   2.664   1.567
    2PC     H4B12402   3.337   2.797   1.684
    2PC     H4C12403   3.493   2.764   1.610
    2PC     C3512404   3.308   2.538   1.767
    2PC     H5A12405   3.224   2.607   1.783
    2PC     H5B12406   3.316   2.472   1.853
    2PC     H5C12407   3.296   2.483   1.674
    2PC     O3312408   3.617   2.187   1.994
    2PC     O3412409   3.552   2.327   2.159
    2PC     O2112410   3.948   2.404   2.309
    2PC     C2112411   3.946   2.270   2.324
    2PC     O2212412   4.003   2.199   2.244
    3OL     C1212413   3.866   2.227   2.444
    3OL     H2R12414   3.857   2.119   2.446
    3OL     H2S12415   3.771   2.282   2.450
    3OL     C1312416   3.932   2.272   2.575
    3OL     H3R12417   3.891   2.196   2.642
    3OL     H3S12418   3.891   2.365   2.615
    3OL     C1412419   4.085   2.279   2.575
    3OL     H4R12420   4.115   2.368   2.519
    3OL     H4S12421   4.133   2.185   2.548
    3OL     C1512422   4.134   2.315   2.716
    3OL     H5R12423   4.098   2.415   2.741
    3OL     H5S12424   4.243   2.316   2.710
    3OL     C1612425   4.113   2.208   2.824
    3OL     H6R12426   4.164   2.121   2.783
    3OL     H6S12427   4.007   2.182   2.835
    3OL     C1712428   4.173   2.235   2.963
    3OL     H7R12429   4.130   2.163   3.033
    3OL     H7S12430   4.170   2.338   2.999
    3OL     C1812431   4.325   2.218   2.970
    3OL     H8R12432   4.363   2.256   3.065
    3OL     H8S12433   4.362   2.295   2.902
    3OL     C1912434   4.368   2.079   2.933
    3OL     H9R12435   4.369   2.053   2.828
    3OL    C11012436   4.406   1.989   3.022
    3OL    H10R12437   4.441   1.888   3.002
    3OL    C11112438   4.409   2.009   3.172
    3OL    H11R12439   4.307   2.005   3.210
    3OL    H11S12440   4.464   2.101   3.191
    3OL    C11212441   4.483   1.897   3.246
    3OL    H12R12442   4.586   1.905   3.209
    3OL    H12S12443   4.441   1.800   3.217
    3OL    C11312444   4.474   1.911   3.398
    3OL    H13R12445   4.367   1.921   3.419
    3OL    H13S12446   4.526   2.002   3.430
    3OL    C11412447   4.552   1.803   3.474
    3OL    H14R12448   4.660   1.804   3.456
    3OL    H14S12449   4.511   1.708   3.439
    3OL    C11512450   4.549   1.808   3.628
    3OL    H15R12451   4.565   1.707   3.668
    3OL    H15S12452   4.446   1.836   3.649
    3OL    C11612453   4.651   1.906   3.688
    3OL    H16R12454   4.639   2.005   3.643
    3OL    H16S12455   4.747   1.868   3.653
    3OL    C11712456   4.646   1.915   3.841
    3OL    H17R12457   4.686   1.826   3.891
    3OL    H17S12458   4.540   1.930   3.859
    3OL    C11812459   4.741   2.026   3.891
    3OL    H18R12460   4.839   2.013   3.846
    3OL    H18S12461   4.757   2.018   3.999
    3OL    H18T12462   4.697   2.123   3.870
    1PA    C11612463   1.228   2.387   3.918
    1PA    H16R12464   1.156   2.355   3.994
    1PA    H16S12465   1.220   2.495   3.903
    1PA    H16T12466   1.333   2.372   3.941
    1PA    C11512467   1.190   2.313   3.789
    1PA    H15R12468   1.288   2.288   3.748
    1PA    H15S12469   1.140   2.221   3.819
    1PA    C11412470   1.095   2.383   3.689
    1PA    H14R12471   1.004   2.399   3.747
    1PA    H14S12472   1.133   2.482   3.664
    1PA    C11312473   1.074   2.297   3.564
    1PA    H13R12474   1.173   2.260   3.537
    1PA    H13S12475   1.012   2.213   3.596
    1PA    C11212476   1.004   2.390   3.464
    1PA    H12R12477   0.904   2.414   3.503
    1PA    H12S12478   1.060   2.481   3.444
    1PA    C11112479   0.979   2.314   3.332
    1PA    H11R12480   1.074   2.294   3.282
    1PA    H11S12481   0.936   2.215   3.346
    1PA    C11012482   0.885   2.398   3.245
    1PA    H10R12483   0.779   2.385   3.270
    1PA    H10S12484   0.908   2.504   3.257
    1PA     C1912485   0.900   2.361   3.097
    1PA     H9R12486   0.909   2.254   3.075
    1PA     H9S12487   0.819   2.399   3.034
    1PA     C1812488   1.022   2.433   3.040
    1PA     H8R12489   1.001   2.537   3.016
    1PA     H8S12490   1.113   2.434   3.101
    1PA     C1712491   1.077   2.361   2.916
    1PA     H7R12492   1.168   2.415   2.888
    1PA     H7S12493   1.095   2.256   2.943
    1PA     C1612494   0.979   2.362   2.798
    1PA     H6R12495   0.891   2.301   2.820
    1PA     H6S12496   0.936   2.460   2.778
    1PA     C1512497   1.051   2.302   2.676
    1PA     H5R12498   1.145   2.352   2.655
    1PA     H5S12499   1.083   2.201   2.704
    1PA     C1412500   0.957   2.308   2.555
    1PA     H4R12501   0.864   2.251   2.564
    1PA     H4S12502   0.928   2.409   2.524
    1PA     C1312503   1.035   2.251   2.436
    1PA     H3R12504   1.098   2.170   2.475
    1PA     H3S12505   0.961   2.194   2.379
    1PA     C1212506   1.110   2.362   2.361
    1PA     H2R12507   1.046   2.448   2.340
    1PA     H2S12508   1.198   2.392   2.416
    2PC     C1112509   1.141   2.315   2.221
    2PC     O1212510   1.092   2.215   2.171
    2PC     O1112511   1.237   2.395   2.170
    2PC      C112512   1.275   2.385   2.032
    2PC      HR12513   1.370   2.433   2.007
    2PC      HS12514   1.301   2.281   2.011
    2PC      C212515   1.167   2.443   1.939
    2PC      HX12516   1.067   2.407   1.963
    2PC      C312517   1.190   2.415   1.790
    2PC      HA12518   1.275   2.462   1.740
    2PC      HB12519   1.203   2.307   1.778
    2PC     O3112520   1.083   2.462   1.707
    2PC     P3112521   1.097   2.422   1.552
    2PC     O3212522   1.252   2.453   1.524
    2PC     C3112523   1.286   2.555   1.429
    2PC     H1A12524   1.211   2.554   1.349
    2PC     H1B12525   1.294   2.657   1.468
    2PC     C3212526   1.422   2.516   1.368
    2PC     H2A12527   1.450   2.606   1.312
    2PC     H2B12528   1.490   2.502   1.452
    2PC     N3112529   1.440   2.399   1.277
    2PC     C3312530   1.577   2.388   1.217
    2PC     H3A12531   1.647   2.381   1.300
    2PC     H3B12532   1.575   2.304   1.148
    2PC     H3C12533   1.602   2.474   1.154
    2PC     C3412534   1.404   2.274   1.352
    2PC     H4A12535   1.445   2.192   1.294
    2PC     H4B12536   1.445   2.279   1.453
    2PC     H4C12537   1.296   2.266   1.361
    2PC     C3512538   1.353   2.411   1.156
    2PC     H5A12539   1.249   2.432   1.184
    2PC     H5B12540   1.343   2.317   1.100
    2PC     H5C12541   1.389   2.490   1.091
    2PC     O3312542   1.064   2.282   1.517
    2PC     O3412543   1.011   2.496   1.457
    2PC     O2112544   1.156   2.585   1.961
    2PC     C2112545   1.079   2.634   2.060
    2PC     O2212546   0.997   2.568   2.122
    3OL     C1212547   1.088   2.784   2.066
    3OL     H2R12548   1.013   2.819   1.995
    3OL     H2S12549   1.187   2.820   2.039
    3OL     C1312550   1.050   2.833   2.207
    3OL     H3R12551   1.098   2.927   2.233
    3OL     H3S12552   1.093   2.766   2.282
    3OL     C1412553   0.898   2.847   2.225
    3OL     H4R12554   0.846   2.776   2.161
    3OL     H4S12555   0.851   2.939   2.190
    3OL     C1512556   0.856   2.817   2.369
    3OL     H5R12557   0.913   2.882   2.436
    3OL     H5S12558   0.889   2.714   2.388
    3OL     C1612559   0.704   2.822   2.388
    3OL     H6R12560   0.645   2.768   2.314
    3OL     H6S12561   0.674   2.927   2.381
    3OL     C1712562   0.663   2.780   2.530
    3OL     H7R12563   0.578   2.835   2.571
    3OL     H7S12564   0.749   2.795   2.595
    3OL     C1812565   0.638   2.628   2.537
    3OL     H8R12566   0.727   2.578   2.497
    3OL     H8S12567   0.552   2.607   2.473
    3OL     C1912568   0.596   2.577   2.672
    3OL     H9R12569   0.678   2.537   2.732
    3OL    C11012570   0.472   2.578   2.718
    3OL    H10R12571   0.459   2.552   2.823
    3OL    C11112572   0.352   2.622   2.639
    3OL    H11R12573   0.299   2.530   2.612
    3OL    H11S12574   0.376   2.667   2.543
    3OL    C11212575   0.271   2.723   2.723
    3OL    H12R12576   0.334   2.795   2.775
    3OL    H12S12577   0.232   2.653   2.797
    3OL    C11312578   0.160   2.794   2.645
    3OL    H13R12579   0.101   2.717   2.595
    3OL    H13S12580   0.208   2.857   2.570
    3OL    C11412581   0.081   2.890   2.736
    3OL    H14R12582   0.039   2.969   2.673
    3OL    H14S12583   0.146   2.949   2.800
    3OL    C11512584  -0.032   2.822   2.814
    3OL    H15R12585   0.007   2.732   2.861
    3OL    H15S12586  -0.109   2.787   2.746
    3OL    C11612587  -0.099   2.911   2.920
    3OL    H16R12588  -0.030   2.978   2.972
    3OL    H16S12589  -0.150   2.851   2.996
    3OL    C11712590  -0.204   2.997   2.848
    3OL    H17R12591  -0.302   2.976   2.892
    3OL    H17S12592  -0.208   2.981   2.740
    3OL    C11812593  -0.164   3.144   2.862
    3OL    H18R12594  -0.063   3.160   2.824
    3OL    H18S12595  -0.167   3.166   2.969
    3OL    H18T12596  -0.240   3.209   2.818
    1PA    C11612597   6.184   1.533   3.617
    1PA    H16R12598   6.257   1.486   3.684
    1PA    H16S12599   6.092   1.475   3.622
    1PA    H16T12600   6.151   1.628   3.660
    1PA    C11512601   6.238   1.561   3.476
    1PA    H15R12602   6.251   1.469   3.418
    1PA    H15S12603   6.161   1.623   3.429
    1PA    C11412604   6.360   1.653   3.488
    1PA    H14R12605   6.337   1.755   3.520
    1PA    H14S12606   6.429   1.610   3.561
    1PA    C11312607   6.420   1.669   3.347
    1PA    H13R12608   6.466   1.576   3.313
    1PA    H13S12609   6.351   1.710   3.273
    1PA    C11212610   6.539   1.766   3.355
    1PA    H12R12611   6.512   1.871   3.367
    1PA    H12S12612   6.591   1.737   3.447
    1PA    C11112613   6.616   1.757   3.223
    1PA    H11R12614   6.711   1.807   3.244
    1PA    H11S12615   6.642   1.653   3.202
    1PA    C11012616   6.543   1.825   3.107
    1PA    H10R12617   6.441   1.784   3.104
    1PA    H10S12618   6.528   1.933   3.122
    1PA     C1912619   6.613   1.811   2.972
    1PA     H9R12620   6.708   1.864   2.987
    1PA     H9S12621   6.637   1.709   2.941
    1PA     C1812622   6.535   1.883   2.860
    1PA     H8R12623   6.462   1.948   2.907
    1PA     H8S12624   6.602   1.946   2.802
    1PA     C1712625   6.454   1.784   2.775
    1PA     H7R12626   6.525   1.711   2.738
    1PA     H7S12627   6.387   1.725   2.839
    1PA     C1612628   6.373   1.856   2.666
    1PA     H6R12629   6.328   1.948   2.702
    1PA     H6S12630   6.442   1.876   2.583
    1PA     C1512631   6.257   1.765   2.623
    1PA     H5R12632   6.296   1.709   2.538
    1PA     H5S12633   6.214   1.707   2.705
    1PA     C1412634   6.146   1.852   2.563
    1PA     H4R12635   6.097   1.922   2.631
    1PA     H4S12636   6.190   1.913   2.484
    1PA     C1312637   6.037   1.773   2.489
    1PA     H3R12638   6.080   1.688   2.436
    1PA     H3S12639   5.973   1.723   2.562
    1PA     C1212640   5.956   1.862   2.394
    1PA     H2R12641   5.877   1.898   2.459
    1PA     H2S12642   6.019   1.944   2.358
    2PC     C1112643   5.889   1.787   2.281
    2PC     O1212644   5.846   1.674   2.287
    2PC     O1112645   5.870   1.862   2.171
    2PC      C112646   5.814   1.789   2.060
    2PC      HR12647   5.896   1.725   2.024
    2PC      HS12648   5.730   1.729   2.095
    2PC      C212649   5.783   1.875   1.937
    2PC      HX12650   5.729   1.807   1.870
    2PC      C312651   5.902   1.933   1.859
    2PC      HA12652   5.950   2.013   1.916
    2PC      HB12653   5.962   1.847   1.830
    2PC     O3112654   5.851   1.995   1.739
    2PC     P3112655   5.941   2.038   1.614
    2PC     O3212656   6.033   2.154   1.677
    2PC     C3112657   5.961   2.278   1.691
    2PC     H1A12658   5.902   2.290   1.599
    2PC     H1B12659   5.896   2.270   1.779
    2PC     C3212660   6.064   2.391   1.707
    2PC     H2A12661   6.007   2.477   1.741
    2PC     H2B12662   6.135   2.362   1.784
    2PC     N3112663   6.124   2.439   1.578
    2PC     C3312664   6.200   2.331   1.507
    2PC     H3A12665   6.265   2.280   1.578
    2PC     H3B12666   6.137   2.247   1.475
    2PC     H3C12667   6.263   2.379   1.432
    2PC     C3412668   6.023   2.505   1.488
    2PC     H4A12669   6.067   2.529   1.392
    2PC     H4B12670   5.938   2.437   1.489
    2PC     H4C12671   5.984   2.596   1.534
    2PC     C3512672   6.228   2.538   1.620
    2PC     H5A12673   6.193   2.641   1.632
    2PC     H5B12674   6.305   2.547   1.544
    2PC     H5C12675   6.274   2.500   1.711
    2PC     O3312676   6.026   1.927   1.565
    2PC     O3412677   5.861   2.084   1.498
    2PC     O2112678   5.696   1.980   1.981
    2PC     C2112679   5.573   1.958   2.030
    2PC     O2212680   5.519   1.850   2.034
    3OL     C1212681   5.490   2.081   2.055
    3OL     H2R12682   5.404   2.056   2.117
    3OL     H2S12683   5.457   2.109   1.955
    3OL     C1312684   5.566   2.196   2.124
    3OL     H3R12685   5.516   2.291   2.104
    3OL     H3S12686   5.666   2.199   2.081
    3OL     C1412687   5.568   2.173   2.276
    3OL     H4R12688   5.630   2.250   2.321
    3OL     H4S12689   5.622   2.080   2.300
    3OL     C1512690   5.429   2.187   2.338
    3OL     H5R12691   5.373   2.094   2.329
    3OL     H5S12692   5.365   2.271   2.308
    3OL     C1612693   5.444   2.192   2.490
    3OL     H6R12694   5.484   2.285   2.531
    3OL     H6S12695   5.517   2.122   2.531
    3OL     C1712696   5.308   2.156   2.551
    3OL     H7R12697   5.289   2.049   2.538
    3OL     H7S12698   5.228   2.217   2.507
    3OL     C1812699   5.297   2.191   2.700
    3OL     H8R12700   5.193   2.166   2.726
    3OL     H8S12701   5.310   2.298   2.718
    3OL     C1912702   5.388   2.107   2.786
    3OL     H9R12703   5.494   2.123   2.772
    3OL    C11012704   5.344   2.027   2.882
    3OL    H10R12705   5.413   1.984   2.954
    3OL    C11112706   5.202   1.996   2.922
    3OL    H11R12707   5.136   2.000   2.835
    3OL    H11S12708   5.170   2.067   2.998
    3OL    C11212709   5.193   1.865   3.002
    3OL    H12R12710   5.096   1.854   3.050
    3OL    H12S12711   5.254   1.878   3.092
    3OL    C11312712   5.239   1.747   2.916
    3OL    H13R12713   5.342   1.761   2.882
    3OL    H13S12714   5.178   1.760   2.827
    3OL    C11412715   5.228   1.606   2.976
    3OL    H14R12716   5.122   1.595   2.999
    3OL    H14S12717   5.294   1.617   3.062
    3OL    C11512718   5.284   1.498   2.882
    3OL    H15R12719   5.389   1.513   2.857
    3OL    H15S12720   5.231   1.493   2.787
    3OL    C11612721   5.270   1.355   2.937
    3OL    H16R12722   5.283   1.357   3.045
    3OL    H16S12723   5.349   1.298   2.888
    3OL    C11712724   5.125   1.310   2.912
    3OL    H17R12725   5.091   1.317   2.809
    3OL    H17S12726   5.051   1.360   2.975
    3OL    C11812727   5.139   1.166   2.963
    3OL    H18R12728   5.171   1.096   2.886
    3OL    H18S12729   5.044   1.134   3.007
    3OL    H18T12730   5.211   1.172   3.045
    1PA    C11612731   5.188   0.901   3.732
    1PA    H16R12732   5.203   0.799   3.697
    1PA    H16S12733   5.159   0.898   3.837
    1PA    H16T12734   5.288   0.946   3.726
    1PA    C11512735   5.089   0.976   3.643
    1PA    H15R12736   4.994   0.923   3.655
    1PA    H15S12737   5.082   1.078   3.683
    1PA    C11412738   5.140   0.962   3.500
    1PA    H14R12739   5.233   1.018   3.485
    1PA    H14S12740   5.163   0.857   3.482
    1PA    C11312741   5.043   1.016   3.394
    1PA    H13R12742   5.003   1.112   3.428
    1PA    H13S12743   5.103   1.031   3.305
    1PA    C11212744   4.926   0.920   3.368
    1PA    H12R12745   4.874   0.892   3.460
    1PA    H12S12746   4.843   0.973   3.321
    1PA    C11112747   4.949   0.805   3.269
    1PA    H11R12748   5.021   0.735   3.311
    1PA    H11S12749   4.855   0.751   3.259
    1PA    C11012750   5.002   0.845   3.130
    1PA    H10R12751   4.929   0.907   3.077
    1PA    H10S12752   5.092   0.905   3.145
    1PA     C1912753   5.033   0.712   3.059
    1PA     H9R12754   5.102   0.647   3.112
    1PA     H9S12755   4.947   0.649   3.036
    1PA     C1812756   5.099   0.737   2.923
    1PA     H8R12757   5.183   0.806   2.936
    1PA     H8S12758   5.140   0.642   2.888
    1PA     C1712759   5.009   0.792   2.812
    1PA     H7R12760   4.929   0.724   2.782
    1PA     H7S12761   4.963   0.886   2.844
    1PA     C1612762   5.091   0.825   2.686
    1PA     H6R12763   5.174   0.880   2.731
    1PA     H6S12764   5.127   0.737   2.632
    1PA     C1512765   5.027   0.926   2.589
    1PA     H5R12766   4.954   0.868   2.532
    1PA     H5S12767   4.968   1.006   2.633
    1PA     C1412768   5.127   0.995   2.495
    1PA     H4R12769   5.187   1.061   2.559
    1PA     H4S12770   5.184   0.925   2.434
    1PA     C1312771   5.055   1.092   2.401
    1PA     H3R12772   4.995   1.034   2.331
    1PA     H3S12773   4.991   1.160   2.459
    1PA     C1212774   5.152   1.180   2.321
    1PA     H2R12775   5.201   1.254   2.384
    1PA     H2S12776   5.221   1.117   2.266
    2PC     C1112777   5.079   1.265   2.220
    2PC     O1212778   4.959   1.259   2.203
    2PC     O1112779   5.157   1.359   2.165
    2PC      C112780   5.088   1.464   2.094
    2PC      HR12781   5.030   1.413   2.016
    2PC      HS12782   5.030   1.528   2.160
    2PC      C212783   5.194   1.556   2.032
    2PC      HX12784   5.155   1.649   1.991
    2PC      C312785   5.251   1.486   1.908
    2PC      HA12786   5.348   1.527   1.881
    2PC      HB12787   5.269   1.382   1.937
    2PC     O3112788   5.161   1.495   1.795
    2PC     P3112789   5.206   1.448   1.649
    2PC     O3212790   5.096   1.333   1.627
    2PC     C3112791   5.120   1.243   1.517
    2PC     H1A12792   5.128   1.293   1.420
    2PC     H1B12793   5.221   1.204   1.537
    2PC     C3212794   5.010   1.136   1.518
    2PC     H2A12795   5.003   1.087   1.615
    2PC     H2B12796   4.914   1.184   1.498
    2PC     N3112797   5.034   1.019   1.427
    2PC     C3312798   5.173   0.966   1.437
    2PC     H3A12799   5.190   0.889   1.362
    2PC     H3B12800   5.241   1.050   1.419
    2PC     H3C12801   5.190   0.922   1.535
    2PC     C3412802   4.941   0.905   1.456
    2PC     H4A12803   4.959   0.835   1.374
    2PC     H4B12804   4.967   0.873   1.557
    2PC     H4C12805   4.839   0.942   1.457
    2PC     C3512806   5.016   1.070   1.287
    2PC     H5A12807   5.043   0.988   1.220
    2PC     H5B12808   5.104   1.133   1.281
    2PC     H5C12809   4.920   1.118   1.268
    2PC     O3312810   5.195   1.551   1.544
    2PC     O3412811   5.337   1.379   1.649
    2PC     O2112812   5.310   1.588   2.112
    2PC     C2112813   5.299   1.669   2.218
    2PC     O2212814   5.201   1.733   2.249
    3OL     C1212815   5.426   1.662   2.300
    3OL     H2R12816   5.507   1.653   2.227
    3OL     H2S12817   5.421   1.574   2.364
    3OL     C1312818   5.443   1.788   2.385
    3OL     H3R12819   5.352   1.818   2.437
    3OL     H3S12820   5.483   1.877   2.336
    3OL     C1412821   5.556   1.763   2.486
    3OL     H4R12822   5.625   1.847   2.492
    3OL     H4S12823   5.612   1.672   2.468
    3OL     C1512824   5.493   1.740   2.624
    3OL     H5R12825   5.432   1.649   2.617
    3OL     H5S12826   5.436   1.828   2.655
    3OL     C1612827   5.594   1.714   2.736
    3OL     H6R12828   5.664   1.637   2.703
    3OL     H6S12829   5.543   1.666   2.820
    3OL     C1712830   5.669   1.840   2.784
    3OL     H7R12831   5.589   1.901   2.828
    3OL     H7S12832   5.723   1.898   2.709
    3OL     C1812833   5.754   1.807   2.908
    3OL     H8R12834   5.693   1.745   2.974
    3OL     H8S12835   5.770   1.906   2.953
    3OL     C1912836   5.887   1.741   2.879
    3OL     H9R12837   5.969   1.812   2.874
    3OL    C11012838   5.904   1.610   2.879
    3OL    H10R12839   6.007   1.578   2.874
    3OL    C11112840   5.814   1.490   2.895
    3OL    H11R12841   5.814   1.437   2.799
    3OL    H11S12842   5.713   1.523   2.918
    3OL    C11212843   5.869   1.396   3.003
    3OL    H12R12844   5.857   1.439   3.103
    3OL    H12S12845   5.974   1.380   2.977
    3OL    C11312846   5.796   1.262   3.016
    3OL    H13R12847   5.841   1.205   3.098
    3OL    H13S12848   5.825   1.209   2.925
    3OL    C11412849   5.643   1.271   3.016
    3OL    H14R12850   5.596   1.320   2.930
    3OL    H14S12851   5.610   1.330   3.102
    3OL    C11512852   5.580   1.133   3.038
    3OL    H15R12853   5.477   1.132   3.074
    3OL    H15S12854   5.646   1.076   3.104
    3OL    C11612855   5.562   1.066   2.901
    3OL    H16R12856   5.665   1.050   2.869
    3OL    H16S12857   5.527   1.146   2.836
    3OL    C11712858   5.475   0.940   2.892
    3OL    H17R12859   5.476   0.900   2.790
    3OL    H17S12860   5.367   0.955   2.901
    3OL    C11812861   5.512   0.828   2.990
    3OL    H18R12862   5.467   0.861   3.084
    3OL    H18S12863   5.619   0.811   2.996
    3OL    H18T12864   5.455   0.742   2.955
    1PA    C11612865   6.317   2.886   3.343
    1PA    H16R12866   6.402   2.916   3.281
    1PA    H16S12867   6.373   2.820   3.409
    1PA    H16T12868   6.270   2.969   3.396
    1PA    C11512869   6.205   2.810   3.270
    1PA    H15R12870   6.244   2.736   3.200
    1PA    H15S12871   6.154   2.741   3.338
    1PA    C11412872   6.098   2.901   3.210
    1PA    H14R12873   6.140   2.981   3.148
    1PA    H14S12874   6.035   2.839   3.145
    1PA    C11312875   6.001   2.948   3.320
    1PA    H13R12876   5.973   2.862   3.380
    1PA    H13S12877   6.058   3.023   3.375
    1PA    C11212878   5.878   3.023   3.268
    1PA    H12R12879   5.820   2.960   3.200
    1PA    H12S12880   5.811   3.030   3.354
    1PA    C11112881   5.903   3.163   3.209
    1PA    H11R12882   5.936   3.238   3.280
    1PA    H11S12883   5.982   3.165   3.134
    1PA    C11012884   5.772   3.215   3.150
    1PA    H10R12885   5.685   3.197   3.213
    1PA    H10S12886   5.790   3.322   3.144
    1PA     C1912887   5.736   3.159   3.011
    1PA     H9R12888   5.817   3.177   2.940
    1PA     H9S12889   5.726   3.051   3.021
    1PA     C1812890   5.608   3.212   2.946
    1PA     H8R12891   5.617   3.197   2.838
    1PA     H8S12892   5.520   3.156   2.976
    1PA     C1712893   5.592   3.364   2.960
    1PA     H7R12894   5.581   3.390   3.066
    1PA     H7S12895   5.685   3.412   2.931
    1PA     C1612896   5.476   3.426   2.881
    1PA     H6R12897   5.484   3.400   2.776
    1PA     H6S12898   5.391   3.364   2.913
    1PA     C1512899   5.456   3.577   2.895
    1PA     H5R12900   5.442   3.605   2.999
    1PA     H5S12901   5.550   3.624   2.862
    1PA     C1412902   5.341   3.624   2.805
    1PA     H4R12903   5.248   3.569   2.817
    1PA     H4S12904   5.329   3.726   2.843
    1PA     C1312905   5.380   3.632   2.656
    1PA     H3R12906   5.327   3.722   2.623
    1PA     H3S12907   5.488   3.648   2.649
    1PA     C1212908   5.348   3.512   2.566
    1PA     H2R12909   5.415   3.430   2.590
    1PA     H2S12910   5.244   3.481   2.575
    2PC     C1112911   5.372   3.544   2.421
    2PC     O1212912   5.369   3.656   2.374
    2PC     O1112913   5.388   3.438   2.340
    2PC      C112914   5.412   3.466   2.201
    2PC      HR12915   5.404   3.375   2.142
    2PC      HS12916   5.345   3.543   2.163
    2PC      C212917   5.552   3.528   2.194
    2PC      HX12918   5.564   3.624   2.246
    2PC      C312919   5.584   3.570   2.050
    2PC      HA12920   5.528   3.659   2.021
    2PC      HB12921   5.690   3.597   2.042
    2PC     O3112922   5.551   3.457   1.967
    2PC     P3112923   5.547   3.466   1.807
    2PC     O3212924   5.447   3.590   1.785
    2PC     C3112925   5.306   3.565   1.788
    2PC     H1A12926   5.274   3.476   1.733
    2PC     H1B12927   5.269   3.543   1.889
    2PC     C3212928   5.238   3.686   1.723
    2PC     H2A12929   5.129   3.679   1.726
    2PC     H2B12930   5.276   3.767   1.784
    2PC     N3112931   5.252   3.718   1.577
    2PC     C3312932   5.196   3.605   1.496
    2PC     H3A12933   5.256   3.599   1.404
    2PC     H3B12934   5.212   3.513   1.552
    2PC     H3C12935   5.089   3.612   1.477
    2PC     C3412936   5.189   3.851   1.550
    2PC     H4A12937   5.214   3.876   1.447
    2PC     H4B12938   5.081   3.846   1.563
    2PC     H4C12939   5.248   3.918   1.611
    2PC     C3512940   5.397   3.741   1.546
    2PC     H5A12941   5.454   3.652   1.572
    2PC     H5B12942   5.435   3.828   1.599
    2PC     H5C12943   5.395   3.754   1.437
    2PC     O3312944   5.686   3.482   1.759
    2PC     O3412945   5.489   3.347   1.741
    2PC     O2112946   5.653   3.431   2.228
    2PC     C2112947   5.695   3.415   2.355
    2PC     O2212948   5.665   3.489   2.446
    3OL     C1212949   5.790   3.300   2.377
    3OL     H2R12950   5.888   3.337   2.345
    3OL     H2S12951   5.751   3.221   2.312
    3OL     C1312952   5.788   3.249   2.522
    3OL     H3R12953   5.683   3.235   2.548
    3OL     H3S12954   5.844   3.315   2.589
    3OL     C1412955   5.852   3.110   2.524
    3OL     H4R12956   5.956   3.123   2.492
    3OL     H4S12957   5.790   3.048   2.459
    3OL     C1512958   5.855   3.059   2.668
    3OL     H5R12959   5.754   3.066   2.710
    3OL     H5S12960   5.918   3.129   2.723
    3OL     C1612961   5.909   2.915   2.672
    3OL     H6R12962   6.012   2.919   2.638
    3OL     H6S12963   5.845   2.864   2.599
    3OL     C1712964   5.910   2.847   2.809
    3OL     H7R12965   5.894   2.919   2.889
    3OL     H7S12966   6.006   2.798   2.827
    3OL     C1812967   5.792   2.750   2.822
    3OL     H8R12968   5.782   2.683   2.736
    3OL     H8S12969   5.693   2.796   2.826
    3OL     C1912970   5.805   2.661   2.943
    3OL     H9R12971   5.907   2.637   2.972
    3OL    C11012972   5.704   2.626   3.022
    3OL    H10R12973   5.722   2.569   3.113
    3OL    C11112974   5.560   2.661   3.003
    3OL    H11R12975   5.497   2.575   3.024
    3OL    H11S12976   5.536   2.700   2.904
    3OL    C11212977   5.509   2.775   3.093
    3OL    H12R12978   5.402   2.779   3.114
    3OL    H12S12979   5.539   2.864   3.037
    3OL    C11312980   5.586   2.785   3.225
    3OL    H13R12981   5.688   2.816   3.201
    3OL    H13S12982   5.593   2.682   3.263
    3OL    C11412983   5.519   2.873   3.330
    3OL    H14R12984   5.411   2.857   3.335
    3OL    H14S12985   5.534   2.977   3.301
    3OL    C11512986   5.587   2.853   3.466
    3OL    H15R12987   5.584   2.946   3.523
    3OL    H15S12988   5.691   2.818   3.460
    3OL    C11612989   5.512   2.748   3.548
    3OL    H16R12990   5.486   2.665   3.483
    3OL    H16S12991   5.424   2.800   3.587
    3OL    C11712992   5.597   2.699   3.666
    3OL    H17R12993   5.613   2.779   3.737
    3OL    H17S12994   5.692   2.653   3.637
    3OL    C11812995   5.533   2.591   3.753
    3OL    H18R12996   5.443   2.631   3.801
    3OL    H18S12997   5.608   2.577   3.831
    3OL    H18T12998   5.518   2.496   3.701
    1PA    C11612999   5.007  -0.171   3.437
    1PA    H16R13000   4.947  -0.215   3.357
    1PA    H16S13001   5.038  -0.253   3.501
    1PA    H16T13002   5.099  -0.122   3.403
    1PA    C11513003   4.921  -0.082   3.527
    1PA    H15R13004   4.839  -0.128   3.583
    1PA    H15S13005   4.990  -0.037   3.600
    1PA    C11413006   4.861   0.039   3.455
    1PA    H14R13007   4.938   0.103   3.411
    1PA    H14S13008   4.793   0.010   3.375
    1PA    C11313009   4.798   0.127   3.564
    1PA    H13R13010   4.720   0.072   3.617
    1PA    H13S13011   4.878   0.163   3.629
    1PA    C11213012   4.735   0.256   3.511
    1PA    H12R13013   4.703   0.317   3.596
    1PA    H12S13014   4.808   0.302   3.445
    1PA    C11113015   4.611   0.222   3.427
    1PA    H11R13016   4.645   0.163   3.342
    1PA    H11S13017   4.540   0.157   3.479
    1PA    C11013018   4.545   0.342   3.358
    1PA    H10R13019   4.455   0.318   3.302
    1PA    H10S13020   4.521   0.411   3.439
    1PA     C1913021   4.635   0.408   3.253
    1PA     H9R13022   4.585   0.496   3.211
    1PA     H9S13023   4.733   0.440   3.287
    1PA     C1813024   4.660   0.320   3.129
    1PA     H8R13025   4.734   0.243   3.153
    1PA     H8S13026   4.570   0.264   3.107
    1PA     C1713027   4.702   0.408   3.010
    1PA     H7R13028   4.611   0.464   2.986
    1PA     H7S13029   4.784   0.472   3.042
    1PA     C1613030   4.748   0.314   2.897
    1PA     H6R13031   4.831   0.259   2.942
    1PA     H6S13032   4.677   0.241   2.858
    1PA     C1513033   4.795   0.399   2.779
    1PA     H5R13034   4.711   0.464   2.755
    1PA     H5S13035   4.880   0.460   2.812
    1PA     C1413036   4.845   0.313   2.662
    1PA     H4R13037   4.933   0.254   2.689
    1PA     H4S13038   4.765   0.243   2.636
    1PA     C1313039   4.890   0.398   2.543
    1PA     H3R13040   4.985   0.446   2.569
    1PA     H3S13041   4.914   0.328   2.463
    1PA     C1213042   4.779   0.488   2.485
    1PA     H2R13043   4.692   0.423   2.476
    1PA     H2S13044   4.750   0.571   2.550
    2PC     C1113045   4.826   0.544   2.353
    2PC     O1213046   4.813   0.500   2.241
    2PC     O1113047   4.890   0.658   2.383
    2PC      C113048   4.937   0.726   2.265
    2PC      HR13049   5.010   0.798   2.304
    2PC      HS13050   4.984   0.650   2.202
    2PC      C213051   4.823   0.803   2.196
    2PC      HX13052   4.740   0.736   2.176
    2PC      C313053   4.877   0.868   2.068
    2PC      HA13054   4.924   0.961   2.101
    2PC      HB13055   4.960   0.811   2.027
    2PC     O3113056   4.777   0.894   1.968
    2PC     P3113057   4.837   0.937   1.826
    2PC     O3213058   4.712   1.010   1.758
    2PC     C3113059   4.593   1.038   1.833
    2PC     H1A13060   4.556   0.945   1.876
    2PC     H1B13061   4.620   1.112   1.910
    2PC     C3213062   4.487   1.110   1.748
    2PC     H2A13063   4.421   1.167   1.813
    2PC     H2B13064   4.530   1.187   1.684
    2PC     N3113065   4.395   1.026   1.666
    2PC     C3313066   4.301   1.108   1.582
    2PC     H3A13067   4.232   1.168   1.642
    2PC     H3B13068   4.350   1.177   1.513
    2PC     H3C13069   4.244   1.046   1.513
    2PC     C3413070   4.474   0.932   1.580
    2PC     H4A13071   4.521   0.854   1.639
    2PC     H4B13072   4.414   0.893   1.498
    2PC     H4C13073   4.559   0.996   1.554
    2PC     C3513074   4.319   0.940   1.763
    2PC     H5A13075   4.382   0.867   1.814
    2PC     H5B13076   4.239   0.888   1.709
    2PC     H5C13077   4.279   1.011   1.835
    2PC     O3313078   4.958   1.020   1.844
    2PC     O3413079   4.888   0.825   1.744
    2PC     O2113080   4.781   0.911   2.281
    2PC     C2113081   4.680   0.996   2.255
    2PC     O2213082   4.600   0.980   2.166
    3OL     C1213083   4.664   1.112   2.350
    3OL     H2R13084   4.670   1.206   2.296
    3OL     H2S13085   4.747   1.113   2.421
    3OL     C1313086   4.536   1.095   2.434
    3OL     H3R13087   4.446   1.108   2.374
    3OL     H3S13088   4.525   1.179   2.503
    3OL     C1413089   4.517   0.975   2.527
    3OL     H4R13090   4.607   0.963   2.589
    3OL     H4S13091   4.521   0.887   2.462
    3OL     C1513092   4.387   0.984   2.608
    3OL     H5R13093   4.307   0.923   2.566
    3OL     H5S13094   4.350   1.086   2.600
    3OL     C1613095   4.399   0.947   2.757
    3OL     H6R13096   4.302   0.943   2.807
    3OL     H6S13097   4.462   1.020   2.808
    3OL     C1713098   4.454   0.806   2.780
    3OL     H7R13099   4.561   0.814   2.758
    3OL     H7S13100   4.401   0.739   2.712
    3OL     C1813101   4.457   0.760   2.926
    3OL     H8R13102   4.500   0.660   2.914
    3OL     H8S13103   4.358   0.756   2.972
    3OL     C1913104   4.547   0.849   3.009
    3OL     H9R13105   4.627   0.894   2.951
    3OL    C11013106   4.519   0.882   3.134
    3OL    H10R13107   4.578   0.961   3.181
    3OL    C11113108   4.406   0.829   3.218
    3OL    H11R13109   4.392   0.722   3.203
    3OL    H11S13110   4.310   0.880   3.206
    3OL    C11213111   4.445   0.847   3.365
    3OL    H12R13112   4.354   0.847   3.425
    3OL    H12S13113   4.500   0.940   3.378
    3OL    C11313114   4.540   0.739   3.418
    3OL    H13R13115   4.635   0.754   3.368
    3OL    H13S13116   4.507   0.638   3.391
    3OL    C11413117   4.563   0.746   3.570
    3OL    H14R13118   4.471   0.727   3.626
    3OL    H14S13119   4.616   0.838   3.593
    3OL    C11513120   4.670   0.645   3.614
    3OL    H15R13121   4.766   0.681   3.576
    3OL    H15S13122   4.646   0.553   3.560
    3OL    C11613123   4.679   0.637   3.767
    3OL    H16R13124   4.745   0.551   3.785
    3OL    H16S13125   4.581   0.619   3.810
    3OL    C11713126   4.742   0.759   3.835
    3OL    H17R13127   4.680   0.845   3.808
    3OL    H17S13128   4.843   0.777   3.799
    3OL    C11813129   4.731   0.743   3.988
    3OL    H18R13130   4.789   0.814   4.048
    3OL    H18S13131   4.763   0.644   4.019
    3OL    H18T13132   4.624   0.741   4.005
    1PA    C11613133   4.690   1.417   3.778
    1PA    H16R13134   4.779   1.480   3.784
    1PA    H16S13135   4.666   1.380   3.878
    1PA    H16T13136   4.603   1.482   3.768
    1PA    C11513137   4.697   1.308   3.671
    1PA    H15R13138   4.785   1.245   3.685
    1PA    H15S13139   4.604   1.253   3.689
    1PA    C11413140   4.702   1.361   3.527
    1PA    H14R13141   4.641   1.451   3.519
    1PA    H14S13142   4.806   1.385   3.506
    1PA    C11313143   4.651   1.256   3.426
    1PA    H13R13144   4.712   1.166   3.418
    1PA    H13S13145   4.547   1.233   3.451
    1PA    C11213146   4.646   1.318   3.286
    1PA    H12R13147   4.594   1.414   3.288
    1PA    H12S13148   4.749   1.333   3.252
    1PA    C11113149   4.582   1.225   3.181
    1PA    H11R13150   4.650   1.140   3.179
    1PA    H11S13151   4.484   1.199   3.223
    1PA    C11013152   4.571   1.283   3.040
    1PA    H10R13153   4.513   1.214   2.979
    1PA    H10S13154   4.532   1.385   3.040
    1PA     C1913155   4.708   1.278   2.971
    1PA     H9R13156   4.782   1.336   3.027
    1PA     H9S13157   4.734   1.173   2.955
    1PA     C1813158   4.689   1.324   2.826
    1PA     H8R13159   4.630   1.257   2.763
    1PA     H8S13160   4.640   1.422   2.819
    1PA     C1713161   4.825   1.357   2.763
    1PA     H7R13162   4.864   1.446   2.813
    1PA     H7S13163   4.889   1.269   2.774
    1PA     C1613164   4.811   1.389   2.613
    1PA     H6R13165   4.752   1.307   2.571
    1PA     H6S13166   4.744   1.475   2.612
    1PA     C1513167   4.941   1.412   2.535
    1PA     H5R13168   5.013   1.338   2.568
    1PA     H5S13169   4.919   1.396   2.430
    1PA     C1413170   4.991   1.554   2.567
    1PA     H4R13171   4.980   1.575   2.674
    1PA     H4S13172   5.099   1.545   2.554
    1PA     C1313173   4.931   1.663   2.478
    1PA     H3R13174   4.965   1.655   2.374
    1PA     H3S13175   4.823   1.652   2.473
    1PA     C1213176   4.967   1.802   2.533
    1PA     H2R13177   4.926   1.828   2.631
    1PA     H2S13178   5.074   1.811   2.553
    2PC     C1113179   4.919   1.914   2.444
    2PC     O1213180   4.984   2.016   2.436
    2PC     O1113181   4.809   1.892   2.371
    2PC      C113182   4.749   1.985   2.279
    2PC      HR13183   4.646   1.950   2.263
    2PC      HS13184   4.742   2.085   2.324
    2PC      C213185   4.818   1.979   2.143
    2PC      HX13186   4.762   2.033   2.066
    2PC      C313187   4.848   1.836   2.094
    2PC      HA13188   4.923   1.778   2.149
    2PC      HB13189   4.754   1.780   2.094
    2PC     O3113190   4.892   1.819   1.958
    2PC     P3113191   4.793   1.853   1.837
    2PC     O3213192   4.849   1.724   1.760
    2PC     C3113193   4.950   1.739   1.659
    2PC     H1A13194   5.017   1.818   1.694
    2PC     H1B13195   5.001   1.643   1.649
    2PC     C3213196   4.889   1.773   1.522
    2PC     H2A13197   4.826   1.862   1.522
    2PC     H2B13198   4.970   1.786   1.449
    2PC     N3113199   4.809   1.665   1.455
    2PC     C3313200   4.864   1.526   1.468
    2PC     H3A13201   4.797   1.462   1.411
    2PC     H3B13202   4.959   1.516   1.417
    2PC     H3C13203   4.889   1.493   1.568
    2PC     C3413204   4.667   1.663   1.502
    2PC     H4A13205   4.627   1.763   1.483
    2PC     H4B13206   4.602   1.600   1.441
    2PC     H4C13207   4.672   1.634   1.607
    2PC     C3513208   4.803   1.707   1.311
    2PC     H5A13209   4.759   1.807   1.302
    2PC     H5B13210   4.740   1.643   1.249
    2PC     H5C13211   4.906   1.707   1.275
    2PC     O3313212   4.651   1.845   1.879
    2PC     O3413213   4.791   1.985   1.771
    2PC     O2113214   4.948   2.040   2.156
    2PC     C2113215   4.945   2.174   2.160
    2PC     O2213216   4.845   2.243   2.151
    3OL     C1213217   5.082   2.230   2.187
    3OL     H2R13218   5.148   2.180   2.115
    3OL     H2S13219   5.121   2.203   2.285
    3OL     C1313220   5.092   2.383   2.180
    3OL     H3R13221   5.044   2.411   2.087
    3OL     H3S13222   5.195   2.417   2.191
    3OL     C1413223   5.015   2.453   2.294
    3OL     H4R13224   5.074   2.430   2.383
    3OL     H4S13225   4.913   2.417   2.301
    3OL     C1513226   5.022   2.604   2.266
    3OL     H5R13227   4.974   2.630   2.171
    3OL     H5S13228   5.128   2.631   2.257
    3OL     C1613229   4.966   2.672   2.391
    3OL     H6R13230   5.008   2.630   2.483
    3OL     H6S13231   4.857   2.666   2.391
    3OL     C1713232   5.005   2.819   2.374
    3OL     H7R13233   4.985   2.857   2.274
    3OL     H7S13234   5.113   2.820   2.390
    3OL     C1813235   4.937   2.914   2.475
    3OL     H8R13236   4.829   2.909   2.465
    3OL     H8S13237   4.974   3.016   2.471
    3OL     C1913238   4.963   2.868   2.616
    3OL     H9R13239   5.068   2.876   2.643
    3OL    C11013240   4.877   2.832   2.709
    3OL    H10R13241   4.902   2.803   2.811
    3OL    C11113242   4.727   2.816   2.698
    3OL    H11R13243   4.706   2.809   2.591
    3OL    H11S13244   4.671   2.894   2.750
    3OL    C11213245   4.690   2.677   2.752
    3OL    H12R13246   4.785   2.624   2.755
    3OL    H12S13247   4.613   2.629   2.691
    3OL    C11313248   4.640   2.684   2.897
    3OL    H13R13249   4.556   2.750   2.918
    3OL    H13S13250   4.727   2.716   2.955
    3OL    C11413251   4.615   2.544   2.955
    3OL    H14R13252   4.711   2.492   2.960
    3OL    H14S13253   4.560   2.491   2.876
    3OL    C11513254   4.551   2.533   3.094
    3OL    H15R13255   4.461   2.471   3.096
    3OL    H15S13256   4.510   2.632   3.117
    3OL    C11613257   4.658   2.484   3.193
    3OL    H16R13258   4.740   2.555   3.204
    3OL    H16S13259   4.702   2.390   3.161
    3OL    C11713260   4.598   2.464   3.333
    3OL    H17R13261   4.567   2.560   3.373
    3OL    H17S13262   4.672   2.426   3.403
    3OL    C11813263   4.481   2.364   3.327
    3OL    H18R13264   4.388   2.403   3.284
    3OL    H18S13265   4.465   2.315   3.423
    3OL    H18T13266   4.502   2.288   3.252
    1PA    C11613267   3.042   4.930   3.908
    1PA    H16R13268   3.112   4.895   3.984
    1PA    H16S13269   2.986   5.016   3.946
    1PA    H16T13270   3.096   4.956   3.817
    1PA    C11513271   2.935   4.821   3.889
    1PA    H15R13272   2.872   4.801   3.975
    1PA    H15S13273   2.867   4.867   3.816
    1PA    C11413274   3.003   4.695   3.833
    1PA    H14R13275   3.055   4.721   3.741
    1PA    H14S13276   3.083   4.667   3.902
    1PA    C11313277   2.908   4.578   3.803
    1PA    H13R13278   2.851   4.556   3.894
    1PA    H13S13279   2.833   4.615   3.732
    1PA    C11213280   2.971   4.456   3.735
    1PA    H12R13281   3.028   4.488   3.647
    1PA    H12S13282   3.035   4.406   3.807
    1PA    C11113283   2.878   4.347   3.681
    1PA    H11R13284   2.819   4.301   3.761
    1PA    H11S13285   2.810   4.393   3.608
    1PA    C11013286   2.953   4.238   3.602
    1PA    H10R13287   3.014   4.299   3.534
    1PA    H10S13288   3.017   4.179   3.668
    1PA     C1913289   2.869   4.144   3.516
    1PA     H9R13290   2.808   4.078   3.578
    1PA     H9S13291   2.790   4.203   3.468
    1PA     C1813292   2.948   4.056   3.418
    1PA     H8R13293   3.026   3.999   3.470
    1PA     H8S13294   2.886   3.978   3.375
    1PA     C1713295   3.008   4.130   3.298
    1PA     H7R13296   2.933   4.192   3.250
    1PA     H7S13297   3.093   4.191   3.329
    1PA     C1613298   3.061   4.029   3.195
    1PA     H6R13299   3.142   3.967   3.235
    1PA     H6S13300   2.982   3.961   3.163
    1PA     C1513301   3.114   4.100   3.069
    1PA     H5R13302   3.028   4.155   3.031
    1PA     H5S13303   3.203   4.155   3.097
    1PA     C1413304   3.159   3.987   2.976
    1PA     H4R13305   3.235   3.917   3.013
    1PA     H4S13306   3.076   3.921   2.948
    1PA     C1313307   3.199   4.045   2.839
    1PA     H3R13308   3.177   3.966   2.767
    1PA     H3S13309   3.128   4.122   2.811
    1PA     C1213310   3.343   4.094   2.821
    1PA     H2R13311   3.375   4.178   2.882
    1PA     H2S13312   3.421   4.024   2.853
    2PC     C1113313   3.384   4.128   2.680
    2PC     O1213314   3.439   4.052   2.603
    2PC     O1113315   3.356   4.258   2.660
    2PC      C113316   3.389   4.327   2.538
    2PC      HR13317   3.384   4.434   2.556
    2PC      HS13318   3.492   4.302   2.512
    2PC      C213319   3.291   4.289   2.426
    2PC      HX13320   3.299   4.185   2.393
    2PC      C313321   3.315   4.384   2.308
    2PC      HA13322   3.276   4.481   2.337
    2PC      HB13323   3.416   4.391   2.267
    2PC     O3113324   3.234   4.335   2.199
    2PC     P3113325   3.279   4.394   2.057
    2PC     O3213326   3.208   4.538   2.062
    2PC     C3113327   3.260   4.642   1.978
    2PC     H1A13328   3.225   4.729   2.033
    2PC     H1B13329   3.369   4.635   1.972
    2PC     C3213330   3.191   4.628   1.841
    2PC     H2A13331   3.230   4.711   1.783
    2PC     H2B13332   3.224   4.536   1.794
    2PC     N3113333   3.041   4.628   1.827
    2PC     C3313334   2.999   4.621   1.684
    2PC     H3A13335   2.890   4.633   1.680
    2PC     H3B13336   3.040   4.710   1.635
    2PC     H3C13337   3.043   4.535   1.634
    2PC     C3413338   2.981   4.505   1.887
    2PC     H4A13339   2.883   4.489   1.841
    2PC     H4B13340   3.043   4.417   1.872
    2PC     H4C13341   2.963   4.527   1.992
    2PC     C3513342   2.978   4.748   1.892
    2PC     H5A13343   2.870   4.741   1.874
    2PC     H5B13344   3.007   4.842   1.846
    2PC     H5C13345   3.002   4.747   1.999
    2PC     O3313346   3.426   4.399   2.047
    2PC     O3413347   3.253   4.311   1.938
    2PC     O2113348   3.156   4.313   2.472
    2PC     C2113349   3.083   4.214   2.525
    2PC     O2213350   3.106   4.096   2.510
    3OL     C1213351   2.961   4.260   2.601
    3OL     H2R13352   2.925   4.190   2.676
    3OL     H2S13353   2.882   4.255   2.525
    3OL     C1313354   2.961   4.398   2.669
    3OL     H3R13355   2.979   4.466   2.585
    3OL     H3S13356   3.040   4.404   2.744
    3OL     C1413357   2.831   4.435   2.740
    3OL     H4R13358   2.747   4.435   2.671
    3OL     H4S13359   2.834   4.537   2.781
    3OL     C1513360   2.795   4.340   2.855
    3OL     H5R13361   2.860   4.366   2.939
    3OL     H5S13362   2.804   4.235   2.828
    3OL     C1613363   2.649   4.365   2.894
    3OL     H6R13364   2.634   4.275   2.955
    3OL     H6S13365   2.599   4.376   2.798
    3OL     C1713366   2.635   4.485   2.990
    3OL     H7R13367   2.665   4.565   2.921
    3OL     H7S13368   2.705   4.490   3.074
    3OL     C1813369   2.491   4.503   3.037
    3OL     H8R13370   2.428   4.522   2.950
    3OL     H8S13371   2.490   4.590   3.104
    3OL     C1913372   2.436   4.380   3.105
    3OL     H9R13373   2.403   4.296   3.045
    3OL    C11013374   2.440   4.366   3.236
    3OL    H10R13375   2.409   4.270   3.278
    3OL    C11113376   2.462   4.471   3.342
    3OL    H11R13377   2.494   4.568   3.306
    3OL    H11S13378   2.545   4.434   3.402
    3OL    C11213379   2.329   4.470   3.420
    3OL    H12R13380   2.297   4.367   3.436
    3OL    H12S13381   2.254   4.521   3.359
    3OL    C11313382   2.341   4.557   3.546
    3OL    H13R13383   2.245   4.567   3.597
    3OL    H13S13384   2.366   4.657   3.508
    3OL    C11413385   2.440   4.510   3.653
    3OL    H14R13386   2.438   4.579   3.738
    3OL    H14S13387   2.545   4.516   3.621
    3OL    C11513388   2.403   4.373   3.710
    3OL    H15R13389   2.428   4.297   3.635
    3OL    H15S13390   2.294   4.371   3.716
    3OL    C11613391   2.473   4.329   3.840
    3OL    H16R13392   2.581   4.339   3.842
    3OL    H16S13393   2.452   4.222   3.847
    3OL    C11713394   2.426   4.411   3.961
    3OL    H17R13395   2.318   4.396   3.968
    3OL    H17S13396   2.446   4.517   3.945
    3OL    C11813397   2.498   4.357   4.085
    3OL    H18R13398   2.477   4.251   4.102
    3OL    H18S13399   2.464   4.400   4.179
    3OL    H18T13400   2.605   4.376   4.076
    1PA    C11613401  -0.190   1.154   3.715
    1PA    H16R13402  -0.265   1.232   3.726
    1PA    H16S13403  -0.093   1.192   3.746
    1PA    H16T13404  -0.211   1.067   3.779
    1PA    C11513405  -0.186   1.111   3.568
    1PA    H15R13406  -0.151   1.197   3.512
    1PA    H15S13407  -0.117   1.027   3.557
    1PA    C11413408  -0.317   1.062   3.504
    1PA    H14R13409  -0.362   0.978   3.556
    1PA    H14S13410  -0.396   1.137   3.499
    1PA    C11313411  -0.287   1.003   3.365
    1PA    H13R13412  -0.235   1.077   3.305
    1PA    H13S13413  -0.234   0.908   3.372
    1PA    C11213414  -0.414   0.973   3.284
    1PA    H12R13415  -0.475   0.895   3.330
    1PA    H12S13416  -0.472   1.065   3.282
    1PA    C11113417  -0.375   0.931   3.141
    1PA    H11R13418  -0.327   1.011   3.085
    1PA    H11S13419  -0.304   0.849   3.150
    1PA    C11013420  -0.495   0.886   3.057
    1PA    H10R13421  -0.558   0.813   3.108
    1PA    H10S13422  -0.552   0.977   3.037
    1PA     C1913423  -0.454   0.838   2.917
    1PA     H9R13424  -0.362   0.779   2.920
    1PA     H9S13425  -0.538   0.782   2.874
    1PA     C1813426  -0.437   0.950   2.814
    1PA     H8R13427  -0.530   1.005   2.824
    1PA     H8S13428  -0.356   1.019   2.841
    1PA     C1713429  -0.437   0.896   2.671
    1PA     H7R13430  -0.483   0.798   2.660
    1PA     H7S13431  -0.498   0.962   2.608
    1PA     C1613432  -0.291   0.870   2.633
    1PA     H6R13433  -0.228   0.956   2.656
    1PA     H6S13434  -0.254   0.781   2.686
    1PA     C1513435  -0.281   0.839   2.482
    1PA     H5R13436  -0.344   0.754   2.456
    1PA     H5S13437  -0.312   0.929   2.429
    1PA     C1413438  -0.135   0.803   2.450
    1PA     H4R13439  -0.071   0.891   2.444
    1PA     H4S13440  -0.095   0.741   2.530
    1PA     C1313441  -0.122   0.724   2.320
    1PA     H3R13442  -0.189   0.638   2.314
    1PA     H3S13443  -0.145   0.789   2.236
    1PA     C1213444   0.021   0.669   2.306
    1PA     H2R13445   0.091   0.752   2.317
    1PA     H2S13446   0.047   0.606   2.392
    2PC     C1113447   0.044   0.601   2.173
    2PC     O1213448  -0.047   0.554   2.108
    2PC     O1113449   0.170   0.616   2.130
    2PC      C113450   0.213   0.560   2.005
    2PC      HR13451   0.322   0.556   2.005
    2PC      HS13452   0.172   0.462   1.979
    2PC      C213453   0.167   0.652   1.890
    2PC      HX13454   0.065   0.689   1.903
    2PC      C313455   0.183   0.573   1.760
    2PC      HA13456   0.105   0.497   1.753
    2PC      HB13457   0.166   0.641   1.676
    2PC     O3113458   0.313   0.513   1.746
    2PC     P3113459   0.347   0.424   1.617
    2PC     O3213460   0.506   0.420   1.637
    2PC     C3113461   0.572   0.547   1.641
    2PC     H1A13462   0.590   0.580   1.538
    2PC     H1B13463   0.513   0.621   1.696
    2PC     C3213464   0.708   0.524   1.709
    2PC     H2A13465   0.770   0.456   1.651
    2PC     H2B13466   0.763   0.618   1.704
    2PC     N3113467   0.708   0.498   1.857
    2PC     C3313468   0.620   0.597   1.926
    2PC     H3A13469   0.647   0.700   1.903
    2PC     H3B13470   0.516   0.588   1.895
    2PC     H3C13471   0.632   0.573   2.032
    2PC     C3413472   0.652   0.362   1.884
    2PC     H4A13473   0.667   0.331   1.988
    2PC     H4B13474   0.544   0.363   1.867
    2PC     H4C13475   0.707   0.291   1.822
    2PC     C3513476   0.850   0.504   1.906
    2PC     H5A13477   0.891   0.600   1.873
    2PC     H5B13478   0.891   0.412   1.862
    2PC     H5C13479   0.849   0.494   2.015
    2PC     O3313480   0.284   0.289   1.608
    2PC     O3413481   0.323   0.498   1.492
    2PC     O2113482   0.256   0.764   1.881
    2PC     C2113483   0.248   0.873   1.960
    2PC     O2213484   0.150   0.907   2.023
    3OL     C1213485   0.374   0.954   1.971
    3OL     H2R13486   0.347   1.059   1.985
    3OL     H2S13487   0.431   0.949   1.877
    3OL     C1313488   0.463   0.901   2.084
    3OL     H3R13489   0.565   0.939   2.071
    3OL     H3S13490   0.458   0.792   2.080
    3OL     C1413491   0.422   0.961   2.219
    3OL     H4R13492   0.329   0.908   2.239
    3OL     H4S13493   0.396   1.067   2.209
    3OL     C1513494   0.526   0.935   2.329
    3OL     H5R13495   0.573   0.839   2.311
    3OL     H5S13496   0.475   0.932   2.426
    3OL     C1613497   0.634   1.044   2.331
    3OL     H6R13498   0.586   1.141   2.343
    3OL     H6S13499   0.677   1.056   2.232
    3OL     C1713500   0.745   1.014   2.433
    3OL     H7R13501   0.834   1.062   2.392
    3OL     H7S13502   0.760   0.907   2.451
    3OL     C1813503   0.709   1.074   2.569
    3OL     H8R13504   0.615   1.031   2.604
    3OL     H8S13505   0.705   1.182   2.552
    3OL     C1913506   0.823   1.057   2.667
    3OL     H9R13507   0.920   1.040   2.621
    3OL    C11013508   0.819   1.076   2.798
    3OL    H10R13509   0.913   1.058   2.850
    3OL    C11113510   0.696   1.108   2.879
    3OL    H11R13511   0.605   1.085   2.824
    3OL    H11S13512   0.680   1.214   2.898
    3OL    C11213513   0.695   1.033   3.013
    3OL    H12R13514   0.774   1.081   3.072
    3OL    H12S13515   0.727   0.931   2.993
    3OL    C11313516   0.566   1.027   3.097
    3OL    H13R13517   0.480   0.996   3.037
    3OL    H13S13518   0.537   1.127   3.129
    3OL    C11413519   0.587   0.933   3.217
    3OL    H14R13520   0.592   0.828   3.190
    3OL    H14S13521   0.497   0.943   3.279
    3OL    C11513522   0.694   0.976   3.319
    3OL    H15R13523   0.787   0.933   3.283
    3OL    H15S13524   0.674   0.935   3.418
    3OL    C11613525   0.706   1.127   3.345
    3OL    H16R13526   0.618   1.161   3.399
    3OL    H16S13527   0.713   1.186   3.254
    3OL    C11713528   0.829   1.150   3.433
    3OL    H17R13529   0.856   1.255   3.429
    3OL    H17S13530   0.916   1.094   3.398
    3OL    C11813531   0.806   1.098   3.576
    3OL    H18R13532   0.702   1.114   3.604
    3OL    H18S13533   0.859   1.152   3.655
    3OL    H18T13534   0.835   0.993   3.573
    1PA    C11613535   2.538   4.822   3.873
    1PA    H16R13536   2.511   4.908   3.935
    1PA    H16S13537   2.620   4.767   3.919
    1PA    H16T13538   2.444   4.767   3.873
    1PA    C11513539   2.579   4.865   3.731
    1PA    H15R13540   2.660   4.938   3.733
    1PA    H15S13541   2.618   4.776   3.681
    1PA    C11413542   2.465   4.940   3.659
    1PA    H14R13543   2.375   4.880   3.657
    1PA    H14S13544   2.442   5.029   3.718
    1PA    C11313545   2.497   4.969   3.512
    1PA    H13R13546   2.597   5.014   3.508
    1PA    H13S13547   2.497   4.870   3.467
    1PA    C11213548   2.394   5.065   3.450
    1PA    H12R13549   2.294   5.021   3.453
    1PA    H12S13550   2.392   5.160   3.504
    1PA    C11113551   2.431   5.085   3.302
    1PA    H11R13552   2.528   5.132   3.288
    1PA    H11S13553   2.430   4.984   3.260
    1PA    C11013554   2.324   5.156   3.218
    1PA    H10R13555   2.222   5.117   3.222
    1PA    H10S13556   2.334   5.262   3.241
    1PA     C1913557   2.347   5.132   3.068
    1PA     H9R13558   2.445   5.170   3.038
    1PA     H9S13559   2.343   5.025   3.049
    1PA     C1813560   2.240   5.201   2.983
    1PA     H8R13561   2.146   5.164   3.024
    1PA     H8S13562   2.249   5.309   3.000
    1PA     C1713563   2.265   5.158   2.838
    1PA     H7R13564   2.364   5.192   2.808
    1PA     H7S13565   2.263   5.049   2.831
    1PA     C1613566   2.153   5.221   2.754
    1PA     H6R13567   2.061   5.166   2.776
    1PA     H6S13568   2.142   5.327   2.775
    1PA     C1513569   2.180   5.211   2.604
    1PA     H5R13570   2.099   5.249   2.542
    1PA     H5S13571   2.265   5.277   2.582
    1PA     C1413572   2.202   5.069   2.549
    1PA     H4R13573   2.302   5.034   2.571
    1PA     H4S13574   2.129   5.001   2.594
    1PA     C1313575   2.192   5.073   2.396
    1PA     H3R13576   2.099   5.117   2.359
    1PA     H3S13577   2.282   5.123   2.359
    1PA     C1213578   2.199   4.934   2.331
    1PA     H2R13579   2.289   4.883   2.367
    1PA     H2S13580   2.120   4.874   2.376
    2PC     C1113581   2.180   4.931   2.181
    2PC     O1213582   2.182   5.032   2.113
    2PC     O1113583   2.185   4.804   2.139
    2PC      C113584   2.184   4.766   2.000
    2PC      HR13585   2.175   4.657   1.996
    2PC      HS13586   2.095   4.802   1.949
    2PC      C213587   2.314   4.807   1.928
    2PC      HX13588   2.330   4.911   1.957
    2PC      C313589   2.307   4.779   1.778
    2PC      HA13590   2.357   4.687   1.745
    2PC      HB13591   2.204   4.766   1.744
    2PC     O3113592   2.369   4.884   1.702
    2PC     P3113593   2.284   5.019   1.686
    2PC     O3213594   2.227   5.004   1.537
    2PC     C3113595   2.314   5.030   1.425
    2PC     H1A13596   2.353   5.132   1.436
    2PC     H1B13597   2.396   4.959   1.416
    2PC     C3213598   2.233   5.021   1.295
    2PC     H2A13599   2.214   4.915   1.276
    2PC     H2B13600   2.144   5.079   1.323
    2PC     N3113601   2.275   5.073   1.161
    2PC     C3313602   2.325   5.214   1.170
    2PC     H3A13603   2.235   5.276   1.172
    2PC     H3B13604   2.381   5.223   1.263
    2PC     H3C13605   2.385   5.229   1.080
    2PC     C3413606   2.383   4.981   1.114
    2PC     H4A13607   2.347   4.879   1.104
    2PC     H4B13608   2.407   5.013   1.012
    2PC     H4C13609   2.469   4.997   1.180
    2PC     C3513610   2.165   5.062   1.060
    2PC     H5A13611   2.099   5.148   1.063
    2PC     H5B13612   2.117   4.971   1.097
    2PC     H5C13613   2.214   5.056   0.962
    2PC     O3313614   2.179   5.043   1.788
    2PC     O3413615   2.349   5.152   1.685
    2PC     O2113616   2.425   4.730   1.977
    2PC     C2113617   2.498   4.766   2.084
    2PC     O2213618   2.474   4.862   2.155
    3OL     C1213619   2.610   4.669   2.112
    3OL     H2R13620   2.698   4.683   2.049
    3OL     H2S13621   2.564   4.575   2.079
    3OL     C1313622   2.646   4.650   2.260
    3OL     H3R13623   2.665   4.749   2.301
    3OL     H3S13624   2.736   4.591   2.276
    3OL     C1413625   2.530   4.590   2.340
    3OL     H4R13626   2.481   4.511   2.283
    3OL     H4S13627   2.460   4.670   2.366
    3OL     C1513628   2.574   4.528   2.474
    3OL     H5R13629   2.627   4.601   2.536
    3OL     H5S13630   2.639   4.440   2.467
    3OL     C1613631   2.452   4.484   2.555
    3OL     H6R13632   2.467   4.385   2.600
    3OL     H6S13633   2.365   4.476   2.490
    3OL     C1713634   2.431   4.574   2.678
    3OL     H7R13635   2.522   4.593   2.736
    3OL     H7S13636   2.359   4.520   2.739
    3OL     C1813637   2.361   4.705   2.642
    3OL     H8R13638   2.262   4.676   2.606
    3OL     H8S13639   2.416   4.754   2.562
    3OL     C1913640   2.344   4.795   2.762
    3OL     H9R13641   2.427   4.864   2.777
    3OL    C11013642   2.245   4.802   2.850
    3OL    H10R13643   2.250   4.866   2.937
    3OL    C11113644   2.135   4.698   2.852
    3OL    H11R13645   2.137   4.643   2.758
    3OL    H11S13646   2.035   4.740   2.845
    3OL    C11213647   2.149   4.597   2.966
    3OL    H12R13648   2.088   4.635   3.049
    3OL    H12S13649   2.248   4.601   3.011
    3OL    C11313650   2.124   4.450   2.931
    3OL    H13R13651   2.210   4.399   2.886
    3OL    H13S13652   2.036   4.430   2.870
    3OL    C11413653   2.111   4.378   3.066
    3OL    H14R13654   2.018   4.401   3.117
    3OL    H14S13655   2.190   4.412   3.133
    3OL    C11513656   2.112   4.224   3.061
    3OL    H15R13657   2.205   4.198   3.010
    3OL    H15S13658   2.024   4.194   3.003
    3OL    C11613659   2.099   4.162   3.200
    3OL    H16R13660   2.001   4.184   3.242
    3OL    H16S13661   2.172   4.188   3.278
    3OL    C11713662   2.107   4.009   3.185
    3OL    H17R13663   2.205   3.974   3.150
    3OL    H17S13664   2.044   3.975   3.103
    3OL    C11813665   2.075   3.935   3.315
    3OL    H18R13666   2.103   3.829   3.318
    3OL    H18S13667   1.966   3.942   3.328
    3OL    H18T13668   2.133   3.982   3.395
    1PA    C11613669   2.628   4.926   2.974
    1PA    H16R13670   2.604   4.983   2.884
    1PA    H16S13671   2.541   4.905   3.036
    1PA    H16T13672   2.670   4.834   2.933
    1PA    C11513673   2.741   4.992   3.054
    1PA    H15R13674   2.822   5.023   2.987
    1PA    H15S13675   2.705   5.090   3.087
    1PA    C11413676   2.803   4.904   3.164
    1PA    H14R13677   2.876   4.852   3.102
    1PA    H14S13678   2.858   4.967   3.234
    1PA    C11313679   2.703   4.817   3.241
    1PA    H13R13680   2.615   4.875   3.269
    1PA    H13S13681   2.669   4.738   3.173
    1PA    C11213682   2.769   4.755   3.365
    1PA    H12R13683   2.844   4.827   3.399
    1PA    H12S13684   2.698   4.747   3.448
    1PA    C11113685   2.834   4.620   3.334
    1PA    H11R13686   2.836   4.562   3.427
    1PA    H11S13687   2.757   4.573   3.272
    1PA    C11013688   2.969   4.625   3.261
    1PA    H10R13689   2.956   4.660   3.158
    1PA    H10S13690   3.037   4.695   3.309
    1PA     C1913691   3.031   4.485   3.253
    1PA     H9R13692   3.050   4.442   3.351
    1PA     H9S13693   2.968   4.408   3.208
    1PA     C1813694   3.167   4.489   3.181
    1PA     H8R13695   3.235   4.563   3.223
    1PA     H8S13696   3.210   4.392   3.210
    1PA     C1713697   3.143   4.497   3.030
    1PA     H7R13698   3.113   4.403   2.983
    1PA     H7S13699   3.074   4.576   2.998
    1PA     C1613700   3.280   4.529   2.969
    1PA     H6R13701   3.321   4.620   3.013
    1PA     H6S13702   3.343   4.442   2.992
    1PA     C1513703   3.284   4.542   2.816
    1PA     H5R13704   3.385   4.578   2.794
    1PA     H5S13705   3.271   4.445   2.767
    1PA     C1413706   3.190   4.652   2.766
    1PA     H4R13707   3.085   4.632   2.786
    1PA     H4S13708   3.225   4.747   2.807
    1PA     C1313709   3.204   4.672   2.614
    1PA     H3R13710   3.310   4.680   2.590
    1PA     H3S13711   3.166   4.585   2.560
    1PA     C1213712   3.126   4.797   2.571
    1PA     H2R13713   3.019   4.794   2.592
    1PA     H2S13714   3.159   4.874   2.640
    2PC     C1113715   3.149   4.842   2.429
    2PC     O1213716   3.179   4.772   2.334
    2PC     O1113717   3.143   4.976   2.422
    2PC      C113718   3.181   5.046   2.301
    2PC      HR13719   3.182   5.152   2.328
    2PC      HS13720   3.281   5.020   2.266
    2PC      C213721   3.087   5.013   2.184
    2PC      HX13722   3.075   4.905   2.179
    2PC      C313723   3.144   5.085   2.061
    2PC      HA13724   3.145   5.192   2.081
    2PC      HB13725   3.248   5.052   2.049
    2PC     O3113726   3.063   5.057   1.946
    2PC     P3113727   3.106   5.132   1.811
    2PC     O3213728   3.146   5.283   1.844
    2PC     C3113729   3.262   5.326   1.769
    2PC     H1A13730   3.348   5.274   1.813
    2PC     H1B13731   3.249   5.295   1.665
    2PC     C3213732   3.283   5.477   1.783
    2PC     H2A13733   3.307   5.488   1.889
    2PC     H2B13734   3.370   5.516   1.729
    2PC     N3113735   3.170   5.568   1.744
    2PC     C3313736   3.198   5.711   1.779
    2PC     H3A13737   3.138   5.773   1.712
    2PC     H3B13738   3.171   5.724   1.884
    2PC     H3C13739   3.302   5.729   1.754
    2PC     C3413740   3.150   5.546   1.598
    2PC     H4A13741   3.071   5.613   1.563
    2PC     H4B13742   3.246   5.534   1.547
    2PC     H4C13743   3.098   5.450   1.591
    2PC     C3513744   3.041   5.542   1.815
    2PC     H5A13745   3.066   5.554   1.920
    2PC     H5B13746   3.016   5.442   1.777
    2PC     H5C13747   2.969   5.610   1.770
    2PC     O3313748   3.217   5.047   1.764
    2PC     O3413749   2.997   5.144   1.711
    2PC     O2113750   2.960   5.076   2.211
    2PC     C2113751   2.864   5.007   2.274
    2PC     O2213752   2.870   4.892   2.312
    3OL     C1213753   2.740   5.083   2.314
    3OL     H2R13754   2.672   5.081   2.229
    3OL     H2S13755   2.777   5.184   2.338
    3OL     C1313756   2.679   5.027   2.443
    3OL     H3R13757   2.659   4.920   2.428
    3OL     H3S13758   2.580   5.071   2.447
    3OL     C1413759   2.757   5.042   2.575
    3OL     H4R13760   2.844   4.976   2.568
    3OL     H4S13761   2.696   5.008   2.658
    3OL     C1513762   2.800   5.187   2.604
    3OL     H5R13763   2.715   5.256   2.602
    3OL     H5S13764   2.876   5.212   2.531
    3OL     C1613765   2.869   5.198   2.741
    3OL     H6R13766   2.960   5.138   2.743
    3OL     H6S13767   2.806   5.153   2.817
    3OL     C1713768   2.894   5.345   2.777
    3OL     H7R13769   2.799   5.395   2.756
    3OL     H7S13770   2.968   5.383   2.706
    3OL     C1813771   2.944   5.366   2.921
    3OL     H8R13772   3.050   5.344   2.936
    3OL     H8S13773   2.878   5.297   2.973
    3OL     C1913774   2.914   5.507   2.965
    3OL     H9R13775   2.813   5.542   2.946
    3OL    C11013776   2.997   5.592   3.024
    3OL    H10R13777   2.952   5.688   3.050
    3OL    C11113778   3.143   5.576   3.055
    3OL    H11R13779   3.202   5.659   3.016
    3OL    H11S13780   3.190   5.487   3.013
    3OL    C11213781   3.177   5.568   3.205
    3OL    H12R13782   3.145   5.664   3.247
    3OL    H12S13783   3.283   5.547   3.215
    3OL    C11313784   3.111   5.452   3.280
    3OL    H13R13785   3.118   5.355   3.230
    3OL    H13S13786   3.004   5.472   3.288
    3OL    C11413787   3.169   5.435   3.422
    3OL    H14R13788   3.150   5.527   3.479
    3OL    H14S13789   3.277   5.427   3.409
    3OL    C11513790   3.108   5.324   3.507
    3OL    H15R13791   3.151   5.322   3.607
    3OL    H15S13792   3.129   5.231   3.454
    3OL    C11613793   2.956   5.321   3.527
    3OL    H16R13794   2.908   5.313   3.429
    3OL    H16S13795   2.932   5.418   3.572
    3OL    C11713796   2.916   5.211   3.626
    3OL    H17R13797   2.840   5.250   3.694
    3OL    H17S13798   2.996   5.195   3.699
    3OL    C11813799   2.875   5.086   3.547
    3OL    H18R13800   2.798   5.116   3.475
    3OL    H18S13801   2.813   5.023   3.611
    3OL    H18T13802   2.957   5.031   3.500
    1PA    C11613803   1.163   0.857   3.748
    1PA    H16R13804   1.104   0.769   3.720
    1PA    H16S13805   1.092   0.902   3.817
    1PA    H16T13806   1.255   0.811   3.785
    1PA    C11513807   1.183   0.942   3.622
    1PA    H15R13808   1.081   0.959   3.586
    1PA    H15S13809   1.238   1.030   3.656
    1PA    C11413810   1.262   0.863   3.517
    1PA    H14R13811   1.353   0.825   3.563
    1PA    H14S13812   1.204   0.778   3.482
    1PA    C11313813   1.291   0.957   3.398
    1PA    H13R13814   1.204   1.004   3.351
    1PA    H13S13815   1.361   1.029   3.441
    1PA    C11213816   1.375   0.885   3.293
    1PA    H12R13817   1.332   0.787   3.269
    1PA    H12S13818   1.375   0.940   3.198
    1PA    C11113819   1.521   0.863   3.333
    1PA    H11R13820   1.573   0.958   3.318
    1PA    H11S13821   1.533   0.844   3.440
    1PA    C11013822   1.588   0.749   3.254
    1PA    H10R13823   1.554   0.651   3.287
    1PA    H10S13824   1.564   0.762   3.149
    1PA     C1913825   1.740   0.751   3.275
    1PA     H9R13826   1.757   0.852   3.240
    1PA     H9S13827   1.769   0.730   3.378
    1PA     C1813828   1.802   0.661   3.167
    1PA     H8R13829   1.741   0.570   3.167
    1PA     H8S13830   1.789   0.701   3.066
    1PA     C1713831   1.947   0.629   3.204
    1PA     H7R13832   1.952   0.604   3.311
    1PA     H7S13833   1.989   0.547   3.146
    1PA     C1613834   2.037   0.752   3.181
    1PA     H6R13835   1.983   0.833   3.229
    1PA     H6S13836   2.116   0.738   3.254
    1PA     C1513837   2.081   0.777   3.036
    1PA     H5R13838   2.126   0.685   2.999
    1PA     H5S13839   1.994   0.804   2.975
    1PA     C1413840   2.171   0.902   3.043
    1PA     H4R13841   2.117   0.984   3.091
    1PA     H4S13842   2.254   0.883   3.110
    1PA     C1313843   2.231   0.930   2.904
    1PA     H3R13844   2.150   0.944   2.833
    1PA     H3S13845   2.287   1.024   2.912
    1PA     C1213846   2.319   0.817   2.850
    1PA     H2R13847   2.418   0.813   2.896
    1PA     H2S13848   2.271   0.719   2.843
    2PC     C1113849   2.367   0.842   2.710
    2PC     O1213850   2.470   0.797   2.664
    2PC     O1113851   2.281   0.910   2.632
    2PC      C113852   2.330   0.953   2.504
    2PC      HR13853   2.410   1.024   2.526
    2PC      HS13854   2.369   0.870   2.444
    2PC      C213855   2.218   1.029   2.432
    2PC      HX13856   2.146   0.952   2.402
    2PC      C313857   2.271   1.090   2.302
    2PC      HA13858   2.341   1.169   2.332
    2PC      HB13859   2.327   1.009   2.254
    2PC     O3113860   2.160   1.140   2.226
    2PC     P3113861   2.118   1.078   2.085
    2PC     O3213862   2.056   0.941   2.142
    2PC     C3113863   2.052   0.837   2.042
    2PC     H1A13864   2.038   0.882   1.943
    2PC     H1B13865   2.153   0.795   2.041
    2PC     C3213866   1.945   0.732   2.075
    2PC     H2A13867   1.972   0.671   2.161
    2PC     H2B13868   1.858   0.790   2.106
    2PC     N3113869   1.909   0.631   1.970
    2PC     C3313870   2.007   0.519   1.951
    2PC     H3A13871   1.980   0.441   1.880
    2PC     H3B13872   2.097   0.568   1.915
    2PC     H3C13873   2.021   0.473   2.049
    2PC     C3413874   1.795   0.556   2.031
    2PC     H4A13875   1.707   0.620   2.036
    2PC     H4B13876   1.782   0.469   1.966
    2PC     H4C13877   1.824   0.524   2.132
    2PC     C3513878   1.883   0.693   1.836
    2PC     H5A13879   1.808   0.771   1.852
    2PC     H5B13880   1.845   0.621   1.764
    2PC     H5C13881   1.969   0.748   1.798
    2PC     O3313882   2.010   1.159   2.024
    2PC     O3413883   2.228   1.066   1.987
    2PC     O2113884   2.167   1.128   2.524
    2PC     C2113885   2.043   1.177   2.506
    2PC     O2213886   1.961   1.154   2.421
    3OL     C1213887   2.005   1.273   2.617
    3OL     H2R13888   1.897   1.285   2.612
    3OL     H2S13889   2.052   1.367   2.589
    3OL     C1313890   2.048   1.226   2.757
    3OL     H3R13891   2.154   1.203   2.746
    3OL     H3S13892   1.998   1.134   2.788
    3OL     C1413893   2.029   1.326   2.872
    3OL     H4R13894   2.042   1.278   2.969
    3OL     H4S13895   1.929   1.367   2.861
    3OL     C1513896   2.124   1.446   2.862
    3OL     H5R13897   2.111   1.504   2.770
    3OL     H5S13898   2.225   1.404   2.867
    3OL     C1613899   2.111   1.538   2.984
    3OL     H6R13900   2.201   1.597   2.999
    3OL     H6S13901   2.099   1.470   3.069
    3OL     C1713902   1.990   1.632   2.972
    3OL     H7R13903   1.895   1.581   2.958
    3OL     H7S13904   2.008   1.691   2.882
    3OL     C1813905   1.980   1.725   3.094
    3OL     H8R13906   1.968   1.659   3.180
    3OL     H8S13907   1.892   1.785   3.071
    3OL     C1913908   2.097   1.819   3.112
    3OL     H9R13909   2.105   1.882   3.024
    3OL    C11013910   2.175   1.839   3.217
    3OL    H10R13911   2.242   1.924   3.212
    3OL    C11113912   2.173   1.768   3.350
    3OL    H11R13913   2.275   1.758   3.388
    3OL    H11S13914   2.127   1.671   3.333
    3OL    C11213915   2.076   1.852   3.436
    3OL    H12R13916   1.974   1.830   3.405
    3OL    H12S13917   2.099   1.958   3.423
    3OL    C11313918   2.093   1.835   3.587
    3OL    H13R13919   2.192   1.869   3.620
    3OL    H13S13920   2.083   1.728   3.608
    3OL    C11413921   1.981   1.907   3.663
    3OL    H14R13922   1.891   1.886   3.606
    3OL    H14S13923   2.009   2.013   3.667
    3OL    C11513924   1.970   1.861   3.809
    3OL    H15R13925   2.062   1.888   3.861
    3OL    H15S13926   1.966   1.753   3.826
    3OL    C11613927   1.856   1.935   3.881
    3OL    H16R13928   1.770   1.899   3.824
    3OL    H16S13929   1.856   2.042   3.862
    3OL    C11713930   1.833   1.907   4.030
    3OL    H17R13931   1.839   1.800   4.050
    3OL    H17S13932   1.735   1.937   4.069
    3OL    C11813933   1.948   1.970   4.111
    3OL    H18R13934   1.937   2.077   4.130
    3OL    H18S13935   2.046   1.959   4.064
    3OL    H18T13936   1.953   1.924   4.209
    1PA    C11613937   1.850   5.865   4.358
    1PA    H16R13938   1.832   5.763   4.391
    1PA    H16S13939   1.853   5.930   4.446
    1PA    H16T13940   1.956   5.866   4.332
    1PA    C11513941   1.763   5.911   4.240
    1PA    H15R13942   1.659   5.887   4.261
    1PA    H15S13943   1.773   6.019   4.223
    1PA    C11413944   1.802   5.829   4.116
    1PA    H14R13945   1.909   5.837   4.094
    1PA    H14S13946   1.784   5.725   4.145
    1PA    C11313947   1.719   5.860   3.991
    1PA    H13R13948   1.615   5.829   4.006
    1PA    H13S13949   1.731   5.967   3.976
    1PA    C11213950   1.777   5.790   3.868
    1PA    H12R13951   1.879   5.823   3.846
    1PA    H12S13952   1.785   5.683   3.893
    1PA    C11113953   1.681   5.797   3.749
    1PA    H11R13954   1.578   5.767   3.766
    1PA    H11S13955   1.666   5.902   3.722
    1PA    C11013956   1.746   5.727   3.629
    1PA    H10R13957   1.848   5.763   3.619
    1PA    H10S13958   1.749   5.618   3.640
    1PA     C1913959   1.661   5.749   3.503
    1PA     H9R13960   1.561   5.722   3.537
    1PA     H9S13961   1.648   5.857   3.488
    1PA     C1813962   1.698   5.675   3.374
    1PA     H8R13963   1.739   5.578   3.403
    1PA     H8S13964   1.612   5.663   3.309
    1PA     C1713965   1.810   5.748   3.299
    1PA     H7R13966   1.766   5.845   3.275
    1PA     H7S13967   1.898   5.780   3.356
    1PA     C1613968   1.834   5.661   3.175
    1PA     H6R13969   1.821   5.557   3.206
    1PA     H6S13970   1.770   5.682   3.090
    1PA     C1513971   1.982   5.684   3.138
    1PA     H5R13972   2.002   5.791   3.128
    1PA     H5S13973   2.042   5.643   3.219
    1PA     C1413974   2.038   5.620   3.010
    1PA     H4R13975   2.140   5.654   2.992
    1PA     H4S13976   2.041   5.512   3.021
    1PA     C1313977   1.965   5.660   2.881
    1PA     H3R13978   1.865   5.615   2.885
    1PA     H3S13979   1.955   5.769   2.874
    1PA     C1213980   2.042   5.612   2.758
    1PA     H2R13981   2.149   5.631   2.764
    1PA     H2S13982   2.028   5.505   2.741
    2PC     C1113983   1.978   5.677   2.637
    2PC     O1213984   1.868   5.727   2.635
    2PC     O1113985   2.071   5.678   2.540
    2PC      C113986   2.051   5.715   2.403
    2PC      HR13987   1.976   5.794   2.394
    2PC      HS13988   2.144   5.755   2.363
    2PC      C213989   2.014   5.593   2.316
    2PC      HX13990   2.093   5.523   2.343
    2PC      C313991   2.002   5.635   2.169
    2PC      HA13992   2.101   5.635   2.122
    2PC      HB13993   1.947   5.556   2.118
    2PC     O3113994   1.929   5.757   2.144
    2PC     P3113995   1.926   5.818   1.997
    2PC     O3213996   1.800   5.917   1.999
    2PC     C3113997   1.669   5.862   2.022
    2PC     H1A13998   1.609   5.878   1.932
    2PC     H1B13999   1.682   5.754   2.033
    2PC     C3214000   1.596   5.940   2.132
    2PC     H2A14001   1.619   6.046   2.119
    2PC     H2B14002   1.488   5.930   2.120
    2PC     N3114003   1.640   5.928   2.275
    2PC     C3314004   1.659   5.785   2.315
    2PC     H3A14005   1.751   5.742   2.275
    2PC     H3B14006   1.672   5.782   2.423
    2PC     H3C14007   1.569   5.726   2.294
    2PC     C3414008   1.760   6.015   2.300
    2PC     H4A14009   1.798   5.996   2.400
    2PC     H4B14010   1.847   5.994   2.238
    2PC     H4C14011   1.729   6.119   2.285
    2PC     C3514012   1.523   5.979   2.353
    2PC     H5A14013   1.534   6.087   2.358
    2PC     H5B14014   1.499   5.926   2.445
    2PC     H5C14015   1.440   5.957   2.285
    2PC     O3314016   2.044   5.908   1.989
    2PC     O3414017   1.921   5.730   1.878
    2PC     O2114018   1.893   5.537   2.370
    2PC     C2114019   1.857   5.414   2.329
    2PC     O2214020   1.910   5.349   2.241
    3OL     C1214021   1.721   5.374   2.381
    3OL     H2R14022   1.715   5.266   2.368
    3OL     H2S14023   1.640   5.402   2.314
    3OL     C1314024   1.681   5.414   2.524
    3OL     H3R14025   1.573   5.425   2.531
    3OL     H3S14026   1.723   5.515   2.534
    3OL     C1414027   1.724   5.315   2.633
    3OL     H4R14028   1.832   5.296   2.624
    3OL     H4S14029   1.675   5.218   2.625
    3OL     C1514030   1.686   5.373   2.770
    3OL     H5R14031   1.577   5.382   2.766
    3OL     H5S14032   1.734   5.468   2.792
    3OL     C1614033   1.719   5.267   2.876
    3OL     H6R14034   1.826   5.246   2.874
    3OL     H6S14035   1.670   5.171   2.857
    3OL     C1714036   1.666   5.316   3.012
    3OL     H7R14037   1.558   5.332   3.011
    3OL     H7S14038   1.701   5.417   3.033
    3OL     C1814039   1.695   5.227   3.133
    3OL     H8R14040   1.662   5.260   3.232
    3OL     H8S14041   1.802   5.218   3.150
    3OL     C1914042   1.633   5.091   3.112
    3OL     H9R14043   1.527   5.094   3.136
    3OL    C11014044   1.688   4.978   3.068
    3OL    H10R14045   1.626   4.889   3.065
    3OL    C11114046   1.834   4.967   3.034
    3OL    H11R14047   1.889   5.062   3.032
    3OL    H11S14048   1.852   4.934   2.932
    3OL    C11214049   1.907   4.872   3.130
    3OL    H12R14050   2.014   4.871   3.107
    3OL    H12S14051   1.867   4.774   3.104
    3OL    C11314052   1.886   4.912   3.277
    3OL    H13R14053   1.784   4.887   3.304
    3OL    H13S14054   1.895   5.020   3.286
    3OL    C11414055   1.975   4.844   3.383
    3OL    H14R14056   2.081   4.864   3.364
    3OL    H14S14057   1.961   4.736   3.379
    3OL    C11514058   1.939   4.891   3.524
    3OL    H15R14059   1.846   4.848   3.564
    3OL    H15S14060   1.926   4.999   3.521
    3OL    C11614061   2.049   4.850   3.623
    3OL    H16R14062   2.144   4.893   3.589
    3OL    H16S14063   2.062   4.741   3.618
    3OL    C11714064   2.012   4.895   3.765
    3OL    H17R14065   1.931   4.830   3.798
    3OL    H17S14066   1.991   5.002   3.763
    3OL    C11814067   2.123   4.881   3.870
    3OL    H18R14068   2.075   4.904   3.966
    3OL    H18S14069   2.208   4.945   3.847
    3OL    H18T14070   2.161   4.779   3.871
    1PA    C11614071   1.360   5.572   4.315
    1PA    H16R14072   1.300   5.491   4.272
    1PA    H16S14073   1.336   5.598   4.418
    1PA    H16T14074   1.458   5.527   4.302
    1PA    C11514075   1.347   5.699   4.229
    1PA    H15R14076   1.409   5.783   4.258
    1PA    H15S14077   1.384   5.667   4.131
    1PA    C11414078   1.199   5.735   4.211
    1PA    H14R14079   1.142   5.645   4.188
    1PA    H14S14080   1.159   5.760   4.309
    1PA    C11314081   1.150   5.833   4.104
    1PA    H13R14082   1.041   5.844   4.113
    1PA    H13S14083   1.197   5.930   4.121
    1PA    C11214084   1.189   5.796   3.960
    1PA    H12R14085   1.299   5.794   3.963
    1PA    H12S14086   1.170   5.693   3.930
    1PA    C11114087   1.126   5.888   3.855
    1PA    H11R14088   1.017   5.887   3.866
    1PA    H11S14089   1.164   5.991   3.855
    1PA    C11014090   1.158   5.841   3.713
    1PA    H10R14091   1.263   5.813   3.713
    1PA    H10S14092   1.091   5.759   3.686
    1PA     C1914093   1.147   5.961   3.617
    1PA     H9R14094   1.042   5.985   3.631
    1PA     H9S14095   1.211   6.045   3.647
    1PA     C1814096   1.169   5.928   3.469
    1PA     H8R14097   1.096   5.855   3.433
    1PA     H8S14098   1.142   6.016   3.409
    1PA     C1714099   1.319   5.899   3.452
    1PA     H7R14100   1.392   5.972   3.487
    1PA     H7S14101   1.341   5.805   3.503
    1PA     C1614102   1.358   5.880   3.305
    1PA     H6R14103   1.357   5.981   3.263
    1PA     H6S14104   1.463   5.851   3.314
    1PA     C1514105   1.282   5.786   3.210
    1PA     H5R14106   1.274   5.682   3.241
    1PA     H5S14107   1.182   5.821   3.184
    1PA     C1414108   1.363   5.767   3.081
    1PA     H4R14109   1.394   5.857   3.029
    1PA     H4S14110   1.446   5.703   3.110
    1PA     C1314111   1.282   5.680   2.984
    1PA     H3R14112   1.243   5.589   3.031
    1PA     H3S14113   1.185   5.723   2.958
    1PA     C1214114   1.355   5.645   2.854
    1PA     H2R14115   1.387   5.741   2.815
    1PA     H2S14116   1.436   5.572   2.864
    2PC     C1114117   1.263   5.575   2.757
    2PC     O1214118   1.142   5.585   2.765
    2PC     O1114119   1.326   5.505   2.661
    2PC      C114120   1.243   5.453   2.555
    2PC      HR14121   1.293   5.363   2.518
    2PC      HS14122   1.144   5.429   2.594
    2PC      C214123   1.223   5.557   2.444
    2PC      HX14124   1.175   5.527   2.351
    2PC      C314125   1.363   5.613   2.411
    2PC      HA14126   1.396   5.669   2.499
    2PC      HB14127   1.435   5.536   2.385
    2PC     O3114128   1.353   5.697   2.295
    2PC     P3114129   1.322   5.648   2.146
    2PC     O3214130   1.162   5.648   2.152
    2PC     C3114131   1.093   5.774   2.140
    2PC     H1A14132   1.114   5.832   2.230
    2PC     H1B14133   1.120   5.820   2.045
    2PC     C3214134   0.946   5.729   2.142
    2PC     H2A14135   0.921   5.671   2.231
    2PC     H2B14136   0.882   5.815   2.158
    2PC     N3114137   0.895   5.656   2.022
    2PC     C3314138   0.747   5.634   2.036
    2PC     H3A14139   0.721   5.594   2.135
    2PC     H3B14140   0.697   5.730   2.026
    2PC     H3C14141   0.723   5.561   1.959
    2PC     C3414142   0.913   5.738   1.898
    2PC     H4A14143   0.854   5.701   1.814
    2PC     H4B14144   0.869   5.833   1.926
    2PC     H4C14145   1.018   5.748   1.871
    2PC     C3514146   0.950   5.517   2.008
    2PC     H5A14147   0.905   5.457   1.929
    2PC     H5B14148   0.936   5.474   2.107
    2PC     H5C14149   1.059   5.525   2.002
    2PC     O3314150   1.379   5.723   2.031
    2PC     O3414151   1.367   5.509   2.122
    2PC     O2114152   1.145   5.665   2.499
    2PC     C2114153   1.012   5.646   2.501
    2PC     O2214154   0.957   5.548   2.455
    3OL     C1214155   0.922   5.754   2.556
    3OL     H2R14156   0.936   5.840   2.491
    3OL     H2S14157   0.970   5.790   2.648
    3OL     C1314158   0.776   5.722   2.589
    3OL     H3R14159   0.723   5.708   2.494
    3OL     H3S14160   0.737   5.811   2.639
    3OL     C1414161   0.758   5.596   2.675
    3OL     H4R14162   0.828   5.519   2.641
    3OL     H4S14163   0.657   5.557   2.667
    3OL     C1514164   0.787   5.636   2.820
    3OL     H5R14165   0.731   5.723   2.856
    3OL     H5S14166   0.892   5.666   2.825
    3OL     C1614167   0.763   5.526   2.924
    3OL     H6R14168   0.818   5.561   3.012
    3OL     H6S14169   0.814   5.440   2.880
    3OL     C1714170   0.612   5.512   2.945
    3OL     H7R14171   0.554   5.499   2.854
    3OL     H7S14172   0.577   5.605   2.991
    3OL     C1814173   0.573   5.399   3.042
    3OL     H8R14174   0.591   5.305   2.989
    3OL     H8S14175   0.464   5.411   3.046
    3OL     C1914176   0.651   5.411   3.171
    3OL     H9R14177   0.754   5.378   3.160
    3OL    C11014178   0.606   5.440   3.292
    3OL    H10R14179   0.683   5.444   3.369
    3OL    C11114180   0.466   5.476   3.333
    3OL    H11R14181   0.394   5.465   3.251
    3OL    H11S14182   0.477   5.579   3.366
    3OL    C11214183   0.409   5.391   3.448
    3OL    H12R14184   0.307   5.424   3.466
    3OL    H12S14185   0.484   5.406   3.526
    3OL    C11314186   0.394   5.246   3.400
    3OL    H13R14187   0.484   5.213   3.348
    3OL    H13S14188   0.316   5.251   3.324
    3OL    C11414189   0.343   5.154   3.512
    3OL    H14R14190   0.305   5.059   3.473
    3OL    H14S14191   0.259   5.193   3.569
    3OL    C11514192   0.439   5.117   3.626
    3OL    H15R14193   0.389   5.060   3.705
    3OL    H15S14194   0.478   5.204   3.680
    3OL    C11614195   0.560   5.036   3.579
    3OL    H16R14196   0.635   5.024   3.657
    3OL    H16S14197   0.600   5.083   3.490
    3OL    C11714198   0.518   4.898   3.525
    3OL    H17R14199   0.452   4.914   3.440
    3OL    H17S14200   0.459   4.833   3.590
    3OL    C11814201   0.644   4.834   3.466
    3OL    H18R14202   0.687   4.890   3.382
    3OL    H18S14203   0.606   4.742   3.421
    3OL    H18T14204   0.722   4.819   3.541
    1PA    C11614205   1.330  -0.042   3.661
    1PA    H16R14206   1.384  -0.063   3.753
    1PA    H16S14207   1.396  -0.067   3.579
    1PA    H16T14208   1.236  -0.097   3.655
    1PA    C11514209   1.296   0.108   3.655
    1PA    H15R14210   1.205   0.120   3.714
    1PA    H15S14211   1.375   0.175   3.690
    1PA    C11414212   1.272   0.145   3.508
    1PA    H14R14213   1.372   0.151   3.464
    1PA    H14S14214   1.217   0.067   3.454
    1PA    C11314215   1.205   0.282   3.505
    1PA    H13R14216   1.106   0.284   3.551
    1PA    H13S14217   1.265   0.354   3.560
    1PA    C11214218   1.185   0.326   3.359
    1PA    H12R14219   1.131   0.242   3.315
    1PA    H12S14220   1.109   0.403   3.374
    1PA    C11114221   1.316   0.353   3.284
    1PA    H11R14222   1.386   0.414   3.342
    1PA    H11S14223   1.366   0.256   3.276
    1PA    C11014224   1.289   0.412   3.144
    1PA    H10R14225   1.199   0.375   3.095
    1PA    H10S14226   1.263   0.517   3.155
    1PA     C1914227   1.413   0.406   3.054
    1PA     H9R14228   1.494   0.451   3.112
    1PA     H9S14229   1.437   0.301   3.035
    1PA     C1814230   1.386   0.474   2.919
    1PA     H8R14231   1.295   0.441   2.869
    1PA     H8S14232   1.363   0.579   2.932
    1PA     C1714233   1.510   0.461   2.829
    1PA     H7R14234   1.591   0.519   2.874
    1PA     H7S14235   1.534   0.355   2.833
    1PA     C1614236   1.503   0.506   2.683
    1PA     H6R14237   1.445   0.599   2.675
    1PA     H6S14238   1.605   0.528   2.651
    1PA     C1514239   1.440   0.398   2.594
    1PA     H5R14240   1.501   0.399   2.504
    1PA     H5S14241   1.465   0.307   2.649
    1PA     C1414242   1.292   0.427   2.566
    1PA     H4R14243   1.250   0.427   2.667
    1PA     H4S14244   1.290   0.517   2.504
    1PA     C1314245   1.218   0.318   2.487
    1PA     H3R14246   1.234   0.222   2.536
    1PA     H3S14247   1.111   0.330   2.507
    1PA     C1214248   1.245   0.313   2.336
    1PA     H2R14249   1.231   0.414   2.299
    1PA     H2S14250   1.350   0.287   2.317
    2PC     C1114251   1.146   0.218   2.274
    2PC     O1214252   1.032   0.205   2.312
    2PC     O1114253   1.194   0.153   2.166
    2PC      C114254   1.115   0.042   2.121
    2PC      HR14255   1.182  -0.023   2.063
    2PC      HS14256   1.083  -0.022   2.204
    2PC      C214257   0.993   0.071   2.032
    2PC      HX14258   0.957  -0.019   1.982
    2PC      C314259   1.025   0.174   1.922
    2PC      HA14260   1.042   0.273   1.965
    2PC      HB14261   1.115   0.141   1.869
    2PC     O3114262   0.916   0.188   1.830
    2PC     P3114263   0.932   0.201   1.671
    2PC     O3214264   1.015   0.069   1.631
    2PC     C3114265   0.967  -0.017   1.527
    2PC     H1A14266   0.863  -0.045   1.549
    2PC     H1B14267   0.971   0.032   1.430
    2PC     C3214268   1.050  -0.145   1.546
    2PC     H2A14269   1.067  -0.170   1.650
    2PC     H2B14270   1.006  -0.236   1.505
    2PC     N3114271   1.178  -0.139   1.468
    2PC     C3314272   1.147  -0.122   1.323
    2PC     H3A14273   1.245  -0.136   1.277
    2PC     H3B14274   1.094  -0.209   1.284
    2PC     H3C14275   1.096  -0.030   1.294
    2PC     C3414276   1.273  -0.034   1.518
    2PC     H4A14277   1.377  -0.067   1.515
    2PC     H4B14278   1.248   0.061   1.470
    2PC     H4C14279   1.251  -0.019   1.624
    2PC     C3514280   1.247  -0.270   1.491
    2PC     H5A14281   1.274  -0.285   1.596
    2PC     H5B14282   1.334  -0.272   1.426
    2PC     H5C14283   1.179  -0.348   1.457
    2PC     O3314284   0.797   0.194   1.611
    2PC     O3414285   0.996   0.329   1.636
    2PC     O2114286   0.883   0.118   2.111
    2PC     C2114287   0.818   0.029   2.187
    2PC     O2214288   0.849  -0.089   2.191
    3OL     C1214289   0.715   0.095   2.276
    3OL     H2R14290   0.618   0.095   2.226
    3OL     H2S14291   0.749   0.198   2.287
    3OL     C1314292   0.699   0.020   2.409
    3OL     H3R14293   0.797   0.019   2.456
    3OL     H3S14294   0.682  -0.084   2.383
    3OL     C1414295   0.583   0.062   2.500
    3OL     H4R14296   0.488   0.045   2.449
    3OL     H4S14297   0.601   0.167   2.523
    3OL     C1514298   0.585  -0.013   2.634
    3OL     H5R14299   0.677   0.009   2.690
    3OL     H5S14300   0.586  -0.121   2.626
    3OL     C1614301   0.472   0.032   2.728
    3OL     H6R14302   0.383  -0.014   2.685
    3OL     H6S14303   0.453   0.138   2.709
    3OL     C1714304   0.497  -0.006   2.875
    3OL     H7R14305   0.593   0.025   2.916
    3OL     H7S14306   0.490  -0.115   2.881
    3OL     C1814307   0.385   0.034   2.972
    3OL     H8R14308   0.289  -0.002   2.933
    3OL     H8S14309   0.369   0.142   2.976
    3OL     C1914310   0.414  -0.020   3.109
    3OL     H9R14311   0.370  -0.119   3.120
    3OL    C11014312   0.472   0.038   3.213
    3OL    H10R14313   0.479  -0.011   3.310
    3OL    C11114314   0.541   0.172   3.207
    3OL    H11R14315   0.505   0.235   3.289
    3OL    H11S14316   0.511   0.224   3.116
    3OL    C11214317   0.693   0.160   3.220
    3OL    H12R14318   0.722   0.088   3.143
    3OL    H12S14319   0.722   0.114   3.315
    3OL    C11314320   0.749   0.297   3.181
    3OL    H13R14321   0.729   0.374   3.256
    3OL    H13S14322   0.695   0.328   3.092
    3OL    C11414323   0.902   0.290   3.167
    3OL    H14R14324   0.945   0.247   3.257
    3OL    H14S14325   0.952   0.387   3.166
    3OL    C11514326   0.948   0.206   3.047
    3OL    H15R14327   0.906   0.106   3.059
    3OL    H15S14328   1.057   0.191   3.049
    3OL    C11614329   0.898   0.264   2.914
    3OL    H16R14330   0.910   0.372   2.922
    3OL    H16S14331   0.795   0.234   2.896
    3OL    C11714332   0.981   0.226   2.791
    3OL    H17R14333   0.997   0.118   2.791
    3OL    H17S14334   1.082   0.269   2.790
    3OL    C11814335   0.906   0.262   2.662
    3OL    H18R14336   0.944   0.211   2.573
    3OL    H18S14337   0.903   0.371   2.654
    3OL    H18T14338   0.804   0.229   2.685
    1PA    C11614339   1.659   3.964   3.275
    1PA    H16R14340   1.642   3.940   3.381
    1PA    H16S14341   1.766   3.986   3.275
    1PA    H16T14342   1.643   3.870   3.222
    1PA    C11514343   1.579   4.083   3.221
    1PA    H15R14344   1.485   4.046   3.181
    1PA    H15S14345   1.557   4.161   3.295
    1PA    C11414346   1.653   4.136   3.097
    1PA    H14R14347   1.752   4.157   3.138
    1PA    H14S14348   1.670   4.061   3.019
    1PA    C11314349   1.588   4.261   3.036
    1PA    H13R14350   1.482   4.250   3.012
    1PA    H13S14351   1.594   4.336   3.116
    1PA    C11214352   1.668   4.312   2.915
    1PA    H12R14353   1.774   4.318   2.939
    1PA    H12S14354   1.649   4.238   2.837
    1PA    C11114355   1.638   4.459   2.883
    1PA    H11R14356   1.537   4.466   2.842
    1PA    H11S14357   1.643   4.522   2.972
    1PA    C11014358   1.727   4.530   2.779
    1PA    H10R14359   1.829   4.540   2.817
    1PA    H10S14360   1.738   4.469   2.689
    1PA     C1914361   1.676   4.672   2.753
    1PA     H9R14362   1.583   4.678   2.696
    1PA     H9S14363   1.662   4.717   2.852
    1PA     C1814364   1.765   4.772   2.678
    1PA     H8R14365   1.712   4.866   2.668
    1PA     H8S14366   1.858   4.783   2.734
    1PA     C1714367   1.799   4.733   2.533
    1PA     H7R14368   1.731   4.663   2.486
    1PA     H7S14369   1.782   4.822   2.471
    1PA     C1614370   1.940   4.673   2.517
    1PA     H6R14371   2.007   4.752   2.551
    1PA     H6S14372   1.946   4.591   2.588
    1PA     C1514373   1.976   4.627   2.376
    1PA     H5R14374   1.915   4.537   2.361
    1PA     H5S14375   1.952   4.694   2.293
    1PA     C1414376   2.120   4.574   2.370
    1PA     H4R14377   2.192   4.656   2.368
    1PA     H4S14378   2.142   4.522   2.464
    1PA     C1314379   2.141   4.498   2.239
    1PA     H3R14380   2.080   4.529   2.153
    1PA     H3S14381   2.244   4.514   2.207
    1PA     C1214382   2.125   4.347   2.262
    1PA     H2R14383   2.194   4.316   2.340
    1PA     H2S14384   2.022   4.324   2.289
    2PC     C1114385   2.164   4.273   2.136
    2PC     O1214386   2.280   4.279   2.099
    2PC     O1114387   2.065   4.202   2.079
    2PC      C114388   2.080   4.113   1.967
    2PC      HR14389   1.983   4.064   1.953
    2PC      HS14390   2.091   4.174   1.877
    2PC      C214391   2.202   4.021   1.976
    2PC      HX14392   2.291   4.077   2.005
    2PC      C314393   2.238   3.964   1.838
    2PC      HA14394   2.174   3.879   1.812
    2PC      HB14395   2.232   4.045   1.764
    2PC     O3114396   2.373   3.915   1.834
    2PC     P3114397   2.503   4.008   1.824
    2PC     O3214398   2.610   3.914   1.749
    2PC     C3114399   2.655   3.932   1.613
    2PC     H1A14400   2.581   3.895   1.542
    2PC     H1B14401   2.672   4.040   1.603
    2PC     C3214402   2.772   3.835   1.591
    2PC     H2A14403   2.854   3.871   1.652
    2PC     H2B14404   2.733   3.734   1.605
    2PC     N3114405   2.835   3.825   1.455
    2PC     C3314406   2.963   3.748   1.466
    2PC     H3A14407   3.029   3.810   1.528
    2PC     H3B14408   2.938   3.648   1.501
    2PC     H3C14409   3.012   3.740   1.369
    2PC     C3414410   2.746   3.752   1.359
    2PC     H4A14411   2.736   3.647   1.389
    2PC     H4B14412   2.647   3.798   1.366
    2PC     H4C14413   2.789   3.760   1.259
    2PC     C3514414   2.860   3.960   1.395
    2PC     H5A14415   2.770   4.013   1.364
    2PC     H5B14416   2.936   3.947   1.318
    2PC     H5C14417   2.903   4.024   1.472
    2PC     O3314418   2.470   4.123   1.737
    2PC     O3414419   2.541   4.061   1.956
    2PC     O2114420   2.186   3.911   2.068
    2PC     C2114421   2.191   3.924   2.201
    2PC     O2214422   2.245   4.020   2.252
    3OL     C1214423   2.147   3.794   2.263
    3OL     H2R14424   2.184   3.720   2.191
    3OL     H2S14425   2.038   3.792   2.264
    3OL     C1314426   2.199   3.788   2.407
    3OL     H3R14427   2.183   3.884   2.457
    3OL     H3S14428   2.305   3.762   2.414
    3OL     C1414429   2.127   3.683   2.492
    3OL     H4R14430   2.136   3.587   2.441
    3OL     H4S14431   2.024   3.717   2.505
    3OL     C1514432   2.198   3.671   2.628
    3OL     H5R14433   2.173   3.758   2.689
    3OL     H5S14434   2.303   3.653   2.608
    3OL     C1614435   2.163   3.543   2.705
    3OL     H6R14436   2.201   3.453   2.657
    3OL     H6S14437   2.055   3.530   2.696
    3OL     C1714438   2.194   3.557   2.855
    3OL     H7R14439   2.126   3.490   2.908
    3OL     H7S14440   2.171   3.659   2.884
    3OL     C1814441   2.337   3.514   2.890
    3OL     H8R14442   2.409   3.575   2.836
    3OL     H8S14443   2.358   3.412   2.854
    3OL     C1914444   2.368   3.525   3.037
    3OL     H9R14445   2.369   3.628   3.072
    3OL    C11014446   2.391   3.428   3.124
    3OL    H10R14447   2.419   3.445   3.227
    3OL    C11114448   2.407   3.282   3.087
    3OL    H11R14449   2.484   3.234   3.148
    3OL    H11S14450   2.438   3.263   2.984
    3OL    C11214451   2.275   3.210   3.115
    3OL    H12R14452   2.306   3.106   3.105
    3OL    H12S14453   2.189   3.238   3.054
    3OL    C11314454   2.224   3.236   3.258
    3OL    H13R14455   2.174   3.333   3.263
    3OL    H13S14456   2.304   3.238   3.333
    3OL    C11414457   2.118   3.133   3.297
    3OL    H14R14458   2.163   3.034   3.299
    3OL    H14S14459   2.057   3.132   3.206
    3OL    C11514460   2.042   3.178   3.423
    3OL    H15R14461   1.952   3.119   3.440
    3OL    H15S14462   2.009   3.282   3.421
    3OL    C11614463   2.137   3.144   3.539
    3OL    H16R14464   2.217   3.214   3.514
    3OL    H16S14465   2.173   3.041   3.534
    3OL    C11714466   2.070   3.173   3.675
    3OL    H17R14467   1.974   3.121   3.679
    3OL    H17S14468   2.057   3.281   3.666
    3OL    C11814469   2.148   3.133   3.801
    3OL    H18R14470   2.240   3.192   3.804
    3OL    H18S14471   2.178   3.028   3.797
    3OL    H18T14472   2.088   3.150   3.890
    1PA    C11614473   2.978   2.880   3.588
    1PA    H16R14474   2.887   2.842   3.636
    1PA    H16S14475   2.975   2.989   3.587
    1PA    H16T14476   3.056   2.831   3.646
    1PA    C11514477   2.992   2.838   3.441
    1PA    H15R14478   3.094   2.809   3.413
    1PA    H15S14479   2.934   2.746   3.432
    1PA    C11414480   2.942   2.946   3.344
    1PA    H14R14481   3.005   3.032   3.366
    1PA    H14S14482   2.961   2.913   3.242
    1PA    C11314483   2.790   2.964   3.357
    1PA    H13R14484   2.732   2.872   3.345
    1PA    H13S14485   2.766   2.997   3.458
    1PA    C11214486   2.741   3.077   3.265
    1PA    H12R14487   2.633   3.065   3.258
    1PA    H12S14488   2.778   3.172   3.306
    1PA    C11114489   2.795   3.062   3.122
    1PA    H11R14490   2.772   3.157   3.072
    1PA    H11S14491   2.904   3.052   3.123
    1PA    C11014492   2.742   2.942   3.044
    1PA    H10R14493   2.781   2.851   3.090
    1PA    H10S14494   2.633   2.946   3.054
    1PA     C1914495   2.790   2.932   2.898
    1PA     H9R14496   2.900   2.929   2.900
    1PA     H9S14497   2.753   2.841   2.850
    1PA     C1814498   2.749   3.047   2.805
    1PA     H8R14499   2.763   3.143   2.855
    1PA     H8S14500   2.828   3.052   2.729
    1PA     C1714501   2.606   3.030   2.754
    1PA     H7R14502   2.602   2.934   2.702
    1PA     H7S14503   2.539   3.044   2.839
    1PA     C1614504   2.565   3.147   2.664
    1PA     H6R14505   2.595   3.240   2.713
    1PA     H6S14506   2.629   3.141   2.576
    1PA     C1514507   2.417   3.151   2.620
    1PA     H5R14508   2.398   3.067   2.553
    1PA     H5S14509   2.352   3.137   2.706
    1PA     C1414510   2.381   3.285   2.554
    1PA     H4R14511   2.285   3.274   2.504
    1PA     H4S14512   2.379   3.366   2.627
    1PA     C1314513   2.482   3.329   2.448
    1PA     H3R14514   2.583   3.347   2.486
    1PA     H3S14515   2.499   3.250   2.374
    1PA     C1214516   2.444   3.456   2.372
    1PA     H2R14517   2.346   3.454   2.322
    1PA     H2S14518   2.431   3.547   2.431
    2PC     C1114519   2.536   3.488   2.257
    2PC     O1214520   2.630   3.423   2.216
    2PC     O1114521   2.508   3.610   2.208
    2PC      C114522   2.564   3.652   2.082
    2PC      HR14523   2.540   3.758   2.069
    2PC      HS14524   2.672   3.650   2.095
    2PC      C214525   2.512   3.570   1.963
    2PC      HX14526   2.538   3.465   1.977
    2PC      C314527   2.596   3.599   1.838
    2PC      HA14528   2.560   3.691   1.790
    2PC      HB14529   2.702   3.596   1.862
    2PC     O3114530   2.567   3.485   1.754
    2PC     P3114531   2.599   3.503   1.598
    2PC     O3214532   2.513   3.637   1.575
    2PC     C3114533   2.374   3.622   1.542
    2PC     H1A14534   2.366   3.563   1.450
    2PC     H1B14535   2.317   3.575   1.622
    2PC     C3214536   2.314   3.760   1.513
    2PC     H2A14537   2.316   3.810   1.611
    2PC     H2B14538   2.375   3.818   1.443
    2PC     N3114539   2.180   3.769   1.447
    2PC     C3314540   2.079   3.691   1.526
    2PC     H3A14541   2.054   3.742   1.619
    2PC     H3B14542   1.989   3.695   1.465
    2PC     H3C14543   2.108   3.586   1.539
    2PC     C3414544   2.125   3.909   1.440
    2PC     H4A14545   2.026   3.905   1.393
    2PC     H4B14546   2.123   3.947   1.542
    2PC     H4C14547   2.182   3.968   1.369
    2PC     C3514548   2.193   3.732   1.303
    2PC     H5A14549   2.195   3.623   1.298
    2PC     H5B14550   2.278   3.778   1.253
    2PC     H5C14551   2.107   3.744   1.236
    2PC     O3314552   2.740   3.511   1.554
    2PC     O3414553   2.560   3.384   1.519
    2PC     O2114554   2.377   3.609   1.934
    2PC     C2114555   2.281   3.543   2.001
    2PC     O2214556   2.302   3.451   2.076
    3OL     C1214557   2.144   3.587   1.953
    3OL     H2R14558   2.143   3.575   1.845
    3OL     H2S14559   2.115   3.691   1.966
    3OL     C1314560   2.037   3.484   1.992
    3OL     H3R14561   2.065   3.381   1.970
    3OL     H3S14562   1.948   3.506   1.932
    3OL     C1414563   2.003   3.504   2.140
    3OL     H4R14564   1.952   3.600   2.156
    3OL     H4S14565   2.094   3.518   2.200
    3OL     C1514566   1.915   3.389   2.190
    3OL     H5R14567   1.964   3.300   2.151
    3OL     H5S14568   1.823   3.381   2.131
    3OL     C1614569   1.887   3.385   2.341
    3OL     H6R14570   1.980   3.399   2.396
    3OL     H6S14571   1.840   3.290   2.368
    3OL     C1714572   1.790   3.491   2.396
    3OL     H7R14573   1.807   3.579   2.335
    3OL     H7S14574   1.805   3.521   2.500
    3OL     C1814575   1.642   3.459   2.373
    3OL     H8R14576   1.639   3.360   2.420
    3OL     H8S14577   1.627   3.447   2.265
    3OL     C1914578   1.547   3.553   2.443
    3OL     H9R14579   1.519   3.641   2.386
    3OL    C11014580   1.497   3.536   2.564
    3OL    H10R14581   1.443   3.617   2.612
    3OL    C11114582   1.522   3.423   2.661
    3OL    H11R14583   1.622   3.433   2.704
    3OL    H11S14584   1.510   3.326   2.611
    3OL    C11214585   1.423   3.421   2.778
    3OL    H12R14586   1.324   3.445   2.741
    3OL    H12S14587   1.453   3.488   2.859
    3OL    C11314588   1.415   3.279   2.835
    3OL    H13R14589   1.511   3.243   2.872
    3OL    H13S14590   1.388   3.214   2.752
    3OL    C11414591   1.321   3.271   2.956
    3OL    H14R14592   1.213   3.273   2.937
    3OL    H14S14593   1.337   3.354   3.026
    3OL    C11514594   1.342   3.147   3.044
    3OL    H15R14595   1.444   3.146   3.084
    3OL    H15S14596   1.330   3.059   2.980
    3OL    C11614597   1.236   3.145   3.155
    3OL    H16R14598   1.229   3.040   3.183
    3OL    H16S14599   1.141   3.185   3.118
    3OL    C11714600   1.291   3.227   3.273
    3OL    H17R14601   1.305   3.335   3.264
    3OL    H17S14602   1.391   3.187   3.294
    3OL    C11814603   1.205   3.186   3.393
    3OL    H18R14604   1.107   3.234   3.391
    3OL    H18S14605   1.243   3.214   3.491
    3OL    H18T14606   1.195   3.078   3.398
    1PA    C11614607   0.516   2.650   3.071
    1PA    H16R14608   0.466   2.676   2.978
    1PA    H16S14609   0.599   2.582   3.051
    1PA    H16T14610   0.568   2.742   3.100
    1PA    C11514611   0.418   2.591   3.174
    1PA    H15R14612   0.476   2.544   3.254
    1PA    H15S14613   0.370   2.669   3.233
    1PA    C11414614   0.321   2.489   3.113
    1PA    H14R14615   0.250   2.468   3.193
    1PA    H14S14616   0.262   2.541   3.037
    1PA    C11314617   0.387   2.373   3.037
    1PA    H13R14618   0.469   2.409   2.975
    1PA    H13S14619   0.434   2.315   3.116
    1PA    C11214620   0.293   2.283   2.955
    1PA    H12R14621   0.342   2.186   2.959
    1PA    H12S14622   0.197   2.272   3.008
    1PA    C11114623   0.278   2.333   2.811
    1PA    H11R14624   0.249   2.438   2.819
    1PA    H11S14625   0.371   2.331   2.754
    1PA    C11014626   0.174   2.246   2.739
    1PA    H10R14627   0.214   2.145   2.754
    1PA    H10S14628   0.078   2.239   2.792
    1PA     C1914629   0.163   2.281   2.590
    1PA     H9R14630   0.134   2.382   2.562
    1PA     H9S14631   0.259   2.267   2.540
    1PA     C1814632   0.068   2.178   2.528
    1PA     H8R14633   0.093   2.076   2.561
    1PA     H8S14634  -0.032   2.197   2.567
    1PA     C1714635   0.059   2.196   2.376
    1PA     H7R14636   0.063   2.300   2.343
    1PA     H7S14637   0.142   2.152   2.320
    1PA     C1614638  -0.067   2.130   2.317
    1PA     H6R14639  -0.063   2.021   2.323
    1PA     H6S14640  -0.148   2.158   2.384
    1PA     C1514641  -0.097   2.154   2.168
    1PA     H5R14642  -0.114   2.261   2.150
    1PA     H5S14643  -0.022   2.120   2.097
    1PA     C1414644  -0.226   2.085   2.123
    1PA     H4R14645  -0.289   2.087   2.212
    1PA     H4S14646  -0.282   2.145   2.051
    1PA     C1314647  -0.209   1.942   2.067
    1PA     H3R14648  -0.132   1.888   2.121
    1PA     H3S14649  -0.300   1.883   2.074
    1PA     C1214650  -0.160   1.944   1.922
    1PA     H2R14651  -0.215   2.009   1.852
    1PA     H2S14652  -0.055   1.976   1.921
    2PC     C1114653  -0.138   1.806   1.866
    2PC     O1214654  -0.059   1.783   1.776
    2PC     O1114655  -0.229   1.715   1.904
    2PC      C114656  -0.227   1.583   1.847
    2PC      HR14657  -0.320   1.527   1.863
    2PC      HS14658  -0.233   1.599   1.739
    2PC      C214659  -0.105   1.496   1.879
    2PC      HX14660  -0.013   1.555   1.885
    2PC      C314661  -0.083   1.393   1.767
    2PC      HA14662  -0.083   1.442   1.669
    2PC      HB14663   0.007   1.335   1.787
    2PC     O3114664  -0.191   1.298   1.763
    2PC     P3114665  -0.179   1.152   1.699
    2PC     O3214666  -0.214   1.049   1.816
    2PC     C3114667  -0.108   0.993   1.896
    2PC     H1A14668  -0.037   0.933   1.838
    2PC     H1B14669  -0.045   1.062   1.952
    2PC     C3214670  -0.178   0.890   1.986
    2PC     H2A14671  -0.107   0.820   2.029
    2PC     H2B14672  -0.221   0.940   2.073
    2PC     N3114673  -0.274   0.804   1.909
    2PC     C3314674  -0.232   0.775   1.769
    2PC     H3A14675  -0.247   0.861   1.703
    2PC     H3B14676  -0.125   0.752   1.768
    2PC     H3C14677  -0.284   0.689   1.727
    2PC     C3414678  -0.283   0.667   1.969
    2PC     H4A14679  -0.317   0.666   2.073
    2PC     H4B14680  -0.348   0.603   1.909
    2PC     H4C14681  -0.184   0.627   1.950
    2PC     C3514682  -0.406   0.875   1.901
    2PC     H5A14683  -0.395   0.971   1.851
    2PC     H5B14684  -0.432   0.892   2.006
    2PC     H5C14685  -0.484   0.821   1.848
    2PC     O3314686  -0.259   1.123   1.578
    2PC     O3414687  -0.044   1.122   1.646
    2PC     O2114688  -0.120   1.435   2.008
    2PC     C2114689  -0.010   1.383   2.066
    2PC     O2214690   0.097   1.376   2.011
    3OL     C1214691  -0.048   1.328   2.201
    3OL     H2R14692  -0.141   1.271   2.196
    3OL     H2S14693  -0.068   1.412   2.267
    3OL     C1314694   0.057   1.223   2.243
    3OL     H3R14695   0.156   1.268   2.251
    3OL     H3S14696   0.054   1.140   2.172
    3OL     C1414697   0.027   1.166   2.382
    3OL     H4R14698  -0.073   1.122   2.379
    3OL     H4S14699   0.018   1.255   2.446
    3OL     C1514700   0.136   1.069   2.430
    3OL     H5R14701   0.236   1.112   2.425
    3OL     H5S14702   0.126   0.976   2.374
    3OL     C1614703   0.121   1.032   2.578
    3OL     H6R14704   0.027   0.978   2.592
    3OL     H6S14705   0.125   1.125   2.635
    3OL     C1714706   0.238   0.935   2.603
    3OL     H7R14707   0.333   0.989   2.605
    3OL     H7S14708   0.252   0.861   2.524
    3OL     C1814709   0.225   0.864   2.738
    3OL     H8R14710   0.230   0.951   2.804
    3OL     H8S14711   0.322   0.816   2.754
    3OL     C1914712   0.110   0.767   2.749
    3OL     H9R14713   0.117   0.673   2.694
    3OL    C11014714   0.009   0.784   2.833
    3OL    H10R14715  -0.062   0.704   2.848
    3OL    C11114716  -0.022   0.898   2.927
    3OL    H11R14717  -0.123   0.935   2.909
    3OL    H11S14718   0.050   0.979   2.907
    3OL    C11214719  -0.001   0.861   3.074
    3OL    H12R14720  -0.076   0.790   3.110
    3OL    H12S14721  -0.020   0.953   3.129
    3OL    C11314722   0.138   0.803   3.105
    3OL    H13R14723   0.220   0.867   3.072
    3OL    H13S14724   0.142   0.708   3.051
    3OL    C11414725   0.150   0.779   3.256
    3OL    H14R14726   0.076   0.710   3.298
    3OL    H14S14727   0.145   0.879   3.297
    3OL    C11514728   0.293   0.744   3.297
    3OL    H15R14729   0.292   0.766   3.404
    3OL    H15S14730   0.364   0.798   3.234
    3OL    C11614731   0.310   0.593   3.277
    3OL    H16R14732   0.246   0.560   3.195
    3OL    H16S14733   0.274   0.540   3.366
    3OL    C11714734   0.458   0.554   3.261
    3OL    H17R14735   0.473   0.463   3.319
    3OL    H17S14736   0.513   0.636   3.308
    3OL    C11814737   0.496   0.551   3.113
    3OL    H18R14738   0.463   0.453   3.077
    3OL    H18S14739   0.604   0.561   3.097
    3OL    H18T14740   0.448   0.625   3.049
    1PA    C11614741   2.690   2.379   3.466
    1PA    H16R14742   2.650   2.304   3.397
    1PA    H16S14743   2.620   2.461   3.483
    1PA    H16T14744   2.703   2.325   3.560
    1PA    C11514745   2.814   2.439   3.398
    1PA    H15R14746   2.786   2.495   3.308
    1PA    H15S14747   2.853   2.510   3.471
    1PA    C11414748   2.917   2.331   3.361
    1PA    H14R14749   2.917   2.265   3.448
    1PA    H14S14750   2.879   2.284   3.271
    1PA    C11314751   3.059   2.381   3.331
    1PA    H13R14752   3.111   2.290   3.301
    1PA    H13S14753   3.049   2.460   3.256
    1PA    C11214754   3.127   2.421   3.463
    1PA    H12R14755   3.078   2.512   3.498
    1PA    H12S14756   3.128   2.342   3.539
    1PA    C11114757   3.274   2.454   3.435
    1PA    H11R14758   3.317   2.476   3.532
    1PA    H11S14759   3.321   2.374   3.377
    1PA    C11014760   3.288   2.580   3.349
    1PA    H10R14761   3.223   2.580   3.261
    1PA    H10S14762   3.276   2.671   3.408
    1PA     C1914763   3.435   2.595   3.309
    1PA     H9R14764   3.497   2.621   3.395
    1PA     H9S14765   3.469   2.503   3.260
    1PA     C1814766   3.442   2.712   3.211
    1PA     H8R14767   3.377   2.683   3.128
    1PA     H8S14768   3.404   2.801   3.261
    1PA     C1714769   3.580   2.733   3.147
    1PA     H7R14770   3.655   2.748   3.225
    1PA     H7S14771   3.604   2.643   3.091
    1PA     C1614772   3.581   2.856   3.055
    1PA     H6R14773   3.520   2.838   2.966
    1PA     H6S14774   3.529   2.942   3.098
    1PA     C1514775   3.718   2.896   2.998
    1PA     H5R14776   3.699   2.980   2.932
    1PA     H5S14777   3.773   2.933   3.086
    1PA     C1414778   3.792   2.785   2.921
    1PA     H4R14779   3.884   2.831   2.886
    1PA     H4S14780   3.807   2.700   2.988
    1PA     C1314781   3.706   2.738   2.803
    1PA     H3R14782   3.618   2.685   2.840
    1PA     H3S14783   3.679   2.827   2.746
    1PA     C1214784   3.775   2.640   2.707
    1PA     H2R14785   3.820   2.701   2.629
    1PA     H2S14786   3.853   2.588   2.763
    2PC     C1114787   3.675   2.549   2.640
    2PC     O1214788   3.610   2.463   2.698
    2PC     O1114789   3.661   2.584   2.511
    2PC      C114790   3.569   2.511   2.429
    2PC      HR14791   3.581   2.530   2.322
    2PC      HS14792   3.572   2.403   2.448
    2PC      C214793   3.424   2.553   2.457
    2PC      HX14794   3.369   2.519   2.368
    2PC      C314795   3.415   2.706   2.461
    2PC      HA14796   3.433   2.729   2.567
    2PC      HB14797   3.496   2.742   2.396
    2PC     O3114798   3.286   2.749   2.415
    2PC     P3114799   3.246   2.777   2.262
    2PC     O3214800   3.105   2.852   2.271
    2PC     C3114801   3.108   2.989   2.317
    2PC     H1A14802   3.147   2.986   2.420
    2PC     H1B14803   3.155   3.056   2.245
    2PC     C3214804   2.964   3.039   2.324
    2PC     H2A14805   2.913   3.012   2.232
    2PC     H2B14806   2.908   2.995   2.407
    2PC     N3114807   2.946   3.188   2.332
    2PC     C3314808   3.030   3.234   2.448
    2PC     H3A14809   3.135   3.241   2.418
    2PC     H3B14810   2.996   3.336   2.463
    2PC     H3C14811   3.011   3.172   2.536
    2PC     C3414812   2.974   3.277   2.214
    2PC     H4A14813   2.959   3.380   2.245
    2PC     H4B14814   3.070   3.251   2.169
    2PC     H4C14815   2.901   3.251   2.137
    2PC     C3514816   2.805   3.213   2.375
    2PC     H5A14817   2.799   3.316   2.412
    2PC     H5B14818   2.793   3.145   2.459
    2PC     H5C14819   2.743   3.196   2.287
    2PC     O3314820   3.349   2.865   2.203
    2PC     O3414821   3.229   2.646   2.194
    2PC     O2114822   3.365   2.501   2.577
    2PC     C2114823   3.330   2.372   2.590
    2PC     O2214824   3.359   2.279   2.518
    3OL     C1214825   3.242   2.346   2.709
    3OL     H2R14826   3.296   2.281   2.779
    3OL     H2S14827   3.159   2.285   2.672
    3OL     C1314828   3.191   2.466   2.790
    3OL     H3R14829   3.270   2.528   2.832
    3OL     H3S14830   3.136   2.434   2.879
    3OL     C1414831   3.091   2.548   2.707
    3OL     H4R14832   3.010   2.485   2.669
    3OL     H4S14833   3.150   2.591   2.626
    3OL     C1514834   3.018   2.658   2.787
    3OL     H5R14835   2.968   2.602   2.866
    3OL     H5S14836   2.940   2.709   2.731
    3OL     C1614837   3.110   2.764   2.849
    3OL     H6R14838   3.209   2.730   2.881
    3OL     H6S14839   3.064   2.801   2.940
    3OL     C1714840   3.121   2.882   2.751
    3OL     H7R14841   3.022   2.904   2.711
    3OL     H7S14842   3.183   2.853   2.666
    3OL     C1814843   3.184   2.998   2.829
    3OL     H8R14844   3.289   2.976   2.848
    3OL     H8S14845   3.130   3.011   2.923
    3OL     C1914846   3.174   3.131   2.759
    3OL     H9R14847   3.076   3.179   2.762
    3OL    C11014848   3.274   3.205   2.714
    3OL    H10R14849   3.248   3.303   2.676
    3OL    C11114850   3.413   3.157   2.681
    3OL    H11R14851   3.430   3.167   2.574
    3OL    H11S14852   3.430   3.049   2.695
    3OL    C11214853   3.517   3.243   2.755
    3OL    H12R14854   3.500   3.345   2.721
    3OL    H12S14855   3.615   3.211   2.721
    3OL    C11314856   3.496   3.226   2.906
    3OL    H13R14857   3.495   3.120   2.932
    3OL    H13S14858   3.397   3.266   2.931
    3OL    C11414859   3.605   3.283   2.998
    3OL    H14R14860   3.636   3.379   2.956
    3OL    H14S14861   3.699   3.228   2.985
    3OL    C11514862   3.560   3.285   3.145
    3OL    H15R14863   3.547   3.186   3.189
    3OL    H15S14864   3.467   3.342   3.151
    3OL    C11614865   3.664   3.339   3.244
    3OL    H16R14866   3.691   3.439   3.212
    3OL    H16S14867   3.753   3.276   3.248
    3OL    C11714868   3.612   3.345   3.389
    3OL    H17R14869   3.584   3.252   3.438
    3OL    H17S14870   3.527   3.413   3.394
    3OL    C11814871   3.722   3.405   3.477
    3OL    H18R14872   3.693   3.388   3.581
    3OL    H18S14873   3.741   3.507   3.443
    3OL    H18T14874   3.813   3.345   3.468
    1PA    C11614875   1.787   2.327   3.938
    1PA    H16R14876   1.891   2.304   3.916
    1PA    H16S14877   1.729   2.236   3.958
    1PA    H16T14878   1.774   2.387   4.028
    1PA    C11514879   1.725   2.402   3.819
    1PA    H15R14880   1.626   2.440   3.843
    1PA    H15S14881   1.786   2.491   3.806
    1PA    C11414882   1.719   2.316   3.692
    1PA    H14R14883   1.664   2.225   3.718
    1PA    H14S14884   1.667   2.365   3.609
    1PA    C11314885   1.861   2.294   3.637
    1PA    H13R14886   1.897   2.396   3.621
    1PA    H13S14887   1.917   2.243   3.716
    1PA    C11214888   1.865   2.213   3.507
    1PA    H12R14889   1.968   2.198   3.474
    1PA    H12S14890   1.829   2.114   3.536
    1PA    C11114891   1.787   2.268   3.386
    1PA    H11R14892   1.681   2.279   3.411
    1PA    H11S14893   1.825   2.367   3.364
    1PA    C11014894   1.794   2.186   3.256
    1PA    H10R14895   1.751   2.089   3.281
    1PA    H10S14896   1.728   2.230   3.180
    1PA     C1914897   1.940   2.174   3.213
    1PA     H9R14898   2.001   2.118   3.284
    1PA     H9S14899   1.965   2.280   3.214
    1PA     C1814900   1.953   2.122   3.069
    1PA     H8R14901   2.054   2.085   3.051
    1PA     H8S14902   1.881   2.041   3.053
    1PA     C1714903   1.917   2.221   2.957
    1PA     H7R14904   1.816   2.260   2.974
    1PA     H7S14905   1.993   2.299   2.968
    1PA     C1614906   1.931   2.170   2.813
    1PA     H6R14907   1.866   2.224   2.744
    1PA     H6S14908   2.038   2.169   2.793
    1PA     C1514909   1.883   2.024   2.806
    1PA     H5R14910   1.962   1.961   2.849
    1PA     H5S14911   1.787   2.001   2.852
    1PA     C1414912   1.876   1.976   2.660
    1PA     H4R14913   1.802   2.035   2.604
    1PA     H4S14914   1.968   2.021   2.622
    1PA     C1314915   1.861   1.824   2.645
    1PA     H3R14916   1.946   1.777   2.696
    1PA     H3S14917   1.774   1.803   2.707
    1PA     C1214918   1.838   1.773   2.503
    1PA     H2R14919   1.738   1.799   2.468
    1PA     H2S14920   1.901   1.832   2.435
    2PC     C1114921   1.864   1.626   2.480
    2PC     O1214922   1.893   1.546   2.567
    2PC     O1114923   1.848   1.596   2.351
    2PC      C114924   1.834   1.458   2.315
    2PC      HR14925   1.929   1.405   2.305
    2PC      HS14926   1.771   1.403   2.386
    2PC      C214927   1.766   1.458   2.177
    2PC      HX14928   1.733   1.358   2.150
    2PC      C314929   1.858   1.518   2.069
    2PC      HA14930   1.896   1.612   2.109
    2PC      HB14931   1.945   1.453   2.059
    2PC     O3114932   1.799   1.528   1.938
    2PC     P3114933   1.882   1.579   1.811
    2PC     O3214934   1.792   1.513   1.696
    2PC     C3114935   1.672   1.570   1.642
    2PC     H1A14936   1.621   1.506   1.570
    2PC     H1B14937   1.598   1.593   1.720
    2PC     C3214938   1.708   1.695   1.561
    2PC     H2A14939   1.619   1.754   1.541
    2PC     H2B14940   1.778   1.761   1.612
    2PC     N3114941   1.772   1.674   1.427
    2PC     C3314942   1.768   1.806   1.357
    2PC     H3A14943   1.808   1.883   1.424
    2PC     H3B14944   1.835   1.789   1.272
    2PC     H3C14945   1.665   1.828   1.332
    2PC     C3414946   1.914   1.629   1.446
    2PC     H4A14947   1.965   1.630   1.350
    2PC     H4B14948   1.965   1.702   1.510
    2PC     H4C14949   1.914   1.527   1.484
    2PC     C3514950   1.704   1.574   1.339
    2PC     H5A14951   1.683   1.485   1.399
    2PC     H5B14952   1.767   1.543   1.256
    2PC     H5C14953   1.609   1.611   1.300
    2PC     O3314954   1.899   1.725   1.795
    2PC     O3414955   2.014   1.511   1.801
    2PC     O2114956   1.651   1.544   2.176
    2PC     C2114957   1.538   1.485   2.216
    2PC     O2214958   1.520   1.367   2.243
    3OL     C1214959   1.421   1.579   2.234
    3OL     H2R14960   1.329   1.528   2.262
    3OL     H2S14961   1.396   1.614   2.133
    3OL     C1314962   1.454   1.685   2.340
    3OL     H3R14963   1.371   1.756   2.346
    3OL     H3S14964   1.546   1.742   2.321
    3OL     C1414965   1.496   1.616   2.471
    3OL     H4R14966   1.600   1.584   2.470
    3OL     H4S14967   1.445   1.526   2.503
    3OL     C1514968   1.471   1.717   2.584
    3OL     H5R14969   1.362   1.730   2.582
    3OL     H5S14970   1.526   1.809   2.566
    3OL     C1614971   1.519   1.657   2.716
    3OL     H6R14972   1.622   1.624   2.701
    3OL     H6S14973   1.456   1.571   2.739
    3OL     C1714974   1.512   1.762   2.828
    3OL     H7R14975   1.409   1.794   2.846
    3OL     H7S14976   1.569   1.853   2.806
    3OL     C1814977   1.580   1.713   2.957
    3OL     H8R14978   1.685   1.699   2.933
    3OL     H8S14979   1.547   1.612   2.981
    3OL     C1914980   1.559   1.803   3.076
    3OL     H9R14981   1.496   1.890   3.058
    3OL    C11014982   1.604   1.786   3.199
    3OL    H10R14983   1.576   1.860   3.274
    3OL    C11114984   1.691   1.671   3.243
    3OL    H11R14985   1.776   1.722   3.288
    3OL    H11S14986   1.745   1.613   3.168
    3OL    C11214987   1.636   1.573   3.348
    3OL    H12R14988   1.707   1.490   3.353
    3OL    H12S14989   1.549   1.527   3.300
    3OL    C11314990   1.616   1.640   3.484
    3OL    H13R14991   1.524   1.700   3.480
    3OL    H13S14992   1.703   1.702   3.508
    3OL    C11414993   1.593   1.533   3.591
    3OL    H14R14994   1.530   1.461   3.539
    3OL    H14S14995   1.532   1.572   3.673
    3OL    C11514996   1.723   1.466   3.636
    3OL    H15R14997   1.791   1.539   3.681
    3OL    H15S14998   1.772   1.419   3.551
    3OL    C11614999   1.705   1.361   3.746
    3OL    H16R15000   1.682   1.408   3.842
    3OL    H16S15001   1.807   1.328   3.767
    3OL    C11715002   1.610   1.245   3.713
    3OL    H17R15003   1.642   1.185   3.628
    3OL    H17S15004   1.508   1.283   3.701
    3OL    C11815005   1.620   1.148   3.831
    3OL    H18R15006   1.548   1.070   3.805
    3OL    H18S15007   1.586   1.193   3.925
    3OL    H18T15008   1.722   1.111   3.832
    1PA    C11615009   1.078   1.694   3.818
    1PA    H16R15010   1.065   1.615   3.892
    1PA    H16S15011   0.975   1.727   3.805
    1PA    H16T15012   1.138   1.769   3.869
    1PA    C11515013   1.139   1.650   3.683
    1PA    H15R15014   1.246   1.659   3.704
    1PA    H15S15015   1.118   1.546   3.658
    1PA    C11415016   1.085   1.754   3.584
    1PA    H14R15017   0.977   1.741   3.576
    1PA    H14S15018   1.100   1.856   3.618
    1PA    C11315019   1.153   1.749   3.446
    1PA    H13R15020   1.244   1.807   3.459
    1PA    H13S15021   1.166   1.645   3.415
    1PA    C11215022   1.079   1.830   3.338
    1PA    H12R15023   0.981   1.784   3.320
    1PA    H12S15024   1.058   1.933   3.366
    1PA    C11115025   1.158   1.817   3.207
    1PA    H11R15026   1.261   1.853   3.218
    1PA    H11S15027   1.181   1.713   3.184
    1PA    C11015028   1.074   1.884   3.098
    1PA    H10R15029   0.979   1.831   3.104
    1PA    H10S15030   1.053   1.990   3.108
    1PA     C1915031   1.139   1.852   2.963
    1PA     H9R15032   1.233   1.907   2.958
    1PA     H9S15033   1.158   1.745   2.951
    1PA     C1815034   1.064   1.905   2.840
    1PA     H8R15035   0.960   1.872   2.850
    1PA     H8S15036   1.060   2.014   2.835
    1PA     C1715037   1.125   1.863   2.706
    1PA     H7R15038   1.228   1.899   2.700
    1PA     H7S15039   1.134   1.754   2.707
    1PA     C1615040   1.039   1.907   2.586
    1PA     H6R15041   0.989   2.003   2.600
    1PA     H6S15042   1.106   1.935   2.505
    1PA     C1515043   0.946   1.794   2.539
    1PA     H5R15044   1.002   1.720   2.482
    1PA     H5S15045   0.899   1.744   2.624
    1PA     C1415046   0.835   1.846   2.446
    1PA     H4R15047   0.744   1.785   2.454
    1PA     H4S15048   0.808   1.947   2.479
    1PA     C1315049   0.886   1.858   2.302
    1PA     H3R15050   0.988   1.895   2.300
    1PA     H3S15051   0.882   1.755   2.265
    1PA     C1215052   0.802   1.944   2.207
    1PA     H2R15053   0.701   1.904   2.214
    1PA     H2S15054   0.780   2.048   2.234
    2PC     C1115055   0.855   1.942   2.066
    2PC     O1215056   0.864   2.048   2.007
    2PC     O1115057   0.883   1.821   2.015
    2PC      C115058   0.921   1.816   1.876
    2PC      HR15059   0.851   1.882   1.823
    2PC      HS15060   1.020   1.861   1.873
    2PC      C215061   0.932   1.671   1.826
    2PC      HX15062   0.987   1.619   1.904
    2PC      C315063   1.001   1.667   1.689
    2PC      HA15064   0.946   1.740   1.630
    2PC      HB15065   1.107   1.692   1.701
    2PC     O3115066   0.997   1.534   1.633
    2PC     P3115067   1.049   1.509   1.484
    2PC     O3215068   1.068   1.350   1.495
    2PC     C3115069   0.955   1.260   1.487
    2PC     H1A15070   0.872   1.309   1.538
    2PC     H1B15071   0.911   1.250   1.387
    2PC     C3215072   0.994   1.116   1.523
    2PC     H2A15073   1.048   1.101   1.617
    2PC     H2B15074   0.901   1.061   1.534
    2PC     N3115075   1.099   1.051   1.438
    2PC     C3315076   1.101   1.092   1.294
    2PC     H3A15077   1.004   1.077   1.246
    2PC     H3B15078   1.121   1.197   1.272
    2PC     H3C15079   1.170   1.032   1.234
    2PC     C3415080   1.233   1.094   1.489
    2PC     H4A15081   1.249   1.044   1.585
    2PC     H4B15082   1.316   1.076   1.421
    2PC     H4C15083   1.233   1.199   1.518
    2PC     C3515084   1.089   0.902   1.441
    2PC     H5A15085   0.988   0.872   1.413
    2PC     H5B15086   1.098   0.864   1.543
    2PC     H5C15087   1.161   0.869   1.366
    2PC     O3315088   0.948   1.545   1.383
    2PC     O3415089   1.167   1.590   1.445
    2PC     O2115090   0.797   1.621   1.812
    2PC     C2115091   0.784   1.491   1.842
    2PC     O2215092   0.872   1.407   1.842
    3OL     C1215093   0.641   1.459   1.875
    3OL     H2R15094   0.604   1.386   1.802
    3OL     H2S15095   0.590   1.554   1.855
    3OL     C1315096   0.620   1.407   2.017
    3OL     H3R15097   0.667   1.308   2.021
    3OL     H3S15098   0.517   1.378   2.040
    3OL     C1415099   0.691   1.504   2.113
    3OL     H4R15100   0.656   1.604   2.086
    3OL     H4S15101   0.798   1.506   2.090
    3OL     C1515102   0.673   1.460   2.259
    3OL     H5R15103   0.569   1.429   2.268
    3OL     H5S15104   0.674   1.546   2.326
    3OL     C1615105   0.776   1.358   2.309
    3OL     H6R15106   0.777   1.268   2.247
    3OL     H6S15107   0.733   1.327   2.405
    3OL     C1715108   0.921   1.406   2.327
    3OL     H7R15109   0.916   1.504   2.374
    3OL     H7S15110   0.968   1.418   2.230
    3OL     C1815111   1.002   1.317   2.423
    3OL     H8R15112   1.038   1.229   2.371
    3OL     H8S15113   0.935   1.288   2.504
    3OL     C1915114   1.121   1.383   2.488
    3OL     H9R15115   1.210   1.387   2.425
    3OL    C11015116   1.132   1.439   2.608
    3OL    H10R15117   1.224   1.486   2.640
    3OL    C11115118   1.020   1.446   2.708
    3OL    H11R15119   0.927   1.412   2.661
    3OL    H11S15120   1.009   1.549   2.744
    3OL    C11215121   1.069   1.371   2.833
    3OL    H12R15122   1.096   1.267   2.814
    3OL    H12S15123   0.992   1.366   2.911
    3OL    C11315124   1.184   1.436   2.910
    3OL    H13R15125   1.171   1.543   2.928
    3OL    H13S15126   1.274   1.440   2.848
    3OL    C11415127   1.224   1.353   3.033
    3OL    H14R15128   1.303   1.402   3.089
    3OL    H14S15129   1.257   1.256   2.995
    3OL    C11515130   1.110   1.343   3.136
    3OL    H15R15131   1.028   1.284   3.096
    3OL    H15S15132   1.071   1.444   3.150
    3OL    C11615133   1.159   1.276   3.266
    3OL    H16R15134   1.217   1.188   3.237
    3OL    H16S15135   1.080   1.231   3.326
    3OL    C11715136   1.206   1.382   3.366
    3OL    H17R15137   1.115   1.438   3.389
    3OL    H17S15138   1.290   1.439   3.325
    3OL    C11815139   1.244   1.319   3.501
    3OL    H18R15140   1.334   1.258   3.489
    3OL    H18S15141   1.159   1.264   3.542
    3OL    H18T15142   1.262   1.395   3.576
    1PA    C11615143   2.532   5.384   3.600
    1PA    H16R15144   2.548   5.292   3.543
    1PA    H16S15145   2.427   5.393   3.625
    1PA    H16T15146   2.598   5.386   3.687
    1PA    C11515147   2.571   5.502   3.509
    1PA    H15R15148   2.544   5.593   3.563
    1PA    H15S15149   2.679   5.509   3.490
    1PA    C11415150   2.510   5.484   3.369
    1PA    H14R15151   2.557   5.404   3.312
    1PA    H14S15152   2.406   5.462   3.392
    1PA    C11315153   2.522   5.612   3.285
    1PA    H13R15154   2.494   5.696   3.349
    1PA    H13S15155   2.627   5.626   3.259
    1PA    C11215156   2.446   5.615   3.152
    1PA    H12R15157   2.343   5.583   3.172
    1PA    H12S15158   2.443   5.718   3.116
    1PA    C11115159   2.501   5.526   3.039
    1PA    H11R15160   2.602   5.560   3.018
    1PA    H11S15161   2.500   5.419   3.059
    1PA    C11015162   2.424   5.551   2.909
    1PA    H10R15163   2.322   5.515   2.925
    1PA    H10S15164   2.403   5.658   2.900
    1PA     C1915165   2.496   5.499   2.783
    1PA     H9R15166   2.597   5.540   2.788
    1PA     H9S15167   2.507   5.391   2.791
    1PA     C1815168   2.410   5.528   2.659
    1PA     H8R15169   2.319   5.472   2.681
    1PA     H8S15170   2.387   5.634   2.641
    1PA     C1715171   2.479   5.470   2.535
    1PA     H7R15172   2.564   5.535   2.513
    1PA     H7S15173   2.520   5.370   2.553
    1PA     C1615174   2.386   5.473   2.413
    1PA     H6R15175   2.291   5.422   2.428
    1PA     H6S15176   2.357   5.574   2.382
    1PA     C1515177   2.445   5.405   2.288
    1PA     H5R15178   2.462   5.298   2.304
    1PA     H5S15179   2.380   5.404   2.201
    1PA     C1415180   2.573   5.476   2.243
    1PA     H4R15181   2.547   5.579   2.220
    1PA     H4S15182   2.648   5.486   2.322
    1PA     C1315183   2.624   5.404   2.117
    1PA     H3R15184   2.642   5.297   2.131
    1PA     H3S15185   2.560   5.417   2.029
    1PA     C1215186   2.761   5.457   2.073
    1PA     H2R15187   2.836   5.459   2.152
    1PA     H2S15188   2.807   5.389   2.001
    2PC     C1115189   2.751   5.599   2.023
    2PC     O1215190   2.650   5.646   1.976
    2PC     O1115191   2.861   5.672   2.046
    2PC      C115192   2.863   5.815   2.028
    2PC      HR15193   2.962   5.847   2.060
    2PC      HS15194   2.839   5.848   1.926
    2PC      C215195   2.775   5.889   2.130
    2PC      HX15196   2.672   5.857   2.115
    2PC      C315197   2.794   6.041   2.120
    2PC      HA15198   2.754   6.079   2.026
    2PC      HB15199   2.738   6.095   2.196
    2PC     O3115200   2.932   6.083   2.123
    2PC     P3115201   2.963   6.238   2.147
    2PC     O3215202   2.912   6.276   2.000
    2PC     C3115203   2.936   6.414   1.966
    2PC     H1A15204   2.893   6.479   2.042
    2PC     H1B15205   3.042   6.437   1.950
    2PC     C3215206   2.856   6.445   1.838
    2PC     H2A15207   2.751   6.421   1.855
    2PC     H2B15208   2.867   6.552   1.819
    2PC     N3115209   2.888   6.382   1.706
    2PC     C3315210   2.867   6.233   1.715
    2PC     H3A15211   2.942   6.192   1.782
    2PC     H3B15212   2.765   6.212   1.748
    2PC     H3C15213   2.881   6.193   1.615
    2PC     C3415214   2.804   6.440   1.597
    2PC     H4A15215   2.817   6.548   1.592
    2PC     H4B15216   2.829   6.390   1.504
    2PC     H4C15217   2.697   6.429   1.617
    2PC     C3515218   3.033   6.399   1.671
    2PC     H5A15219   3.047   6.356   1.572
    2PC     H5B15220   3.093   6.355   1.750
    2PC     H5C15221   3.051   6.507   1.671
    2PC     O3315222   2.886   6.305   2.254
    2PC     O3415223   3.110   6.257   2.147
    2PC     O2115224   2.821   5.843   2.258
    2PC     C2115225   2.726   5.806   2.346
    2PC     O2215226   2.606   5.818   2.337
    3OL     C1215227   2.781   5.734   2.466
    3OL     H2R15228   2.838   5.646   2.434
    3OL     H2S15229   2.700   5.700   2.531
    3OL     C1315230   2.866   5.834   2.545
    3OL     H3R15231   2.806   5.918   2.582
    3OL     H3S15232   2.951   5.882   2.495
    3OL     C1415233   2.904   5.752   2.669
    3OL     H4R15234   2.964   5.668   2.633
    3OL     H4S15235   2.818   5.705   2.716
    3OL     C1515236   2.992   5.827   2.770
    3OL     H5R15237   3.080   5.859   2.713
    3OL     H5S15238   3.018   5.754   2.847
    3OL     C1615239   2.927   5.949   2.835
    3OL     H6R15240   2.840   5.907   2.886
    3OL     H6S15241   2.903   6.026   2.762
    3OL     C1715242   3.015   6.010   2.945
    3OL     H7R15243   3.082   6.085   2.901
    3OL     H7S15244   3.080   5.935   2.991
    3OL     C1815245   2.944   6.075   3.065
    3OL     H8R15246   2.872   6.147   3.025
    3OL     H8S15247   3.021   6.131   3.119
    3OL     C1915248   2.881   5.983   3.166
    3OL     H9R15249   2.922   5.883   3.171
    3OL    C11015250   2.778   6.022   3.239
    3OL    H10R15251   2.733   5.946   3.301
    3OL    C11115252   2.718   6.160   3.254
    3OL    H11R15253   2.782   6.238   3.213
    3OL    H11S15254   2.701   6.193   3.356
    3OL    C11215255   2.590   6.178   3.171
    3OL    H12R15256   2.617   6.176   3.065
    3OL    H12S15257   2.532   6.266   3.200
    3OL    C11315258   2.489   6.063   3.182
    3OL    H13R15259   2.454   6.073   3.285
    3OL    H13S15260   2.554   5.976   3.171
    3OL    C11415261   2.376   6.049   3.079
    3OL    H14R15262   2.336   6.149   3.064
    3OL    H14S15263   2.298   5.987   3.123
    3OL    C11515264   2.430   5.984   2.950
    3OL    H15R15265   2.478   5.891   2.982
    3OL    H15S15266   2.511   6.046   2.909
    3OL    C11615267   2.316   5.953   2.852
    3OL    H16R15268   2.256   6.043   2.843
    3OL    H16S15269   2.257   5.872   2.894
    3OL    C11715270   2.358   5.907   2.712
    3OL    H17R15271   2.266   5.857   2.682
    3OL    H17S15272   2.448   5.845   2.719
    3OL    C11815273   2.406   6.016   2.614
    3OL    H18R15274   2.493   6.060   2.663
    3OL    H18S15275   2.323   6.087   2.613
    3OL    H18T15276   2.423   5.982   2.512
    1PA    C11615277   3.520   2.133   3.978
    1PA    H16R15278   3.521   2.143   4.087
    1PA    H16S15279   3.572   2.039   3.960
    1PA    H16T15280   3.419   2.117   3.938
    1PA    C11515281   3.597   2.243   3.903
    1PA    H15R15282   3.578   2.343   3.943
    1PA    H15S15283   3.703   2.221   3.918
    1PA    C11415284   3.550   2.247   3.757
    1PA    H14R15285   3.442   2.256   3.751
    1PA    H14S15286   3.582   2.342   3.712
    1PA    C11315287   3.602   2.128   3.675
    1PA    H13R15288   3.709   2.141   3.659
    1PA    H13S15289   3.579   2.034   3.727
    1PA    C11215290   3.528   2.127   3.540
    1PA    H12R15291   3.422   2.102   3.548
    1PA    H12S15292   3.535   2.224   3.490
    1PA    C11115293   3.590   2.016   3.454
    1PA    H11R15294   3.695   2.044   3.444
    1PA    H11S15295   3.593   1.922   3.510
    1PA    C11015296   3.511   2.002   3.324
    1PA    H10R15297   3.405   1.980   3.335
    1PA    H10S15298   3.493   2.102   3.281
    1PA     C1915299   3.574   1.900   3.228
    1PA     H9R15300   3.556   1.910   3.121
    1PA     H9S15301   3.682   1.910   3.231
    1PA     C1815302   3.533   1.757   3.268
    1PA     H8R15303   3.629   1.705   3.274
    1PA     H8S15304   3.485   1.755   3.366
    1PA     C1715305   3.431   1.703   3.167
    1PA     H7R15306   3.388   1.607   3.197
    1PA     H7S15307   3.349   1.774   3.153
    1PA     C1615308   3.492   1.675   3.029
    1PA     H6R15309   3.408   1.636   2.971
    1PA     H6S15310   3.527   1.769   2.986
    1PA     C1515311   3.601   1.568   3.025
    1PA     H5R15312   3.692   1.616   2.987
    1PA     H5S15313   3.631   1.535   3.125
    1PA     C1415314   3.574   1.447   2.934
    1PA     H4R15315   3.543   1.497   2.841
    1PA     H4S15316   3.663   1.388   2.914
    1PA     C1315317   3.471   1.354   2.999
    1PA     H3R15318   3.462   1.374   3.106
    1PA     H3S15319   3.371   1.381   2.962
    1PA     C1215320   3.490   1.207   2.960
    1PA     H2R15321   3.594   1.175   2.976
    1PA     H2S15322   3.429   1.152   3.032
    2PC     C1115323   3.444   1.176   2.820
    2PC     O1215324   3.470   1.070   2.767
    2PC     O1115325   3.363   1.268   2.765
    2PC      C115326   3.318   1.243   2.630
    2PC      HR15327   3.406   1.247   2.566
    2PC      HS15328   3.274   1.145   2.610
    2PC      C215329   3.229   1.359   2.586
    2PC      HX15330   3.146   1.361   2.657
    2PC      C315331   3.192   1.335   2.439
    2PC      HA15332   3.147   1.236   2.431
    2PC      HB15333   3.113   1.407   2.416
    2PC     O3115334   3.305   1.353   2.352
    2PC     P3115335   3.279   1.406   2.203
    2PC     O3215336   3.228   1.558   2.210
    2PC     C3115337   3.324   1.658   2.249
    2PC     H1A15338   3.351   1.645   2.354
    2PC     H1B15339   3.417   1.654   2.192
    2PC     C3215340   3.241   1.786   2.233
    2PC     H2A15341   3.138   1.768   2.266
    2PC     H2B15342   3.282   1.870   2.290
    2PC     N3115343   3.225   1.845   2.096
    2PC     C3315344   3.161   1.748   2.001
    2PC     H3A15345   3.223   1.658   1.999
    2PC     H3B15346   3.058   1.731   2.032
    2PC     H3C15347   3.164   1.789   1.899
    2PC     C3415348   3.143   1.970   2.094
    2PC     H4A15349   3.184   2.029   2.176
    2PC     H4B15350   3.150   2.031   2.004
    2PC     H4C15351   3.041   1.947   2.124
    2PC     C3515352   3.352   1.881   2.024
    2PC     H5A15353   3.407   1.952   2.085
    2PC     H5B15354   3.318   1.925   1.931
    2PC     H5C15355   3.403   1.787   1.999
    2PC     O3315356   3.402   1.400   2.120
    2PC     O3415357   3.177   1.329   2.129
    2PC     O2115358   3.322   1.469   2.590
    2PC     C2115359   3.271   1.581   2.642
    2PC     O2215360   3.156   1.597   2.679
    3OL     C1215361   3.378   1.687   2.646
    3OL     H2R15362   3.464   1.654   2.588
    3OL     H2S15363   3.405   1.690   2.752
    3OL     C1315364   3.325   1.823   2.599
    3OL     H3R15365   3.234   1.849   2.654
    3OL     H3S15366   3.297   1.825   2.494
    3OL     C1415367   3.433   1.931   2.619
    3OL     H4R15368   3.403   2.007   2.547
    3OL     H4S15369   3.530   1.891   2.589
    3OL     C1515370   3.442   1.992   2.759
    3OL     H5R15371   3.419   1.918   2.836
    3OL     H5S15372   3.362   2.067   2.765
    3OL     C1615373   3.575   2.065   2.783
    3OL     H6R15374   3.610   2.109   2.690
    3OL     H6S15375   3.653   1.989   2.793
    3OL     C1715376   3.575   2.171   2.894
    3OL     H7R15377   3.540   2.127   2.988
    3OL     H7S15378   3.503   2.251   2.874
    3OL     C1815379   3.709   2.241   2.916
    3OL     H8R15380   3.678   2.344   2.935
    3OL     H8S15381   3.760   2.244   2.819
    3OL     C1915382   3.799   2.176   3.018
    3OL     H9R15383   3.859   2.099   2.971
    3OL    C11015384   3.819   2.207   3.145
    3OL    H10R15385   3.885   2.141   3.201
    3OL    C11115386   3.759   2.329   3.210
    3OL    H11R15387   3.681   2.306   3.283
    3OL    H11S15388   3.712   2.390   3.133
    3OL    C11215389   3.855   2.415   3.295
    3OL    H12R15390   3.791   2.478   3.357
    3OL    H12S15391   3.924   2.473   3.235
    3OL    C11315392   3.942   2.323   3.381
    3OL    H13R15393   4.015   2.275   3.314
    3OL    H13S15394   3.887   2.243   3.432
    3OL    C11415395   4.024   2.408   3.480
    3OL    H14R15396   3.966   2.447   3.563
    3OL    H14S15397   4.066   2.490   3.421
    3OL    C11515398   4.145   2.337   3.543
    3OL    H15R15399   4.200   2.419   3.590
    3OL    H15S15400   4.208   2.289   3.468
    3OL    C11615401   4.090   2.238   3.647
    3OL    H16R15402   4.013   2.175   3.603
    3OL    H16S15403   4.032   2.293   3.722
    3OL    C11715404   4.207   2.160   3.707
    3OL    H17R15405   4.247   2.098   3.627
    3OL    H17S15406   4.173   2.081   3.776
    3OL    C11815407   4.311   2.253   3.769
    3OL    H18R15408   4.264   2.309   3.850
    3OL    H18S15409   4.361   2.317   3.696
    3OL    H18T15410   4.394   2.192   3.804
    1PA    C11615411   4.678   2.946   4.041
    1PA    H16R15412   4.709   2.903   3.945
    1PA    H16S15413   4.736   2.903   4.122
    1PA    H16T15414   4.693   3.052   4.021
    1PA    C11515415   4.529   2.925   4.073
    1PA    H15R15416   4.507   2.820   4.093
    1PA    H15S15417   4.508   2.992   4.157
    1PA    C11415418   4.448   2.963   3.948
    1PA    H14R15419   4.344   2.990   3.968
    1PA    H14S15420   4.490   3.048   3.894
    1PA    C11315421   4.448   2.856   3.838
    1PA    H13R15422   4.546   2.813   3.815
    1PA    H13S15423   4.399   2.771   3.886
    1PA    C11215424   4.382   2.901   3.708
    1PA    H12R15425   4.284   2.948   3.720
    1PA    H12S15426   4.442   2.984   3.669
    1PA    C11115427   4.386   2.790   3.602
    1PA    H11R15428   4.489   2.764   3.576
    1PA    H11S15429   4.325   2.704   3.631
    1PA    C11015430   4.314   2.838   3.475
    1PA    H10R15431   4.226   2.892   3.509
    1PA    H10S15432   4.380   2.914   3.433
    1PA     C1915433   4.286   2.729   3.370
    1PA     H9R15434   4.373   2.663   3.366
    1PA     H9S15435   4.194   2.677   3.395
    1PA     C1815436   4.248   2.791   3.235
    1PA     H8R15437   4.168   2.864   3.250
    1PA     H8S15438   4.335   2.848   3.202
    1PA     C1715439   4.203   2.700   3.120
    1PA     H7R15440   4.251   2.602   3.123
    1PA     H7S15441   4.097   2.676   3.134
    1PA     C1615442   4.235   2.763   2.984
    1PA     H6R15443   4.152   2.832   2.967
    1PA     H6S15444   4.330   2.817   2.979
    1PA     C1515445   4.270   2.665   2.871
    1PA     H5R15446   4.342   2.585   2.891
    1PA     H5S15447   4.180   2.606   2.853
    1PA     C1415448   4.306   2.735   2.739
    1PA     H4R15449   4.226   2.800   2.704
    1PA     H4S15450   4.396   2.794   2.757
    1PA     C1315451   4.328   2.625   2.634
    1PA     H3R15452   4.414   2.562   2.658
    1PA     H3S15453   4.239   2.563   2.623
    1PA     C1215454   4.377   2.682   2.499
    1PA     H2R15455   4.313   2.769   2.481
    1PA     H2S15456   4.484   2.697   2.509
    2PC     C1115457   4.351   2.585   2.386
    2PC     O1215458   4.363   2.620   2.271
    2PC     O1115459   4.316   2.461   2.423
    2PC      C115460   4.302   2.358   2.324
    2PC      HR15461   4.269   2.270   2.380
    2PC      HS15462   4.225   2.383   2.250
    2PC      C215463   4.429   2.323   2.245
    2PC      HX15464   4.473   2.414   2.203
    2PC      C315465   4.396   2.236   2.123
    2PC      HA15466   4.491   2.201   2.081
    2PC      HB15467   4.336   2.155   2.165
    2PC     O3115468   4.328   2.308   2.019
    2PC     P3115469   4.306   2.237   1.877
    2PC     O3215470   4.360   2.347   1.775
    2PC     C3115471   4.314   2.327   1.640
    2PC     H1A15472   4.320   2.225   1.602
    2PC     H1B15473   4.207   2.352   1.645
    2PC     C3215474   4.387   2.430   1.552
    2PC     H2A15475   4.335   2.444   1.458
    2PC     H2B15476   4.387   2.531   1.592
    2PC     N3115477   4.531   2.404   1.517
    2PC     C3315478   4.616   2.427   1.639
    2PC     H3A15479   4.718   2.393   1.623
    2PC     H3B15480   4.607   2.536   1.645
    2PC     H3C15481   4.578   2.360   1.715
    2PC     C3415482   4.556   2.272   1.451
    2PC     H4A15483   4.664   2.269   1.433
    2PC     H4B15484   4.529   2.187   1.513
    2PC     H4C15485   4.504   2.275   1.355
    2PC     C3515486   4.563   2.504   1.411
    2PC     H5A15487   4.554   2.609   1.440
    2PC     H5B15488   4.507   2.477   1.321
    2PC     H5C15489   4.668   2.488   1.388
    2PC     O3315490   4.373   2.104   1.877
    2PC     O3415491   4.161   2.210   1.866
    2PC     O2115492   4.530   2.264   2.329
    2PC     C2115493   4.614   2.342   2.400
    2PC     O2215494   4.623   2.462   2.386
    3OL     C1215495   4.701   2.264   2.495
    3OL     H2R15496   4.793   2.225   2.450
    3OL     H2S15497   4.646   2.176   2.528
    3OL     C1315498   4.739   2.334   2.626
    3OL     H3R15499   4.656   2.389   2.672
    3OL     H3S15500   4.799   2.425   2.615
    3OL     C1415501   4.807   2.247   2.731
    3OL     H4R15502   4.871   2.299   2.803
    3OL     H4S15503   4.872   2.179   2.674
    3OL     C1515504   4.707   2.163   2.812
    3OL     H5R15505   4.657   2.085   2.754
    3OL     H5S15506   4.625   2.219   2.858
    3OL     C1615507   4.775   2.075   2.917
    3OL     H6R15508   4.865   2.026   2.880
    3OL     H6S15509   4.700   1.999   2.938
    3OL     C1715510   4.809   2.148   3.048
    3OL     H7R15511   4.723   2.200   3.092
    3OL     H7S15512   4.878   2.231   3.032
    3OL     C1815513   4.880   2.052   3.142
    3OL     H8R15514   4.967   2.021   3.083
    3OL     H8S15515   4.826   1.961   3.170
    3OL     C1915516   4.935   2.120   3.264
    3OL     H9R15517   4.908   2.224   3.281
    3OL    C11015518   5.013   2.064   3.355
    3OL    H10R15519   5.051   2.125   3.436
    3OL    C11115520   5.050   1.918   3.357
    3OL    H11R15521   5.042   1.868   3.260
    3OL    H11S15522   4.997   1.863   3.435
    3OL    C11215523   5.200   1.918   3.389
    3OL    H12R15524   5.226   1.955   3.489
    3OL    H12S15525   5.258   1.981   3.320
    3OL    C11315526   5.262   1.778   3.382
    3OL    H13R15527   5.244   1.737   3.283
    3OL    H13S15528   5.226   1.720   3.468
    3OL    C11415529   5.414   1.779   3.399
    3OL    H14R15530   5.420   1.822   3.499
    3OL    H14S15531   5.470   1.851   3.338
    3OL    C11515532   5.480   1.641   3.398
    3OL    H15R15533   5.463   1.594   3.301
    3OL    H15S15534   5.443   1.576   3.478
    3OL    C11615535   5.628   1.665   3.429
    3OL    H16R15536   5.658   1.565   3.459
    3OL    H16S15537   5.652   1.742   3.502
    3OL    C11715538   5.703   1.698   3.299
    3OL    H17R15539   5.683   1.803   3.276
    3OL    H17S15540   5.663   1.638   3.216
    3OL    C11815541   5.848   1.651   3.317
    3OL    H18R15542   5.910   1.661   3.228
    3OL    H18S15543   5.849   1.542   3.327
    3OL    H18T15544   5.904   1.705   3.393
    1PA    C11615545   3.954   5.545   3.464
    1PA    H16R15546   3.893   5.539   3.554
    1PA    H16S15547   4.049   5.511   3.506
    1PA    H16T15548   3.926   5.459   3.402
    1PA    C11515549   3.959   5.667   3.370
    1PA    H15R15550   3.995   5.752   3.429
    1PA    H15S15551   4.031   5.637   3.294
    1PA    C11415552   3.818   5.702   3.320
    1PA    H14R15553   3.780   5.608   3.280
    1PA    H14S15554   3.760   5.746   3.400
    1PA    C11315555   3.817   5.805   3.206
    1PA    H13R15556   3.859   5.896   3.247
    1PA    H13S15557   3.876   5.772   3.120
    1PA    C11215558   3.674   5.818   3.151
    1PA    H12R15559   3.628   5.728   3.109
    1PA    H12S15560   3.604   5.837   3.232
    1PA    C11115561   3.665   5.922   3.038
    1PA    H11R15562   3.720   6.010   3.070
    1PA    H11S15563   3.720   5.877   2.956
    1PA    C11015564   3.526   5.952   2.979
    1PA    H10R15565   3.477   6.026   3.043
    1PA    H10S15566   3.544   6.003   2.884
    1PA     C1915567   3.440   5.827   2.962
    1PA     H9R15568   3.417   5.775   3.056
    1PA     H9S15569   3.349   5.864   2.915
    1PA     C1815570   3.503   5.728   2.862
    1PA     H8R15571   3.548   5.782   2.779
    1PA     H8S15572   3.586   5.673   2.908
    1PA     C1715573   3.397   5.627   2.817
    1PA     H7R15574   3.373   5.557   2.898
    1PA     H7S15575   3.309   5.681   2.781
    1PA     C1615576   3.464   5.549   2.703
    1PA     H6R15577   3.507   5.620   2.633
    1PA     H6S15578   3.537   5.485   2.754
    1PA     C1515579   3.370   5.444   2.642
    1PA     H5R15580   3.431   5.359   2.611
    1PA     H5S15581   3.299   5.418   2.721
    1PA     C1415582   3.276   5.510   2.539
    1PA     H4R15583   3.213   5.585   2.586
    1PA     H4S15584   3.335   5.558   2.460
    1PA     C1315585   3.188   5.407   2.468
    1PA     H3R15586   3.251   5.323   2.437
    1PA     H3S15587   3.125   5.367   2.548
    1PA     C1215588   3.091   5.460   2.362
    1PA     H2R15589   3.033   5.382   2.311
    1PA     H2S15590   3.010   5.515   2.410
    2PC     C1115591   3.154   5.551   2.259
    2PC     O1215592   3.224   5.510   2.169
    2PC     O1115593   3.119   5.679   2.279
    2PC      C115594   3.202   5.768   2.201
    2PC      HR15595   3.308   5.744   2.204
    2PC      HS15596   3.171   5.759   2.097
    2PC      C215597   3.195   5.912   2.252
    2PC      HX15598   3.093   5.951   2.253
    2PC      C315599   3.278   6.007   2.164
    2PC      HA15600   3.235   6.023   2.065
    2PC      HB15601   3.288   6.101   2.220
    2PC     O3115602   3.410   5.951   2.149
    2PC     P3115603   3.505   6.017   2.039
    2PC     O3215604   3.649   5.959   2.079
    2PC     C3115605   3.757   6.036   2.133
    2PC     H1A15606   3.708   6.101   2.206
    2PC     H1B15607   3.827   5.968   2.182
    2PC     C3215608   3.830   6.111   2.020
    2PC     H2A15609   3.896   6.040   1.970
    2PC     H2B15610   3.756   6.132   1.943
    2PC     N3115611   3.906   6.235   2.055
    2PC     C3315612   3.969   6.282   1.928
    2PC     H3A15613   3.905   6.304   1.842
    2PC     H3B15614   4.019   6.376   1.951
    2PC     H3C15615   4.045   6.208   1.903
    2PC     C3415616   3.819   6.343   2.113
    2PC     H4A15617   3.876   6.415   2.173
    2PC     H4B15618   3.747   6.385   2.043
    2PC     H4C15619   3.764   6.292   2.192
    2PC     C3515620   4.009   6.207   2.160
    2PC     H5A15621   4.079   6.132   2.126
    2PC     H5B15622   3.957   6.190   2.255
    2PC     H5C15623   4.068   6.297   2.177
    2PC     O3315624   3.464   5.968   1.905
    2PC     O3415625   3.493   6.165   2.035
    2PC     O2115626   3.252   5.910   2.384
    2PC     C2115627   3.219   6.015   2.461
    2PC     O2215628   3.132   6.099   2.446
    3OL     C1215629   3.297   6.020   2.591
    3OL     H2R15630   3.401   5.988   2.584
    3OL     H2S15631   3.259   5.951   2.667
    3OL     C1315632   3.290   6.166   2.638
    3OL     H3R15633   3.185   6.187   2.661
    3OL     H3S15634   3.323   6.244   2.570
    3OL     C1415635   3.355   6.198   2.773
    3OL     H4R15636   3.345   6.109   2.836
    3OL     H4S15637   3.296   6.276   2.822
    3OL     C1515638   3.501   6.246   2.761
    3OL     H5R15639   3.506   6.334   2.697
    3OL     H5S15640   3.560   6.163   2.720
    3OL     C1615641   3.554   6.295   2.897
    3OL     H6R15642   3.530   6.232   2.983
    3OL     H6S15643   3.513   6.393   2.921
    3OL     C1715644   3.705   6.316   2.886
    3OL     H7R15645   3.724   6.398   2.817
    3OL     H7S15646   3.756   6.228   2.846
    3OL     C1815647   3.777   6.350   3.018
    3OL     H8R15648   3.720   6.434   3.059
    3OL     H8S15649   3.878   6.382   2.995
    3OL     C1915650   3.782   6.239   3.120
    3OL     H9R15651   3.852   6.162   3.089
    3OL    C11015652   3.710   6.228   3.230
    3OL    H10R15653   3.722   6.139   3.291
    3OL    C11115654   3.590   6.313   3.266
    3OL    H11R15655   3.570   6.399   3.203
    3OL    H11S15656   3.623   6.346   3.365
    3OL    C11215657   3.451   6.250   3.284
    3OL    H12R15658   3.440   6.161   3.347
    3OL    H12S15659   3.404   6.224   3.189
    3OL    C11315660   3.355   6.346   3.357
    3OL    H13R15661   3.348   6.438   3.298
    3OL    H13S15662   3.402   6.370   3.452
    3OL    C11415663   3.219   6.279   3.378
    3OL    H14R15664   3.207   6.246   3.481
    3OL    H14S15665   3.210   6.197   3.307
    3OL    C11515666   3.116   6.386   3.341
    3OL    H15R15667   3.018   6.337   3.341
    3OL    H15S15668   3.124   6.405   3.234
    3OL    C11615669   3.112   6.506   3.437
    3OL    H16R15670   3.044   6.580   3.393
    3OL    H16S15671   3.202   6.567   3.441
    3OL    C11715672   3.054   6.463   3.572
    3OL    H17R15673   2.979   6.384   3.570
    3OL    H17S15674   3.001   6.553   3.604
    3OL    C11815675   3.151   6.448   3.690
    3OL    H18R15676   3.091   6.435   3.780
    3OL    H18S15677   3.208   6.540   3.709
    3OL    H18T15678   3.219   6.365   3.670
    1PA    C11615679   0.444   1.708   3.600
    1PA    H16R15680   0.353   1.731   3.545
    1PA    H16S15681   0.482   1.796   3.652
    1PA    H16T15682   0.424   1.626   3.670
    1PA    C11515683   0.552   1.670   3.498
    1PA    H15R15684   0.598   1.764   3.469
    1PA    H15S15685   0.627   1.610   3.551
    1PA    C11415686   0.495   1.592   3.378
    1PA    H14R15687   0.462   1.492   3.406
    1PA    H14S15688   0.414   1.656   3.345
    1PA    C11315689   0.599   1.563   3.269
    1PA    H13R15690   0.627   1.657   3.222
    1PA    H13S15691   0.683   1.510   3.315
    1PA    C11215692   0.532   1.473   3.165
    1PA    H12R15693   0.513   1.379   3.217
    1PA    H12S15694   0.429   1.504   3.149
    1PA    C11115695   0.621   1.448   3.042
    1PA    H11R15696   0.716   1.401   3.068
    1PA    H11S15697   0.563   1.377   2.983
    1PA    C11015698   0.635   1.568   2.947
    1PA    H10R15699   0.547   1.632   2.936
    1PA    H10S15700   0.706   1.641   2.985
    1PA     C1915701   0.666   1.515   2.806
    1PA     H9R15702   0.732   1.586   2.756
    1PA     H9S15703   0.718   1.419   2.815
    1PA     C1815704   0.537   1.486   2.727
    1PA     H8R15705   0.568   1.417   2.649
    1PA     H8S15706   0.462   1.431   2.784
    1PA     C1715707   0.478   1.611   2.661
    1PA     H7R15708   0.425   1.674   2.734
    1PA     H7S15709   0.551   1.681   2.621
    1PA     C1615710   0.369   1.571   2.560
    1PA     H6R15711   0.413   1.497   2.492
    1PA     H6S15712   0.286   1.519   2.608
    1PA     C1515713   0.319   1.689   2.477
    1PA     H5R15714   0.287   1.774   2.538
    1PA     H5S15715   0.394   1.734   2.412
    1PA     C1415716   0.193   1.653   2.396
    1PA     H4R15717   0.124   1.624   2.476
    1PA     H4S15718   0.160   1.743   2.343
    1PA     C1315719   0.211   1.542   2.292
    1PA     H3R15720   0.260   1.460   2.345
    1PA     H3S15721   0.112   1.513   2.256
    1PA     C1215722   0.292   1.586   2.169
    1PA     H2R15723   0.388   1.623   2.205
    1PA     H2S15724   0.320   1.502   2.105
    2PC     C1115725   0.226   1.701   2.098
    2PC     O1215726   0.106   1.716   2.094
    2PC     O1115727   0.314   1.788   2.046
    2PC      C115728   0.273   1.902   1.969
    2PC      HR15729   0.226   1.872   1.876
    2PC      HS15730   0.211   1.965   2.034
    2PC      C215731   0.390   1.999   1.945
    2PC      HX15732   0.343   2.078   1.887
    2PC      C315733   0.501   1.925   1.870
    2PC      HA15734   0.548   1.855   1.940
    2PC      HB15735   0.471   1.871   1.780
    2PC     O3115736   0.608   2.010   1.823
    2PC     P3115737   0.583   2.088   1.685
    2PC     O3215738   0.488   2.207   1.734
    2PC     C3115739   0.426   2.295   1.638
    2PC     H1A15740   0.496   2.302   1.554
    2PC     H1B15741   0.332   2.248   1.608
    2PC     C3215742   0.365   2.426   1.690
    2PC     H2A15743   0.320   2.485   1.609
    2PC     H2B15744   0.282   2.393   1.752
    2PC     N3115745   0.458   2.523   1.755
    2PC     C3315746   0.386   2.649   1.795
    2PC     H3A15747   0.453   2.734   1.785
    2PC     H3B15748   0.305   2.666   1.724
    2PC     H3C15749   0.359   2.642   1.901
    2PC     C3415750   0.517   2.462   1.878
    2PC     H4A15751   0.610   2.516   1.895
    2PC     H4B15752   0.452   2.475   1.965
    2PC     H4C15753   0.541   2.356   1.861
    2PC     C3515754   0.563   2.559   1.654
    2PC     H5A15755   0.635   2.625   1.703
    2PC     H5B15756   0.505   2.602   1.572
    2PC     H5C15757   0.615   2.468   1.625
    2PC     O3315758   0.709   2.149   1.639
    2PC     O3415759   0.517   2.012   1.575
    2PC     O2115760   0.432   2.054   2.071
    2PC     C2115761   0.395   2.174   2.119
    2PC     O2215762   0.306   2.244   2.074
    3OL     C1215763   0.477   2.219   2.237
    3OL     H2R15764   0.420   2.304   2.276
    3OL     H2S15765   0.577   2.247   2.204
    3OL     C1315766   0.499   2.116   2.349
    3OL     H3R15767   0.551   2.028   2.309
    3OL     H3S15768   0.403   2.075   2.382
    3OL     C1415769   0.554   2.175   2.480
    3OL     H4R15770   0.502   2.267   2.509
    3OL     H4S15771   0.658   2.204   2.469
    3OL     C1515772   0.553   2.070   2.593
    3OL     H5R15773   0.593   1.974   2.560
    3OL     H5S15774   0.448   2.053   2.616
    3OL     C1615775   0.629   2.122   2.716
    3OL     H6R15776   0.600   2.222   2.748
    3OL     H6S15777   0.736   2.115   2.695
    3OL     C1715778   0.594   2.025   2.830
    3OL     H7R15779   0.636   1.928   2.800
    3OL     H7S15780   0.487   2.007   2.832
    3OL     C1815781   0.640   2.068   2.970
    3OL     H8R15782   0.584   2.156   3.003
    3OL     H8S15783   0.746   2.095   2.964
    3OL     C1915784   0.631   1.950   3.064
    3OL     H9R15785   0.666   1.865   3.007
    3OL    C11015786   0.549   1.942   3.168
    3OL    H10R15787   0.524   1.844   3.207
    3OL    C11115788   0.500   2.064   3.243
    3OL    H11R15789   0.408   2.094   3.192
    3OL    H11S15790   0.569   2.149   3.243
    3OL    C11215791   0.454   2.038   3.387
    3OL    H12R15792   0.545   2.055   3.446
    3OL    H12S15793   0.429   1.931   3.391
    3OL    C11315794   0.335   2.121   3.437
    3OL    H13R15795   0.316   2.078   3.536
    3OL    H13S15796   0.249   2.107   3.372
    3OL    C11415797   0.373   2.269   3.452
    3OL    H14R15798   0.434   2.301   3.368
    3OL    H14S15799   0.436   2.290   3.539
    3OL    C11515800   0.248   2.358   3.465
    3OL    H15R15801   0.170   2.316   3.529
    3OL    H15S15802   0.208   2.374   3.364
    3OL    C11615803   0.289   2.497   3.514
    3OL    H16R15804   0.205   2.565   3.497
    3OL    H16S15805   0.378   2.535   3.465
    3OL    C11715806   0.301   2.505   3.667
    3OL    H17R15807   0.368   2.426   3.700
    3OL    H17S15808   0.206   2.475   3.711
    3OL    C11815809   0.356   2.640   3.717
    3OL    H18R15810   0.444   2.672   3.660
    3OL    H18S15811   0.361   2.645   3.826
    3OL    H18T15812   0.284   2.718   3.693
    1PA    C11615813   1.353   0.623   3.961
    1PA    H16R15814   1.395   0.722   3.981
    1PA    H16S15815   1.384   0.551   4.037
    1PA    H16T15816   1.245   0.636   3.963
    1PA    C11515817   1.393   0.575   3.821
    1PA    H15R15818   1.352   0.475   3.806
    1PA    H15S15819   1.329   0.633   3.753
    1PA    C11415820   1.540   0.597   3.785
    1PA    H14R15821   1.561   0.698   3.820
    1PA    H14S15822   1.597   0.531   3.851
    1PA    C11315823   1.576   0.577   3.637
    1PA    H13R15824   1.500   0.614   3.568
    1PA    H13S15825   1.667   0.636   3.624
    1PA    C11215826   1.597   0.428   3.605
    1PA    H12R15827   1.650   0.382   3.688
    1PA    H12S15828   1.502   0.374   3.599
    1PA    C11115829   1.668   0.409   3.470
    1PA    H11R15830   1.596   0.444   3.395
    1PA    H11S15831   1.761   0.466   3.472
    1PA    C11015832   1.674   0.258   3.441
    1PA    H10R15833   1.716   0.202   3.525
    1PA    H10S15834   1.572   0.220   3.437
    1PA     C1915835   1.758   0.220   3.318
    1PA     H9R15836   1.854   0.270   3.315
    1PA     H9S15837   1.775   0.112   3.330
    1PA     C1815838   1.677   0.248   3.190
    1PA     H8R15839   1.583   0.193   3.199
    1PA     H8S15840   1.637   0.348   3.178
    1PA     C1715841   1.759   0.212   3.065
    1PA     H7R15842   1.800   0.111   3.073
    1PA     H7S15843   1.695   0.210   2.977
    1PA     C1615844   1.882   0.300   3.039
    1PA     H6R15845   1.838   0.400   3.044
    1PA     H6S15846   1.954   0.293   3.121
    1PA     C1515847   1.951   0.278   2.904
    1PA     H5R15848   1.971   0.172   2.885
    1PA     H5S15849   1.887   0.311   2.822
    1PA     C1415850   2.087   0.349   2.894
    1PA     H4R15851   2.062   0.453   2.871
    1PA     H4S15852   2.142   0.343   2.988
    1PA     C1315853   2.191   0.303   2.791
    1PA     H3R15854   2.276   0.371   2.786
    1PA     H3S15855   2.207   0.199   2.822
    1PA     C1215856   2.137   0.301   2.647
    1PA     H2R15857   2.095   0.202   2.628
    1PA     H2S15858   2.063   0.381   2.641
    2PC     C1115859   2.237   0.340   2.542
    2PC     O1215860   2.256   0.275   2.441
    2PC     O1115861   2.299   0.458   2.562
    2PC      C115862   2.372   0.525   2.457
    2PC      HR15863   2.434   0.603   2.501
    2PC      HS15864   2.433   0.444   2.415
    2PC      C215865   2.280   0.581   2.348
    2PC      HX15866   2.238   0.494   2.297
    2PC      C315867   2.377   0.641   2.245
    2PC      HA15868   2.437   0.563   2.197
    2PC      HB15869   2.319   0.686   2.165
    2PC     O3115870   2.453   0.752   2.297
    2PC     P3115871   2.563   0.817   2.201
    2PC     O3215872   2.692   0.764   2.280
    2PC     C3115873   2.719   0.622   2.279
    2PC     H1A15874   2.660   0.580   2.360
    2PC     H1B15875   2.694   0.572   2.185
    2PC     C3215876   2.866   0.601   2.317
    2PC     H2A15877   2.885   0.650   2.413
    2PC     H2B15878   2.884   0.494   2.324
    2PC     N3115879   2.972   0.647   2.221
    2PC     C3315880   2.965   0.797   2.209
    2PC     H3A15881   3.063   0.824   2.169
    2PC     H3B15882   2.878   0.822   2.148
    2PC     H3C15883   2.961   0.833   2.311
    2PC     C3415884   3.105   0.617   2.282
    2PC     H4A15885   3.103   0.520   2.333
    2PC     H4B15886   3.181   0.626   2.203
    2PC     H4C15887   3.113   0.696   2.356
    2PC     C3515888   2.955   0.593   2.082
    2PC     H5A15889   3.052   0.595   2.032
    2PC     H5B15890   2.869   0.647   2.040
    2PC     H5C15891   2.935   0.486   2.085
    2PC     O3315892   2.549   0.775   2.059
    2PC     O3415893   2.561   0.965   2.189
    2PC     O2115894   2.191   0.681   2.400
    2PC     C2115895   2.067   0.650   2.440
    2PC     O2215896   2.022   0.540   2.416
    3OL     C1215897   2.000   0.757   2.522
    3OL     H2R15898   1.953   0.828   2.453
    3OL     H2S15899   2.062   0.828   2.578
    3OL     C1315900   1.901   0.696   2.622
    3OL     H3R15901   1.961   0.621   2.673
    3OL     H3S15902   1.816   0.636   2.588
    3OL     C1415903   1.838   0.802   2.712
    3OL     H4R15904   1.909   0.867   2.764
    3OL     H4S15905   1.778   0.762   2.794
    3OL     C1515906   1.739   0.884   2.628
    3OL     H5R15907   1.652   0.819   2.616
    3OL     H5S15908   1.791   0.917   2.537
    3OL     C1615909   1.685   1.009   2.700
    3OL     H6R15910   1.770   1.066   2.736
    3OL     H6S15911   1.631   0.982   2.791
    3OL     C1715912   1.587   1.077   2.604
    3OL     H7R15913   1.513   1.005   2.567
    3OL     H7S15914   1.647   1.117   2.522
    3OL     C1815915   1.512   1.190   2.676
    3OL     H8R15916   1.460   1.145   2.761
    3OL     H8S15917   1.445   1.237   2.603
    3OL     C1915918   1.613   1.296   2.711
    3OL     H9R15919   1.665   1.350   2.633
    3OL    C11015920   1.645   1.326   2.836
    3OL    H10R15921   1.720   1.405   2.838
    3OL    C11115922   1.612   1.252   2.964
    3OL    H11R15923   1.593   1.147   2.943
    3OL    H11S15924   1.526   1.299   3.012
    3OL    C11215925   1.737   1.264   3.053
    3OL    H12R15926   1.760   1.366   3.083
    3OL    H12S15927   1.819   1.225   2.992
    3OL    C11315928   1.707   1.182   3.179
    3OL    H13R15929   1.663   1.087   3.149
    3OL    H13S15930   1.641   1.243   3.241
    3OL    C11415931   1.831   1.138   3.259
    3OL    H14R15932   1.904   1.094   3.190
    3OL    H14S15933   1.819   1.052   3.325
    3OL    C11515934   1.893   1.256   3.333
    3OL    H15R15935   1.833   1.284   3.419
    3OL    H15S15936   1.903   1.336   3.258
    3OL    C11615937   2.027   1.218   3.397
    3OL    H16R15938   2.109   1.226   3.325
    3OL    H16S15939   2.023   1.112   3.425
    3OL    C11715940   2.073   1.306   3.514
    3OL    H17R15941   2.170   1.274   3.553
    3OL    H17S15942   2.004   1.293   3.597
    3OL    C11815943   2.090   1.454   3.476
    3OL    H18R15944   1.988   1.492   3.465
    3OL    H18S15945   2.144   1.465   3.381
    3OL    H18T15946   2.138   1.505   3.560
    1PA    C11615947   3.995   1.358   4.106
    1PA    H16R15948   3.992   1.253   4.077
    1PA    H16S15949   3.940   1.361   4.200
    1PA    H16T15950   4.097   1.390   4.131
    1PA    C11515951   3.932   1.456   4.005
    1PA    H15R15952   3.942   1.559   4.039
    1PA    H15S15953   3.993   1.448   3.915
    1PA    C11415954   3.780   1.450   3.987
    1PA    H14R15955   3.755   1.359   3.934
    1PA    H14S15956   3.735   1.441   4.087
    1PA    C11315957   3.714   1.569   3.916
    1PA    H13R15958   3.608   1.542   3.904
    1PA    H13S15959   3.720   1.662   3.971
    1PA    C11215960   3.775   1.598   3.778
    1PA    H12R15961   3.876   1.615   3.815
    1PA    H12S15962   3.781   1.520   3.702
    1PA    C11115963   3.703   1.726   3.732
    1PA    H11R15964   3.610   1.717   3.676
    1PA    H11S15965   3.676   1.801   3.807
    1PA    C11015966   3.803   1.797   3.640
    1PA    H10R15967   3.765   1.898   3.626
    1PA    H10S15968   3.904   1.795   3.683
    1PA     C1915969   3.816   1.726   3.504
    1PA     H9R15970   3.851   1.624   3.518
    1PA     H9S15971   3.714   1.738   3.466
    1PA     C1815972   3.922   1.798   3.420
    1PA     H8R15973   3.887   1.902   3.414
    1PA     H8S15974   4.021   1.793   3.465
    1PA     C1715975   3.933   1.759   3.272
    1PA     H7R15976   3.957   1.653   3.264
    1PA     H7S15977   3.832   1.765   3.232
    1PA     C1615978   4.035   1.853   3.206
    1PA     H6R15979   3.992   1.953   3.212
    1PA     H6S15980   4.116   1.847   3.279
    1PA     C1515981   4.073   1.806   3.065
    1PA     H5R15982   4.153   1.869   3.026
    1PA     H5S15983   4.110   1.703   3.062
    1PA     C1415984   3.959   1.822   2.963
    1PA     H4R15985   3.864   1.788   3.004
    1PA     H4S15986   3.960   1.930   2.948
    1PA     C1315987   3.993   1.751   2.831
    1PA     H3R15988   4.090   1.785   2.794
    1PA     H3S15989   3.984   1.644   2.848
    1PA     C1215990   3.896   1.799   2.723
    1PA     H2R15991   3.802   1.753   2.755
    1PA     H2S15992   3.878   1.907   2.724
    2PC     C1115993   3.924   1.742   2.586
    2PC     O1215994   3.971   1.633   2.562
    2PC     O1115995   3.906   1.842   2.499
    2PC      C115996   3.954   1.815   2.366
    2PC      HR15997   3.980   1.710   2.352
    2PC      HS15998   3.882   1.839   2.288
    2PC      C215999   4.086   1.889   2.338
    2PC      HX16000   4.076   1.997   2.354
    2PC      C316001   4.136   1.847   2.199
    2PC      HA16002   4.063   1.888   2.129
    2PC      HB16003   4.232   1.891   2.169
    2PC     O3116004   4.156   1.706   2.184
    2PC     P3116005   4.185   1.642   2.040
    2PC     O3216006   4.107   1.726   1.928
    2PC     C3116007   4.183   1.802   1.832
    2PC     H1A16008   4.246   1.878   1.880
    2PC     H1B16009   4.242   1.736   1.768
    2PC     C3216010   4.089   1.882   1.740
    2PC     H2A16011   4.029   1.951   1.801
    2PC     H2B16012   4.152   1.944   1.677
    2PC     N3116013   3.991   1.801   1.661
    2PC     C3316014   3.922   1.894   1.566
    2PC     H3A16015   3.852   1.842   1.500
    2PC     H3B16016   3.869   1.963   1.632
    2PC     H3C16017   4.012   1.935   1.519
    2PC     C3416018   4.063   1.709   1.568
    2PC     H4A16019   4.149   1.760   1.526
    2PC     H4B16020   4.106   1.625   1.623
    2PC     H4C16021   3.998   1.662   1.493
    2PC     C3516022   3.889   1.725   1.740
    2PC     H5A16023   3.853   1.800   1.810
    2PC     H5B16024   3.943   1.657   1.807
    2PC     H5C16025   3.822   1.671   1.673
    2PC     O3316026   4.329   1.619   2.014
    2PC     O3416027   4.137   1.504   2.017
    2PC     O2116028   4.193   1.853   2.427
    2PC     C2116029   4.310   1.919   2.436
    2PC     O2216030   4.333   2.026   2.383
    3OL     C1216031   4.410   1.838   2.514
    3OL     H2R16032   4.455   1.765   2.446
    3OL     H2S16033   4.361   1.783   2.594
    3OL     C1316034   4.523   1.926   2.570
    3OL     H3R16035   4.480   1.995   2.644
    3OL     H3S16036   4.576   1.984   2.494
    3OL     C1416037   4.629   1.832   2.629
    3OL     H4R16038   4.721   1.890   2.638
    3OL     H4S16039   4.644   1.746   2.563
    3OL     C1516040   4.588   1.799   2.773
    3OL     H5R16041   4.496   1.740   2.777
    3OL     H5S16042   4.559   1.888   2.830
    3OL     C1616043   4.706   1.724   2.837
    3OL     H6R16044   4.794   1.789   2.842
    3OL     H6S16045   4.719   1.634   2.776
    3OL     C1716046   4.667   1.683   2.980
    3OL     H7R16047   4.584   1.613   2.970
    3OL     H7S16048   4.626   1.769   3.034
    3OL     C1816049   4.789   1.633   3.058
    3OL     H8R16050   4.877   1.696   3.047
    3OL     H8S16051   4.817   1.536   3.017
    3OL     C1916052   4.755   1.635   3.205
    3OL     H9R16053   4.657   1.675   3.231
    3OL    C11016054   4.833   1.585   3.299
    3OL    H10R16055   4.789   1.582   3.398
    3OL    C11116056   4.974   1.536   3.278
    3OL    H11R16057   5.028   1.623   3.240
    3OL    H11S16058   4.972   1.465   3.195
    3OL    C11216059   5.056   1.471   3.390
    3OL    H12R16060   5.000   1.384   3.425
    3OL    H12S16061   5.079   1.537   3.474
    3OL    C11316062   5.180   1.402   3.331
    3OL    H13R16063   5.237   1.481   3.281
    3OL    H13S16064   5.166   1.327   3.253
    3OL    C11416065   5.265   1.335   3.440
    3OL    H14R16066   5.209   1.250   3.479
    3OL    H14S16067   5.293   1.398   3.524
    3OL    C11516068   5.388   1.286   3.362
    3OL    H15R16069   5.433   1.376   3.318
    3OL    H15S16070   5.363   1.216   3.282
    3OL    C11616071   5.489   1.217   3.455
    3OL    H16R16072   5.459   1.113   3.465
    3OL    H16S16073   5.499   1.270   3.550
    3OL    C11716074   5.632   1.224   3.402
    3OL    H17R16075   5.662   1.326   3.379
    3OL    H17S16076   5.643   1.174   3.306
    3OL    C11816077   5.736   1.162   3.497
    3OL    H18R16078   5.834   1.179   3.454
    3OL    H18S16079   5.706   1.057   3.511
    3OL    H18T16080   5.728   1.211   3.594
    1PA    C11616081  -0.309   3.383   3.454
    1PA    H16R16082  -0.411   3.418   3.439
    1PA    H16S16083  -0.275   3.447   3.535
    1PA    H16T16084  -0.303   3.279   3.485
    1PA    C11516085  -0.236   3.405   3.321
    1PA    H15R16086  -0.280   3.336   3.249
    1PA    H15S16087  -0.241   3.507   3.282
    1PA    C11416088  -0.087   3.373   3.344
    1PA    H14R16089  -0.044   3.453   3.404
    1PA    H14S16090  -0.076   3.282   3.402
    1PA    C11316091  -0.008   3.349   3.214
    1PA    H13R16092   0.089   3.303   3.235
    1PA    H13S16093  -0.056   3.278   3.147
    1PA    C11216094   0.015   3.480   3.139
    1PA    H12R16095  -0.082   3.527   3.121
    1PA    H12S16096   0.079   3.556   3.185
    1PA    C11116097   0.066   3.443   3.000
    1PA    H11R16098   0.153   3.377   3.006
    1PA    H11S16099  -0.009   3.379   2.952
    1PA    C11016100   0.097   3.571   2.920
    1PA    H10R16101   0.006   3.616   2.881
    1PA    H10S16102   0.144   3.647   2.983
    1PA     C1916103   0.193   3.536   2.805
    1PA     H9R16104   0.226   3.617   2.740
    1PA     H9S16105   0.287   3.500   2.848
    1PA     C1816106   0.140   3.424   2.714
    1PA     H8R16107   0.132   3.325   2.759
    1PA     H8S16108   0.045   3.448   2.667
    1PA     C1716109   0.233   3.411   2.592
    1PA     H7R16110   0.181   3.479   2.524
    1PA     H7S16111   0.327   3.457   2.624
    1PA     C1616112   0.258   3.268   2.542
    1PA     H6R16113   0.336   3.219   2.601
    1PA     H6S16114   0.170   3.204   2.542
    1PA     C1516115   0.316   3.283   2.401
    1PA     H5R16116   0.250   3.354   2.351
    1PA     H5S16117   0.415   3.328   2.404
    1PA     C1416118   0.317   3.150   2.325
    1PA     H4R16119   0.375   3.078   2.383
    1PA     H4S16120   0.214   3.112   2.325
    1PA     C1316121   0.371   3.156   2.181
    1PA     H3R16122   0.302   3.218   2.123
    1PA     H3S16123   0.466   3.211   2.182
    1PA     C1216124   0.381   3.017   2.116
    1PA     H2R16125   0.448   2.962   2.182
    1PA     H2S16126   0.282   2.972   2.103
    2PC     C1116127   0.439   3.019   1.977
    2PC     O1216128   0.370   3.015   1.877
    2PC     O1116129   0.573   3.018   1.973
    2PC      C116130   0.643   3.028   1.847
    2PC      HR16131   0.749   3.005   1.862
    2PC      HS16132   0.604   2.947   1.786
    2PC      C216133   0.624   3.158   1.767
    2PC      HX16134   0.524   3.202   1.777
    2PC      C316135   0.667   3.137   1.621
    2PC      HA16136   0.762   3.083   1.609
    2PC      HB16137   0.595   3.080   1.563
    2PC     O3116138   0.677   3.265   1.556
    2PC     P3116139   0.728   3.269   1.404
    2PC     O3216140   0.581   3.274   1.342
    2PC     C3116141   0.523   3.152   1.292
    2PC     H1A16142   0.574   3.100   1.210
    2PC     H1B16143   0.506   3.090   1.380
    2PC     C3216144   0.384   3.190   1.237
    2PC     H2A16145   0.319   3.212   1.322
    2PC     H2B16146   0.400   3.275   1.171
    2PC     N3116147   0.319   3.086   1.151
    2PC     C3316148   0.178   3.123   1.117
    2PC     H3A16149   0.131   3.156   1.210
    2PC     H3B16150   0.172   3.203   1.043
    2PC     H3C16151   0.127   3.034   1.078
    2PC     C3416152   0.389   3.051   1.024
    2PC     H4A16153   0.357   3.133   0.959
    2PC     H4B16154   0.498   3.054   1.036
    2PC     H4C16155   0.351   2.962   0.974
    2PC     C3516156   0.301   2.960   1.231
    2PC     H5A16157   0.247   2.995   1.319
    2PC     H5B16158   0.398   2.929   1.270
    2PC     H5C16159   0.252   2.884   1.170
    2PC     O3316160   0.785   3.400   1.367
    2PC     O3416161   0.806   3.165   1.332
    2PC     O2116162   0.718   3.244   1.833
    2PC     C2116163   0.669   3.324   1.929
    2PC     O2216164   0.550   3.338   1.952
    3OL     C1216165   0.774   3.397   2.008
    3OL     H2R16166   0.771   3.504   1.988
    3OL     H2S16167   0.869   3.350   1.980
    3OL     C1316168   0.756   3.366   2.157
    3OL     H3R16169   0.658   3.407   2.183
    3OL     H3S16170   0.829   3.422   2.216
    3OL     C1416171   0.781   3.220   2.196
    3OL     H4R16172   0.869   3.183   2.143
    3OL     H4S16173   0.695   3.162   2.164
    3OL     C1516174   0.802   3.213   2.348
    3OL     H5R16175   0.857   3.304   2.375
    3OL     H5S16176   0.854   3.118   2.361
    3OL     C1616177   0.678   3.215   2.438
    3OL     H6R16178   0.597   3.162   2.387
    3OL     H6S16179   0.653   3.318   2.465
    3OL     C1716180   0.717   3.133   2.562
    3OL     H7R16181   0.798   3.181   2.618
    3OL     H7S16182   0.757   3.035   2.533
    3OL     C1816183   0.598   3.127   2.659
    3OL     H8R16184   0.524   3.051   2.633
    3OL     H8S16185   0.545   3.222   2.648
    3OL     C1916186   0.640   3.114   2.803
    3OL     H9R16187   0.745   3.089   2.806
    3OL    C11016188   0.566   3.141   2.909
    3OL    H10R16189   0.615   3.132   3.006
    3OL    C11116190   0.416   3.156   2.903
    3OL    H11R16191   0.376   3.091   2.824
    3OL    H11S16192   0.393   3.261   2.879
    3OL    C11216193   0.337   3.128   3.031
    3OL    H12R16194   0.233   3.151   3.005
    3OL    H12S16195   0.361   3.195   3.114
    3OL    C11316196   0.328   2.983   3.081
    3OL    H13R16197   0.430   2.948   3.095
    3OL    H13S16198   0.299   2.920   2.997
    3OL    C11416199   0.246   2.955   3.207
    3OL    H14R16200   0.232   2.847   3.216
    3OL    H14S16201   0.152   3.009   3.190
    3OL    C11516202   0.312   3.019   3.330
    3OL    H15R16203   0.245   3.008   3.415
    3OL    H15S16204   0.326   3.127   3.318
    3OL    C11616205   0.446   2.955   3.370
    3OL    H16R16206   0.518   3.002   3.304
    3OL    H16S16207   0.450   2.850   3.341
    3OL    C11716208   0.480   2.961   3.520
    3OL    H17R16209   0.558   2.886   3.538
    3OL    H17S16210   0.393   2.936   3.580
    3OL    C11816211   0.528   3.101   3.562
    3OL    H18R16212   0.452   3.176   3.540
    3OL    H18S16213   0.601   3.123   3.484
    3OL    H18T16214   0.566   3.112   3.664
    1PA    C11616215   2.515   1.978   4.106
    1PA    H16R16216   2.596   1.993   4.178
    1PA    H16S16217   2.485   1.874   4.119
    1PA    H16T16218   2.429   2.041   4.130
    1PA    C11516219   2.570   2.008   3.965
    1PA    H15R16220   2.581   2.117   3.968
    1PA    H15S16221   2.669   1.963   3.954
    1PA    C11416222   2.479   1.962   3.850
    1PA    H14R16223   2.463   1.854   3.857
    1PA    H14S16224   2.380   2.007   3.845
    1PA    C11316225   2.550   2.000   3.719
    1PA    H13R16226   2.561   2.109   3.723
    1PA    H13S16227   2.644   1.946   3.708
    1PA    C11216228   2.451   1.964   3.607
    1PA    H12R16229   2.416   1.861   3.605
    1PA    H12S16230   2.357   2.015   3.632
    1PA    C11116231   2.501   2.003   3.468
    1PA    H11R16232   2.417   2.006   3.398
    1PA    H11S16233   2.547   2.102   3.473
    1PA    C11016234   2.602   1.897   3.422
    1PA    H10R16235   2.703   1.935   3.443
    1PA    H10S16236   2.584   1.809   3.484
    1PA     C1916237   2.585   1.862   3.274
    1PA     H9R16238   2.608   1.757   3.253
    1PA     H9S16239   2.477   1.864   3.261
    1PA     C1816240   2.663   1.967   3.193
    1PA     H8R16241   2.610   2.062   3.201
    1PA     H8S16242   2.758   1.992   3.241
    1PA     C1716243   2.684   1.937   3.044
    1PA     H7R16244   2.761   1.999   2.999
    1PA     H7S16245   2.707   1.831   3.035
    1PA     C1616246   2.558   1.968   2.962
    1PA     H6R16247   2.477   1.904   2.996
    1PA     H6S16248   2.533   2.073   2.977
    1PA     C1516249   2.581   1.938   2.813
    1PA     H5R16250   2.671   1.989   2.778
    1PA     H5S16251   2.605   1.833   2.791
    1PA     C1416252   2.456   1.974   2.731
    1PA     H4R16253   2.455   2.083   2.741
    1PA     H4S16254   2.467   1.954   2.625
    1PA     C1316255   2.326   1.919   2.794
    1PA     H3R16256   2.351   1.818   2.829
    1PA     H3S16257   2.304   1.983   2.879
    1PA     C1216258   2.207   1.902   2.699
    1PA     H2R16259   2.114   1.867   2.745
    1PA     H2S16260   2.181   1.994   2.648
    2PC     C1116261   2.233   1.805   2.586
    2PC     O1216262   2.274   1.844   2.479
    2PC     O1116263   2.221   1.676   2.620
    2PC      C116264   2.258   1.577   2.523
    2PC      HR16265   2.220   1.480   2.556
    2PC      HS16266   2.207   1.611   2.432
    2PC      C216267   2.411   1.570   2.514
    2PC      HX16268   2.453   1.670   2.504
    2PC      C316269   2.461   1.496   2.389
    2PC      HA16270   2.474   1.388   2.400
    2PC      HB16271   2.390   1.496   2.306
    2PC     O3116272   2.586   1.551   2.342
    2PC     P3116273   2.666   1.466   2.232
    2PC     O3216274   2.571   1.494   2.106
    2PC     C3116275   2.617   1.592   2.011
    2PC     H1A16276   2.615   1.685   2.067
    2PC     H1B16277   2.723   1.572   1.988
    2PC     C3216278   2.518   1.596   1.893
    2PC     H2A16279   2.420   1.560   1.925
    2PC     H2B16280   2.520   1.699   1.856
    2PC     N3116281   2.546   1.513   1.772
    2PC     C3316282   2.551   1.367   1.809
    2PC     H3A16283   2.615   1.323   1.733
    2PC     H3B16284   2.587   1.339   1.907
    2PC     H3C16285   2.455   1.315   1.802
    2PC     C3416286   2.437   1.537   1.672
    2PC     H4A16287   2.432   1.641   1.638
    2PC     H4B16288   2.454   1.460   1.597
    2PC     H4C16289   2.350   1.514   1.732
    2PC     C3516290   2.678   1.554   1.716
    2PC     H5A16291   2.766   1.534   1.777
    2PC     H5B16292   2.658   1.660   1.703
    2PC     H5C16293   2.686   1.495   1.624
    2PC     O3316294   2.806   1.510   2.212
    2PC     O3416295   2.684   1.322   2.263
    2PC     O2116296   2.457   1.494   2.627
    2PC     C2116297   2.584   1.473   2.667
    2PC     O2216298   2.681   1.521   2.612
    3OL     C1216299   2.594   1.388   2.791
    3OL     H2R16300   2.515   1.412   2.863
    3OL     H2S16301   2.693   1.407   2.832
    3OL     C1316302   2.574   1.241   2.752
    3OL     H3R16303   2.653   1.219   2.679
    3OL     H3S16304   2.484   1.240   2.690
    3OL     C1416305   2.566   1.140   2.867
    3OL     H4R16306   2.528   1.054   2.812
    3OL     H4S16307   2.494   1.177   2.941
    3OL     C1516308   2.695   1.111   2.945
    3OL     H5R16309   2.716   1.200   3.006
    3OL     H5S16310   2.780   1.105   2.877
    3OL     C1616311   2.670   0.990   3.036
    3OL     H6R16312   2.638   0.906   2.974
    3OL     H6S16313   2.590   1.013   3.106
    3OL     C1716314   2.796   0.955   3.118
    3OL     H7R16315   2.836   1.043   3.168
    3OL     H7S16316   2.867   0.905   3.052
    3OL     C1816317   2.759   0.862   3.234
    3OL     H8R16318   2.736   0.763   3.195
    3OL     H8S16319   2.670   0.899   3.287
    3OL     C1916320   2.880   0.847   3.323
    3OL     H9R16321   2.867   0.906   3.413
    3OL    C11016322   2.972   0.753   3.320
    3OL    H10R16323   3.043   0.743   3.402
    3OL    C11116324   2.997   0.657   3.207
    3OL    H11R16325   3.092   0.683   3.159
    3OL    H11S16326   2.920   0.680   3.133
    3OL    C11216327   3.001   0.506   3.232
    3OL    H12R16328   3.057   0.461   3.150
    3OL    H12S16329   2.897   0.472   3.237
    3OL    C11316330   3.060   0.466   3.368
    3OL    H13R16331   3.056   0.357   3.376
    3OL    H13S16332   2.998   0.513   3.445
    3OL    C11416333   3.206   0.508   3.390
    3OL    H14R16334   3.263   0.459   3.470
    3OL    H14S16335   3.203   0.617   3.404
    3OL    C11516336   3.291   0.487   3.264
    3OL    H15R16337   3.390   0.523   3.290
    3OL    H15S16338   3.244   0.539   3.180
    3OL    C11616339   3.311   0.337   3.239
    3OL    H16R16340   3.211   0.292   3.238
    3OL    H16S16341   3.370   0.280   3.311
    3OL    C11716342   3.373   0.322   3.100
    3OL    H17R16343   3.462   0.379   3.074
    3OL    H17S16344   3.305   0.366   3.026
    3OL    C11816345   3.396   0.171   3.082
    3OL    H18R16346   3.309   0.104   3.082
    3OL    H18S16347   3.456   0.138   3.167
    3OL    H18T16348   3.447   0.160   2.987
    1PA    C11616349   0.189   0.487   3.709
    1PA    H16R16350   0.163   0.526   3.611
    1PA    H16S16351   0.168   0.574   3.772
    1PA    H16T16352   0.121   0.405   3.729
    1PA    C11516353   0.339   0.458   3.721
    1PA    H15R16354   0.353   0.472   3.829
    1PA    H15S16355   0.358   0.355   3.690
    1PA    C11416356   0.436   0.552   3.648
    1PA    H14R16357   0.395   0.587   3.553
    1PA    H14S16358   0.440   0.642   3.710
    1PA    C11316359   0.579   0.496   3.633
    1PA    H13R16360   0.616   0.463   3.730
    1PA    H13S16361   0.569   0.411   3.566
    1PA    C11216362   0.679   0.599   3.580
    1PA    H12R16363   0.656   0.625   3.476
    1PA    H12S16364   0.673   0.697   3.628
    1PA    C11116365   0.826   0.553   3.585
    1PA    H11R16366   0.856   0.556   3.690
    1PA    H11S16367   0.845   0.449   3.557
    1PA    C11016368   0.922   0.639   3.502
    1PA    H10R16369   0.905   0.745   3.520
    1PA    H10S16370   1.028   0.619   3.521
    1PA     C1916371   0.901   0.620   3.351
    1PA     H9R16372   0.910   0.514   3.328
    1PA     H9S16373   0.800   0.650   3.323
    1PA     C1816374   1.003   0.706   3.276
    1PA     H8R16375   0.986   0.812   3.298
    1PA     H8S16376   1.103   0.674   3.306
    1PA     C1716377   0.980   0.687   3.125
    1PA     H7R16378   0.976   0.585   3.087
    1PA     H7S16379   0.879   0.715   3.097
    1PA     C1616380   1.068   0.778   3.038
    1PA     H6R16381   1.023   0.876   3.054
    1PA     H6S16382   1.171   0.785   3.073
    1PA     C1516383   1.062   0.733   2.891
    1PA     H5R16384   1.097   0.631   2.874
    1PA     H5S16385   0.958   0.731   2.859
    1PA     C1416386   1.147   0.835   2.815
    1PA     H4R16387   1.104   0.933   2.838
    1PA     H4S16388   1.244   0.845   2.864
    1PA     C1316389   1.160   0.805   2.665
    1PA     H3R16390   1.235   0.726   2.658
    1PA     H3S16391   1.063   0.773   2.626
    1PA     C1216392   1.207   0.933   2.595
    1PA     H2R16393   1.127   1.006   2.610
    1PA     H2S16394   1.304   0.966   2.634
    2PC     C1116395   1.212   0.916   2.445
    2PC     O1216396   1.313   0.912   2.378
    2PC     O1116397   1.086   0.904   2.397
    2PC      C116398   1.071   0.883   2.256
    2PC      HR16399   0.968   0.894   2.221
    2PC      HS16400   1.128   0.956   2.199
    2PC      C216401   1.121   0.745   2.211
    2PC      HX16402   1.205   0.707   2.271
    2PC      C316403   1.175   0.747   2.068
    2PC      HA16404   1.264   0.809   2.057
    2PC      HB16405   1.205   0.645   2.043
    2PC     O3116406   1.068   0.792   1.982
    2PC     P3116407   1.100   0.818   1.827
    2PC     O3216408   1.220   0.922   1.801
    2PC     C3116409   1.214   1.051   1.864
    2PC     H1A16410   1.132   1.108   1.818
    2PC     H1B16411   1.200   1.030   1.970
    2PC     C3216412   1.341   1.134   1.839
    2PC     H2A16413   1.429   1.102   1.895
    2PC     H2B16414   1.375   1.118   1.737
    2PC     N3116415   1.323   1.280   1.866
    2PC     C3316416   1.231   1.337   1.762
    2PC     H3A16417   1.229   1.446   1.769
    2PC     H3B16418   1.250   1.305   1.660
    2PC     H3C16419   1.128   1.304   1.783
    2PC     C3416420   1.270   1.312   2.002
    2PC     H4A16421   1.234   1.415   1.993
    2PC     H4B16422   1.192   1.238   2.021
    2PC     H4C16423   1.347   1.306   2.079
    2PC     C3516424   1.463   1.330   1.843
    2PC     H5A16425   1.498   1.316   1.741
    2PC     H5B16426   1.529   1.287   1.919
    2PC     H5C16427   1.462   1.437   1.866
    2PC     O3316428   1.136   0.691   1.760
    2PC     O3416429   0.981   0.866   1.754
    2PC     O2116430   1.010   0.654   2.216
    2PC     C2116431   0.991   0.587   2.331
    2PC     O2216432   1.059   0.603   2.430
    3OL     C1216433   0.882   0.483   2.327
    3OL     H2R16434   0.892   0.401   2.398
    3OL     H2S16435   0.878   0.446   2.224
    3OL     C1316436   0.745   0.551   2.343
    3OL     H3R16437   0.744   0.641   2.282
    3OL     H3S16438   0.724   0.586   2.445
    3OL     C1416439   0.625   0.461   2.312
    3OL     H4R16440   0.633   0.374   2.376
    3OL     H4S16441   0.635   0.420   2.211
    3OL     C1516442   0.487   0.528   2.321
    3OL     H5R16443   0.484   0.589   2.231
    3OL     H5S16444   0.478   0.600   2.404
    3OL     C1616445   0.366   0.436   2.340
    3OL     H6R16446   0.274   0.495   2.330
    3OL     H6S16447   0.372   0.400   2.443
    3OL     C1716448   0.361   0.319   2.241
    3OL     H7R16449   0.442   0.252   2.270
    3OL     H7S16450   0.396   0.347   2.141
    3OL     C1816451   0.222   0.254   2.235
    3OL     H8R16452   0.238   0.156   2.191
    3OL     H8S16453   0.152   0.304   2.168
    3OL     C1916454   0.167   0.235   2.374
    3OL     H9R16455   0.244   0.217   2.449
    3OL    C11016456   0.038   0.229   2.402
    3OL    H10R16457   0.003   0.216   2.504
    3OL    C11116458  -0.080   0.274   2.319
    3OL    H11R16459  -0.094   0.203   2.238
    3OL    H11S16460  -0.072   0.374   2.274
    3OL    C11216461  -0.208   0.272   2.403
    3OL    H12R16462  -0.200   0.177   2.456
    3OL    H12S16463  -0.296   0.257   2.340
    3OL    C11316464  -0.213   0.392   2.499
    3OL    H13R16465  -0.235   0.475   2.432
    3OL    H13S16466  -0.121   0.425   2.548
    3OL    C11416467  -0.327   0.366   2.598
    3OL    H14R16468  -0.293   0.276   2.650
    3OL    H14S16469  -0.414   0.328   2.544
    3OL    C11516470  -0.373   0.476   2.694
    3OL    H15R16471  -0.418   0.563   2.645
    3OL    H15S16472  -0.287   0.513   2.750
    3OL    C11616473  -0.469   0.415   2.798
    3OL    H16R16474  -0.477   0.481   2.884
    3OL    H16S16475  -0.416   0.326   2.833
    3OL    C11716476  -0.609   0.389   2.741
    3OL    H17R16477  -0.601   0.315   2.662
    3OL    H17S16478  -0.654   0.484   2.709
    3OL    C11816479  -0.698   0.325   2.849
    3OL    H18R16480  -0.690   0.395   2.932
    3OL    H18S16481  -0.664   0.227   2.882
    3OL    H18T16482  -0.802   0.312   2.821
    1PA    C11616483   3.338   1.487   3.502
    1PA    H16R16484   3.377   1.559   3.429
    1PA    H16S16485   3.242   1.442   3.479
    1PA    H16T16486   3.407   1.403   3.515
    1PA    C11516487   3.337   1.542   3.645
    1PA    H15R16488   3.276   1.481   3.712
    1PA    H15S16489   3.442   1.555   3.671
    1PA    C11416490   3.271   1.680   3.640
    1PA    H14R16491   3.281   1.738   3.732
    1PA    H14S16492   3.309   1.743   3.559
    1PA    C11316493   3.119   1.671   3.623
    1PA    H13R16494   3.097   1.607   3.538
    1PA    H13S16495   3.072   1.629   3.712
    1PA    C11216496   3.052   1.808   3.603
    1PA    H12R16497   2.945   1.787   3.592
    1PA    H12S16498   3.080   1.860   3.694
    1PA    C11116499   3.094   1.895   3.483
    1PA    H11R16500   3.031   1.984   3.489
    1PA    H11S16501   3.196   1.932   3.491
    1PA    C11016502   3.070   1.832   3.345
    1PA    H10R16503   3.134   1.743   3.336
    1PA    H10S16504   2.966   1.804   3.327
    1PA     C1916505   3.100   1.937   3.237
    1PA     H9R16506   3.037   2.024   3.260
    1PA     H9S16507   3.204   1.969   3.237
    1PA     C1816508   3.072   1.882   3.097
    1PA     H8R16509   3.124   1.789   3.076
    1PA     H8S16510   2.968   1.850   3.088
    1PA     C1716511   3.075   1.989   2.987
    1PA     H7R16512   3.030   2.080   3.026
    1PA     H7S16513   3.183   2.002   2.979
    1PA     C1616514   3.013   1.941   2.855
    1PA     H6R16515   3.073   1.862   2.808
    1PA     H6S16516   2.914   1.901   2.878
    1PA     C1516517   3.007   2.058   2.756
    1PA     H5R16518   2.949   2.134   2.807
    1PA     H5S16519   3.111   2.090   2.745
    1PA     C1416520   2.949   2.010   2.622
    1PA     H4R16521   3.028   1.948   2.580
    1PA     H4S16522   2.862   1.944   2.628
    1PA     C1316523   2.920   2.118   2.518
    1PA     H3R16524   2.837   2.085   2.456
    1PA     H3S16525   2.896   2.214   2.564
    1PA     C1216526   3.036   2.146   2.421
    1PA     H2R16527   3.132   2.153   2.475
    1PA     H2S16528   3.052   2.065   2.351
    2PC     C1116529   3.002   2.264   2.334
    2PC     O1216530   2.987   2.265   2.214
    2PC     O1116531   2.992   2.377   2.407
    2PC      C116532   2.980   2.504   2.341
    2PC      HR16533   3.006   2.590   2.403
    2PC      HS16534   3.049   2.517   2.257
    2PC      C216535   2.836   2.528   2.294
    2PC      HX16536   2.796   2.437   2.249
    2PC      C316537   2.827   2.654   2.206
    2PC      HA16538   2.856   2.746   2.258
    2PC      HB16539   2.910   2.653   2.135
    2PC     O3116540   2.700   2.662   2.139
    2PC     P3116541   2.683   2.776   2.027
    2PC     O3216542   2.776   2.714   1.912
    2PC     C3116543   2.730   2.588   1.859
    2PC     H1A16544   2.737   2.512   1.937
    2PC     H1B16545   2.626   2.596   1.828
    2PC     C3216546   2.819   2.548   1.741
    2PC     H2A16547   2.802   2.623   1.663
    2PC     H2B16548   2.925   2.532   1.763
    2PC     N3116549   2.786   2.415   1.679
    2PC     C3316550   2.794   2.294   1.767
    2PC     H3A16551   2.898   2.288   1.798
    2PC     H3B16552   2.731   2.309   1.854
    2PC     H3C16553   2.774   2.207   1.704
    2PC     C3416554   2.645   2.419   1.627
    2PC     H4A16555   2.571   2.443   1.703
    2PC     H4B16556   2.642   2.504   1.560
    2PC     H4C16557   2.619   2.322   1.584
    2PC     C3516558   2.881   2.390   1.566
    2PC     H5A16559   2.854   2.293   1.523
    2PC     H5B16560   2.986   2.390   1.596
    2PC     H5C16561   2.863   2.461   1.484
    2PC     O3316562   2.543   2.798   1.986
    2PC     O3416563   2.718   2.904   2.092
    2PC     O2116564   2.760   2.561   2.412
    2PC     C2116565   2.640   2.503   2.428
    2PC     O2216566   2.588   2.431   2.345
    3OL     C1216567   2.599   2.521   2.572
    3OL     H2R16568   2.495   2.494   2.589
    3OL     H2S16569   2.617   2.626   2.597
    3OL     C1316570   2.679   2.427   2.663
    3OL     H3R16571   2.787   2.436   2.652
    3OL     H3S16572   2.648   2.327   2.635
    3OL     C1416573   2.641   2.459   2.808
    3OL     H4R16574   2.533   2.472   2.809
    3OL     H4S16575   2.688   2.554   2.835
    3OL     C1516576   2.695   2.344   2.894
    3OL     H5R16577   2.804   2.330   2.897
    3OL     H5S16578   2.644   2.255   2.856
    3OL     C1616579   2.649   2.353   3.040
    3OL     H6R16580   2.703   2.429   3.096
    3OL     H6S16581   2.681   2.259   3.087
    3OL     C1716582   2.497   2.366   3.052
    3OL     H7R16583   2.447   2.286   2.998
    3OL     H7S16584   2.456   2.450   2.995
    3OL     C1816585   2.447   2.374   3.197
    3OL     H8R16586   2.499   2.460   3.239
    3OL     H8S16587   2.477   2.291   3.262
    3OL     C1916588   2.299   2.402   3.199
    3OL     H9R16589   2.254   2.443   3.109
    3OL    C11016590   2.221   2.375   3.303
    3OL    H10R16591   2.115   2.400   3.300
    3OL    C11116592   2.260   2.313   3.434
    3OL    H11R16593   2.354   2.260   3.417
    3OL    H11S16594   2.193   2.234   3.467
    3OL    C11216595   2.285   2.416   3.546
    3OL    H12R16596   2.207   2.493   3.545
    3OL    H12S16597   2.376   2.471   3.523
    3OL    C11316598   2.300   2.341   3.679
    3OL    H13R16599   2.348   2.409   3.749
    3OL    H13S16600   2.361   2.256   3.649
    3OL    C11416601   2.171   2.286   3.741
    3OL    H14R16602   2.150   2.196   3.682
    3OL    H14S16603   2.088   2.357   3.738
    3OL    C11516604   2.177   2.229   3.884
    3OL    H15R16605   2.235   2.137   3.878
    3OL    H15S16606   2.083   2.185   3.918
    3OL    C11616607   2.225   2.327   3.993
    3OL    H16R16608   2.156   2.411   4.000
    3OL    H16S16609   2.323   2.368   3.969
    3OL    C11716610   2.249   2.263   4.130
    3OL    H17R16611   2.357   2.247   4.139
    3OL    H17S16612   2.200   2.166   4.139
    3OL    C11816613   2.206   2.359   4.242
    3OL    H18R16614   2.256   2.456   4.239
    3OL    H18S16615   2.230   2.320   4.341
    3OL    H18T16616   2.100   2.380   4.231
    1PA    C11616617   1.933   2.626   4.195
    1PA    H16R16618   1.838   2.680   4.193
    1PA    H16S16619   1.960   2.637   4.300
    1PA    H16T16620   1.905   2.524   4.171
    1PA    C11516621   2.032   2.684   4.093
    1PA    H15R16622   2.038   2.792   4.107
    1PA    H15S16623   2.126   2.631   4.113
    1PA    C11416624   1.990   2.646   3.950
    1PA    H14R16625   2.009   2.539   3.935
    1PA    H14S16626   1.885   2.670   3.933
    1PA    C11316627   2.071   2.721   3.844
    1PA    H13R16628   2.071   2.830   3.851
    1PA    H13S16629   2.175   2.695   3.867
    1PA    C11216630   2.037   2.670   3.704
    1PA    H12R16631   2.117   2.691   3.633
    1PA    H12S16632   2.030   2.561   3.711
    1PA    C11116633   1.900   2.728   3.666
    1PA    H11R16634   1.816   2.695   3.727
    1PA    H11S16635   1.906   2.837   3.670
    1PA    C11016636   1.860   2.682   3.525
    1PA    H10R16637   1.846   2.573   3.524
    1PA    H10S16638   1.762   2.727   3.510
    1PA     C1916639   1.948   2.745   3.416
    1PA     H9R16640   1.944   2.853   3.431
    1PA     H9S16641   2.048   2.701   3.425
    1PA     C1816642   1.897   2.707   3.277
    1PA     H8R16643   1.879   2.599   3.265
    1PA     H8S16644   1.801   2.756   3.260
    1PA     C1716645   1.995   2.763   3.173
    1PA     H7R16646   2.007   2.870   3.191
    1PA     H7S16647   2.092   2.714   3.182
    1PA     C1616648   1.938   2.732   3.033
    1PA     H6R16649   1.835   2.769   3.029
    1PA     H6S16650   2.003   2.786   2.964
    1PA     C1516651   1.952   2.583   2.998
    1PA     H5R16652   2.054   2.565   2.963
    1PA     H5S16653   1.935   2.515   3.081
    1PA     C1416654   1.859   2.553   2.880
    1PA     H4R16655   1.844   2.445   2.881
    1PA     H4S16656   1.765   2.608   2.884
    1PA     C1316657   1.930   2.589   2.749
    1PA     H3R16658   1.940   2.697   2.743
    1PA     H3S16659   2.030   2.543   2.746
    1PA     C1216660   1.842   2.557   2.628
    1PA     H2R16661   1.803   2.455   2.633
    1PA     H2S16662   1.757   2.626   2.630
    2PC     C1116663   1.920   2.570   2.500
    2PC     O1216664   2.039   2.553   2.482
    2PC     O1116665   1.844   2.620   2.401
    2PC      C116666   1.899   2.614   2.268
    2PC      HR16667   1.834   2.678   2.208
    2PC      HS16668   2.002   2.649   2.254
    2PC      C216669   1.909   2.470   2.217
    2PC      HX16670   1.998   2.417   2.254
    2PC      C316671   1.946   2.484   2.068
    2PC      HA16672   2.046   2.526   2.057
    2PC      HB16673   1.952   2.382   2.032
    2PC     O3116674   1.854   2.559   1.987
    2PC     P3116675   1.900   2.591   1.837
    2PC     O3216676   1.992   2.464   1.805
    2PC     C3116677   1.936   2.351   1.736
    2PC     H1A16678   1.856   2.319   1.802
    2PC     H1B16679   1.898   2.383   1.638
    2PC     C3216680   2.047   2.247   1.712
    2PC     H2A16681   2.100   2.234   1.807
    2PC     H2B16682   2.008   2.152   1.677
    2PC     N3116683   2.158   2.290   1.620
    2PC     C3316684   2.237   2.171   1.574
    2PC     H3A16685   2.287   2.121   1.658
    2PC     H3B16686   2.154   2.108   1.541
    2PC     H3C16687   2.314   2.201   1.503
    2PC     C3416688   2.104   2.357   1.497
    2PC     H4A16689   2.051   2.444   1.535
    2PC     H4B16690   2.180   2.376   1.421
    2PC     H4C16691   2.031   2.295   1.445
    2PC     C3516692   2.247   2.389   1.689
    2PC     H5A16693   2.329   2.411   1.621
    2PC     H5B16694   2.289   2.350   1.781
    2PC     H5C16695   2.192   2.481   1.710
    2PC     O3316696   1.783   2.603   1.746
    2PC     O3416697   1.961   2.726   1.826
    2PC     O2116698   1.781   2.406   2.228
    2PC     C2116699   1.749   2.322   2.329
    2PC     O2216700   1.834   2.299   2.413
    3OL     C1216701   1.611   2.261   2.332
    3OL     H2R16702   1.556   2.276   2.239
    3OL     H2S16703   1.554   2.316   2.406
    3OL     C1316704   1.613   2.111   2.365
    3OL     H3R16705   1.686   2.086   2.443
    3OL     H3S16706   1.655   2.061   2.278
    3OL     C1416707   1.477   2.052   2.403
    3OL     H4R16708   1.487   1.944   2.414
    3OL     H4S16709   1.413   2.052   2.314
    3OL     C1516710   1.400   2.117   2.518
    3OL     H5R16711   1.306   2.065   2.535
    3OL     H5S16712   1.368   2.218   2.491
    3OL     C1616713   1.476   2.123   2.651
    3OL     H6R16714   1.574   2.170   2.642
    3OL     H6S16715   1.490   2.019   2.679
    3OL     C1716716   1.400   2.198   2.761
    3OL     H7R16717   1.306   2.150   2.788
    3OL     H7S16718   1.371   2.297   2.727
    3OL     C1816719   1.478   2.201   2.894
    3OL     H8R16720   1.574   2.247   2.868
    3OL     H8S16721   1.494   2.104   2.940
    3OL     C1916722   1.389   2.290   2.977
    3OL     H9R16723   1.364   2.385   2.930
    3OL    C11016724   1.358   2.263   3.103
    3OL    H10R16725   1.307   2.342   3.158
    3OL    C11116726   1.406   2.143   3.181
    3OL    H11R16727   1.514   2.138   3.167
    3OL    H11S16728   1.349   2.059   3.143
    3OL    C11216729   1.372   2.169   3.328
    3OL    H12R16730   1.264   2.176   3.343
    3OL    H12S16731   1.419   2.259   3.368
    3OL    C11316732   1.432   2.055   3.411
    3OL    H13R16733   1.539   2.050   3.391
    3OL    H13S16734   1.383   1.964   3.375
    3OL    C11416735   1.406   2.074   3.561
    3OL    H14R16736   1.299   2.096   3.564
    3OL    H14S16737   1.472   2.154   3.595
    3OL    C11516738   1.440   1.953   3.649
    3OL    H15R16739   1.547   1.931   3.641
    3OL    H15S16740   1.393   1.864   3.606
    3OL    C11616741   1.405   1.976   3.797
    3OL    H16R16742   1.411   1.879   3.847
    3OL    H16S16743   1.302   2.012   3.810
    3OL    C11716744   1.498   2.073   3.870
    3OL    H17R16745   1.478   2.172   3.828
    3OL    H17S16746   1.602   2.048   3.848
    3OL    C11816747   1.458   2.071   4.018
    3OL    H18R16748   1.358   2.093   4.057
    3OL    H18S16749   1.523   2.138   4.074
    3OL    H18T16750   1.484   1.972   4.057
    1PA    C11616751   1.445   2.719   3.623
    1PA    H16R16752   1.395   2.788   3.554
    1PA    H16S16753   1.548   2.753   3.631
    1PA    H16T16754   1.384   2.728   3.713
    1PA    C11516755   1.430   2.576   3.572
    1PA    H15R16756   1.463   2.506   3.649
    1PA    H15S16757   1.324   2.553   3.554
    1PA    C11416758   1.506   2.549   3.441
    1PA    H14R16759   1.610   2.582   3.444
    1PA    H14S16760   1.499   2.444   3.414
    1PA    C11316761   1.439   2.621   3.323
    1PA    H13R16762   1.337   2.581   3.327
    1PA    H13S16763   1.427   2.726   3.348
    1PA    C11216764   1.505   2.593   3.187
    1PA    H12R16765   1.610   2.617   3.204
    1PA    H12S16766   1.480   2.490   3.159
    1PA    C11116767   1.430   2.686   3.091
    1PA    H11R16768   1.327   2.649   3.083
    1PA    H11S16769   1.436   2.788   3.130
    1PA    C11016770   1.490   2.688   2.949
    1PA    H10R16771   1.589   2.734   2.956
    1PA    H10S16772   1.502   2.583   2.923
    1PA     C1916773   1.407   2.775   2.854
    1PA     H9R16774   1.299   2.761   2.856
    1PA     H9S16775   1.434   2.879   2.874
    1PA     C1816776   1.451   2.738   2.711
    1PA     H8R16777   1.424   2.818   2.642
    1PA     H8S16778   1.560   2.739   2.705
    1PA     C1716779   1.394   2.600   2.674
    1PA     H7R16780   1.423   2.518   2.739
    1PA     H7S16781   1.285   2.595   2.671
    1PA     C1616782   1.438   2.555   2.534
    1PA     H6R16783   1.546   2.539   2.533
    1PA     H6S16784   1.391   2.460   2.505
    1PA     C1516785   1.392   2.645   2.418
    1PA     H5R16786   1.290   2.615   2.390
    1PA     H5S16787   1.392   2.753   2.430
    1PA     C1416788   1.481   2.612   2.297
    1PA     H4R16789   1.588   2.617   2.318
    1PA     H4S16790   1.460   2.509   2.268
    1PA     C1316791   1.450   2.694   2.171
    1PA     H3R16792   1.348   2.675   2.139
    1PA     H3S16793   1.443   2.799   2.201
    1PA     C1216794   1.538   2.681   2.046
    1PA     H2R16795   1.637   2.719   2.072
    1PA     H2S16796   1.550   2.582   2.002
    2PC     C1116797   1.480   2.759   1.930
    2PC     O1216798   1.400   2.718   1.848
    2PC     O1116799   1.518   2.887   1.917
    2PC      C116800   1.488   2.973   1.806
    2PC      HR16801   1.559   3.055   1.819
    2PC      HS16802   1.510   2.919   1.713
    2PC      C216803   1.346   3.032   1.812
    2PC      HX16804   1.276   2.955   1.844
    2PC      C316805   1.294   3.085   1.678
    2PC      HA16806   1.332   3.019   1.600
    2PC      HB16807   1.185   3.085   1.683
    2PC     O3116808   1.348   3.217   1.660
    2PC     P3116809   1.295   3.289   1.527
    2PC     O3216810   1.375   3.426   1.553
    2PC     C3116811   1.368   3.548   1.478
    2PC     H1A16812   1.408   3.536   1.377
    2PC     H1B16813   1.260   3.568   1.480
    2PC     C3216814   1.443   3.654   1.560
    2PC     H2A16815   1.412   3.651   1.665
    2PC     H2B16816   1.549   3.651   1.538
    2PC     N3116817   1.426   3.799   1.529
    2PC     C3316818   1.512   3.882   1.620
    2PC     H3A16819   1.484   3.987   1.619
    2PC     H3B16820   1.501   3.837   1.718
    2PC     H3C16821   1.617   3.879   1.589
    2PC     C3416822   1.462   3.811   1.384
    2PC     H4A16823   1.389   3.761   1.319
    2PC     H4B16824   1.453   3.919   1.371
    2PC     H4C16825   1.562   3.770   1.371
    2PC     C3516826   1.286   3.845   1.554
    2PC     H5A16827   1.204   3.798   1.499
    2PC     H5B16828   1.291   3.950   1.526
    2PC     H5C16829   1.259   3.835   1.660
    2PC     O3316830   1.361   3.224   1.411
    2PC     O3416831   1.150   3.317   1.531
    2PC     O2116832   1.329   3.139   1.906
    2PC     C2116833   1.213   3.202   1.931
    2PC     O2216834   1.101   3.162   1.910
    3OL     C1216835   1.234   3.338   1.994
    3OL     H2R16836   1.200   3.414   1.923
    3OL     H2S16837   1.340   3.351   2.013
    3OL     C1316838   1.160   3.358   2.127
    3OL     H3R16839   1.057   3.327   2.113
    3OL     H3S16840   1.163   3.467   2.140
    3OL     C1416841   1.236   3.292   2.243
    3OL     H4R16842   1.339   3.328   2.240
    3OL     H4S16843   1.238   3.184   2.226
    3OL     C1516844   1.161   3.318   2.375
    3OL     H5R16845   1.067   3.264   2.363
    3OL     H5S16846   1.138   3.424   2.390
    3OL     C1616847   1.232   3.264   2.500
    3OL     H6R16848   1.192   3.296   2.596
    3OL     H6S16849   1.333   3.305   2.493
    3OL     C1716850   1.240   3.112   2.517
    3OL     H7R16851   1.308   3.098   2.601
    3OL     H7S16852   1.280   3.062   2.429
    3OL     C1816853   1.109   3.049   2.565
    3OL     H8R16854   1.037   3.051   2.483
    3OL     H8S16855   1.063   3.100   2.650
    3OL     C1916856   1.127   2.906   2.610
    3OL     H9R16857   1.193   2.847   2.547
    3OL    C11016858   1.087   2.849   2.722
    3OL    H10R16859   1.102   2.744   2.748
    3OL    C11116860   1.023   2.919   2.839
    3OL    H11R16861   0.924   2.961   2.819
    3OL    H11S16862   1.084   3.003   2.876
    3OL    C11216863   1.004   2.815   2.951
    3OL    H12R16864   1.096   2.761   2.975
    3OL    H12S16865   0.933   2.740   2.915
    3OL    C11316866   0.945   2.889   3.072
    3OL    H13R16867   0.870   2.962   3.042
    3OL    H13S16868   1.024   2.945   3.121
    3OL    C11416869   0.887   2.785   3.169
    3OL    H14R16870   0.970   2.728   3.211
    3OL    H14S16871   0.822   2.719   3.112
    3OL    C11516872   0.821   2.859   3.286
    3OL    H15R16873   0.754   2.788   3.335
    3OL    H15S16874   0.751   2.932   3.243
    3OL    C11616875   0.919   2.909   3.393
    3OL    H16R16876   0.874   3.001   3.430
    3OL    H16S16877   1.009   2.950   3.346
    3OL    C11716878   0.954   2.816   3.510
    3OL    H17R16879   1.032   2.745   3.480
    3OL    H17S16880   0.870   2.757   3.544
    3OL    C11816881   1.025   2.891   3.624
    3OL    H18R16882   1.116   2.937   3.586
    3OL    H18S16883   1.048   2.820   3.704
    3OL    H18T16884   0.964   2.964   3.677
    1PA    C11616885   3.696   1.242   3.344
    1PA    H16R16886   3.659   1.179   3.425
    1PA    H16S16887   3.721   1.184   3.255
    1PA    H16T16888   3.621   1.319   3.323
    1PA    C11516889   3.818   1.327   3.382
    1PA    H15R16890   3.850   1.411   3.321
    1PA    H15S16891   3.775   1.385   3.464
    1PA    C11416892   3.945   1.245   3.410
    1PA    H14R16893   4.016   1.291   3.479
    1PA    H14S16894   3.923   1.156   3.468
    1PA    C11316895   4.018   1.221   3.277
    1PA    H13R16896   3.942   1.199   3.201
    1PA    H13S16897   4.076   1.306   3.240
    1PA    C11216898   4.116   1.103   3.281
    1PA    H12R16899   4.174   1.100   3.188
    1PA    H12S16900   4.196   1.129   3.350
    1PA    C11116901   4.056   0.964   3.303
    1PA    H11R16902   4.123   0.898   3.358
    1PA    H11S16903   3.963   0.971   3.360
    1PA    C11016904   4.027   0.891   3.170
    1PA    H10R16905   3.941   0.930   3.116
    1PA    H10S16906   4.112   0.897   3.102
    1PA     C1916907   3.992   0.749   3.216
    1PA     H9R16908   4.072   0.713   3.282
    1PA     H9S16909   3.903   0.760   3.277
    1PA     C1816910   3.986   0.650   3.099
    1PA     H8R16911   3.955   0.552   3.136
    1PA     H8S16912   3.913   0.693   3.031
    1PA     C1716913   4.121   0.628   3.029
    1PA     H7R16914   4.159   0.720   2.983
    1PA     H7S16915   4.198   0.597   3.100
    1PA     C1616916   4.110   0.515   2.926
    1PA     H6R16917   4.079   0.425   2.980
    1PA     H6S16918   4.036   0.540   2.850
    1PA     C1516919   4.246   0.485   2.861
    1PA     H5R16920   4.270   0.576   2.806
    1PA     H5S16921   4.330   0.457   2.925
    1PA     C1416922   4.225   0.380   2.751
    1PA     H4R16923   4.160   0.297   2.777
    1PA     H4S16924   4.165   0.434   2.676
    1PA     C1316925   4.359   0.326   2.699
    1PA     H3R16926   4.415   0.294   2.787
    1PA     H3S16927   4.340   0.239   2.635
    1PA     C1216928   4.432   0.442   2.630
    1PA     H2R16929   4.442   0.527   2.698
    1PA     H2S16930   4.531   0.412   2.596
    2PC     C1116931   4.359   0.494   2.508
    2PC     O1216932   4.299   0.431   2.423
    2PC     O1116933   4.361   0.628   2.504
    2PC      C116934   4.320   0.705   2.389
    2PC      HR16935   4.348   0.810   2.400
    2PC      HS16936   4.381   0.666   2.307
    2PC      C216937   4.170   0.695   2.359
    2PC      HX16938   4.139   0.591   2.345
    2PC      C316939   4.125   0.786   2.243
    2PC      HA16940   4.183   0.773   2.152
    2PC      HB16941   4.021   0.761   2.223
    2PC     O3116942   4.140   0.924   2.282
    2PC     P3116943   4.122   1.040   2.173
    2PC     O3216944   4.227   1.145   2.233
    2PC     C3116945   4.252   1.260   2.151
    2PC     H1A16946   4.335   1.228   2.087
    2PC     H1B16947   4.170   1.281   2.082
    2PC     C3216948   4.299   1.378   2.237
    2PC     H2A16949   4.400   1.373   2.277
    2PC     H2B16950   4.295   1.470   2.178
    2PC     N3116951   4.207   1.409   2.351
    2PC     C3316952   4.064   1.434   2.315
    2PC     H3A16953   4.028   1.350   2.255
    2PC     H3B16954   3.999   1.455   2.400
    2PC     H3C16955   4.048   1.525   2.256
    2PC     C3416956   4.210   1.305   2.458
    2PC     H4A16957   4.142   1.327   2.541
    2PC     H4B16958   4.193   1.201   2.427
    2PC     H4C16959   4.315   1.300   2.485
    2PC     C3516960   4.253   1.534   2.419
    2PC     H5A16961   4.262   1.612   2.343
    2PC     H5B16962   4.352   1.511   2.458
    2PC     H5C16963   4.194   1.581   2.498
    2PC     O3316964   4.176   0.994   2.043
    2PC     O3416965   3.984   1.086   2.145
    2PC     O2116966   4.109   0.754   2.475
    2PC     C2116967   3.992   0.718   2.530
    2PC     O2216968   3.923   0.629   2.485
    3OL     C1216969   3.980   0.785   2.664
    3OL     H2R16970   4.045   0.742   2.740
    3OL     H2S16971   3.883   0.754   2.704
    3OL     C1316972   3.992   0.938   2.654
    3OL     H3R16973   3.921   0.980   2.583
    3OL     H3S16974   4.084   0.964   2.601
    3OL     C1416975   3.987   1.018   2.784
    3OL     H4R16976   4.037   0.965   2.866
    3OL     H4S16977   3.881   1.021   2.811
    3OL     C1516978   4.035   1.163   2.775
    3OL     H5R16979   3.977   1.223   2.705
    3OL     H5S16980   4.138   1.156   2.739
    3OL     C1616981   4.025   1.231   2.913
    3OL     H6R16982   4.083   1.182   2.991
    3OL     H6S16983   3.920   1.232   2.941
    3OL     C1716984   4.086   1.372   2.918
    3OL     H7R16985   4.038   1.424   3.001
    3OL     H7S16986   4.049   1.431   2.834
    3OL     C1816987   4.239   1.367   2.929
    3OL     H8R16988   4.287   1.338   2.835
    3OL     H8S16989   4.268   1.287   2.998
    3OL     C1916990   4.289   1.504   2.967
    3OL     H9R16991   4.307   1.574   2.886
    3OL    C11016992   4.315   1.550   3.088
    3OL    H10R16993   4.348   1.651   3.113
    3OL    C11116994   4.318   1.467   3.214
    3OL    H11R16995   4.420   1.469   3.252
    3OL    H11S16996   4.274   1.369   3.194
    3OL    C11216997   4.232   1.535   3.322
    3OL    H12R16998   4.127   1.525   3.294
    3OL    H12S16999   4.258   1.641   3.317
    3OL    C11317000   4.257   1.478   3.462
    3OL    H13R17001   4.356   1.490   3.506
    3OL    H13S17002   4.243   1.370   3.470
    3OL    C11417003   4.167   1.561   3.555
    3OL    H14R17004   4.062   1.552   3.526
    3OL    H14S17005   4.183   1.668   3.542
    3OL    C11517006   4.172   1.525   3.704
    3OL    H15R17007   4.173   1.416   3.711
    3OL    H15S17008   4.080   1.557   3.753
    3OL    C11617009   4.294   1.591   3.770
    3OL    H16R17010   4.287   1.699   3.752
    3OL    H16S17011   4.391   1.553   3.741
    3OL    C11717012   4.282   1.574   3.922
    3OL    H17R17013   4.279   1.467   3.945
    3OL    H17S17014   4.190   1.621   3.958
    3OL    C11817015   4.399   1.639   3.997
    3OL    H18R17016   4.497   1.601   3.966
    3OL    H18S17017   4.388   1.628   4.105
    3OL    H18T17018   4.397   1.747   3.982
    1PA    C11617019   1.692   3.133   3.616
    1PA    H16R17020   1.765   3.055   3.640
    1PA    H16S17021   1.658   3.178   3.709
    1PA    H16T17022   1.748   3.205   3.555
    1PA    C11517023   1.581   3.078   3.526
    1PA    H15R17024   1.517   3.008   3.579
    1PA    H15S17025   1.518   3.161   3.491
    1PA    C11417026   1.631   3.006   3.400
    1PA    H14R17027   1.705   2.930   3.425
    1PA    H14S17028   1.542   2.958   3.359
    1PA    C11317029   1.685   3.105   3.296
    1PA    H13R17030   1.614   3.186   3.281
    1PA    H13S17031   1.775   3.155   3.332
    1PA    C11217032   1.709   3.033   3.162
    1PA    H12R17033   1.766   2.941   3.179
    1PA    H12S17034   1.616   2.998   3.119
    1PA    C11117035   1.784   3.123   3.063
    1PA    H11R17036   1.737   3.221   3.072
    1PA    H11S17037   1.887   3.129   3.100
    1PA    C11017038   1.778   3.063   2.922
    1PA    H10R17039   1.780   2.954   2.930
    1PA    H10S17040   1.680   3.078   2.875
    1PA     C1917041   1.881   3.115   2.821
    1PA     H9R17042   1.848   3.216   2.796
    1PA     H9S17043   1.979   3.106   2.867
    1PA     C1817044   1.892   3.035   2.690
    1PA     H8R17045   1.960   3.096   2.630
    1PA     H8S17046   1.934   2.937   2.715
    1PA     C1717047   1.754   3.019   2.625
    1PA     H7R17048   1.693   2.961   2.695
    1PA     H7S17049   1.726   3.121   2.602
    1PA     C1617050   1.782   2.937   2.499
    1PA     H6R17051   1.855   2.986   2.434
    1PA     H6S17052   1.826   2.840   2.523
    1PA     C1517053   1.646   2.906   2.435
    1PA     H5R17054   1.656   2.821   2.368
    1PA     H5S17055   1.573   2.868   2.507
    1PA     C1417056   1.600   3.021   2.345
    1PA     H4R17057   1.494   3.009   2.322
    1PA     H4S17058   1.610   3.115   2.401
    1PA     C1317059   1.690   3.028   2.221
    1PA     H3R17060   1.793   3.050   2.252
    1PA     H3S17061   1.702   2.927   2.182
    1PA     C1217062   1.641   3.135   2.122
    1PA     H2R17063   1.542   3.106   2.088
    1PA     H2S17064   1.635   3.230   2.176
    2PC     C1117065   1.726   3.161   2.000
    2PC     O1217066   1.810   3.084   1.959
    2PC     O1117067   1.682   3.274   1.942
    2PC      C117068   1.752   3.313   1.823
    2PC      HR17069   1.859   3.319   1.842
    2PC      HS17070   1.734   3.241   1.742
    2PC      C217071   1.695   3.452   1.790
    2PC      HX17072   1.588   3.441   1.772
    2PC      C317073   1.769   3.517   1.673
    2PC      HA17074   1.750   3.624   1.661
    2PC      HB17075   1.877   3.502   1.682
    2PC     O3117076   1.725   3.448   1.555
    2PC     P3117077   1.775   3.473   1.405
    2PC     O3217078   1.678   3.368   1.334
    2PC     C3117079   1.743   3.255   1.273
    2PC     H1A17080   1.786   3.283   1.177
    2PC     H1B17081   1.826   3.227   1.338
    2PC     C3217082   1.654   3.130   1.258
    2PC     H2A17083   1.550   3.162   1.258
    2PC     H2B17084   1.685   3.079   1.167
    2PC     N3117085   1.668   3.031   1.370
    2PC     C3317086   1.650   3.102   1.502
    2PC     H3A17087   1.669   3.028   1.580
    2PC     H3B17088   1.713   3.191   1.509
    2PC     H3C17089   1.543   3.123   1.501
    2PC     C3417090   1.560   2.929   1.348
    2PC     H4A17091   1.479   2.974   1.290
    2PC     H4B17092   1.610   2.851   1.291
    2PC     H4C17093   1.531   2.898   1.448
    2PC     C3517094   1.798   2.957   1.370
    2PC     H5A17095   1.868   3.037   1.396
    2PC     H5B17096   1.820   2.917   1.270
    2PC     H5C17097   1.800   2.880   1.447
    2PC     O3317098   1.771   3.615   1.361
    2PC     O3417099   1.920   3.442   1.398
    2PC     O2117100   1.716   3.531   1.909
    2PC     C2117101   1.642   3.642   1.923
    2PC     O2217102   1.554   3.683   1.850
    3OL     C1217103   1.678   3.706   2.055
    3OL     H2R17104   1.785   3.732   2.058
    3OL     H2S17105   1.659   3.638   2.137
    3OL     C1317106   1.601   3.837   2.079
    3OL     H3R17107   1.496   3.815   2.098
    3OL     H3S17108   1.609   3.895   1.987
    3OL     C1417109   1.661   3.890   2.210
    3OL     H4R17110   1.677   3.821   2.294
    3OL     H4S17111   1.584   3.961   2.243
    3OL     C1517112   1.784   3.976   2.179
    3OL     H5R17113   1.774   4.025   2.082
    3OL     H5S17114   1.879   3.922   2.173
    3OL     C1617115   1.793   4.091   2.280
    3OL     H6R17116   1.698   4.119   2.327
    3OL     H6S17117   1.823   4.179   2.224
    3OL     C1717118   1.893   4.069   2.394
    3OL     H7R17119   1.995   4.065   2.355
    3OL     H7S17120   1.868   3.972   2.436
    3OL     C1817121   1.877   4.167   2.512
    3OL     H8R17122   1.783   4.150   2.565
    3OL     H8S17123   1.879   4.268   2.472
    3OL     C1917124   1.995   4.164   2.606
    3OL     H9R17125   2.085   4.204   2.560
    3OL    C11017126   1.998   4.102   2.724
    3OL    H10R17127   2.086   4.103   2.786
    3OL    C11117128   1.881   4.040   2.796
    3OL    H11R17129   1.789   4.080   2.752
    3OL    H11S17130   1.886   4.081   2.897
    3OL    C11217131   1.892   3.887   2.809
    3OL    H12R17132   1.991   3.868   2.849
    3OL    H12S17133   1.892   3.834   2.713
    3OL    C11317134   1.789   3.819   2.900
    3OL    H13R17135   1.690   3.829   2.856
    3OL    H13S17136   1.793   3.861   3.001
    3OL    C11417137   1.812   3.668   2.903
    3OL    H14R17138   1.914   3.671   2.942
    3OL    H14S17139   1.808   3.630   2.800
    3OL    C11517140   1.713   3.596   2.996
    3OL    H15R17141   1.686   3.502   2.949
    3OL    H15S17142   1.621   3.654   3.008
    3OL    C11617143   1.778   3.578   3.134
    3OL    H16R17144   1.799   3.681   3.166
    3OL    H16S17145   1.870   3.521   3.147
    3OL    C11717146   1.673   3.523   3.232
    3OL    H17R17147   1.625   3.439   3.183
    3OL    H17S17148   1.586   3.588   3.244
    3OL    C11817149   1.734   3.484   3.368
    3OL    H18R17150   1.811   3.408   3.359
    3OL    H18S17151   1.654   3.447   3.433
    3OL    H18T17152   1.765   3.578   3.415
    4SOL     OW17153   2.439   2.494   2.125
    4SOL    HW117154   2.521   2.521   2.168
    4SOL    HW217155   2.373   2.502   2.193
    5SOL     OW17156   3.678   5.214   7.386
    5SOL    HW117157   3.745   5.282   7.390
    5SOL    HW217158   3.602   5.253   7.431
    6SOL     OW17159   3.915   4.512   0.760
    6SOL    HW117160   3.841   4.536   0.816
    6SOL    HW217161   3.929   4.589   0.704
    7SOL     OW17162   3.626   4.587   6.183
    7SOL    HW117163   3.546   4.638   6.197
    7SOL    HW217164   3.629   4.527   6.258
    8SOL     OW17165   2.786   4.850   7.463
    8SOL    HW117166   2.778   4.907   7.387
    8SOL    HW217167   2.838   4.775   7.432
    9SOL     OW17168   4.026   0.660   1.554
    9SOL    HW117169   4.079   0.663   1.475
    9SOL    HW217170   3.997   0.750   1.567
   10SOL     OW17171   4.985   5.812   7.170
   10SOL    HW117172   4.938   5.824   7.088
   10SOL    HW217173   4.945   5.735   7.210
   11SOL     OW17174   3.240   3.402   6.725
   11SOL    HW117175   3.221   3.462   6.797
   11SOL    HW217176   3.162   3.347   6.720
   12SOL     OW17177   3.829   5.402   7.513
   12SOL    HW117178   3.877   5.370   7.589
   12SOL    HW217179   3.872   5.485   7.490
   13SOL     OW17180   6.144   3.254   5.817
   13SOL    HW117181   6.236   3.268   5.840
   13SOL    HW217182   6.146   3.234   5.723
   14SOL     OW17183   0.146   2.395   6.263
   14SOL    HW117184   0.240   2.408   6.270
   14SOL    HW217185   0.136   2.322   6.201
   15SOL     OW17186   4.188   0.157   0.184
   15SOL    HW117187   4.136   0.143   0.263
   15SOL    HW217188   4.278   0.159   0.215
   16SOL     OW17189   3.834   0.283   6.092
   16SOL    HW117190   3.751   0.254   6.130
   16SOL    HW217191   3.860   0.213   6.032
   17SOL     OW17192   2.573   2.515   5.676
   17SOL    HW117193   2.624   2.587   5.638
   17SOL    HW217194   2.597   2.515   5.768
   18SOL     OW17195   0.107   1.459   7.732
   18SOL    HW117196   0.031   1.468   7.674
   18SOL    HW217197   0.096   1.529   7.797
   19SOL     OW17198   3.371   0.979   0.982
   19SOL    HW117199   3.360   0.891   0.945
   19SOL    HW217200   3.323   1.036   0.922
   20SOL     OW17201   2.408   5.958   5.690
   20SOL    HW117202   2.403   5.995   5.778
   20SOL    HW217203   2.480   6.005   5.648
   21SOL     OW17204   4.192   3.055   6.799
   21SOL    HW117205   4.255   3.092   6.737
   21SOL    HW217206   4.244   3.038   6.878
   22SOL     OW17207   1.571   4.094   0.456
   22SOL    HW117208   1.642   4.130   0.509
   22SOL    HW217209   1.508   4.165   0.449
   23SOL     OW17210   1.663   1.816   2.055
   23SOL    HW117211   1.738   1.873   2.073
   23SOL    HW217212   1.691   1.730   2.088
   24SOL     OW17213   3.327   5.791   5.763
   24SOL    HW117214   3.269   5.842   5.706
   24SOL    HW217215   3.272   5.720   5.795
   25SOL     OW17216   4.201   2.101   7.415
   25SOL    HW117217   4.230   2.075   7.327
   25SOL    HW217218   4.270   2.161   7.446
   26SOL     OW17219   2.373   0.782   6.175
   26SOL    HW117220   2.422   0.799   6.256
   26SOL    HW217221   2.441   0.762   6.111
   27SOL     OW17222   0.337   5.300   1.036
   27SOL    HW117223   0.354   5.241   0.963
   27SOL    HW217224   0.348   5.387   0.999
   28SOL     OW17225   3.152   4.920   5.308
   28SOL    HW117226   3.151   4.917   5.404
   28SOL    HW217227   3.239   4.954   5.286
   29SOL     OW17228   3.103   2.679   1.428
   29SOL    HW117229   3.175   2.711   1.374
   29SOL    HW217230   3.113   2.725   1.512
   30SOL     OW17231   2.712   3.417   7.110
   30SOL    HW117232   2.776   3.405   7.039
   30SOL    HW217233   2.645   3.474   7.074
   31SOL     OW17234   4.691   3.178   0.379
   31SOL    HW117235   4.610   3.224   0.359
   31SOL    HW217236   4.742   3.240   0.430
   32SOL     OW17237   0.980   2.755   6.739
   32SOL    HW117238   1.063   2.737   6.784
   32SOL    HW217239   0.977   2.851   6.730
   33SOL     OW17240   5.988   6.397   6.603
   33SOL    HW117241   6.032   6.388   6.687
   33SOL    HW217242   5.910   6.342   6.610
   34SOL     OW17243   3.623   3.555   6.420
   34SOL    HW117244   3.540   3.529   6.381
   34SOL    HW217245   3.618   3.526   6.510
   35SOL     OW17246   3.396   6.192   0.750
   35SOL    HW117247   3.426   6.145   0.829
   35SOL    HW217248   3.419   6.134   0.678
   36SOL     OW17249   5.600   5.306   0.055
   36SOL    HW117250   5.546   5.375   0.018
   36SOL    HW217251   5.637   5.261  -0.020
   37SOL     OW17252   3.840   4.609   2.123
   37SOL    HW117253   3.892   4.592   2.202
   37SOL    HW217254   3.859   4.535   2.066
   38SOL     OW17255   3.557   3.313   2.053
   38SOL    HW117256   3.470   3.343   2.025
   38SOL    HW217257   3.618   3.366   2.004
   39SOL     OW17258   2.111   3.021   5.737
   39SOL    HW117259   2.155   3.084   5.680
   39SOL    HW217260   2.087   2.949   5.679
   40SOL     OW17261   6.300   2.823   0.404
   40SOL    HW117262   6.216   2.777   0.407
   40SOL    HW217263   6.310   2.849   0.313
   41SOL     OW17264   2.007   3.241   6.036
   41SOL    HW117265   2.079   3.224   6.097
   41SOL    HW217266   2.042   3.308   5.976
   42SOL     OW17267   6.162   4.617   6.830
   42SOL    HW117268   6.210   4.611   6.912
   42SOL    HW217269   6.090   4.555   6.839
   43SOL     OW17270   2.259   1.304   6.754
   43SOL    HW117271   2.217   1.390   6.753
   43SOL    HW217272   2.273   1.283   6.662
   44SOL     OW17273   0.832   5.116   6.615
   44SOL    HW117274   0.924   5.092   6.609
   44SOL    HW217275   0.806   5.136   6.525
   45SOL     OW17276   0.526   6.245   5.785
   45SOL    HW117277   0.537   6.151   5.779
   45SOL    HW217278   0.571   6.270   5.866
   46SOL     OW17279   2.764   5.501   6.199
   46SOL    HW117280   2.852   5.486   6.166
   46SOL    HW217281   2.774   5.569   6.266
   47SOL     OW17282   3.639   4.905   6.539
   47SOL    HW117283   3.695   4.907   6.462
   47SOL    HW217284   3.553   4.931   6.506
   48SOL     OW17285   3.600   5.603   6.694
   48SOL    HW117286   3.510   5.618   6.724
   48SOL    HW217287   3.596   5.519   6.647
   49SOL     OW17288   1.414   3.522   0.661
   49SOL    HW117289   1.390   3.462   0.590
   49SOL    HW217290   1.331   3.541   0.705
   50SOL     OW17291   5.174   0.805   1.060
   50SOL    HW117292   5.155   0.750   0.985
   50SOL    HW217293   5.139   0.758   1.135
   51SOL     OW17294   6.435   2.944   7.401
   51SOL    HW117295   6.402   3.013   7.459
   51SOL    HW217296   6.365   2.932   7.337
   52SOL     OW17297   3.368   6.332   5.909
   52SOL    HW117298   3.406   6.253   5.869
   52SOL    HW217299   3.431   6.401   5.888
   53SOL     OW17300   0.112   3.678   6.360
   53SOL    HW117301   0.168   3.666   6.284
   53SOL    HW217302   0.137   3.608   6.420
   54SOL     OW17303   1.491   4.027   6.244
   54SOL    HW117304   1.414   3.997   6.195
   54SOL    HW217305   1.491   4.122   6.234
   55SOL     OW17306   2.466   3.258   6.258
   55SOL    HW117307   2.556   3.228   6.262
   55SOL    HW217308   2.443   3.277   6.348
   56SOL     OW17309   1.067   5.855   0.982
   56SOL    HW117310   1.153   5.893   1.000
   56SOL    HW217311   1.085   5.784   0.920
   57SOL     OW17312   0.934   4.707   7.721
   57SOL    HW117313   0.956   4.651   7.795
   57SOL    HW217314   1.009   4.699   7.662
   58SOL     OW17315   5.664   4.074   7.354
   58SOL    HW117316   5.714   4.043   7.430
   58SOL    HW217317   5.730   4.101   7.291
   59SOL     OW17318   3.640   0.938   6.389
   59SOL    HW117319   3.704   0.943   6.460
   59SOL    HW217320   3.667   1.006   6.327
   60SOL     OW17321   3.500   1.176   7.823
   60SOL    HW117322   3.537   1.250   7.871
   60SOL    HW217323   3.462   1.215   7.745
   61SOL     OW17324   4.830   4.008   5.909
   61SOL    HW117325   4.811   4.096   5.942
   61SOL    HW217326   4.917   3.988   5.943
   62SOL     OW17327   6.335   3.507   7.660
   62SOL    HW117328   6.425   3.498   7.629
   62SOL    HW217329   6.302   3.586   7.617
   63SOL     OW17330   5.973   5.979   0.662
   63SOL    HW117331   5.904   5.915   0.649
   63SOL    HW217332   6.053   5.927   0.671
   64SOL     OW17333   3.715   1.203   7.019
   64SOL    HW117334   3.705   1.298   7.008
   64SOL    HW217335   3.754   1.193   7.106
   65SOL     OW17336   5.287   5.307   7.299
   65SOL    HW117337   5.196   5.309   7.330
   65SOL    HW217338   5.286   5.360   7.219
   66SOL     OW17339   5.702   5.566   5.816
   66SOL    HW117340   5.778   5.558   5.873
   66SOL    HW217341   5.640   5.501   5.849
   67SOL     OW17342   1.013   0.550   7.451
   67SOL    HW117343   1.049   0.461   7.445
   67SOL    HW217344   0.934   0.540   7.503
   68SOL     OW17345   3.037   3.401   6.292
   68SOL    HW117346   3.100   3.433   6.356
   68SOL    HW217347   2.997   3.481   6.257
   69SOL     OW17348   4.502   1.287   6.232
   69SOL    HW117349   4.561   1.260   6.303
   69SOL    HW217350   4.431   1.333   6.277
   70SOL     OW17351   5.701   5.286   5.995
   70SOL    HW117352   5.637   5.289   5.924
   70SOL    HW217353   5.785   5.268   5.952
   71SOL     OW17354   2.269   6.314   6.300
   71SOL    HW117355   2.266   6.352   6.212
   71SOL    HW217356   2.359   6.330   6.329
   72SOL     OW17357   2.266   2.117   5.784
   72SOL    HW117358   2.344   2.138   5.732
   72SOL    HW217359   2.233   2.035   5.746
   73SOL     OW17360   1.284   1.173   5.716
   73SOL    HW117361   1.368   1.211   5.689
   73SOL    HW217362   1.308   1.086   5.750
   74SOL     OW17363   0.842   0.022   1.120
   74SOL    HW117364   0.926   0.066   1.133
   74SOL    HW217365   0.791   0.043   1.199
   75SOL     OW17366   3.562   3.818   7.797
   75SOL    HW117367   3.511   3.892   7.763
   75SOL    HW217368   3.559   3.752   7.728
   76SOL     OW17369   1.662   3.777   5.605
   76SOL    HW117370   1.756   3.761   5.612
   76SOL    HW217371   1.655   3.855   5.550
   77SOL     OW17372   4.324   1.438   5.494
   77SOL    HW117373   4.281   1.524   5.499
   77SOL    HW217374   4.415   1.459   5.473
   78SOL     OW17375   5.783   4.403   7.374
   78SOL    HW117376   5.814   4.460   7.445
   78SOL    HW217377   5.746   4.327   7.419
   79SOL     OW17378   5.693   5.594   0.686
   79SOL    HW117379   5.690   5.579   0.781
   79SOL    HW217380   5.610   5.559   0.654
   80SOL     OW17381   1.251   2.034   5.336
   80SOL    HW117382   1.221   2.030   5.246
   80SOL    HW217383   1.173   2.016   5.388
   81SOL     OW17384   6.124   0.260   6.446
   81SOL    HW117385   6.102   0.325   6.380
   81SOL    HW217386   6.058   0.271   6.515
   82SOL     OW17387   3.312   0.724   6.941
   82SOL    HW117388   3.400   0.721   6.904
   82SOL    HW217389   3.323   0.769   7.025
   83SOL     OW17390   2.182   5.910   1.587
   83SOL    HW117391   2.090   5.886   1.581
   83SOL    HW217392   2.209   5.880   1.674
   84SOL     OW17393   4.828   1.521   1.940
   84SOL    HW117394   4.869   1.599   1.901
   84SOL    HW217395   4.810   1.464   1.865
   85SOL     OW17396   2.171   5.681   0.731
   85SOL    HW117397   2.214   5.698   0.815
   85SOL    HW217398   2.157   5.586   0.730
   86SOL     OW17399   0.724   3.112   7.699
   86SOL    HW117400   0.683   3.035   7.660
   86SOL    HW217401   0.651   3.170   7.721
   87SOL     OW17402   1.364   1.969   6.624
   87SOL    HW117403   1.418   2.035   6.667
   87SOL    HW217404   1.300   2.020   6.573
   88SOL     OW17405   3.508   3.336   7.577
   88SOL    HW117406   3.420   3.359   7.607
   88SOL    HW217407   3.554   3.306   7.656
   89SOL     OW17408   3.065   2.364   7.183
   89SOL    HW117409   3.001   2.355   7.112
   89SOL    HW217410   3.145   2.391   7.139
   90SOL     OW17411   6.435   6.380   0.088
   90SOL    HW117412   6.507   6.330   0.048
   90SOL    HW217413   6.466   6.470   0.091
   91SOL     OW17414   4.254   0.605   7.538
   91SOL    HW117415   4.317   0.536   7.518
   91SOL    HW217416   4.177   0.582   7.487
   92SOL     OW17417   1.188   0.400   6.735
   92SOL    HW117418   1.137   0.432   6.809
   92SOL    HW217419   1.245   0.333   6.772
   93SOL     OW17420   0.777   5.494   1.201
   93SOL    HW117421   0.840   5.566   1.205
   93SOL    HW217422   0.699   5.528   1.244
   94SOL     OW17423   1.792   2.912   1.758
   94SOL    HW117424   1.796   2.964   1.838
   94SOL    HW217425   1.854   2.841   1.772
   95SOL     OW17426   1.474   2.451   0.041
   95SOL    HW117427   1.475   2.520  -0.026
   95SOL    HW217428   1.555   2.402   0.025
   96SOL     OW17429   4.857   3.605   1.133
   96SOL    HW117430   4.869   3.628   1.225
   96SOL    HW217431   4.850   3.688   1.087
   97SOL     OW17432   3.273   2.526   6.568
   97SOL    HW117433   3.250   2.538   6.476
   97SOL    HW217434   3.366   2.504   6.567
   98SOL     OW17435   3.359   2.442   7.091
   98SOL    HW117436   3.286   2.504   7.098
   98SOL    HW217437   3.392   2.455   7.002
   99SOL     OW17438   2.511   1.734   7.017
   99SOL    HW117439   2.551   1.794   7.080
   99SOL    HW217440   2.418   1.739   7.035
  100SOL     OW17441   0.581   0.481   0.590
  100SOL    HW117442   0.514   0.474   0.522
  100SOL    HW217443   0.588   0.575   0.607
  101SOL     OW17444   3.944   0.492   6.411
  101SOL    HW117445   3.895   0.557   6.360
  101SOL    HW217446   4.026   0.480   6.363
  102SOL     OW17447   2.246   2.179   2.081
  102SOL    HW117448   2.234   2.149   2.172
  102SOL    HW217449   2.291   2.263   2.089
  103SOL     OW17450   3.525   3.451   1.731
  103SOL    HW117451   3.606   3.447   1.781
  103SOL    HW217452   3.456   3.429   1.794
  104SOL     OW17453   0.769   5.119   0.830
  104SOL    HW117454   0.837   5.112   0.896
  104SOL    HW217455   0.734   5.030   0.823
  105SOL     OW17456   1.826   5.135   0.779
  105SOL    HW117457   1.841   5.146   0.873
  105SOL    HW217458   1.870   5.209   0.739
  106SOL     OW17459   4.995   6.081   6.046
  106SOL    HW117460   5.002   6.011   5.982
  106SOL    HW217461   5.038   6.156   6.005
  107SOL     OW17462   2.555   0.344   0.906
  107SOL    HW117463   2.492   0.339   0.978
  107SOL    HW217464   2.635   0.378   0.946
  108SOL     OW17465   4.063   1.160   1.863
  108SOL    HW117466   4.048   1.071   1.829
  108SOL    HW217467   4.077   1.147   1.957
  109SOL     OW17468   1.640   6.289   5.895
  109SOL    HW117469   1.707   6.332   5.948
  109SOL    HW217470   1.671   6.299   5.805
  110SOL     OW17471   5.021   3.719   0.889
  110SOL    HW117472   5.087   3.776   0.927
  110SOL    HW217473   5.067   3.637   0.870
  111SOL     OW17474   3.214   3.543   0.572
  111SOL    HW117475   3.145   3.510   0.515
  111SOL    HW217476   3.180   3.531   0.660
  112SOL     OW17477   5.828   1.181   7.634
  112SOL    HW117478   5.897   1.118   7.657
  112SOL    HW217479   5.775   1.135   7.569
  113SOL     OW17480   0.850   0.358   4.994
  113SOL    HW117481   0.910   0.350   4.920
  113SOL    HW217482   0.907   0.363   5.071
  114SOL     OW17483   5.958   1.725   7.595
  114SOL    HW117484   5.988   1.686   7.513
  114SOL    HW217485   5.919   1.808   7.569
  115SOL     OW17486   4.183   0.397   6.721
  115SOL    HW117487   4.208   0.343   6.795
  115SOL    HW217488   4.175   0.336   6.648
  116SOL     OW17489   0.045   3.743   5.585
  116SOL    HW117490   0.113   3.801   5.551
  116SOL    HW217491  -0.023   3.802   5.617
  117SOL     OW17492   5.871   5.529   7.181
  117SOL    HW117493   5.847   5.505   7.271
  117SOL    HW217494   5.790   5.562   7.142
  118SOL     OW17495   2.204   1.609   2.151
  118SOL    HW117496   2.129   1.654   2.112
  118SOL    HW217497   2.240   1.555   2.081
  119SOL     OW17498   5.872   4.802   1.773
  119SOL    HW117499   5.948   4.830   1.824
  119SOL    HW217500   5.904   4.798   1.682
  120SOL     OW17501   4.600   3.381   7.742
  120SOL    HW117502   4.621   3.365   7.650
  120SOL    HW217503   4.567   3.298   7.774
  121SOL     OW17504   1.449   1.765   0.088
  121SOL    HW117505   1.425   1.673   0.093
  121SOL    HW217506   1.436   1.788  -0.004
  122SOL     OW17507   3.279   6.341   2.319
  122SOL    HW117508   3.234   6.304   2.243
  122SOL    HW217509   3.219   6.326   2.392
  123SOL     OW17510   2.706   6.297   7.798
  123SOL    HW117511   2.749   6.332   7.876
  123SOL    HW217512   2.776   6.286   7.734
  124SOL     OW17513   2.500   3.847   0.296
  124SOL    HW117514   2.477   3.760   0.330
  124SOL    HW217515   2.441   3.907   0.341
  125SOL     OW17516   0.563   0.943   0.858
  125SOL    HW117517   0.569   0.937   0.953
  125SOL    HW217518   0.538   1.033   0.841
  126SOL     OW17519   1.802   6.348   6.124
  126SOL    HW117520   1.757   6.422   6.165
  126SOL    HW217521   1.753   6.271   6.152
  127SOL     OW17522   3.938   5.185   6.138
  127SOL    HW117523   3.911   5.150   6.053
  127SOL    HW217524   3.896   5.271   6.144
  128SOL     OW17525   2.138   0.903   7.655
  128SOL    HW117526   2.150   0.829   7.594
  128SOL    HW217527   2.226   0.922   7.687
  129SOL     OW17528   4.857   3.338   0.642
  129SOL    HW117529   4.933   3.306   0.592
  129SOL    HW217530   4.841   3.270   0.707
  130SOL     OW17531   2.832   2.190   6.149
  130SOL    HW117532   2.873   2.192   6.235
  130SOL    HW217533   2.884   2.127   6.099
  131SOL     OW17534   5.782   4.405   5.831
  131SOL    HW117535   5.693   4.408   5.796
  131SOL    HW217536   5.771   4.378   5.923
  132SOL     OW17537   3.634   1.735   1.989
  132SOL    HW117538   3.625   1.759   1.897
  132SOL    HW217539   3.652   1.818   2.033
  133SOL     OW17540   5.694   1.245   0.884
  133SOL    HW117541   5.630   1.184   0.922
  133SOL    HW217542   5.748   1.272   0.958
  134SOL     OW17543   0.444   5.541   2.085
  134SOL    HW117544   0.430   5.453   2.118
  134SOL    HW217545   0.430   5.535   1.991
  135SOL     OW17546   6.095   2.847   0.949
  135SOL    HW117547   6.160   2.811   0.888
  135SOL    HW217548   6.126   2.935   0.968
  136SOL     OW17549   4.456   2.942   6.813
  136SOL    HW117550   4.523   2.919   6.749
  136SOL    HW217551   4.505   2.980   6.887
  137SOL     OW17552   0.895   4.467   7.257
  137SOL    HW117553   0.988   4.483   7.275
  137SOL    HW217554   0.888   4.471   7.161
  138SOL     OW17555   0.459   4.279   1.379
  138SOL    HW117556   0.412   4.293   1.297
  138SOL    HW217557   0.414   4.334   1.443
  139SOL     OW17558   3.161   0.327   0.024
  139SOL    HW117559   3.158   0.327   0.119
  139SOL    HW217560   3.099   0.258  -0.002
  140SOL     OW17561   4.538   1.416   6.773
  140SOL    HW117562   4.505   1.494   6.817
  140SOL    HW217563   4.470   1.351   6.784
  141SOL     OW17564   3.683   4.907   5.557
  141SOL    HW117565   3.656   4.993   5.524
  141SOL    HW217566   3.685   4.917   5.652
  142SOL     OW17567   1.882   2.610   0.087
  142SOL    HW117568   1.860   2.689   0.135
  142SOL    HW217569   1.978   2.607   0.087
  143SOL     OW17570   2.215   5.401   0.447
  143SOL    HW117571   2.268   5.446   0.382
  143SOL    HW217572   2.278   5.370   0.512
  144SOL     OW17573   6.168   2.652   0.079
  144SOL    HW117574   6.108   2.600   0.132
  144SOL    HW217575   6.209   2.588   0.020
  145SOL     OW17576   4.837   2.561   6.931
  145SOL    HW117577   4.887   2.628   6.977
  145SOL    HW217578   4.810   2.603   6.849
  146SOL     OW17579   5.358   0.496   7.103
  146SOL    HW117580   5.321   0.539   7.180
  146SOL    HW217581   5.438   0.454   7.134
  147SOL     OW17582   1.361   5.709   6.667
  147SOL    HW117583   1.277   5.731   6.627
  147SOL    HW217584   1.346   5.622   6.705
  148SOL     OW17585   3.183   1.261   7.353
  148SOL    HW117586   3.232   1.218   7.283
  148SOL    HW217587   3.183   1.353   7.328
  149SOL     OW17588   5.258   6.304   6.298
  149SOL    HW117589   5.191   6.250   6.257
  149SOL    HW217590   5.322   6.319   6.228
  150SOL     OW17591   0.390   3.839   1.925
  150SOL    HW117592   0.418   3.888   2.002
  150SOL    HW217593   0.374   3.906   1.859
  151SOL     OW17594   0.672   2.490   0.239
  151SOL    HW117595   0.749   2.444   0.273
  151SOL    HW217596   0.670   2.468   0.146
  152SOL     OW17597   2.033   5.750   7.690
  152SOL    HW117598   1.986   5.777   7.611
  152SOL    HW217599   2.068   5.664   7.669
  153SOL     OW17600   3.097   1.595   1.514
  153SOL    HW117601   3.094   1.547   1.431
  153SOL    HW217602   3.077   1.529   1.580
  154SOL     OW17603   3.799   2.714   6.305
  154SOL    HW117604   3.812   2.768   6.383
  154SOL    HW217605   3.888   2.694   6.275
  155SOL     OW17606   5.459   3.897   0.825
  155SOL    HW117607   5.454   3.856   0.911
  155SOL    HW217608   5.380   3.867   0.779
  156SOL     OW17609   4.886   3.132   1.498
  156SOL    HW117610   4.934   3.197   1.548
  156SOL    HW217611   4.830   3.089   1.562
  157SOL     OW17612   1.507   0.268   6.635
  157SOL    HW117613   1.478   0.338   6.576
  157SOL    HW217614   1.498   0.305   6.722
  158SOL     OW17615   2.552   2.037   6.759
  158SOL    HW117616   2.627   2.020   6.817
  158SOL    HW217617   2.478   1.997   6.804
  159SOL     OW17618   0.620   0.112   6.697
  159SOL    HW117619   0.599   0.094   6.788
  159SOL    HW217620   0.617   0.207   6.689
  160SOL     OW17621   3.147   6.404   1.049
  160SOL    HW117622   3.181   6.466   1.113
  160SOL    HW217623   3.135   6.456   0.970
  161SOL     OW17624   3.365   6.290   7.279
  161SOL    HW117625   3.336   6.357   7.218
  161SOL    HW217626   3.329   6.316   7.363
  162SOL     OW17627   5.749   3.021   7.019
  162SOL    HW117628   5.777   2.936   7.052
  162SOL    HW217629   5.741   3.075   7.097
  163SOL     OW17630   0.344   0.896   7.618
  163SOL    HW117631   0.286   0.848   7.558
  163SOL    HW217632   0.285   0.945   7.675
  164SOL     OW17633   0.322   5.919   5.439
  164SOL    HW117634   0.250   5.870   5.479
  164SOL    HW217635   0.401   5.879   5.475
  165SOL     OW17636   4.946   4.208   0.728
  165SOL    HW117637   4.910   4.289   0.693
  165SOL    HW217638   4.934   4.143   0.658
  166SOL     OW17639   6.137   5.362   6.416
  166SOL    HW117640   6.228   5.389   6.402
  166SOL    HW217641   6.089   5.400   6.343
  167SOL     OW17642   2.763   0.882   0.139
  167SOL    HW117643   2.744   0.903   0.048
  167SOL    HW217644   2.793   0.791   0.137
  168SOL     OW17645   4.955   3.262   6.261
  168SOL    HW117646   4.944   3.336   6.201
  168SOL    HW217647   4.891   3.277   6.330
  169SOL     OW17648   4.176   3.037   0.303
  169SOL    HW117649   4.256   2.994   0.275
  169SOL    HW217650   4.113   2.966   0.316
  170SOL     OW17651   1.955   5.060   6.385
  170SOL    HW117652   1.908   5.006   6.448
  170SOL    HW217653   2.011   4.998   6.337
  171SOL     OW17654   3.516   3.663   7.543
  171SOL    HW117655   3.514   3.736   7.480
  171SOL    HW217656   3.581   3.603   7.507
  172SOL     OW17657   0.732   0.335   7.096
  172SOL    HW117658   0.677   0.397   7.048
  172SOL    HW217659   0.680   0.313   7.174
  173SOL     OW17660   1.595   1.382   6.294
  173SOL    HW117661   1.622   1.307   6.242
  173SOL    HW217662   1.676   1.416   6.332
  174SOL     OW17663   4.044   5.689   1.474
  174SOL    HW117664   3.985   5.750   1.430
  174SOL    HW217665   3.996   5.661   1.552
  175SOL     OW17666   3.722   4.813   6.095
  175SOL    HW117667   3.674   4.734   6.120
  175SOL    HW217668   3.804   4.780   6.057
  176SOL     OW17669   3.605   6.137   1.415
  176SOL    HW117670   3.587   6.215   1.468
  176SOL    HW217671   3.604   6.065   1.478
  177SOL     OW17672   1.751   1.315   6.868
  177SOL    HW117673   1.788   1.227   6.866
  177SOL    HW217674   1.723   1.331   6.777
  178SOL     OW17675   2.009   4.430   7.004
  178SOL    HW117676   2.082   4.417   6.943
  178SOL    HW217677   1.931   4.410   6.952
  179SOL     OW17678   2.326   0.991   5.977
  179SOL    HW117679   2.282   0.946   5.905
  179SOL    HW217680   2.334   0.924   6.045
  180SOL     OW17681   1.367   1.376   6.672
  180SOL    HW117682   1.298   1.388   6.738
  180SOL    HW217683   1.385   1.465   6.640
  181SOL     OW17684   5.404   0.881   0.891
  181SOL    HW117685   5.490   0.839   0.893
  181SOL    HW217686   5.356   0.842   0.964
  182SOL     OW17687   3.866   5.299   6.856
  182SOL    HW117688   3.812   5.298   6.777
  182SOL    HW217689   3.806   5.274   6.927
  183SOL     OW17690   4.708   5.957   5.426
  183SOL    HW117691   4.650   5.980   5.353
  183SOL    HW217692   4.660   5.889   5.474
  184SOL     OW17693   4.010   4.141   1.400
  184SOL    HW117694   4.012   4.056   1.358
  184SOL    HW217695   4.009   4.122   1.494
  185SOL     OW17696   0.367   6.242   0.884
  185SOL    HW117697   0.402   6.289   0.808
  185SOL    HW217698   0.443   6.224   0.939
  186SOL     OW17699   2.961   5.958   6.100
  186SOL    HW117700   2.919   5.883   6.058
  186SOL    HW217701   3.045   5.967   6.054
  187SOL     OW17702   2.649   3.331   5.643
  187SOL    HW117703   2.618   3.375   5.565
  187SOL    HW217704   2.732   3.374   5.663
  188SOL     OW17705   2.900   0.095   1.276
  188SOL    HW117706   2.970   0.125   1.335
  188SOL    HW217707   2.925   0.128   1.190
  189SOL     OW17708   3.013   4.246   6.499
  189SOL    HW117709   2.919   4.234   6.507
  189SOL    HW217710   3.030   4.241   6.405
  190SOL     OW17711   2.110   6.377   7.279
  190SOL    HW117712   2.034   6.331   7.313
  190SOL    HW217713   2.130   6.443   7.345
  191SOL     OW17714   1.078   5.402   0.099
  191SOL    HW117715   1.065   5.422   0.006
  191SOL    HW217716   1.002   5.440   0.143
  192SOL     OW17717   1.595   4.341   0.799
  192SOL    HW117718   1.672   4.339   0.856
  192SOL    HW217719   1.570   4.433   0.797
  193SOL     OW17720   4.320   3.293   7.802
  193SOL    HW117721   4.251   3.341   7.754
  193SOL    HW217722   4.398   3.346   7.790
  194SOL     OW17723   5.352   2.235   7.621
  194SOL    HW117724   5.345   2.287   7.540
  194SOL    HW217725   5.274   2.258   7.671
  195SOL     OW17726   0.355   5.155   0.587
  195SOL    HW117727   0.365   5.062   0.565
  195SOL    HW217728   0.388   5.202   0.511
  196SOL     OW17729   0.556   0.947   1.125
  196SOL    HW117730   0.468   0.916   1.104
  196SOL    HW217731   0.597   0.872   1.170
  197SOL     OW17732   5.652   5.521   0.979
  197SOL    HW117733   5.618   5.580   1.047
  197SOL    HW217734   5.730   5.481   1.018
  198SOL     OW17735   3.276   0.554   6.271
  198SOL    HW117736   3.234   0.521   6.192
  198SOL    HW217737   3.220   0.524   6.343
  199SOL     OW17738   0.609   2.397   0.638
  199SOL    HW117739   0.677   2.389   0.570
  199SOL    HW217740   0.528   2.411   0.589
  200SOL     OW17741   1.465   2.409   6.714
  200SOL    HW117742   1.503   2.491   6.745
  200SOL    HW217743   1.419   2.374   6.790
  201SOL     OW17744   5.749   1.358   7.162
  201SOL    HW117745   5.826   1.410   7.139
  201SOL    HW217746   5.703   1.346   7.079
  202SOL     OW17747   3.165   0.865   1.524
  202SOL    HW117748   3.105   0.908   1.585
  202SOL    HW217749   3.123   0.781   1.505
  203SOL     OW17750   2.622   3.947   0.744
  203SOL    HW117751   2.540   3.903   0.721
  203SOL    HW217752   2.644   3.999   0.666
  204SOL     OW17753   4.246   1.710   0.250
  204SOL    HW117754   4.279   1.625   0.220
  204SOL    HW217755   4.323   1.755   0.285
  205SOL     OW17756   5.790   0.607   6.948
  205SOL    HW117757   5.829   0.592   6.862
  205SOL    HW217758   5.860   0.647   7.000
  206SOL     OW17759   6.328   2.762   1.424
  206SOL    HW117760   6.389   2.779   1.495
  206SOL    HW217761   6.360   2.681   1.384
  207SOL     OW17762   2.202   5.481   7.047
  207SOL    HW117763   2.254   5.419   6.996
  207SOL    HW217764   2.263   5.514   7.113
  208SOL     OW17765   1.335   6.091   2.099
  208SOL    HW117766   1.277   6.076   2.024
  208SOL    HW217767   1.393   6.161   2.071
  209SOL     OW17768   1.501   4.592   0.706
  209SOL    HW117769   1.476   4.677   0.671
  209SOL    HW217770   1.457   4.529   0.649
  210SOL     OW17771   0.094   4.179   1.521
  210SOL    HW117772   0.152   4.157   1.449
  210SOL    HW217773   0.101   4.105   1.582
  211SOL     OW17774   5.918   5.488   6.744
  211SOL    HW117775   5.947   5.561   6.799
  211SOL    HW217776   5.838   5.520   6.702
  212SOL     OW17777   5.403   0.361   6.293
  212SOL    HW117778   5.322   0.393   6.332
  212SOL    HW217779   5.384   0.354   6.199
  213SOL     OW17780   3.875   3.890   1.588
  213SOL    HW117781   3.920   3.968   1.621
  213SOL    HW217782   3.907   3.881   1.498
  214SOL     OW17783   5.984   0.152   6.920
  214SOL    HW117784   5.939   0.068   6.923
  214SOL    HW217785   5.949   0.202   6.994
  215SOL     OW17786   1.865   0.775   5.519
  215SOL    HW117787   1.781   0.790   5.476
  215SOL    HW217788   1.876   0.851   5.577
  216SOL     OW17789   2.392   0.553   6.514
  216SOL    HW117790   2.377   0.466   6.478
  216SOL    HW217791   2.350   0.551   6.600
  217SOL     OW17792   0.549   1.653   0.420
  217SOL    HW117793   0.556   1.617   0.332
  217SOL    HW217794   0.458   1.636   0.446
  218SOL     OW17795   4.707   1.335   1.671
  218SOL    HW117796   4.632   1.362   1.724
  218SOL    HW217797   4.769   1.299   1.735
  219SOL     OW17798   1.453   4.584   5.772
  219SOL    HW117799   1.513   4.531   5.719
  219SOL    HW217800   1.452   4.540   5.857
  220SOL     OW17801   3.035   3.152   6.183
  220SOL    HW117802   3.123   3.123   6.161
  220SOL    HW217803   3.048   3.238   6.224
  221SOL     OW17804   4.713   2.706   7.589
  221SOL    HW117805   4.779   2.681   7.653
  221SOL    HW217806   4.760   2.758   7.524
  222SOL     OW17807   5.661   5.762   1.752
  222SOL    HW117808   5.586   5.743   1.809
  222SOL    HW217809   5.728   5.699   1.778
  223SOL     OW17810   0.228   0.783   1.458
  223SOL    HW117811   0.135   0.792   1.480
  223SOL    HW217812   0.239   0.689   1.441
  224SOL     OW17813   5.116   1.665   0.067
  224SOL    HW117814   5.190   1.705   0.021
  224SOL    HW217815   5.055   1.639  -0.002
  225SOL     OW17816   2.654   4.237   1.111
  225SOL    HW117817   2.748   4.230   1.092
  225SOL    HW217818   2.611   4.214   1.028
  226SOL     OW17819   4.155   2.438   0.668
  226SOL    HW117820   4.118   2.486   0.594
  226SOL    HW217821   4.245   2.471   0.674
  227SOL     OW17822   1.091   3.228   7.453
  227SOL    HW117823   1.162   3.254   7.395
  227SOL    HW217824   1.120   3.147   7.494
  228SOL     OW17825   1.275   6.030   0.656
  228SOL    HW117826   1.279   6.118   0.618
  228SOL    HW217827   1.366   6.001   0.658
  229SOL     OW17828   1.152   5.182   2.391
  229SOL    HW117829   1.220   5.211   2.329
  229SOL    HW217830   1.072   5.225   2.360
  230SOL     OW17831   3.986   4.897   0.245
  230SOL    HW117832   4.019   4.978   0.285
  230SOL    HW217833   3.919   4.926   0.184
  231SOL     OW17834   6.184   5.184   0.565
  231SOL    HW117835   6.233   5.262   0.591
  231SOL    HW217836   6.109   5.217   0.517
  232SOL     OW17837   0.336   3.718   1.263
  232SOL    HW117838   0.275   3.756   1.326
  232SOL    HW217839   0.334   3.777   1.189
  233SOL     OW17840   3.623   2.769   6.095
  233SOL    HW117841   3.678   2.757   6.172
  233SOL    HW217842   3.603   2.681   6.065
  234SOL     OW17843   5.128   1.389   7.554
  234SOL    HW117844   5.171   1.307   7.578
  234SOL    HW217845   5.188   1.430   7.492
  235SOL     OW17846   3.457   4.703   1.721
  235SOL    HW117847   3.471   4.609   1.736
  235SOL    HW217848   3.406   4.706   1.640
  236SOL     OW17849   4.383   4.365   0.521
  236SOL    HW117850   4.293   4.366   0.552
  236SOL    HW217851   4.425   4.439   0.566
  237SOL     OW17852   0.604   5.895   6.033
  237SOL    HW117853   0.576   5.980   6.067
  237SOL    HW217854   0.593   5.902   5.938
  238SOL     OW17855   2.340   5.517   5.465
  238SOL    HW117856   2.343   5.492   5.373
  238SOL    HW217857   2.272   5.462   5.503
  239SOL     OW17858   3.811   5.140   7.174
  239SOL    HW117859   3.800   5.052   7.139
  239SOL    HW217860   3.767   5.139   7.258
  240SOL     OW17861   2.316   2.294   0.948
  240SOL    HW117862   2.403   2.300   0.989
  240SOL    HW217863   2.311   2.372   0.893
  241SOL     OW17864   2.870   0.645   1.269
  241SOL    HW117865   2.801   0.705   1.240
  241SOL    HW217866   2.827   0.585   1.330
  242SOL     OW17867   4.570   2.130   6.636
  242SOL    HW117868   4.546   2.074   6.709
  242SOL    HW217869   4.546   2.082   6.558
  243SOL     OW17870   1.835   5.867   6.848
  243SOL    HW117871   1.820   5.805   6.920
  243SOL    HW217872   1.751   5.910   6.835
  244SOL     OW17873   4.706   2.083   7.027
  244SOL    HW117874   4.751   2.154   6.981
  244SOL    HW217875   4.775   2.035   7.072
  245SOL     OW17876   5.855   5.117   1.219
  245SOL    HW117877   5.854   5.068   1.301
  245SOL    HW217878   5.905   5.062   1.158
  246SOL     OW17879   0.121   6.311   0.825
  246SOL    HW117880   0.206   6.285   0.861
  246SOL    HW217881   0.141   6.385   0.768
  247SOL     OW17882   5.042   4.156   1.695
  247SOL    HW117883   5.028   4.081   1.752
  247SOL    HW217884   5.060   4.229   1.754
  248SOL     OW17885   0.203   5.623   6.722
  248SOL    HW117886   0.169   5.611   6.633
  248SOL    HW217887   0.298   5.629   6.711
  249SOL     OW17888   4.089   4.326   7.535
  249SOL    HW117889   4.168   4.273   7.543
  249SOL    HW217890   4.017   4.264   7.539
  250SOL     OW17891   0.401   3.832   6.802
  250SOL    HW117892   0.346   3.906   6.827
  250SOL    HW217893   0.487   3.871   6.785
  251SOL     OW17894   0.032   4.196   1.134
  251SOL    HW117895  -0.036   4.167   1.073
  251SOL    HW217896   0.016   4.289   1.146
  252SOL     OW17897   6.048   4.425   7.254
  252SOL    HW117898   6.099   4.448   7.332
  252SOL    HW217899   5.961   4.403   7.287
  253SOL     OW17900   3.616   4.435   5.950
  253SOL    HW117901   3.626   4.471   6.038
  253SOL    HW217902   3.705   4.435   5.913
  254SOL     OW17903   5.563   1.100   1.482
  254SOL    HW117904   5.598   1.111   1.570
  254SOL    HW217905   5.524   1.185   1.461
  255SOL     OW17906   5.574   0.396   1.261
  255SOL    HW117907   5.490   0.435   1.283
  255SOL    HW217908   5.623   0.468   1.219
  256SOL     OW17909   1.372   4.724   7.349
  256SOL    HW117910   1.460   4.709   7.316
  256SOL    HW217911   1.351   4.814   7.323
  257SOL     OW17912   1.512   2.083   5.134
  257SOL    HW117913   1.532   2.131   5.214
  257SOL    HW217914   1.574   2.116   5.070
  258SOL     OW17915   4.055   5.368   7.034
  258SOL    HW117916   4.067   5.273   7.046
  258SOL    HW217917   4.001   5.375   6.955
  259SOL     OW17918   0.964   5.233   1.371
  259SOL    HW117919   0.960   5.328   1.382
  259SOL    HW217920   0.954   5.199   1.459
  260SOL     OW17921   5.119   3.832   2.394
  260SOL    HW117922   5.210   3.804   2.383
  260SOL    HW217923   5.081   3.769   2.454
  261SOL     OW17924   4.157   1.904   6.117
  261SOL    HW117925   4.199   1.932   6.035
  261SOL    HW217926   4.064   1.924   6.105
  262SOL     OW17927   3.503   1.735   7.513
  262SOL    HW117928   3.552   1.686   7.579
  262SOL    HW217929   3.538   1.824   7.518
  263SOL     OW17930   2.980   6.271   7.714
  263SOL    HW117931   3.025   6.247   7.795
  263SOL    HW217932   2.996   6.198   7.654
  264SOL     OW17933   6.384   5.631   0.920
  264SOL    HW117934   6.421   5.639   0.832
  264SOL    HW217935   6.420   5.706   0.968
  265SOL     OW17936   5.882   4.039   5.979
  265SOL    HW117937   5.868   3.977   5.908
  265SOL    HW217938   5.961   4.087   5.954
  266SOL     OW17939   5.084   0.914   7.632
  266SOL    HW117940   5.025   0.855   7.585
  266SOL    HW217941   5.155   0.857   7.662
  267SOL     OW17942   6.191   3.144   1.841
  267SOL    HW117943   6.213   3.158   1.749
  267SOL    HW217944   6.172   3.232   1.875
  268SOL     OW17945   3.637   3.154   5.306
  268SOL    HW117946   3.694   3.153   5.383
  268SOL    HW217947   3.670   3.226   5.252
  269SOL     OW17948   1.674   1.758   6.751
  269SOL    HW117949   1.620   1.694   6.797
  269SOL    HW217950   1.734   1.791   6.818
  270SOL     OW17951   3.297   1.916   6.796
  270SOL    HW117952   3.236   1.917   6.723
  270SOL    HW217953   3.326   2.007   6.804
  271SOL     OW17954   4.741   5.601   1.764
  271SOL    HW117955   4.818   5.544   1.771
  271SOL    HW217956   4.755   5.668   1.832
  272SOL     OW17957   6.112   3.961   0.731
  272SOL    HW117958   6.029   3.922   0.703
  272SOL    HW217959   6.173   3.887   0.733
  273SOL     OW17960   1.040   1.162   0.943
  273SOL    HW117961   1.085   1.233   0.990
  273SOL    HW217962   1.039   1.089   1.005
  274SOL     OW17963   2.649   2.669   6.291
  274SOL    HW117964   2.643   2.576   6.313
  274SOL    HW217965   2.718   2.673   6.224
  275SOL     OW17966   6.055   2.528   7.289
  275SOL    HW117967   6.018   2.555   7.373
  275SOL    HW217968   6.023   2.438   7.277
  276SOL     OW17969   0.023   0.556   0.327
  276SOL    HW117970   0.043   0.467   0.356
  276SOL    HW217971   0.083   0.612   0.376
  277SOL     OW17972   1.506   6.198   5.282
  277SOL    HW117973   1.533   6.135   5.349
  277SOL    HW217974   1.412   6.185   5.273
  278SOL     OW17975   4.604   4.680   1.762
  278SOL    HW117976   4.602   4.654   1.853
  278SOL    HW217977   4.601   4.776   1.764
  279SOL     OW17978   4.267   5.617   5.804
  279SOL    HW117979   4.184   5.595   5.761
  279SOL    HW217980   4.330   5.624   5.732
  280SOL     OW17981   4.013   2.710   0.602
  280SOL    HW117982   4.005   2.801   0.573
  280SOL    HW217983   4.046   2.716   0.691
  281SOL     OW17984   4.988   5.011   0.670
  281SOL    HW117985   5.056   4.945   0.656
  281SOL    HW217986   4.992   5.030   0.764
  282SOL     OW17987   2.747   2.215   2.058
  282SOL    HW117988   2.760   2.131   2.102
  282SOL    HW217989   2.818   2.270   2.091
  283SOL     OW17990   4.156   2.665   1.689
  283SOL    HW117991   4.180   2.715   1.768
  283SOL    HW217992   4.123   2.582   1.722
  284SOL     OW17993   0.352   4.829   6.835
  284SOL    HW117994   0.327   4.811   6.926
  284SOL    HW217995   0.326   4.921   6.821
  285SOL     OW17996   4.893   5.259   1.403
  285SOL    HW117997   4.882   5.307   1.485
  285SOL    HW217998   4.984   5.230   1.404
  286SOL     OW17999   4.543   4.949   1.788
  286SOL    HW118000   4.557   4.991   1.873
  286SOL    HW218001   4.450   4.965   1.769
  287SOL     OW18002   1.836   1.432   7.315
  287SOL    HW118003   1.749   1.451   7.280
  287SOL    HW218004   1.835   1.338   7.333
  288SOL     OW18005   4.245   2.061   1.082
  288SOL    HW118006   4.167   2.116   1.078
  288SOL    HW218007   4.267   2.045   0.990
  289SOL     OW18008   4.744   2.399   0.825
  289SOL    HW118009   4.709   2.381   0.738
  289SOL    HW218010   4.687   2.349   0.884
  290SOL     OW18011   4.271   4.023   7.727
  290SOL    HW118012   4.312   3.968   7.660
  290SOL    HW218013   4.339   4.037   7.792
  291SOL     OW18014   0.522   0.451   5.311
  291SOL    HW118015   0.612   0.483   5.311
  291SOL    HW218016   0.509   0.414   5.224
  292SOL     OW18017   3.297   2.426   2.094
  292SOL    HW118018   3.276   2.510   2.134
  292SOL    HW218019   3.392   2.418   2.104
  293SOL     OW18020   0.281   6.213   6.914
  293SOL    HW118021   0.325   6.148   6.969
  293SOL    HW218022   0.279   6.173   6.827
  294SOL     OW18023   2.073   2.142   4.736
  294SOL    HW118024   2.151   2.142   4.792
  294SOL    HW218025   2.030   2.225   4.754
  295SOL     OW18026   3.102   3.824   5.949
  295SOL    HW118027   3.166   3.882   5.908
  295SOL    HW218028   3.145   3.791   6.027
  296SOL     OW18029   4.051   1.417   6.851
  296SOL    HW118030   3.980   1.476   6.826
  296SOL    HW218031   4.090   1.390   6.769
  297SOL     OW18032   2.948   3.988   7.521
  297SOL    HW118033   2.870   3.935   7.539
  297SOL    HW218034   2.998   3.985   7.603
  298SOL     OW18035   2.272   2.127   4.913
  298SOL    HW118036   2.308   2.049   4.953
  298SOL    HW218037   2.349   2.174   4.879
  299SOL     OW18038   4.960   4.074   1.401
  299SOL    HW118039   4.938   4.148   1.345
  299SOL    HW218040   5.003   4.113   1.477
  300SOL     OW18041   1.503   0.437   0.283
  300SOL    HW118042   1.502   0.531   0.264
  300SOL    HW218043   1.442   0.426   0.355
  301SOL     OW18044   1.556   1.808   7.160
  301SOL    HW118045   1.626   1.796   7.096
  301SOL    HW218046   1.500   1.875   7.122
  302SOL     OW18047   0.682   3.788   0.406
  302SOL    HW118048   0.657   3.797   0.498
  302SOL    HW218049   0.725   3.702   0.402
  303SOL     OW18050   4.460   5.507   1.043
  303SOL    HW118051   4.381   5.455   1.053
  303SOL    HW218052   4.435   5.594   1.073
  304SOL     OW18053   4.365   1.512   0.562
  304SOL    HW118054   4.413   1.581   0.516
  304SOL    HW218055   4.276   1.519   0.530
  305SOL     OW18056   3.766   2.560   6.923
  305SOL    HW118057   3.818   2.578   7.000
  305SOL    HW218058   3.807   2.483   6.883
  306SOL     OW18059   4.607   1.306   0.057
  306SOL    HW118060   4.693   1.310   0.017
  306SOL    HW218061   4.546   1.304  -0.017
  307SOL     OW18062   4.955   0.981   0.052
  307SOL    HW118063   4.994   0.943  -0.027
  307SOL    HW218064   4.862   0.990   0.031
  308SOL     OW18065   3.360   4.102   5.098
  308SOL    HW118066   3.449   4.138   5.100
  308SOL    HW218067   3.304   4.178   5.083
  309SOL     OW18068   1.126   6.394   7.624
  309SOL    HW118069   1.061   6.458   7.596
  309SOL    HW218070   1.194   6.396   7.556
  310SOL     OW18071   2.571   5.761   1.710
  310SOL    HW118072   2.599   5.682   1.757
  310SOL    HW218073   2.646   5.784   1.656
  311SOL     OW18074   5.764   6.394   6.852
  311SOL    HW118075   5.691   6.334   6.867
  311SOL    HW218076   5.727   6.463   6.798
  312SOL     OW18077   4.663   4.244   5.832
  312SOL    HW118078   4.717   4.262   5.909
  312SOL    HW218079   4.663   4.325   5.782
  313SOL     OW18080   4.213   5.972   6.402
  313SOL    HW118081   4.141   6.003   6.457
  313SOL    HW218082   4.248   6.051   6.361
  314SOL     OW18083   0.848   2.169   7.365
  314SOL    HW118084   0.875   2.180   7.274
  314SOL    HW218085   0.785   2.239   7.380
  315SOL     OW18086   4.010   5.107   5.553
  315SOL    HW118087   4.025   5.113   5.647
  315SOL    HW218088   3.930   5.159   5.538
  316SOL     OW18089   5.912   1.900   6.212
  316SOL    HW118090   5.926   1.885   6.118
  316SOL    HW218091   5.832   1.952   6.216
  317SOL     OW18092   5.130   4.887   6.812
  317SOL    HW118093   5.171   4.946   6.875
  317SOL    HW218094   5.045   4.927   6.793
  318SOL     OW18095   0.401   5.022   1.239
  318SOL    HW118096   0.484   4.974   1.250
  318SOL    HW218097   0.387   5.024   1.145
  319SOL     OW18098   1.766   4.179   0.139
  319SOL    HW118099   1.722   4.247   0.191
  319SOL    HW218100   1.811   4.227   0.070
  320SOL     OW18101   3.842   1.285   0.970
  320SOL    HW118102   3.848   1.190   0.959
  320SOL    HW218103   3.824   1.319   0.883
  321SOL     OW18104   2.193   3.406   7.519
  321SOL    HW118105   2.133   3.345   7.475
  321SOL    HW218106   2.174   3.396   7.612
  322SOL     OW18107   0.878   5.890   6.892
  322SOL    HW118108   0.818   5.916   6.823
  322SOL    HW218109   0.855   5.946   6.966
  323SOL     OW18110   5.614   4.695   2.354
  323SOL    HW118111   5.613   4.751   2.276
  323SOL    HW218112   5.542   4.635   2.341
  324SOL     OW18113   6.062   3.916   7.343
  324SOL    HW118114   6.121   3.978   7.386
  324SOL    HW218115   6.066   3.939   7.250
  325SOL     OW18116   5.768   4.740   1.165
  325SOL    HW118117   5.843   4.799   1.171
  325SOL    HW218118   5.759   4.704   1.253
  326SOL     OW18119   0.037   2.239   6.477
  326SOL    HW118120   0.077   2.301   6.416
  326SOL    HW218121   0.095   2.238   6.552
  327SOL     OW18122   4.780   2.044   1.299
  327SOL    HW118123   4.699   2.008   1.263
  327SOL    HW218124   4.753   2.089   1.380
  328SOL     OW18125   1.830   1.750   4.998
  328SOL    HW118126   1.883   1.824   4.968
  328SOL    HW218127   1.755   1.790   5.042
  329SOL     OW18128   0.118   0.272   6.606
  329SOL    HW118129   0.037   0.315   6.635
  329SOL    HW218130   0.162   0.247   6.687
  330SOL     OW18131   1.888   3.925   1.744
  330SOL    HW118132   1.815   3.984   1.762
  330SOL    HW218133   1.866   3.884   1.660
  331SOL     OW18134   2.537   6.186   0.759
  331SOL    HW118135   2.525   6.127   0.684
  331SOL    HW218136   2.584   6.261   0.724
  332SOL     OW18137   5.984   4.179   6.558
  332SOL    HW118138   5.993   4.088   6.588
  332SOL    HW218139   5.891   4.188   6.539
  333SOL     OW18140   0.210   5.383   6.894
  333SOL    HW118141   0.218   5.471   6.858
  333SOL    HW218142   0.117   5.375   6.918
  334SOL     OW18143   4.880   6.193   0.926
  334SOL    HW118144   4.809   6.197   0.862
  334SOL    HW218145   4.958   6.218   0.877
  335SOL     OW18146   5.191   6.122   7.459
  335SOL    HW118147   5.129   6.050   7.473
  335SOL    HW218148   5.251   6.116   7.533
  336SOL     OW18149   0.265   2.822   7.525
  336SOL    HW118150   0.288   2.767   7.450
  336SOL    HW218151   0.184   2.866   7.498
  337SOL     OW18152   0.784   2.936   6.561
  337SOL    HW118153   0.755   2.846   6.546
  337SOL    HW218154   0.721   2.990   6.514
  338SOL     OW18155   0.744   4.100   6.418
  338SOL    HW118156   0.667   4.157   6.410
  338SOL    HW218157   0.777   4.116   6.507
  339SOL     OW18158   1.399   3.784   7.502
  339SOL    HW118159   1.442   3.753   7.582
  339SOL    HW218160   1.340   3.712   7.478
  340SOL     OW18161   5.514   1.799   7.249
  340SOL    HW118162   5.527   1.894   7.248
  340SOL    HW218163   5.592   1.765   7.293
  341SOL     OW18164   3.820   4.554   5.537
  341SOL    HW118165   3.734   4.542   5.497
  341SOL    HW218166   3.874   4.484   5.500
  342SOL     OW18167   1.180   2.727   1.680
  342SOL    HW118168   1.141   2.653   1.727
  342SOL    HW218169   1.269   2.734   1.715
  343SOL     OW18170   3.124   1.994   7.179
  343SOL    HW118171   3.076   2.065   7.223
  343SOL    HW218172   3.073   1.974   7.101
  344SOL     OW18173   0.445   4.147   1.091
  344SOL    HW118174   0.412   4.109   1.009
  344SOL    HW218175   0.367   4.157   1.146
  345SOL     OW18176   4.912   2.066   7.658
  345SOL    HW118177   4.900   2.112   7.575
  345SOL    HW218178   4.973   1.995   7.638
  346SOL     OW18179   4.099   5.861   2.010
  346SOL    HW118180   4.190   5.890   2.001
  346SOL    HW218181   4.087   5.847   2.104
  347SOL     OW18182   2.163   0.398   7.063
  347SOL    HW118183   2.180   0.313   7.104
  347SOL    HW218184   2.235   0.411   7.001
  348SOL     OW18185   3.184   5.804   5.519
  348SOL    HW118186   3.241   5.765   5.453
  348SOL    HW218187   3.103   5.752   5.515
  349SOL     OW18188   0.732   2.524   2.180
  349SOL    HW118189   0.718   2.456   2.115
  349SOL    HW218190   0.826   2.536   2.182
  350SOL     OW18191   3.125   1.935   0.954
  350SOL    HW118192   3.030   1.936   0.943
  350SOL    HW218193   3.156   1.876   0.885
  351SOL     OW18194   3.663   0.150   2.285
  351SOL    HW118195   3.716   0.112   2.354
  351SOL    HW218196   3.656   0.243   2.309
  352SOL     OW18197   0.548   0.910   7.199
  352SOL    HW118198   0.570   0.818   7.186
  352SOL    HW218199   0.618   0.945   7.254
  353SOL     OW18200   0.618   4.410   6.029
  353SOL    HW118201   0.638   4.492   6.074
  353SOL    HW218202   0.635   4.429   5.937
  354SOL     OW18203   4.307   5.245   0.715
  354SOL    HW118204   4.382   5.264   0.658
  354SOL    HW218205   4.335   5.171   0.768
  355SOL     OW18206   5.321   4.659   5.933
  355SOL    HW118207   5.408   4.699   5.938
  355SOL    HW218208   5.302   4.657   5.839
  356SOL     OW18209   3.012   2.092   6.904
  356SOL    HW118210   3.102   2.095   6.872
  356SOL    HW218211   2.983   2.183   6.906
  357SOL     OW18212   2.482   5.994   6.230
  357SOL    HW118213   2.558   5.939   6.247
  357SOL    HW218214   2.407   5.935   6.242
  358SOL     OW18215   5.165   5.943   6.810
  358SOL    HW118216   5.164   6.011   6.877
  358SOL    HW218217   5.117   5.981   6.736
  359SOL     OW18218   1.717   4.892   7.773
  359SOL    HW118219   1.700   4.947   7.849
  359SOL    HW218220   1.643   4.906   7.714
  360SOL     OW18221   4.691   3.079   1.281
  360SOL    HW118222   4.683   3.162   1.234
  360SOL    HW218223   4.778   3.085   1.323
  361SOL     OW18224   1.766   5.375   1.275
  361SOL    HW118225   1.727   5.401   1.192
  361SOL    HW218226   1.720   5.428   1.340
  362SOL     OW18227   2.288   2.699   0.431
  362SOL    HW118228   2.290   2.606   0.406
  362SOL    HW218229   2.356   2.740   0.379
  363SOL     OW18230   1.059   1.603   7.565
  363SOL    HW118231   1.104   1.676   7.522
  363SOL    HW218232   0.998   1.644   7.625
  364SOL     OW18233   0.168   1.231   7.025
  364SOL    HW118234   0.104   1.179   6.976
  364SOL    HW218235   0.222   1.166   7.070
  365SOL     OW18236   5.183   4.251   6.150
  365SOL    HW118237   5.157   4.329   6.101
  365SOL    HW218238   5.260   4.218   6.104
  366SOL     OW18239   3.016   4.093   0.607
  366SOL    HW118240   3.063   4.134   0.679
  366SOL    HW218241   2.932   4.140   0.604
  367SOL     OW18242   5.393   3.868   6.987
  367SOL    HW118243   5.421   3.829   7.070
  367SOL    HW218244   5.387   3.962   7.005
  368SOL     OW18245   4.263   4.174   6.878
  368SOL    HW118246   4.230   4.258   6.911
  368SOL    HW218247   4.354   4.171   6.908
  369SOL     OW18248   3.458   4.890   2.152
  369SOL    HW118249   3.468   4.795   2.160
  369SOL    HW218250   3.439   4.905   2.060
  370SOL     OW18251   4.831   0.626   0.209
  370SOL    HW118252   4.902   0.565   0.188
  370SOL    HW218253   4.773   0.576   0.267
  371SOL     OW18254   6.011   4.147   1.481
  371SOL    HW118255   5.983   4.166   1.570
  371SOL    HW218256   6.107   4.148   1.485
  372SOL     OW18257   6.080   1.944   0.936
  372SOL    HW118258   6.023   1.891   0.992
  372SOL    HW218259   6.169   1.917   0.960
  373SOL     OW18260   3.811   5.827   1.321
  373SOL    HW118261   3.886   5.863   1.275
  373SOL    HW218262   3.735   5.854   1.269
  374SOL     OW18263   3.191   1.607   5.739
  374SOL    HW118264   3.113   1.565   5.775
  374SOL    HW218265   3.214   1.555   5.662
  375SOL     OW18266   2.551   2.276   6.007
  375SOL    HW118267   2.646   2.275   6.010
  375SOL    HW218268   2.529   2.244   5.919
  376SOL     OW18269   1.153   4.966   6.955
  376SOL    HW118270   1.060   4.956   6.975
  376SOL    HW218271   1.171   4.896   6.892
  377SOL     OW18272   5.408   5.071   7.406
  377SOL    HW118273   5.491   5.039   7.371
  377SOL    HW218274   5.369   5.121   7.334
  378SOL     OW18275   5.954   3.430   5.889
  378SOL    HW118276   6.011   3.355   5.872
  378SOL    HW218277   5.974   3.492   5.820
  379SOL     OW18278   0.849   6.053   5.829
  379SOL    HW118279   0.921   6.028   5.771
  379SOL    HW218280   0.776   5.999   5.800
  380SOL     OW18281   6.059   3.146   7.263
  380SOL    HW118282   6.111   3.225   7.281
  380SOL    HW218283   5.975   3.179   7.233
  381SOL     OW18284   1.449   4.938   6.625
  381SOL    HW118285   1.456   4.873   6.555
  381SOL    HW218286   1.480   4.893   6.703
  382SOL     OW18287   1.962   1.332   6.666
  382SOL    HW118288   2.006   1.265   6.614
  382SOL    HW218289   1.882   1.351   6.617
  383SOL     OW18290   3.228   0.632   5.326
  383SOL    HW118291   3.306   0.602   5.280
  383SOL    HW218292   3.172   0.555   5.331
  384SOL     OW18293   3.724   6.082   0.087
  384SOL    HW118294   3.756   6.146   0.023
  384SOL    HW218295   3.754   6.116   0.171
  385SOL     OW18296   4.807   5.481   7.584
  385SOL    HW118297   4.820   5.449   7.673
  385SOL    HW218298   4.712   5.496   7.578
  386SOL     OW18299   5.410   6.017   7.242
  386SOL    HW118300   5.326   6.034   7.199
  386SOL    HW218301   5.387   5.996   7.333
  387SOL     OW18302   3.272   2.447   5.173
  387SOL    HW118303   3.258   2.519   5.112
  387SOL    HW218304   3.188   2.434   5.216
  388SOL     OW18305   2.838   4.342   0.591
  388SOL    HW118306   2.846   4.336   0.686
  388SOL    HW218307   2.744   4.356   0.576
  389SOL     OW18308   2.144   2.684   0.162
  389SOL    HW118309   2.159   2.767   0.207
  389SOL    HW218310   2.230   2.643   0.157
  390SOL     OW18311   2.941   4.815   0.228
  390SOL    HW118312   3.008   4.760   0.269
  390SOL    HW218313   2.962   4.813   0.135
  391SOL     OW18314   4.110   4.966   6.565
  391SOL    HW118315   4.099   5.008   6.479
  391SOL    HW218316   4.037   4.905   6.571
  392SOL     OW18317   6.413   1.451   1.390
  392SOL    HW118318   6.441   1.504   1.464
  392SOL    HW218319   6.456   1.367   1.402
  393SOL     OW18320   0.783   5.668   5.981
  393SOL    HW118321   0.736   5.736   6.029
  393SOL    HW218322   0.755   5.679   5.890
  394SOL     OW18323   1.708   2.220   5.350
  394SOL    HW118324   1.651   2.259   5.417
  394SOL    HW218325   1.796   2.246   5.376
  395SOL     OW18326   0.328   1.918   0.766
  395SOL    HW118327   0.377   1.956   0.838
  395SOL    HW218328   0.391   1.910   0.695
  396SOL     OW18329   0.089   5.143   1.539
  396SOL    HW118330   0.109   5.066   1.592
  396SOL    HW218331   0.078   5.214   1.603
  397SOL     OW18332   2.468   0.159   1.370
  397SOL    HW118333   2.407   0.107   1.421
  397SOL    HW218334   2.517   0.209   1.435
  398SOL     OW18335   5.169   6.174   5.301
  398SOL    HW118336   5.093   6.119   5.318
  398SOL    HW218337   5.147   6.222   5.222
  399SOL     OW18338   2.758   3.620   6.730
  399SOL    HW118339   2.757   3.680   6.804
  399SOL    HW218340   2.689   3.557   6.748
  400SOL     OW18341   4.813   1.148   7.147
  400SOL    HW118342   4.779   1.220   7.201
  400SOL    HW218343   4.847   1.191   7.068
  401SOL     OW18344   0.639   4.003   7.526
  401SOL    HW118345   0.735   3.995   7.524
  401SOL    HW218346   0.617   4.006   7.618
  402SOL     OW18347   0.291   4.085   6.875
  402SOL    HW118348   0.207   4.125   6.852
  402SOL    HW218349   0.303   4.107   6.967
  403SOL     OW18350   3.928   0.706   7.627
  403SOL    HW118351   3.975   0.789   7.628
  403SOL    HW218352   3.957   0.663   7.547
  404SOL     OW18353   4.411   5.767   1.109
  404SOL    HW118354   4.395   5.771   1.203
  404SOL    HW218355   4.399   5.857   1.079
  405SOL     OW18356   2.248   4.567   7.493
  405SOL    HW118357   2.322   4.518   7.528
  405SOL    HW218358   2.259   4.562   7.398
  406SOL     OW18359   0.912   0.453   0.948
  406SOL    HW118360   1.007   0.458   0.954
  406SOL    HW218361   0.884   0.543   0.930
  407SOL     OW18362   5.763   1.239   6.914
  407SOL    HW118363   5.753   1.189   6.995
  407SOL    HW218364   5.788   1.174   6.848
  408SOL     OW18365   1.029   0.570   6.387
  408SOL    HW118366   0.997   0.494   6.435
  408SOL    HW218367   0.959   0.591   6.326
  409SOL     OW18368   2.533   4.395   1.393
  409SOL    HW118369   2.576   4.322   1.348
  409SOL    HW218370   2.549   4.378   1.486
  410SOL     OW18371   4.334   2.232   0.759
  410SOL    HW118372   4.349   2.300   0.825
  410SOL    HW218373   4.280   2.275   0.693
  411SOL     OW18374   4.382   2.422   7.149
  411SOL    HW118375   4.360   2.489   7.085
  411SOL    HW218376   4.475   2.437   7.168
  412SOL     OW18377   3.370   1.502   1.872
  412SOL    HW118378   3.417   1.498   1.956
  412SOL    HW218379   3.331   1.415   1.862
  413SOL     OW18380   1.120   4.060   0.397
  413SOL    HW118381   1.173   4.124   0.443
  413SOL    HW218382   1.173   3.980   0.398
  414SOL     OW18383   5.152   2.582   1.310
  414SOL    HW118384   5.103   2.620   1.237
  414SOL    HW218385   5.230   2.544   1.269
  415SOL     OW18386   2.688   5.816   5.753
  415SOL    HW118387   2.608   5.798   5.704
  415SOL    HW218388   2.740   5.872   5.695
  416SOL     OW18389   3.659   1.329   1.808
  416SOL    HW118390   3.574   1.302   1.843
  416SOL    HW218391   3.713   1.344   1.885
  417SOL     OW18392   5.853   0.324   7.656
  417SOL    HW118393   5.845   0.394   7.721
  417SOL    HW218394   5.874   0.246   7.707
  418SOL     OW18395   3.553   0.427   1.220
  418SOL    HW118396   3.488   0.361   1.245
  418SOL    HW218397   3.569   0.476   1.301
  419SOL     OW18398   3.003   5.187   0.982
  419SOL    HW118399   3.025   5.098   1.009
  419SOL    HW218400   3.008   5.239   1.063
  420SOL     OW18401   1.977   6.225   0.226
  420SOL    HW118402   2.051   6.286   0.221
  420SOL    HW218403   1.919   6.252   0.155
  421SOL     OW18404   0.616   2.002   6.435
  421SOL    HW118405   0.696   1.959   6.464
  421SOL    HW218406   0.611   1.982   6.341
  422SOL     OW18407   1.860   3.041   6.206
  422SOL    HW118408   1.885   2.952   6.181
  422SOL    HW218409   1.932   3.096   6.177
  423SOL     OW18410   3.924   3.255   1.269
  423SOL    HW118411   4.017   3.275   1.260
  423SOL    HW218412   3.904   3.277   1.360
  424SOL     OW18413   3.791   3.705   7.375
  424SOL    HW118414   3.793   3.723   7.281
  424SOL    HW218415   3.773   3.611   7.381
  425SOL     OW18416   0.101   2.543   6.485
  425SOL    HW118417   0.026   2.600   6.464
  425SOL    HW218418   0.110   2.487   6.408
  426SOL     OW18419   5.301   2.608   0.236
  426SOL    HW118420   5.350   2.558   0.171
  426SOL    HW218421   5.307   2.557   0.316
  427SOL     OW18422   4.156   5.369   7.494
  427SOL    HW118423   4.092   5.440   7.492
  427SOL    HW218424   4.240   5.413   7.511
  428SOL     OW18425   3.140   3.771   6.845
  428SOL    HW118426   3.175   3.691   6.883
  428SOL    HW218427   3.094   3.814   6.918
  429SOL     OW18428   5.886   0.640   6.666
  429SOL    HW118429   5.850   0.724   6.639
  429SOL    HW218430   5.811   0.580   6.666
  430SOL     OW18431   3.739   5.325   0.223
  430SOL    HW118432   3.728   5.234   0.193
  430SOL    HW218433   3.706   5.378   0.150
  431SOL     OW18434   3.443   3.044   6.555
  431SOL    HW118435   3.407   2.963   6.590
  431SOL    HW218436   3.537   3.027   6.549
  432SOL     OW18437   3.785   0.714   7.002
  432SOL    HW118438   3.846   0.642   6.985
  432SOL    HW218439   3.753   0.739   6.915
  433SOL     OW18440   0.939   5.511   6.147
  433SOL    HW118441   0.981   5.454   6.081
  433SOL    HW218442   0.886   5.572   6.095
  434SOL     OW18443   0.233   1.679   0.859
  434SOL    HW118444   0.258   1.765   0.825
  434SOL    HW218445   0.189   1.636   0.785
  435SOL     OW18446   5.411   4.434   1.430
  435SOL    HW118447   5.438   4.388   1.509
  435SOL    HW218448   5.398   4.365   1.365
  436SOL     OW18449   3.107   2.687   1.964
  436SOL    HW118450   3.074   2.776   1.963
  436SOL    HW218451   3.162   2.682   2.042
  437SOL     OW18452   3.142   5.967   6.542
  437SOL    HW118453   3.203   6.014   6.599
  437SOL    HW218454   3.055   5.996   6.571
  438SOL     OW18455   2.423   3.903   7.420
  438SOL    HW118456   2.373   3.872   7.496
  438SOL    HW218457   2.383   3.859   7.346
  439SOL     OW18458   2.943   2.236   6.402
  439SOL    HW118459   2.935   2.174   6.475
  439SOL    HW218460   3.036   2.257   6.399
  440SOL     OW18461   0.722   0.159   7.471
  440SOL    HW118462   0.639   0.154   7.519
  440SOL    HW218463   0.715   0.241   7.422
  441SOL     OW18464   1.752   6.101   1.246
  441SOL    HW118465   1.707   6.043   1.306
  441SOL    HW218466   1.707   6.090   1.163
  442SOL     OW18467   4.622   6.343   7.218
  442SOL    HW118468   4.539   6.371   7.254
  442SOL    HW218469   4.600   6.265   7.165
  443SOL     OW18470   4.467   3.534   5.235
  443SOL    HW118471   4.441   3.443   5.224
  443SOL    HW218472   4.389   3.578   5.269
  444SOL     OW18473   2.496   1.420   6.608
  444SOL    HW118474   2.521   1.330   6.586
  444SOL    HW218475   2.555   1.444   6.680
  445SOL     OW18476   1.619   0.852   5.488
  445SOL    HW118477   1.582   0.828   5.403
  445SOL    HW218478   1.547   0.840   5.550
  446SOL     OW18479   5.699   2.087   6.097
  446SOL    HW118480   5.733   2.072   6.009
  446SOL    HW218481   5.698   2.182   6.108
  447SOL     OW18482   3.474   5.120   0.753
  447SOL    HW118483   3.515   5.183   0.813
  447SOL    HW218484   3.528   5.123   0.674
  448SOL     OW18485   3.140   0.792   0.230
  448SOL    HW118486   3.128   0.736   0.153
  448SOL    HW218487   3.195   0.741   0.289
  449SOL     OW18488   4.764   2.135   0.545
  449SOL    HW118489   4.779   2.135   0.639
  449SOL    HW218490   4.669   2.127   0.536
  450SOL     OW18491   1.735   2.776   6.773
  450SOL    HW118492   1.759   2.761   6.864
  450SOL    HW218493   1.642   2.752   6.769
  451SOL     OW18494   4.807   5.293   1.873
  451SOL    HW118495   4.803   5.324   1.963
  451SOL    HW218496   4.818   5.199   1.880
  452SOL     OW18497   4.745   4.817   0.856
  452SOL    HW118498   4.824   4.799   0.805
  452SOL    HW218499   4.695   4.878   0.802
  453SOL     OW18500   2.216   1.847   5.712
  453SOL    HW118501   2.209   1.752   5.701
  453SOL    HW218502   2.153   1.867   5.782
  454SOL     OW18503   2.392   1.776   7.793
  454SOL    HW118504   2.409   1.718   7.719
  454SOL    HW218505   2.439   1.736   7.867
  455SOL     OW18506   0.838   5.535   5.664
  455SOL    HW118507   0.792   5.617   5.681
  455SOL    HW218508   0.786   5.492   5.596
  456SOL     OW18509   5.449   4.302   7.212
  456SOL    HW118510   5.453   4.387   7.255
  456SOL    HW218511   5.460   4.321   7.119
  457SOL     OW18512   0.085   4.945   1.706
  457SOL    HW118513   0.048   4.868   1.749
  457SOL    HW218514   0.169   4.959   1.750
  458SOL     OW18515   1.190   2.112   5.750
  458SOL    HW118516   1.126   2.079   5.813
  458SOL    HW218517   1.199   2.205   5.771
  459SOL     OW18518   1.736   4.107   6.811
  459SOL    HW118519   1.692   4.127   6.894
  459SOL    HW218520   1.694   4.026   6.781
  460SOL     OW18521   1.622   5.489   2.072
  460SOL    HW118522   1.529   5.492   2.090
  460SOL    HW218523   1.646   5.397   2.083
  461SOL     OW18524   2.656   0.927   0.798
  461SOL    HW118525   2.729   0.908   0.739
  461SOL    HW218526   2.635   0.843   0.838
  462SOL     OW18527   3.689   1.952   7.467
  462SOL    HW118528   3.654   1.997   7.390
  462SOL    HW218529   3.775   1.992   7.481
  463SOL     OW18530   2.577   5.748   7.826
  463SOL    HW118531   2.485   5.722   7.822
  463SOL    HW218532   2.596   5.782   7.739
  464SOL     OW18533   5.346   3.911   2.069
  464SOL    HW118534   5.441   3.899   2.064
  464SOL    HW218535   5.331   3.995   2.025
  465SOL     OW18536   2.824   4.071   5.682
  465SOL    HW118537   2.836   4.115   5.766
  465SOL    HW218538   2.796   3.982   5.704
  466SOL     OW18539   5.424   5.768   7.786
  466SOL    HW118540   5.353   5.817   7.827
  466SOL    HW218541   5.496   5.774   7.848
  467SOL     OW18542   3.162   5.564   6.332
  467SOL    HW118543   3.100   5.560   6.260
  467SOL    HW218544   3.176   5.658   6.347
  468SOL     OW18545   0.930   5.142   1.089
  468SOL    HW118546   0.947   5.165   1.180
  468SOL    HW218547   0.929   5.047   1.088
  469SOL     OW18548   3.907   2.154   6.368
  469SOL    HW118549   3.863   2.202   6.438
  469SOL    HW218550   3.990   2.127   6.407
  470SOL     OW18551   0.782   0.583   5.342
  470SOL    HW118552   0.839   0.625   5.276
  470SOL    HW218553   0.840   0.568   5.417
  471SOL     OW18554   2.272   5.872   6.501
  471SOL    HW118555   2.246   5.887   6.410
  471SOL    HW218556   2.189   5.869   6.549
  472SOL     OW18557   1.890   0.871   0.666
  472SOL    HW118558   1.884   0.963   0.641
  472SOL    HW218559   1.971   0.841   0.626
  473SOL     OW18560   2.889   0.887   6.674
  473SOL    HW118561   2.918   0.900   6.764
  473SOL    HW218562   2.869   0.794   6.668
  474SOL     OW18563   2.132   3.088   0.567
  474SOL    HW118564   2.080   3.147   0.622
  474SOL    HW218565   2.190   3.043   0.628
  475SOL     OW18566   2.011   0.148   0.292
  475SOL    HW118567   2.021   0.062   0.251
  475SOL    HW218568   2.101   0.176   0.311
  476SOL     OW18569   2.293   5.913   1.903
  476SOL    HW118570   2.210   5.939   1.943
  476SOL    HW218571   2.299   5.819   1.920
  477SOL     OW18572   6.024   2.995   6.323
  477SOL    HW118573   5.959   2.933   6.290
  477SOL    HW218574   6.109   2.956   6.300
  478SOL     OW18575   2.863   1.608   0.887
  478SOL    HW118576   2.911   1.625   0.805
  478SOL    HW218577   2.775   1.641   0.869
  479SOL     OW18578   3.376   6.335   6.561
  479SOL    HW118579   3.402   6.424   6.584
  479SOL    HW218580   3.289   6.344   6.523
  480SOL     OW18581   0.414   2.223   6.494
  480SOL    HW118582   0.462   2.252   6.417
  480SOL    HW218583   0.429   2.128   6.498
  481SOL     OW18584   5.904   4.062   7.597
  481SOL    HW118585   5.984   4.016   7.572
  481SOL    HW218586   5.934   4.149   7.623
  482SOL     OW18587   2.959   2.803   1.107
  482SOL    HW118588   2.983   2.888   1.143
  482SOL    HW218589   2.893   2.822   1.040
  483SOL     OW18590   6.354   4.856   1.048
  483SOL    HW118591   6.366   4.910   1.126
  483SOL    HW218592   6.307   4.913   0.986
  484SOL     OW18593   2.938   4.702   5.540
  484SOL    HW118594   2.868   4.754   5.500
  484SOL    HW218595   2.949   4.739   5.627
  485SOL     OW18596   4.088   3.450   1.036
  485SOL    HW118597   4.180   3.432   1.020
  485SOL    HW218598   4.046   3.364   1.034
  486SOL     OW18599   0.776   1.357   0.700
  486SOL    HW118600   0.783   1.407   0.781
  486SOL    HW218601   0.866   1.333   0.679
  487SOL     OW18602   1.752   5.977   7.187
  487SOL    HW118603   1.670   5.978   7.237
  487SOL    HW218604   1.763   5.886   7.160
  488SOL     OW18605   4.945   3.396   7.597
  488SOL    HW118606   5.009   3.450   7.645
  488SOL    HW218607   4.930   3.321   7.655
  489SOL     OW18608   2.893   2.607   7.330
  489SOL    HW118609   2.907   2.679   7.392
  489SOL    HW218610   2.976   2.559   7.330
  490SOL     OW18611   1.852   0.161   0.550
  490SOL    HW118612   1.874   0.202   0.466
  490SOL    HW218613   1.863   0.231   0.614
  491SOL     OW18614   4.655   0.556   6.727
  491SOL    HW118615   4.703   0.545   6.645
  491SOL    HW218616   4.563   0.564   6.701
  492SOL     OW18617   3.438   5.340   1.470
  492SOL    HW118618   3.424   5.385   1.387
  492SOL    HW218619   3.373   5.269   1.469
  493SOL     OW18620   1.527   3.041   0.640
  493SOL    HW118621   1.477   3.019   0.719
  493SOL    HW218622   1.461   3.075   0.579
  494SOL     OW18623   4.691   1.478   0.438
  494SOL    HW118624   4.714   1.571   0.431
  494SOL    HW218625   4.763   1.439   0.488
  495SOL     OW18626   3.269   1.691   0.249
  495SOL    HW118627   3.201   1.738   0.297
  495SOL    HW218628   3.253   1.713   0.157
  496SOL     OW18629   2.186   4.280   6.874
  496SOL    HW118630   2.128   4.205   6.892
  496SOL    HW218631   2.267   4.239   6.842
  497SOL     OW18632   0.375   2.957   1.642
  497SOL    HW118633   0.300   3.005   1.608
  497SOL    HW218634   0.376   2.978   1.736
  498SOL     OW18635   3.818   0.535   2.263
  498SOL    HW118636   3.861   0.576   2.339
  498SOL    HW218637   3.752   0.477   2.300
  499SOL     OW18638   5.274   5.677   7.435
  499SOL    HW118639   5.301   5.596   7.479
  499SOL    HW218640   5.214   5.648   7.367
  500SOL     OW18641   2.866   0.774   7.130
  500SOL    HW118642   2.911   0.716   7.068
  500SOL    HW218643   2.898   0.745   7.216
  501SOL     OW18644   2.208   1.406   1.939
  501SOL    HW118645   2.131   1.438   1.891
  501SOL    HW218646   2.210   1.312   1.921
  502SOL     OW18647   2.479   4.209   0.281
  502SOL    HW118648   2.558   4.263   0.284
  502SOL    HW218649   2.442   4.225   0.194
  503SOL     OW18650   0.150   2.412   0.714
  503SOL    HW118651   0.185   2.500   0.728
  503SOL    HW218652   0.063   2.427   0.677
  504SOL     OW18653   3.678   3.892   0.657
  504SOL    HW118654   3.663   3.858   0.569
  504SOL    HW218655   3.725   3.974   0.643
  505SOL     OW18656   0.607   1.417   1.298
  505SOL    HW118657   0.671   1.390   1.233
  505SOL    HW218658   0.636   1.504   1.325
  506SOL     OW18659   5.791   2.121   6.596
  506SOL    HW118660   5.747   2.186   6.541
  506SOL    HW218661   5.869   2.096   6.545
  507SOL     OW18662   1.308   4.085   6.567
  507SOL    HW118663   1.379   4.071   6.504
  507SOL    HW218664   1.282   4.176   6.554
  508SOL     OW18665   5.058   1.810   7.639
  508SOL    HW118666   5.150   1.796   7.664
  508SOL    HW218667   5.013   1.729   7.663
  509SOL     OW18668   3.741   3.190   0.447
  509SOL    HW118669   3.701   3.170   0.532
  509SOL    HW218670   3.666   3.210   0.390
  510SOL     OW18671   3.978   6.045   7.264
  510SOL    HW118672   3.890   6.009   7.259
  510SOL    HW218673   4.035   5.968   7.258
  511SOL     OW18674   1.656   1.512   0.522
  511SOL    HW118675   1.576   1.558   0.548
  511SOL    HW218676   1.626   1.431   0.483
  512SOL     OW18677   5.899   5.988   1.341
  512SOL    HW118678   5.936   6.064   1.385
  512SOL    HW218679   5.872   5.929   1.412
  513SOL     OW18680   4.165   3.723   0.535
  513SOL    HW118681   4.207   3.808   0.539
  513SOL    HW218682   4.078   3.740   0.497
  514SOL     OW18683   3.479   4.161   0.684
  514SOL    HW118684   3.483   4.066   0.681
  514SOL    HW218685   3.545   4.186   0.748
  515SOL     OW18686   0.637   5.466   6.509
  515SOL    HW118687   0.627   5.456   6.414
  515SOL    HW218688   0.590   5.391   6.545
  516SOL     OW18689   1.129   2.742   6.462
  516SOL    HW118690   1.061   2.762   6.525
  516SOL    HW218691   1.211   2.761   6.507
  517SOL     OW18692   5.350   5.700   6.831
  517SOL    HW118693   5.284   5.769   6.833
  517SOL    HW218694   5.302   5.622   6.803
  518SOL     OW18695   2.614   5.434   1.238
  518SOL    HW118696   2.615   5.371   1.166
  518SOL    HW218697   2.547   5.498   1.212
  519SOL     OW18698   4.802   5.850   6.249
  519SOL    HW118699   4.795   5.842   6.154
  519SOL    HW218700   4.716   5.881   6.276
  520SOL     OW18701   1.640   0.893   6.293
  520SOL    HW118702   1.658   0.861   6.205
  520SOL    HW218703   1.720   0.938   6.320
  521SOL     OW18704   2.074   1.521   6.808
  521SOL    HW118705   1.995   1.574   6.821
  521SOL    HW218706   2.042   1.440   6.768
  522SOL     OW18707   0.796   3.751   7.074
  522SOL    HW118708   0.703   3.771   7.070
  522SOL    HW218709   0.806   3.698   7.153
  523SOL     OW18710   1.148   4.775   1.308
  523SOL    HW118711   1.234   4.739   1.287
  523SOL    HW218712   1.158   4.813   1.395
  524SOL     OW18713   4.912   5.807   0.708
  524SOL    HW118714   4.837   5.826   0.651
  524SOL    HW218715   4.888   5.844   0.793
  525SOL     OW18716   5.823   5.568   7.469
  525SOL    HW118717   5.818   5.657   7.504
  525SOL    HW218718   5.734   5.533   7.480
  526SOL     OW18719   1.910   1.147   7.607
  526SOL    HW118720   1.919   1.118   7.516
  526SOL    HW218721   1.964   1.085   7.656
  527SOL     OW18722   3.373   0.268   6.384
  527SOL    HW118723   3.317   0.317   6.444
  527SOL    HW218724   3.455   0.256   6.432
  528SOL     OW18725   5.920   0.860   1.294
  528SOL    HW118726   6.014   0.865   1.309
  528SOL    HW218727   5.894   0.951   1.277
  529SOL     OW18728   5.765   2.778   0.279
  529SOL    HW118729   5.752   2.750   0.370
  529SOL    HW218730   5.709   2.720   0.228
  530SOL     OW18731   5.911   5.593   0.511
  530SOL    HW118732   5.975   5.559   0.574
  530SOL    HW218733   5.828   5.594   0.560
  531SOL     OW18734   4.539   1.400   0.723
  531SOL    HW118735   4.548   1.311   0.689
  531SOL    HW218736   4.466   1.437   0.674
  532SOL     OW18737   3.192   1.435   7.612
  532SOL    HW118738   3.228   1.522   7.598
  532SOL    HW218739   3.122   1.447   7.675
  533SOL     OW18740   4.197   4.257   1.883
  533SOL    HW118741   4.202   4.287   1.974
  533SOL    HW218742   4.253   4.180   1.880
  534SOL     OW18743   1.884   3.024   0.977
  534SOL    HW118744   1.969   3.051   1.011
  534SOL    HW218745   1.900   2.938   0.936
  535SOL     OW18746   3.453   3.562   0.252
  535SOL    HW118747   3.507   3.529   0.179
  535SOL    HW218748   3.455   3.657   0.240
  536SOL     OW18749   0.139   3.317   0.408
  536SOL    HW118750   0.199   3.355   0.343
  536SOL    HW218751   0.187   3.243   0.445
  537SOL     OW18752   1.898   2.979   5.888
  537SOL    HW118753   1.878   3.059   5.937
  537SOL    HW218754   1.985   2.994   5.852
  538SOL     OW18755   5.867   0.197   0.851
  538SOL    HW118756   5.813   0.274   0.834
  538SOL    HW218757   5.957   0.229   0.844
  539SOL     OW18758   2.590   4.334   5.217
  539SOL    HW118759   2.637   4.417   5.226
  539SOL    HW218760   2.525   4.336   5.287
  540SOL     OW18761   5.919   1.136   7.202
  540SOL    HW118762   5.853   1.197   7.236
  540SOL    HW218763   5.907   1.056   7.254
  541SOL     OW18764   4.994   0.555   5.723
  541SOL    HW118765   4.911   0.510   5.739
  541SOL    HW218766   5.050   0.528   5.796
  542SOL     OW18767   4.679   2.982   6.987
  542SOL    HW118768   4.753   2.977   6.925
  542SOL    HW218769   4.695   3.061   7.037
  543SOL     OW18770   4.418   0.253   6.867
  543SOL    HW118771   4.346   0.190   6.872
  543SOL    HW218772   4.491   0.204   6.829
  544SOL     OW18773   2.188   3.699   5.847
  544SOL    HW118774   2.277   3.665   5.836
  544SOL    HW218775   2.199   3.774   5.905
  545SOL     OW18776   1.037   1.002   0.114
  545SOL    HW118777   1.040   1.016   0.209
  545SOL    HW218778   1.044   0.907   0.103
  546SOL     OW18779   1.779   0.451   6.644
  546SOL    HW118780   1.766   0.357   6.654
  546SOL    HW218781   1.711   0.479   6.583
  547SOL     OW18782   2.673   5.470   5.281
  547SOL    HW118783   2.737   5.443   5.215
  547SOL    HW218784   2.695   5.562   5.300
  548SOL     OW18785   4.738   5.125   5.130
  548SOL    HW118786   4.758   5.033   5.148
  548SOL    HW218787   4.774   5.141   5.043
  549SOL     OW18788   2.207   3.383   5.572
  549SOL    HW118789   2.217   3.382   5.667
  549SOL    HW218790   2.179   3.472   5.551
  550SOL     OW18791   5.382   3.448   1.069
  550SOL    HW118792   5.354   3.367   1.027
  550SOL    HW218793   5.385   3.427   1.163
  551SOL     OW18794   5.540   2.042   0.433
  551SOL    HW118795   5.558   1.958   0.475
  551SOL    HW218796   5.471   2.022   0.369
  552SOL     OW18797   2.011   3.164   0.328
  552SOL    HW118798   1.995   3.255   0.352
  552SOL    HW218799   2.073   3.132   0.394
  553SOL     OW18800   3.966   2.477   5.997
  553SOL    HW118801   3.880   2.494   5.958
  553SOL    HW218802   3.957   2.392   6.041
  554SOL     OW18803   4.328   2.438   0.939
  554SOL    HW118804   4.244   2.473   0.969
  554SOL    HW218805   4.379   2.428   1.019
  555SOL     OW18806   4.384   3.363   1.244
  555SOL    HW118807   4.358   3.363   1.152
  555SOL    HW218808   4.343   3.285   1.281
  556SOL     OW18809   1.528   1.869   1.810
  556SOL    HW118810   1.547   1.958   1.777
  556SOL    HW218811   1.586   1.859   1.885
  557SOL     OW18812   4.017   5.866   6.829
  557SOL    HW118813   3.967   5.921   6.889
  557SOL    HW218814   3.990   5.777   6.850
  558SOL     OW18815   4.527   3.365   0.286
  558SOL    HW118816   4.590   3.378   0.216
  558SOL    HW218817   4.497   3.454   0.309
  559SOL     OW18818   4.584   1.901   6.435
  559SOL    HW118819   4.510   1.894   6.375
  559SOL    HW218820   4.660   1.878   6.381
  560SOL     OW18821   2.597   3.271   7.320
  560SOL    HW118822   2.651   3.307   7.250
  560SOL    HW218823   2.507   3.290   7.294
  561SOL     OW18824   4.613   4.439   5.679
  561SOL    HW118825   4.568   4.443   5.595
  561SOL    HW218826   4.544   4.453   5.744
  562SOL     OW18827   4.378   0.003   7.743
  562SOL    HW118828   4.410   0.092   7.729
  562SOL    HW218829   4.400  -0.044   7.663
  563SOL     OW18830   5.737   5.883   0.682
  563SOL    HW118831   5.723   5.919   0.769
  563SOL    HW218832   5.764   5.792   0.697
  564SOL     OW18833   0.364   2.697   7.277
  564SOL    HW118834   0.303   2.758   7.235
  564SOL    HW218835   0.450   2.725   7.246
  565SOL     OW18836   3.093   0.686   7.790
  565SOL    HW118837   3.049   0.757   7.742
  565SOL    HW218838   3.182   0.685   7.755
  566SOL     OW18839   6.436   0.328   7.378
  566SOL    HW118840   6.389   0.245   7.378
  566SOL    HW218841   6.484   0.328   7.461
  567SOL     OW18842   4.646   0.528   1.591
  567SOL    HW118843   4.666   0.560   1.679
  567SOL    HW218844   4.715   0.465   1.572
  568SOL     OW18845   3.733   2.320   7.227
  568SOL    HW118846   3.659   2.376   7.250
  568SOL    HW218847   3.808   2.362   7.267
  569SOL     OW18848   2.211   5.004   7.302
  569SOL    HW118849   2.244   5.056   7.229
  569SOL    HW218850   2.263   4.924   7.300
  570SOL     OW18851   3.252   4.978   7.731
  570SOL    HW118852   3.245   4.883   7.740
  570SOL    HW218853   3.286   5.008   7.815
  571SOL     OW18854   4.146   4.682   0.205
  571SOL    HW118855   4.082   4.753   0.200
  571SOL    HW218856   4.219   4.712   0.150
  572SOL     OW18857   0.501   6.258   7.636
  572SOL    HW118858   0.475   6.167   7.650
  572SOL    HW218859   0.519   6.264   7.542
  573SOL     OW18860   1.933   0.428   0.009
  573SOL    HW118861   1.886   0.466   0.083
  573SOL    HW218862   1.912   0.335   0.013
  574SOL     OW18863   4.309   3.785   6.022
  574SOL    HW118864   4.364   3.774   5.945
  574SOL    HW218865   4.225   3.817   5.988
  575SOL     OW18866   0.293   0.552   0.999
  575SOL    HW118867   0.358   0.562   1.068
  575SOL    HW218868   0.223   0.501   1.038
  576SOL     OW18869   4.409   4.221   6.090
  576SOL    HW118870   4.471   4.148   6.089
  576SOL    HW218871   4.434   4.274   6.014
  577SOL     OW18872   5.842   5.352   1.092
  577SOL    HW118873   5.934   5.364   1.069
  577SOL    HW218874   5.844   5.284   1.160
  578SOL     OW18875   3.856   3.558   6.665
  578SOL    HW118876   3.814   3.592   6.743
  578SOL    HW218877   3.848   3.628   6.600
  579SOL     OW18878   3.734   3.559   0.115
  579SOL    HW118879   3.795   3.560   0.041
  579SOL    HW218880   3.773   3.499   0.178
  580SOL     OW18881   3.716   2.760   1.072
  580SOL    HW118882   3.741   2.796   0.986
  580SOL    HW218883   3.715   2.665   1.058
  581SOL     OW18884   2.477   1.614   7.558
  581SOL    HW118885   2.411   1.593   7.492
  581SOL    HW218886   2.544   1.663   7.510
  582SOL     OW18887   3.060   4.763   5.123
  582SOL    HW118888   3.069   4.830   5.191
  582SOL    HW218889   3.100   4.803   5.045
  583SOL     OW18890   1.956   1.878   0.942
  583SOL    HW118891   1.963   1.806   1.004
  583SOL    HW218892   2.044   1.915   0.937
  584SOL     OW18893   2.554   0.542   1.934
  584SOL    HW118894   2.570   0.624   1.981
  584SOL    HW218895   2.565   0.474   2.001
  585SOL     OW18896   5.594   4.520   7.220
  585SOL    HW118897   5.607   4.605   7.261
  585SOL    HW218898   5.657   4.462   7.263
  586SOL     OW18899   0.307   3.494   7.100
  586SOL    HW118900   0.347   3.523   7.182
  586SOL    HW218901   0.326   3.400   7.095
  587SOL     OW18902   3.783   5.993   0.533
  587SOL    HW118903   3.789   6.070   0.476
  587SOL    HW218904   3.860   5.998   0.589
  588SOL     OW18905   0.447   2.813   5.448
  588SOL    HW118906   0.397   2.862   5.513
  588SOL    HW218907   0.380   2.770   5.394
  589SOL     OW18908   3.272   2.291   0.165
  589SOL    HW118909   3.282   2.385   0.173
  589SOL    HW218910   3.329   2.254   0.232
  590SOL     OW18911   3.118   4.014   1.173
  590SOL    HW118912   3.150   3.925   1.155
  590SOL    HW218913   3.140   4.029   1.265
  591SOL     OW18914   4.892   5.291   5.294
  591SOL    HW118915   4.829   5.248   5.236
  591SOL    HW218916   4.978   5.269   5.257
  592SOL     OW18917   5.296   3.204   1.814
  592SOL    HW118918   5.371   3.256   1.784
  592SOL    HW218919   5.220   3.260   1.799
  593SOL     OW18920   1.361   5.335   6.190
  593SOL    HW118921   1.408   5.263   6.230
  593SOL    HW218922   1.271   5.325   6.222
  594SOL     OW18923   0.753   2.373   1.472
  594SOL    HW118924   0.848   2.378   1.473
  594SOL    HW218925   0.732   2.299   1.528
  595SOL     OW18926   1.547   0.354   1.334
  595SOL    HW118927   1.557   0.261   1.315
  595SOL    HW218928   1.475   0.383   1.278
  596SOL     OW18929   2.060   1.895   1.526
  596SOL    HW118930   2.050   1.916   1.433
  596SOL    HW218931   1.978   1.923   1.566
  597SOL     OW18932   3.366   4.266   7.353
  597SOL    HW118933   3.344   4.194   7.412
  597SOL    HW218934   3.432   4.230   7.294
  598SOL     OW18935   4.639   3.591   6.326
  598SOL    HW118936   4.554   3.572   6.288
  598SOL    HW218937   4.619   3.627   6.413
  599SOL     OW18938   6.252   6.414   1.775
  599SOL    HW118939   6.248   6.328   1.817
  599SOL    HW218940   6.161   6.432   1.749
  600SOL     OW18941   3.949   5.947   7.699
  600SOL    HW118942   3.899   5.867   7.717
  600SOL    HW218943   3.889   6.001   7.648
  601SOL     OW18944   1.590   6.204   1.708
  601SOL    HW118945   1.569   6.114   1.682
  601SOL    HW218946   1.565   6.209   1.800
  602SOL     OW18947   2.546   1.931   7.199
  602SOL    HW118948   2.455   1.949   7.174
  602SOL    HW218949   2.591   2.014   7.190
  603SOL     OW18950   1.707   0.336   6.193
  603SOL    HW118951   1.629   0.385   6.166
  603SOL    HW218952   1.746   0.389   6.263
  604SOL     OW18953   4.564   0.063   1.635
  604SOL    HW118954   4.499   0.013   1.684
  604SOL    HW218955   4.619  -0.004   1.594
  605SOL     OW18956   5.992   6.388   1.756
  605SOL    HW118957   5.911   6.427   1.725
  605SOL    HW218958   5.980   6.294   1.741
  606SOL     OW18959   0.811   6.042   7.418
  606SOL    HW118960   0.858   6.008   7.494
  606SOL    HW218961   0.780   6.128   7.446
  607SOL     OW18962   1.485   4.104   6.996
  607SOL    HW118963   1.443   4.033   6.947
  607SOL    HW218964   1.510   4.063   7.079
  608SOL     OW18965   6.372   3.929   0.506
  608SOL    HW118966   6.307   3.878   0.458
  608SOL    HW218967   6.420   3.864   0.558
  609SOL     OW18968   2.518   6.146   6.506
  609SOL    HW118969   2.527   6.237   6.476
  609SOL    HW218970   2.504   6.096   6.426
  610SOL     OW18971   4.902   5.641   7.389
  610SOL    HW118972   4.875   5.585   7.463
  610SOL    HW218973   4.831   5.704   7.381
  611SOL     OW18974   3.752   4.342   0.253
  611SOL    HW118975   3.714   4.417   0.206
  611SOL    HW218976   3.814   4.304   0.191
  612SOL     OW18977   3.006   5.284   0.719
  612SOL    HW118978   3.101   5.293   0.709
  612SOL    HW218979   2.995   5.237   0.802
  613SOL     OW18980   2.352   5.300   5.759
  613SOL    HW118981   2.328   5.342   5.842
  613SOL    HW218982   2.279   5.318   5.700
  614SOL     OW18983   6.402   3.745   0.156
  614SOL    HW118984   6.367   3.656   0.162
  614SOL    HW218985   6.483   3.736   0.106
  615SOL     OW18986   2.034   4.075   6.886
  615SOL    HW118987   1.949   4.069   6.843
  615SOL    HW218988   2.048   3.988   6.923
  616SOL     OW18989   1.741   1.169   7.344
  616SOL    HW118990   1.736   1.081   7.380
  616SOL    HW218991   1.765   1.156   7.252
  617SOL     OW18992   4.752   4.604   6.435
  617SOL    HW118993   4.804   4.526   6.421
  617SOL    HW218994   4.790   4.646   6.512
  618SOL     OW18995   0.235   1.583   6.581
  618SOL    HW118996   0.291   1.645   6.627
  618SOL    HW218997   0.283   1.562   6.501
  619SOL     OW18998   5.489   6.301   6.767
  619SOL    HW118999   5.488   6.207   6.751
  619SOL    HW219000   5.398   6.322   6.788
  620SOL     OW19001   2.838   6.131   7.002
  620SOL    HW119002   2.760   6.180   7.026
  620SOL    HW219003   2.868   6.091   7.084
  621SOL     OW19004   3.217   2.643   4.987
  621SOL    HW119005   3.154   2.689   4.930
  621SOL    HW219006   3.266   2.713   5.030
  622SOL     OW19007   2.261   2.477   0.749
  622SOL    HW119008   2.201   2.468   0.674
  622SOL    HW219009   2.254   2.569   0.774
  623SOL     OW19010   0.734   2.176   1.070
  623SOL    HW119011   0.734   2.220   0.985
  623SOL    HW219012   0.805   2.219   1.119
  624SOL     OW19013   3.819   3.251   6.481
  624SOL    HW119014   3.884   3.254   6.551
  624SOL    HW219015   3.735   3.258   6.527
  625SOL     OW19016   3.437   1.137   7.030
  625SOL    HW119017   3.443   1.232   7.036
  625SOL    HW219018   3.527   1.107   7.035
  626SOL     OW19019   5.909   3.862   6.315
  626SOL    HW119020   6.000   3.881   6.339
  626SOL    HW219021   5.901   3.767   6.327
  627SOL     OW19022   1.967   2.785   5.603
  627SOL    HW119023   1.919   2.710   5.637
  627SOL    HW219024   1.904   2.857   5.602
  628SOL     OW19025   2.026   1.347   6.219
  628SOL    HW119026   2.024   1.300   6.136
  628SOL    HW219027   2.118   1.368   6.233
  629SOL     OW19028   0.021   1.075   7.653
  629SOL    HW119029   0.087   1.087   7.585
  629SOL    HW219030  -0.062   1.096   7.610
  630SOL     OW19031   5.183   0.969   0.746
  630SOL    HW119032   5.158   0.905   0.679
  630SOL    HW219033   5.253   0.926   0.795
  631SOL     OW19034   4.476   5.346   6.371
  631SOL    HW119035   4.460   5.341   6.465
  631SOL    HW219036   4.389   5.343   6.332
  632SOL     OW19037   4.451   0.571   0.932
  632SOL    HW119038   4.479   0.481   0.916
  632SOL    HW219039   4.404   0.568   1.015
  633SOL     OW19040   5.176   5.337   0.004
  633SOL    HW119041   5.252   5.389  -0.022
  633SOL    HW219042   5.203   5.293   0.085
  634SOL     OW19043   6.042   2.211   0.812
  634SOL    HW119044   6.130   2.227   0.777
  634SOL    HW219045   6.049   2.127   0.857
  635SOL     OW19046   3.800   1.408   7.422
  635SOL    HW119047   3.793   1.423   7.516
  635SOL    HW219048   3.712   1.428   7.388
  636SOL     OW19049   4.873   6.280   1.634
  636SOL    HW119050   4.903   6.240   1.553
  636SOL    HW219051   4.813   6.216   1.672
  637SOL     OW19052   0.453   1.554   1.484
  637SOL    HW119053   0.406   1.473   1.502
  637SOL    HW219054   0.521   1.528   1.421
  638SOL     OW19055   3.735   5.221   5.845
  638SOL    HW119056   3.736   5.199   5.752
  638SOL    HW219057   3.656   5.179   5.879
  639SOL     OW19058   5.091   4.406   7.153
  639SOL    HW119059   5.045   4.481   7.114
  639SOL    HW219060   5.153   4.445   7.214
  640SOL     OW19061   4.691   5.797   7.347
  640SOL    HW119062   4.604   5.764   7.370
  640SOL    HW219063   4.682   5.892   7.349
  641SOL     OW19064   4.514   5.741   5.903
  641SOL    HW119065   4.427   5.701   5.908
  641SOL    HW219066   4.531   5.750   5.809
  642SOL     OW19067   0.085   6.076   7.474
  642SOL    HW119068   0.149   6.027   7.422
  642SOL    HW219069   0.019   6.103   7.411
  643SOL     OW19070   5.410   2.596   7.570
  643SOL    HW119071   5.406   2.638   7.484
  643SOL    HW219072   5.319   2.574   7.590
  644SOL     OW19073   5.942   0.853   7.344
  644SOL    HW119074   6.005   0.873   7.413
  644SOL    HW219075   5.863   0.825   7.391
  645SOL     OW19076   5.613   3.221   6.491
  645SOL    HW119077   5.687   3.258   6.539
  645SOL    HW219078   5.552   3.194   6.559
  646SOL     OW19079   1.982   1.334   0.149
  646SOL    HW119080   2.009   1.263   0.090
  646SOL    HW219081   1.990   1.413   0.096
  647SOL     OW19082   5.971   5.392   2.279
  647SOL    HW119083   5.980   5.316   2.222
  647SOL    HW219084   5.877   5.400   2.295
  648SOL     OW19085   2.343   4.432   7.058
  648SOL    HW119086   2.305   4.412   7.144
  648SOL    HW219087   2.304   4.368   6.999
  649SOL     OW19088   3.026   3.077   1.502
  649SOL    HW119089   3.103   3.095   1.555
  649SOL    HW219090   2.954   3.070   1.564
  650SOL     OW19091   3.905   3.473   5.411
  650SOL    HW119092   3.944   3.386   5.405
  650SOL    HW219093   3.834   3.471   5.346
  651SOL     OW19094   1.237   6.233   5.838
  651SOL    HW119095   1.300   6.249   5.768
  651SOL    HW219096   1.190   6.154   5.811
  652SOL     OW19097   0.438   3.138   7.447
  652SOL    HW119098   0.519   3.110   7.404
  652SOL    HW219099   0.368   3.100   7.395
  653SOL     OW19100   5.212   2.860   2.053
  653SOL    HW119101   5.216   2.766   2.037
  653SOL    HW219102   5.272   2.875   2.126
  654SOL     OW19103   1.823   1.792   7.096
  654SOL    HW119104   1.889   1.849   7.057
  654SOL    HW219105   1.850   1.704   7.071
  655SOL     OW19106   1.038   2.959   6.175
  655SOL    HW119107   1.037   3.032   6.237
  655SOL    HW219108   1.130   2.933   6.169
  656SOL     OW19109   4.444   1.973   1.425
  656SOL    HW119110   4.354   1.972   1.392
  656SOL    HW219111   4.436   1.950   1.518
  657SOL     OW19112   3.907   3.113   2.039
  657SOL    HW119113   3.844   3.137   2.108
  657SOL    HW219114   3.990   3.152   2.068
  658SOL     OW19115   0.822   5.811   1.435
  658SOL    HW119116   0.761   5.740   1.418
  658SOL    HW219117   0.807   5.834   1.527
  659SOL     OW19118   4.433   1.778   6.659
  659SOL    HW119119   4.491   1.825   6.599
  659SOL    HW219120   4.411   1.697   6.613
  660SOL     OW19121   2.189   1.337   7.573
  660SOL    HW119122   2.134   1.292   7.638
  660SOL    HW219123   2.272   1.291   7.576
  661SOL     OW19124   2.559   0.029   7.630
  661SOL    HW119125   2.594  -0.027   7.699
  661SOL    HW219126   2.580   0.118   7.658
  662SOL     OW19127   2.322   2.378   0.428
  662SOL    HW119128   2.304   2.333   0.345
  662SOL    HW219129   2.236   2.391   0.468
  663SOL     OW19130   0.454   2.816   0.502
  663SOL    HW119131   0.397   2.829   0.426
  663SOL    HW219132   0.393   2.803   0.574
  664SOL     OW19133   4.206   2.769   1.940
  664SOL    HW119134   4.128   2.822   1.928
  664SOL    HW219135   4.277   2.832   1.949
  665SOL     OW19136   1.868   1.098   6.316
  665SOL    HW119137   1.960   1.103   6.290
  665SOL    HW219138   1.823   1.159   6.256
  666SOL     OW19139   4.476   2.839   0.227
  666SOL    HW119140   4.408   2.804   0.170
  666SOL    HW219141   4.554   2.787   0.206
  667SOL     OW19142   5.740   2.984   7.660
  667SOL    HW119143   5.767   3.001   7.750
  667SOL    HW219144   5.797   2.913   7.631
  668SOL     OW19145   1.214   5.110   7.382
  668SOL    HW119146   1.269   5.068   7.315
  668SOL    HW219147   1.210   5.202   7.356
  669SOL     OW19148   2.833   3.075   5.676
  669SOL    HW119149   2.821   3.167   5.699
  669SOL    HW219150   2.804   3.069   5.585
  670SOL     OW19151   2.376   0.303   6.447
  670SOL    HW119152   2.297   0.276   6.494
  670SOL    HW219153   2.441   0.236   6.468
  671SOL     OW19154   1.561   2.147   6.719
  671SOL    HW119155   1.624   2.159   6.790
  671SOL    HW219156   1.551   2.234   6.681
  672SOL     OW19157   1.790   0.487   7.372
  672SOL    HW119158   1.807   0.518   7.461
  672SOL    HW219159   1.865   0.519   7.321
  673SOL     OW19160   0.427   0.155   6.330
  673SOL    HW119161   0.419   0.172   6.236
  673SOL    HW219162   0.506   0.202   6.356
  674SOL     OW19163   2.707   4.653   0.171
  674SOL    HW119164   2.795   4.689   0.156
  674SOL    HW219165   2.674   4.702   0.246
  675SOL     OW19166   3.314   0.536   7.788
  675SOL    HW119167   3.402   0.503   7.806
  675SOL    HW219168   3.257   0.460   7.803
  676SOL     OW19169   2.571   6.203   7.149
  676SOL    HW119170   2.603   6.241   7.231
  676SOL    HW219171   2.539   6.116   7.174
  677SOL     OW19172   4.682   3.766   7.456
  677SOL    HW119173   4.748   3.835   7.452
  677SOL    HW219174   4.732   3.685   7.449
  678SOL     OW19175   1.555   5.083   0.795
  678SOL    HW119176   1.591   5.014   0.740
  678SOL    HW219177   1.630   5.135   0.822
  679SOL     OW19178   1.100   1.738   0.078
  679SOL    HW119179   1.125   1.747   0.170
  679SOL    HW219180   1.169   1.684   0.039
  680SOL     OW19181   1.960   4.686   5.083
  680SOL    HW119182   1.992   4.776   5.084
  680SOL    HW219183   1.997   4.647   5.004
  681SOL     OW19184   5.893   1.759   1.063
  681SOL    HW119185   5.827   1.797   1.121
  681SOL    HW219186   5.846   1.743   0.981
  682SOL     OW19187   1.776   4.833   5.726
  682SOL    HW119188   1.681   4.836   5.739
  682SOL    HW219189   1.812   4.855   5.812
  683SOL     OW19190   4.437   0.365   7.494
  683SOL    HW119191   4.498   0.438   7.489
  683SOL    HW219192   4.451   0.316   7.413
  684SOL     OW19193   2.501   4.153   0.866
  684SOL    HW119194   2.542   4.072   0.834
  684SOL    HW219195   2.506   4.213   0.792
  685SOL     OW19196   4.909   5.261   5.880
  685SOL    HW119197   4.943   5.182   5.839
  685SOL    HW219198   4.860   5.230   5.956
  686SOL     OW19199   4.052   0.955   0.312
  686SOL    HW119200   4.142   0.986   0.301
  686SOL    HW219201   4.017   0.952   0.223
  687SOL     OW19202   4.167   0.026   1.777
  687SOL    HW119203   4.188   0.027   1.871
  687SOL    HW219204   4.187  -0.063   1.749
  688SOL     OW19205   0.935   1.191   1.973
  688SOL    HW119206   0.870   1.125   1.950
  688SOL    HW219207   0.900   1.273   1.937
  689SOL     OW19208   2.874   1.842   1.914
  689SOL    HW119209   2.853   1.876   2.001
  689SOL    HW219210   2.903   1.918   1.865
  690SOL     OW19211   2.235   1.927   6.314
  690SOL    HW119212   2.271   1.996   6.370
  690SOL    HW219213   2.208   1.973   6.234
  691SOL     OW19214   5.507   3.890   5.416
  691SOL    HW119215   5.551   3.910   5.499
  691SOL    HW219216   5.417   3.869   5.441
  692SOL     OW19217   4.394   2.612   6.431
  692SOL    HW119218   4.406   2.651   6.344
  692SOL    HW219219   4.399   2.518   6.416
  693SOL     OW19220   5.778   2.827   6.208
  693SOL    HW119221   5.747   2.743   6.174
  693SOL    HW219222   5.706   2.860   6.261
  694SOL     OW19223   2.967   1.391   0.198
  694SOL    HW119224   3.029   1.318   0.198
  694SOL    HW219225   2.995   1.446   0.124
  695SOL     OW19226   6.099   4.570   0.505
  695SOL    HW119227   6.181   4.618   0.516
  695SOL    HW219228   6.031   4.631   0.534
  696SOL     OW19229   0.776   3.919   1.994
  696SOL    HW119230   0.770   3.859   1.920
  696SOL    HW219231   0.865   3.955   1.989
  697SOL     OW19232   3.549   2.641   5.334
  697SOL    HW119233   3.602   2.648   5.255
  697SOL    HW219234   3.517   2.551   5.334
  698SOL     OW19235   4.017   0.969   7.694
  698SOL    HW119236   4.084   1.006   7.751
  698SOL    HW219237   3.961   1.043   7.671
  699SOL     OW19238   5.335   5.782   5.781
  699SOL    HW119239   5.417   5.744   5.749
  699SOL    HW219240   5.320   5.739   5.865
  700SOL     OW19241   0.847   2.418   0.487
  700SOL    HW119242   0.829   2.509   0.513
  700SOL    HW219243   0.902   2.427   0.409
  701SOL     OW19244   2.072   5.959   6.993
  701SOL    HW119245   2.119   5.881   6.963
  701SOL    HW219246   1.989   5.957   6.945
  702SOL     OW19247   5.514   5.182   6.142
  702SOL    HW119248   5.470   5.110   6.097
  702SOL    HW219249   5.576   5.215   6.077
  703SOL     OW19250   2.804   6.447   1.002
  703SOL    HW119251   2.867   6.421   1.070
  703SOL    HW219252   2.807   6.375   0.939
  704SOL     OW19253   2.689   4.373   0.252
  704SOL    HW119254   2.699   4.340   0.163
  704SOL    HW219255   2.730   4.459   0.251
  705SOL     OW19256   2.190   6.115   0.624
  705SOL    HW119257   2.233   6.075   0.700
  705SOL    HW219258   2.098   6.119   0.648
  706SOL     OW19259   6.047   3.211   5.573
  706SOL    HW119260   5.964   3.256   5.560
  706SOL    HW219261   6.095   3.225   5.492
  707SOL     OW19262   0.587   1.746   5.853
  707SOL    HW119263   0.629   1.825   5.886
  707SOL    HW219264   0.609   1.678   5.917
  708SOL     OW19265   2.763   1.947   1.278
  708SOL    HW119266   2.827   1.884   1.246
  708SOL    HW219267   2.680   1.898   1.279
  709SOL     OW19268   5.683   1.786   6.589
  709SOL    HW119269   5.710   1.696   6.606
  709SOL    HW219270   5.758   1.839   6.615
  710SOL     OW19271   3.360   4.644   6.599
  710SOL    HW119272   3.373   4.691   6.517
  710SOL    HW219273   3.283   4.589   6.584
  711SOL     OW19274   1.500   0.086   5.436
  711SOL    HW119275   1.470   0.000   5.409
  711SOL    HW219276   1.430   0.120   5.491
  712SOL     OW19277   0.942   0.444   1.230
  712SOL    HW119278   0.895   0.436   1.147
  712SOL    HW219279   0.964   0.354   1.254
  713SOL     OW19280   3.870   1.189   7.649
  713SOL    HW119281   3.830   1.262   7.696
  713SOL    HW219282   3.798   1.127   7.634
  714SOL     OW19283   2.143   2.874   2.193
  714SOL    HW119284   2.067   2.855   2.138
  714SOL    HW219285   2.179   2.956   2.157
  715SOL     OW19286   2.248   1.506   6.292
  715SOL    HW119287   2.328   1.540   6.331
  715SOL    HW219288   2.178   1.560   6.330
  716SOL     OW19289   5.315   5.076   6.473
  716SOL    HW119290   5.355   5.136   6.536
  716SOL    HW219291   5.388   5.025   6.439
  717SOL     OW19292   2.422   4.583   0.807
  717SOL    HW119293   2.513   4.596   0.835
  717SOL    HW219294   2.389   4.515   0.867
  718SOL     OW19295   1.576   5.710   0.634
  718SOL    HW119296   1.571   5.754   0.549
  718SOL    HW219297   1.646   5.755   0.680
  719SOL     OW19298   2.891   6.099   0.316
  719SOL    HW119299   2.860   6.114   0.405
  719SOL    HW219300   2.813   6.071   0.268
  720SOL     OW19301   2.346   3.246   1.553
  720SOL    HW119302   2.299   3.311   1.605
  720SOL    HW219303   2.436   3.278   1.550
  721SOL     OW19304   4.538   2.208   1.147
  721SOL    HW119305   4.450   2.241   1.167
  721SOL    HW219306   4.527   2.114   1.136
  722SOL     OW19307   1.581   5.683   6.194
  722SOL    HW119308   1.569   5.708   6.286
  722SOL    HW219309   1.603   5.590   6.198
  723SOL     OW19310   5.413   0.319   0.491
  723SOL    HW119311   5.393   0.404   0.530
  723SOL    HW219312   5.332   0.269   0.499
  724SOL     OW19313   5.928   5.187   1.680
  724SOL    HW119314   5.935   5.273   1.722
  724SOL    HW219315   5.869   5.138   1.738
  725SOL     OW19316   6.350   5.803   6.974
  725SOL    HW119317   6.404   5.881   6.961
  725SOL    HW219318   6.335   5.768   6.887
  726SOL     OW19319   0.311   0.974   0.095
  726SOL    HW119320   0.384   0.925   0.133
  726SOL    HW219321   0.348   1.059   0.071
  727SOL     OW19322   5.191   5.891   0.364
  727SOL    HW119323   5.119   5.834   0.336
  727SOL    HW219324   5.230   5.846   0.438
  728SOL     OW19325   0.916   1.946   6.214
  728SOL    HW119326   0.859   1.874   6.241
  728SOL    HW219327   0.920   1.939   6.119
  729SOL     OW19328   4.183   4.535   1.611
  729SOL    HW119329   4.269   4.577   1.614
  729SOL    HW219330   4.160   4.522   1.703
  730SOL     OW19331   1.617   5.409   1.050
  730SOL    HW119332   1.600   5.482   0.991
  730SOL    HW219333   1.531   5.378   1.076
  731SOL     OW19334   5.900   5.189   2.087
  731SOL    HW119335   5.951   5.248   2.031
  731SOL    HW219336   5.809   5.219   2.077
  732SOL     OW19337   4.803   1.499   0.151
  732SOL    HW119338   4.729   1.438   0.146
  732SOL    HW219339   4.856   1.465   0.223
  733SOL     OW19340   5.799   2.102   7.173
  733SOL    HW119341   5.741   2.125   7.100
  733SOL    HW219342   5.877   2.065   7.131
  734SOL     OW19343   5.058   1.344   6.632
  734SOL    HW119344   5.143   1.335   6.674
  734SOL    HW219345   4.998   1.368   6.703
  735SOL     OW19346   1.034   2.091   6.687
  735SOL    HW119347   1.009   2.055   6.772
  735SOL    HW219348   1.129   2.106   6.694
  736SOL     OW19349   6.384   5.288   6.894
  736SOL    HW119350   6.352   5.198   6.889
  736SOL    HW219351   6.328   5.336   6.833
  737SOL     OW19352   3.354   5.683   0.134
  737SOL    HW119353   3.387   5.594   0.140
  737SOL    HW219354   3.432   5.738   0.131
  738SOL     OW19355   1.309   0.626   7.182
  738SOL    HW119356   1.397   0.610   7.149
  738SOL    HW219357   1.302   0.721   7.188
  739SOL     OW19358   1.491   5.776   7.554
  739SOL    HW119359   1.574   5.730   7.569
  739SOL    HW219360   1.463   5.804   7.641
  740SOL     OW19361   3.832   1.661   0.321
  740SOL    HW119362   3.739   1.664   0.302
  740SOL    HW219363   3.849   1.570   0.345
  741SOL     OW19364   6.417   6.061   6.028
  741SOL    HW119365   6.430   6.155   6.014
  741SOL    HW219366   6.326   6.045   6.002
  742SOL     OW19367   2.693   4.337   6.086
  742SOL    HW119368   2.742   4.383   6.155
  742SOL    HW219369   2.671   4.405   6.023
  743SOL     OW19370   1.968   1.517   4.931
  743SOL    HW119371   1.915   1.597   4.934
  743SOL    HW219372   1.925   1.458   4.992
  744SOL     OW19373   6.019   2.003   7.057
  744SOL    HW119374   6.029   2.017   6.963
  744SOL    HW219375   6.063   1.919   7.072
  745SOL     OW19376   1.442   4.976   6.039
  745SOL    HW119377   1.521   5.021   6.009
  745SOL    HW219378   1.376   4.995   5.972
  746SOL     OW19379   1.015   4.790   0.442
  746SOL    HW119380   1.023   4.702   0.407
  746SOL    HW219381   0.961   4.781   0.520
  747SOL     OW19382   2.009   6.206   2.302
  747SOL    HW119383   2.014   6.161   2.386
  747SOL    HW219384   2.037   6.141   2.238
  748SOL     OW19385   3.482   2.903   5.664
  748SOL    HW119386   3.526   2.825   5.629
  748SOL    HW219387   3.553   2.966   5.678
  749SOL     OW19388   1.199   3.604   7.818
  749SOL    HW119389   1.145   3.527   7.833
  749SOL    HW219390   1.151   3.676   7.859
  750SOL     OW19391   2.394   1.841   0.816
  750SOL    HW119392   2.323   1.867   0.757
  750SOL    HW219393   2.411   1.919   0.869
  751SOL     OW19394   5.160   0.943   7.249
  751SOL    HW119395   5.184   0.991   7.170
  751SOL    HW219396   5.070   0.970   7.267
  752SOL     OW19397   0.312   1.705   1.657
  752SOL    HW119398   0.322   1.651   1.736
  752SOL    HW219399   0.374   1.669   1.595
  753SOL     OW19400   2.992   5.357   1.207
  753SOL    HW119401   3.026   5.303   1.279
  753SOL    HW219402   2.942   5.426   1.250
  754SOL     OW19403   2.828   1.187   1.835
  754SOL    HW119404   2.867   1.257   1.887
  754SOL    HW219405   2.792   1.126   1.899
  755SOL     OW19406   1.119   3.551   1.008
  755SOL    HW119407   1.175   3.614   1.053
  755SOL    HW219408   1.177   3.477   0.988
  756SOL     OW19409   2.758   1.992   6.926
  756SOL    HW119410   2.766   1.921   6.989
  756SOL    HW219411   2.848   2.023   6.913
  757SOL     OW19412   5.940   0.604   5.860
  757SOL    HW119413   5.885   0.565   5.927
  757SOL    HW219414   6.026   0.611   5.901
  758SOL     OW19415   4.271   4.519   6.242
  758SOL    HW119416   4.269   4.424   6.249
  758SOL    HW219417   4.362   4.542   6.257
  759SOL     OW19418   5.618   1.894   6.932
  759SOL    HW119419   5.541   1.856   6.892
  759SOL    HW219420   5.665   1.819   6.968
  760SOL     OW19421   2.669   3.956   5.978
  760SOL    HW119422   2.735   4.025   5.967
  760SOL    HW219423   2.702   3.883   5.925
  761SOL     OW19424   2.501   5.967   1.217
  761SOL    HW119425   2.406   5.967   1.229
  761SOL    HW219426   2.521   6.057   1.190
  762SOL     OW19427   0.313   5.389   1.664
  762SOL    HW119428   0.228   5.371   1.703
  762SOL    HW219429   0.322   5.324   1.594
  763SOL     OW19430   1.201   1.924   6.032
  763SOL    HW119431   1.264   1.966   5.974
  763SOL    HW219432   1.116   1.961   6.005
  764SOL     OW19433   6.350   3.505   0.326
  764SOL    HW119434   6.302   3.486   0.246
  764SOL    HW219435   6.432   3.456   0.317
  765SOL     OW19436   0.389   4.891   6.001
  765SOL    HW119437   0.380   4.984   6.023
  765SOL    HW219438   0.308   4.869   5.955
  766SOL     OW19439   0.128   5.318   1.199
  766SOL    HW119440   0.161   5.289   1.284
  766SOL    HW219441   0.205   5.315   1.142
  767SOL     OW19442   3.983   4.532   7.691
  767SOL    HW119443   4.037   4.472   7.640
  767SOL    HW219444   4.037   4.610   7.701
  768SOL     OW19445   5.490   6.122   0.997
  768SOL    HW119446   5.457   6.045   1.044
  768SOL    HW219447   5.552   6.086   0.933
  769SOL     OW19448   0.790   0.808   2.047
  769SOL    HW119449   0.884   0.795   2.065
  769SOL    HW219450   0.787   0.876   1.980
  770SOL     OW19451   5.711   1.584   1.818
  770SOL    HW119452   5.660   1.508   1.790
  770SOL    HW219453   5.766   1.551   1.889
  771SOL     OW19454   0.863   0.335   0.537
  771SOL    HW119455   0.803   0.301   0.604
  771SOL    HW219456   0.819   0.412   0.503
  772SOL     OW19457   4.983   1.285   6.163
  772SOL    HW119458   5.054   1.221   6.162
  772SOL    HW219459   5.022   1.365   6.127
  773SOL     OW19460   0.682   1.337   0.354
  773SOL    HW119461   0.620   1.408   0.336
  773SOL    HW219462   0.764   1.367   0.314
  774SOL     OW19463   1.733   4.937   0.609
  774SOL    HW119464   1.765   4.847   0.619
  774SOL    HW219465   1.802   4.992   0.645
  775SOL     OW19466   4.672   5.529   6.517
  775SOL    HW119467   4.697   5.440   6.543
  775SOL    HW219468   4.627   5.565   6.594
  776SOL     OW19469   2.358   5.426   1.871
  776SOL    HW119470   2.345   5.464   1.784
  776SOL    HW219471   2.289   5.361   1.880
  777SOL     OW19472   1.446   0.186   6.012
  777SOL    HW119473   1.463   0.280   6.017
  777SOL    HW219474   1.469   0.162   5.922
  778SOL     OW19475   0.593   3.621   5.983
  778SOL    HW119476   0.615   3.562   5.911
  778SOL    HW219477   0.657   3.602   6.051
  779SOL     OW19478   5.445   0.756   7.592
  779SOL    HW119479   5.502   0.722   7.523
  779SOL    HW219480   5.409   0.837   7.555
  780SOL     OW19481   4.996   0.112   1.340
  780SOL    HW119482   4.950   0.069   1.268
  780SOL    HW219483   4.940   0.186   1.365
  781SOL     OW19484   5.068   5.850   5.851
  781SOL    HW119485   5.152   5.890   5.826
  781SOL    HW219486   5.087   5.804   5.932
  782SOL     OW19487   4.197   3.892   5.772
  782SOL    HW119488   4.199   3.985   5.795
  782SOL    HW219489   4.268   3.882   5.708
  783SOL     OW19490   1.016   3.107   1.446
  783SOL    HW119491   0.936   3.124   1.396
  783SOL    HW219492   1.059   3.192   1.453
  784SOL     OW19493   3.634   5.027   0.223
  784SOL    HW119494   3.542   5.026   0.197
  784SOL    HW219495   3.640   4.963   0.294
  785SOL     OW19496   1.342   5.807   1.793
  785SOL    HW119497   1.290   5.882   1.823
  785SOL    HW219498   1.363   5.758   1.872
  786SOL     OW19499   1.654   6.204   7.066
  786SOL    HW119500   1.710   6.243   6.998
  786SOL    HW219501   1.691   6.117   7.080
  787SOL     OW19502   0.874   6.068   1.866
  787SOL    HW119503   0.848   6.161   1.869
  787SOL    HW219504   0.831   6.034   1.787
  788SOL     OW19505   3.156   5.577   5.847
  788SOL    HW119506   3.124   5.524   5.775
  788SOL    HW219507   3.242   5.540   5.868
  789SOL     OW19508   5.665   1.350   7.473
  789SOL    HW119509   5.659   1.270   7.421
  789SOL    HW219510   5.753   1.348   7.510
  790SOL     OW19511   4.282   6.425   0.785
  790SOL    HW119512   4.270   6.393   0.874
  790SOL    HW219513   4.269   6.520   0.791
  791SOL     OW19514   1.870   2.893   0.172
  791SOL    HW119515   1.825   2.958   0.227
  791SOL    HW219516   1.963   2.913   0.183
  792SOL     OW19517   3.623   1.009   1.114
  792SOL    HW119518   3.605   1.084   1.171
  792SOL    HW219519   3.544   0.998   1.062
  793SOL     OW19520   4.489   1.696   7.523
  793SOL    HW119521   4.518   1.782   7.492
  793SOL    HW219522   4.525   1.635   7.459
  794SOL     OW19523   1.460   0.434   5.714
  794SOL    HW119524   1.440   0.527   5.727
  794SOL    HW219525   1.553   0.433   5.690
  795SOL     OW19526   6.376   6.155   0.683
  795SOL    HW119527   6.334   6.205   0.613
  795SOL    HW219528   6.424   6.219   0.734
  796SOL     OW19529   6.436   3.261   5.811
  796SOL    HW119530   6.489   3.199   5.761
  796SOL    HW219531   6.441   3.342   5.761
  797SOL     OW19532   1.729   1.545   0.088
  797SOL    HW119533   1.761   1.459   0.061
  797SOL    HW219534   1.778   1.565   0.168
  798SOL     OW19535   2.504   5.583   6.899
  798SOL    HW119536   2.473   5.669   6.929
  798SOL    HW219537   2.510   5.531   6.980
  799SOL     OW19538   5.745   0.749   0.295
  799SOL    HW119539   5.675   0.779   0.353
  799SOL    HW219540   5.816   0.723   0.353
  800SOL     OW19541   5.459   4.792   6.597
  800SOL    HW119542   5.484   4.833   6.679
  800SOL    HW219543   5.370   4.760   6.612
  801SOL     OW19544   3.424   5.514   5.914
  801SOL    HW119545   3.475   5.591   5.888
  801SOL    HW219546   3.421   5.519   6.010
  802SOL     OW19547   6.130   0.230   7.224
  802SOL    HW119548   6.174   0.146   7.231
  802SOL    HW219549   6.123   0.261   7.314
  803SOL     OW19550   5.765   4.213   1.619
  803SOL    HW119551   5.754   4.217   1.714
  803SOL    HW219552   5.727   4.129   1.595
  804SOL     OW19553   2.187   5.242   1.955
  804SOL    HW119554   2.210   5.215   2.044
  804SOL    HW219555   2.204   5.165   1.901
  805SOL     OW19556   0.167   1.159   7.401
  805SOL    HW119557   0.165   1.085   7.341
  805SOL    HW219558   0.134   1.233   7.349
  806SOL     OW19559   4.004   0.477   7.453
  806SOL    HW119560   3.954   0.457   7.374
  806SOL    HW219561   3.946   0.453   7.525
  807SOL     OW19562   0.205   1.041   1.694
  807SOL    HW119563   0.120   1.078   1.674
  807SOL    HW219564   0.212   0.964   1.637
  808SOL     OW19565   6.179   1.385   6.121
  808SOL    HW119566   6.161   1.471   6.083
  808SOL    HW219567   6.094   1.341   6.121
  809SOL     OW19568   6.248   2.218   6.672
  809SOL    HW119569   6.293   2.272   6.737
  809SOL    HW219570   6.318   2.189   6.613
  810SOL     OW19571   2.562   1.870   1.643
  810SOL    HW119572   2.477   1.907   1.666
  810SOL    HW219573   2.626   1.925   1.688
  811SOL     OW19574   6.433   3.543   6.703
  811SOL    HW119575   6.410   3.479   6.636
  811SOL    HW219576   6.510   3.588   6.668
  812SOL     OW19577   5.913   6.126   1.687
  812SOL    HW119578   5.835   6.097   1.734
  812SOL    HW219579   5.978   6.058   1.704
  813SOL     OW19580   3.389   3.292   6.436
  813SOL    HW119581   3.409   3.226   6.370
  813SOL    HW219582   3.385   3.244   6.518
  814SOL     OW19583   1.069   0.126   5.379
  814SOL    HW119584   1.021   0.209   5.383
  814SOL    HW219585   1.013   0.068   5.328
  815SOL     OW19586   0.279   5.937   7.313
  815SOL    HW119587   0.347   5.872   7.333
  815SOL    HW219588   0.299   5.965   7.223
  816SOL     OW19589   2.512   0.506   1.605
  816SOL    HW119590   2.444   0.568   1.632
  816SOL    HW219591   2.586   0.562   1.580
  817SOL     OW19592   2.767   1.253   0.627
  817SOL    HW119593   2.672   1.261   0.616
  817SOL    HW219594   2.790   1.174   0.577
  818SOL     OW19595   5.086   0.792   0.545
  818SOL    HW119596   5.023   0.750   0.605
  818SOL    HW219597   5.043   0.791   0.460
  819SOL     OW19598   1.818   1.124   2.203
  819SOL    HW119599   1.896   1.116   2.149
  819SOL    HW219600   1.851   1.126   2.293
  820SOL     OW19601   0.519   6.034   0.532
  820SOL    HW119602   0.445   6.038   0.593
  820SOL    HW219603   0.501   5.958   0.477
  821SOL     OW19604   0.063   4.072   5.843
  821SOL    HW119605   0.058   4.166   5.827
  821SOL    HW219606   0.155   4.055   5.861
  822SOL     OW19607   4.823   4.314   7.780
  822SOL    HW119608   4.767   4.391   7.771
  822SOL    HW219609   4.903   4.348   7.820
  823SOL     OW19610   2.205   3.166   2.068
  823SOL    HW119611   2.297   3.141   2.074
  823SOL    HW219612   2.196   3.241   2.127
  824SOL     OW19613   2.803   3.985   7.265
  824SOL    HW119614   2.872   4.009   7.203
  824SOL    HW219615   2.839   4.007   7.350
  825SOL     OW19616   1.858   0.068   7.162
  825SOL    HW119617   1.861   0.150   7.112
  825SOL    HW219618   1.939   0.022   7.137
  826SOL     OW19619   0.526   5.840   6.839
  826SOL    HW119620   0.453   5.865   6.784
  826SOL    HW219621   0.574   5.775   6.788
  827SOL     OW19622   5.222   3.792   0.679
  827SOL    HW119623   5.160   3.858   0.710
  827SOL    HW219624   5.177   3.708   0.694
  828SOL     OW19625   5.828   4.653   7.097
  828SOL    HW119626   5.836   4.639   7.192
  828SOL    HW219627   5.834   4.748   7.086
  829SOL     OW19628   1.361   4.677   1.571
  829SOL    HW119629   1.375   4.674   1.666
  829SOL    HW219630   1.312   4.597   1.552
  830SOL     OW19631   2.269   1.601   7.375
  830SOL    HW119632   2.190   1.639   7.414
  830SOL    HW219633   2.236   1.547   7.303
  831SOL     OW19634   0.355   3.885   6.233
  831SOL    HW119635   0.363   3.854   6.143
  831SOL    HW219636   0.287   3.952   6.230
  832SOL     OW19637   3.056   4.554   5.338
  832SOL    HW119638   3.012   4.608   5.404
  832SOL    HW219639   3.094   4.617   5.278
  833SOL     OW19640   3.165   4.943   6.910
  833SOL    HW119641   3.224   4.941   6.985
  833SOL    HW219642   3.133   4.853   6.902
  834SOL     OW19643   3.989   5.004   0.827
  834SOL    HW119644   3.936   4.942   0.877
  834SOL    HW219645   3.928   5.045   0.767
  835SOL     OW19646   4.426   3.670   6.494
  835SOL    HW119647   4.390   3.754   6.523
  835SOL    HW219648   4.378   3.650   6.414
  836SOL     OW19649   2.278   1.394   1.372
  836SOL    HW119650   2.211   1.381   1.440
  836SOL    HW219651   2.349   1.335   1.397
  837SOL     OW19652   1.495   5.993   7.362
  837SOL    HW119653   1.508   5.930   7.433
  837SOL    HW219654   1.420   6.045   7.390
  838SOL     OW19655   4.242   2.909   0.802
  838SOL    HW119656   4.299   2.949   0.735
  838SOL    HW219657   4.303   2.871   0.865
  839SOL     OW19658   1.545   4.154   7.482
  839SOL    HW119659   1.602   4.167   7.558
  839SOL    HW219660   1.603   4.124   7.413
  840SOL     OW19661   3.108   0.212   5.736
  840SOL    HW119662   3.172   0.269   5.779
  840SOL    HW219663   3.157   0.171   5.664
  841SOL     OW19664   6.410   6.250   6.320
  841SOL    HW119665   6.354   6.305   6.374
  841SOL    HW219666   6.401   6.286   6.232
  842SOL     OW19667   0.674   0.362   6.784
  842SOL    HW119668   0.606   0.423   6.755
  842SOL    HW219669   0.756   0.400   6.752
  843SOL     OW19670   1.161   6.118   7.131
  843SOL    HW119671   1.241   6.101   7.081
  843SOL    HW219672   1.180   6.199   7.178
  844SOL     OW19673   4.090   0.066   6.066
  844SOL    HW119674   4.129   0.086   5.981
  844SOL    HW219675   4.047  -0.018   6.054
  845SOL     OW19676   3.834   6.376   6.686
  845SOL    HW119677   3.903   6.420   6.736
  845SOL    HW219678   3.847   6.406   6.596
  846SOL     OW19679   4.578   2.354   6.860
  846SOL    HW119680   4.620   2.281   6.815
  846SOL    HW219681   4.588   2.429   6.802
  847SOL     OW19682   4.078   6.430   1.377
  847SOL    HW119683   4.122   6.466   1.453
  847SOL    HW219684   4.087   6.498   1.309
  848SOL     OW19685   0.679   3.534   6.249
  848SOL    HW119686   0.768   3.506   6.228
  848SOL    HW219687   0.691   3.616   6.297
  849SOL     OW19688   4.199   5.907   0.900
  849SOL    HW119689   4.215   5.826   0.948
  849SOL    HW219690   4.270   5.965   0.927
  850SOL     OW19691   2.513   4.810   7.659
  850SOL    HW119692   2.518   4.737   7.721
  850SOL    HW219693   2.551   4.775   7.578
  851SOL     OW19694   3.761   0.280   0.766
  851SOL    HW119695   3.690   0.344   0.756
  851SOL    HW219696   3.728   0.218   0.832
  852SOL     OW19697   1.423   4.271   0.092
  852SOL    HW119698   1.438   4.187   0.047
  852SOL    HW219699   1.464   4.336   0.035
  853SOL     OW19700   2.853   3.421   0.997
  853SOL    HW119701   2.773   3.468   0.973
  853SOL    HW219702   2.835   3.386   1.084
  854SOL     OW19703   6.086   1.695   1.478
  854SOL    HW119704   6.054   1.625   1.534
  854SOL    HW219705   6.058   1.776   1.521
  855SOL     OW19706   0.049   4.082   7.666
  855SOL    HW119707   0.120   4.146   7.668
  855SOL    HW219708  -0.016   4.116   7.728
  856SOL     OW19709   1.076   6.094   0.822
  856SOL    HW119710   1.140   6.045   0.772
  856SOL    HW219711   1.042   6.032   0.887
  857SOL     OW19712   1.698   5.347   5.766
  857SOL    HW119713   1.657   5.433   5.770
  857SOL    HW219714   1.783   5.363   5.723
  858SOL     OW19715   3.502   1.231   1.244
  858SOL    HW119716   3.434   1.271   1.298
  858SOL    HW219717   3.583   1.273   1.272
  859SOL     OW19718   4.662   1.229   5.830
  859SOL    HW119719   4.601   1.157   5.815
  859SOL    HW219720   4.692   1.217   5.920
  860SOL     OW19721   2.181   3.509   6.599
  860SOL    HW119722   2.164   3.453   6.674
  860SOL    HW219723   2.136   3.466   6.526
  861SOL     OW19724   5.999   0.813   6.232
  861SOL    HW119725   5.970   0.722   6.225
  861SOL    HW219726   5.920   0.865   6.214
  862SOL     OW19727   1.440   4.142   1.100
  862SOL    HW119728   1.392   4.063   1.125
  862SOL    HW219729   1.500   4.158   1.173
  863SOL     OW19730   0.114   1.942   6.337
  863SOL    HW119731   0.208   1.948   6.353
  863SOL    HW219732   0.073   1.978   6.416
  864SOL     OW19733   2.721   5.821   0.625
  864SOL    HW119734   2.637   5.781   0.606
  864SOL    HW219735   2.765   5.758   0.683
  865SOL     OW19736   4.697   2.773   6.352
  865SOL    HW119737   4.719   2.716   6.278
  865SOL    HW219738   4.702   2.716   6.429
  866SOL     OW19739   2.992   2.369   7.591
  866SOL    HW119740   3.072   2.421   7.591
  866SOL    HW219741   2.935   2.411   7.655
  867SOL     OW19742   4.749   2.602   6.552
  867SOL    HW119743   4.837   2.632   6.577
  867SOL    HW219744   4.760   2.509   6.531
  868SOL     OW19745   5.328   5.181   0.923
  868SOL    HW119746   5.359   5.270   0.936
  868SOL    HW219747   5.391   5.127   0.971
  869SOL     OW19748   1.677   5.481   0.694
  869SOL    HW119749   1.638   5.561   0.659
  869SOL    HW219750   1.606   5.417   0.690
  870SOL     OW19751   4.913   4.327   1.282
  870SOL    HW119752   4.895   4.375   1.201
  870SOL    HW219753   4.988   4.372   1.321
  871SOL     OW19754   0.486   3.974   5.552
  871SOL    HW119755   0.521   4.061   5.535
  871SOL    HW219756   0.564   3.919   5.566
  872SOL     OW19757   2.241   0.521   1.246
  872SOL    HW119758   2.173   0.469   1.203
  872SOL    HW219759   2.304   0.456   1.277
  873SOL     OW19760   1.464   2.043   6.997
  873SOL    HW119761   1.499   2.098   6.926
  873SOL    HW219762   1.384   2.005   6.961
  874SOL     OW19763   2.238   1.777   1.043
  874SOL    HW119764   2.287   1.792   0.962
  874SOL    HW219765   2.243   1.683   1.058
  875SOL     OW19766   0.838   2.689   7.015
  875SOL    HW119767   0.922   2.679   7.060
  875SOL    HW219768   0.850   2.766   6.960
  876SOL     OW19769   4.623   0.871   0.824
  876SOL    HW119770   4.666   0.845   0.905
  876SOL    HW219771   4.655   0.809   0.758
  877SOL     OW19772   5.756   1.713   0.818
  877SOL    HW119773   5.716   1.629   0.794
  877SOL    HW219774   5.836   1.718   0.765
  878SOL     OW19775   0.472   1.515   7.386
  878SOL    HW119776   0.557   1.477   7.363
  878SOL    HW219777   0.451   1.573   7.313
  879SOL     OW19778   5.678   0.898   7.076
  879SOL    HW119779   5.767   0.875   7.048
  879SOL    HW219780   5.660   0.839   7.148
  880SOL     OW19781   5.609   4.155   7.814
  880SOL    HW119782   5.695   4.120   7.792
  880SOL    HW219783   5.596   4.129   7.905
  881SOL     OW19784   3.553   1.230   6.560
  881SOL    HW119785   3.477   1.253   6.613
  881SOL    HW219786   3.626   1.277   6.602
  882SOL     OW19787   2.432   3.949   6.186
  882SOL    HW119788   2.459   4.040   6.171
  882SOL    HW219789   2.504   3.896   6.151
  883SOL     OW19790   2.539   2.725   7.141
  883SOL    HW119791   2.514   2.685   7.057
  883SOL    HW219792   2.555   2.817   7.119
  884SOL     OW19793   3.738   5.922   7.255
  884SOL    HW119794   3.693   5.963   7.328
  884SOL    HW219795   3.668   5.892   7.197
  885SOL     OW19796   0.444   5.722   6.363
  885SOL    HW119797   0.515   5.781   6.388
  885SOL    HW219798   0.487   5.652   6.315
  886SOL     OW19799   6.401   5.343   0.996
  886SOL    HW119800   6.461   5.316   1.066
  886SOL    HW219801   6.413   5.437   0.988
  887SOL     OW19802   1.806   5.177   6.739
  887SOL    HW119803   1.777   5.090   6.712
  887SOL    HW219804   1.821   5.224   6.657
  888SOL     OW19805   0.972   5.375   0.975
  888SOL    HW119806   0.949   5.292   1.016
  888SOL    HW219807   0.966   5.439   1.046
  889SOL     OW19808   6.269   4.004   1.049
  889SOL    HW119809   6.216   3.994   0.970
  889SOL    HW219810   6.219   4.066   1.103
  890SOL     OW19811   1.336   2.099   6.234
  890SOL    HW119812   1.384   2.141   6.163
  890SOL    HW219813   1.326   2.008   6.207
  891SOL     OW19814   4.287   5.769   6.885
  891SOL    HW119815   4.213   5.717   6.916
  891SOL    HW219816   4.278   5.768   6.789
  892SOL     OW19817   3.190   3.544   7.235
  892SOL    HW119818   3.224   3.528   7.323
  892SOL    HW219819   3.100   3.575   7.249
  893SOL     OW19820   0.281   2.240   6.943
  893SOL    HW119821   0.211   2.233   7.008
  893SOL    HW219822   0.360   2.257   6.995
  894SOL     OW19823   0.765   1.158   6.919
  894SOL    HW119824   0.766   1.251   6.895
  894SOL    HW219825   0.762   1.159   7.015
  895SOL     OW19826   3.052   1.763   7.739
  895SOL    HW119827   3.018   1.831   7.680
  895SOL    HW219828   3.146   1.782   7.746
  896SOL     OW19829   1.822   4.723   1.301
  896SOL    HW119830   1.786   4.687   1.220
  896SOL    HW219831   1.747   4.731   1.360
  897SOL     OW19832   1.821   4.230   1.438
  897SOL    HW119833   1.872   4.308   1.416
  897SOL    HW219834   1.781   4.203   1.355
  898SOL     OW19835   3.113   4.792   1.217
  898SOL    HW119836   3.080   4.852   1.284
  898SOL    HW219837   3.174   4.845   1.165
  899SOL     OW19838   4.858   2.593   7.797
  899SOL    HW119839   4.778   2.614   7.845
  899SOL    HW219840   4.915   2.553   7.863
  900SOL     OW19841   1.309   6.220   0.262
  900SOL    HW119842   1.267   6.136   0.240
  900SOL    HW219843   1.293   6.275   0.186
  901SOL     OW19844   4.920   0.176   0.848
  901SOL    HW119845   4.937   0.258   0.894
  901SOL    HW219846   4.990   0.117   0.875
  902SOL     OW19847   5.257   2.279   6.608
  902SOL    HW119848   5.240   2.185   6.601
  902SOL    HW219849   5.349   2.288   6.583
  903SOL     OW19850   0.634   2.787   0.040
  903SOL    HW119851   0.591   2.850  -0.018
  903SOL    HW219852   0.641   2.707  -0.012
  904SOL     OW19853   2.427   2.801   6.221
  904SOL    HW119854   2.456   2.877   6.171
  904SOL    HW219855   2.507   2.760   6.252
  905SOL     OW19856   1.974   1.737   0.638
  905SOL    HW119857   2.046   1.789   0.673
  905SOL    HW219858   1.912   1.802   0.605
  906SOL     OW19859   2.054   4.589   5.883
  906SOL    HW119860   1.975   4.581   5.828
  906SOL    HW219861   2.056   4.681   5.908
  907SOL     OW19862   4.636   2.535   0.135
  907SOL    HW119863   4.544   2.523   0.112
  907SOL    HW219864   4.664   2.449   0.166
  908SOL     OW19865   1.904   3.453   6.738
  908SOL    HW119866   1.903   3.432   6.644
  908SOL    HW219867   1.921   3.369   6.781
  909SOL     OW19868   0.235   1.297   1.005
  909SOL    HW119869   0.205   1.246   1.080
  909SOL    HW219870   0.269   1.378   1.043
  910SOL     OW19871   5.771   0.414   5.995
  910SOL    HW119872   5.699   0.370   5.948
  910SOL    HW219873   5.748   0.406   6.087
  911SOL     OW19874   4.087   2.070   7.023
  911SOL    HW119875   4.149   2.000   7.003
  911SOL    HW219876   4.001   2.028   7.023
  912SOL     OW19877   1.562   0.004   6.615
  912SOL    HW119878   1.500  -0.009   6.543
  912SOL    HW219879   1.532   0.084   6.658
  913SOL     OW19880   4.166   4.893   6.245
  913SOL    HW119881   4.245   4.881   6.192
  913SOL    HW219882   4.142   4.985   6.232
  914SOL     OW19883   5.993   4.655   5.616
  914SOL    HW119884   6.031   4.578   5.575
  914SOL    HW219885   5.935   4.692   5.550
  915SOL     OW19886   0.507   3.145   6.974
  915SOL    HW119887   0.547   3.158   7.060
  915SOL    HW219888   0.575   3.102   6.922
  916SOL     OW19889   4.843   4.974   6.830
  916SOL    HW119890   4.769   5.034   6.818
  916SOL    HW219891   4.803   4.888   6.844
  917SOL     OW19892   5.994   1.312   0.706
  917SOL    HW119893   6.088   1.292   0.711
  917SOL    HW219894   5.982   1.347   0.618
  918SOL     OW19895   0.715   3.698   0.705
  918SOL    HW119896   0.739   3.605   0.704
  918SOL    HW219897   0.644   3.702   0.769
  919SOL     OW19898   3.571   5.299   2.300
  919SOL    HW119899   3.593   5.389   2.325
  919SOL    HW219900   3.518   5.308   2.221
  920SOL     OW19901   3.426   1.964   5.837
  920SOL    HW119902   3.502   1.926   5.881
  920SOL    HW219903   3.418   1.916   5.756
  921SOL     OW19904   2.989   2.504   5.987
  921SOL    HW119905   2.957   2.450   5.916
  921SOL    HW219906   3.064   2.551   5.950
  922SOL     OW19907   2.531   4.394   5.494
  922SOL    HW119908   2.450   4.391   5.443
  922SOL    HW219909   2.581   4.466   5.457
  923SOL     OW19910   5.731   3.276   6.208
  923SOL    HW119911   5.669   3.204   6.200
  923SOL    HW219912   5.699   3.326   6.283
  924SOL     OW19913   3.105   3.279   1.885
  924SOL    HW119914   3.042   3.216   1.919
  924SOL    HW219915   3.061   3.364   1.893
  925SOL     OW19916   0.073   0.406   1.101
  925SOL    HW119917   0.074   0.422   1.195
  925SOL    HW219918   0.076   0.311   1.093
  926SOL     OW19919   2.056   0.251   6.461
  926SOL    HW119920   2.004   0.183   6.418
  926SOL    HW219921   2.014   0.264   6.546
  927SOL     OW19922   3.952   3.914   6.670
  927SOL    HW119923   3.998   3.833   6.644
  927SOL    HW219924   4.013   3.984   6.645
  928SOL     OW19925   3.831   4.414   5.802
  928SOL    HW119926   3.804   4.445   5.716
  928SOL    HW219927   3.866   4.327   5.787
  929SOL     OW19928   4.178   4.435   7.291
  929SOL    HW119929   4.176   4.385   7.372
  929SOL    HW219930   4.101   4.492   7.296
  930SOL     OW19931   2.524   4.599  -0.002
  930SOL    HW119932   2.598   4.616   0.056
  930SOL    HW219933   2.458   4.560   0.054
  931SOL     OW19934   0.043   3.902   7.115
  931SOL    HW119935   0.132   3.938   7.110
  931SOL    HW219936  -0.014   3.978   7.115
  932SOL     OW19937   6.267   2.726   0.765
  932SOL    HW119938   6.360   2.712   0.781
  932SOL    HW219939   6.230   2.638   0.760
  933SOL     OW19940   4.477   1.315   7.638
  933SOL    HW119941   4.469   1.240   7.580
  933SOL    HW219942   4.399   1.368   7.621
  934SOL     OW19943   0.297   5.958   6.706
  934SOL    HW119944   0.312   6.017   6.632
  934SOL    HW219945   0.221   5.907   6.680
  935SOL     OW19946   5.177   0.405   0.729
  935SOL    HW119947   5.118   0.400   0.654
  935SOL    HW219948   5.250   0.347   0.706
  936SOL     OW19949   0.778   0.980   1.864
  936SOL    HW119950   0.824   0.930   1.796
  936SOL    HW219951   0.708   1.025   1.817
  937SOL     OW19952   0.859   4.550   7.000
  937SOL    HW119953   0.839   4.619   6.937
  937SOL    HW219954   0.777   4.500   7.007
  938SOL     OW19955   0.102   6.288   1.888
  938SOL    HW119956   0.018   6.250   1.915
  938SOL    HW219957   0.083   6.379   1.870
  939SOL     OW19958   5.738   0.502   1.835
  939SOL    HW119959   5.808   0.498   1.770
  939SOL    HW219960   5.774   0.457   1.911
  940SOL     OW19961   0.861   1.631   6.217
  940SOL    HW119962   0.790   1.606   6.159
  940SOL    HW219963   0.927   1.562   6.206
  941SOL     OW19964   2.140   2.945   0.216
  941SOL    HW119965   2.188   2.960   0.135
  941SOL    HW219966   2.099   3.029   0.236
  942SOL     OW19967   0.330   3.992   0.167
  942SOL    HW119968   0.296   4.073   0.127
  942SOL    HW219969   0.267   3.972   0.235
  943SOL     OW19970   4.077   5.858   2.276
  943SOL    HW119971   4.040   5.783   2.321
  943SOL    HW219972   4.055   5.933   2.331
  944SOL     OW19973   1.930   5.349   0.647
  944SOL    HW119974   1.864   5.418   0.650
  944SOL    HW219975   2.006   5.386   0.691
  945SOL     OW19976   0.669   5.350   0.558
  945SOL    HW119977   0.639   5.272   0.512
  945SOL    HW219978   0.764   5.344   0.555
  946SOL     OW19979   2.843   5.633   7.828
  946SOL    HW119980   2.759   5.674   7.847
  946SOL    HW219981   2.831   5.541   7.851
  947SOL     OW19982   1.106   4.924   5.663
  947SOL    HW119983   1.160   4.954   5.591
  947SOL    HW219984   1.042   4.865   5.623
  948SOL     OW19985   2.896   6.123   6.563
  948SOL    HW119986   2.874   6.120   6.470
  948SOL    HW219987   2.833   6.184   6.601
  949SOL     OW19988   5.119   0.106   2.374
  949SOL    HW119989   5.048   0.052   2.340
  949SOL    HW219990   5.142   0.065   2.458
  950SOL     OW19991   2.963   5.180   6.936
  950SOL    HW119992   2.908   5.153   6.862
  950SOL    HW219993   3.036   5.119   6.935
  951SOL     OW19994   1.184   4.299   6.814
  951SOL    HW119995   1.166   4.357   6.888
  951SOL    HW219996   1.113   4.235   6.817
  952SOL     OW19997   2.971   4.191   0.179
  952SOL    HW119998   2.926   4.267   0.215
  952SOL    HW219999   3.061   4.200   0.209
  953SOL     OW20000   3.817   3.791   7.121
  953SOL    HW120001   3.765   3.866   7.091
  953SOL    HW220002   3.903   3.804   7.081
  954SOL     OW20003   1.580   4.571   6.324
  954SOL    HW120004   1.647   4.630   6.358
  954SOL    HW220005   1.565   4.600   6.234
  955SOL     OW20006   4.915   6.386   2.277
  955SOL    HW120007   4.978   6.336   2.226
  955SOL    HW220008   4.829   6.358   2.244
  956SOL     OW20009   5.444   5.449   0.612
  956SOL    HW120010   5.397   5.370   0.638
  956SOL    HW220011   5.376   5.514   0.596
  957SOL     OW20012   2.984   0.060   2.368
  957SOL    HW120013   3.011   0.033   2.456
  957SOL    HW220014   2.944  -0.018   2.330
  958SOL     OW20015   2.682   4.958   6.952
  958SOL    HW120016   2.650   4.868   6.962
  958SOL    HW220017   2.761   4.950   6.899
  959SOL     OW20018   5.701   1.865   0.081
  959SOL    HW120019   5.636   1.857   0.150
  959SOL    HW220020   5.714   1.776   0.050
  960SOL     OW20021   2.506   2.952   7.551
  960SOL    HW120022   2.480   2.862   7.530
  960SOL    HW220023   2.598   2.957   7.528
  961SOL     OW20024   4.665   2.680   0.936
  961SOL    HW120025   4.698   2.594   0.962
  961SOL    HW220026   4.743   2.735   0.929
  962SOL     OW20027   4.021   2.786   0.887
  962SOL    HW120028   4.097   2.821   0.841
  962SOL    HW220029   4.055   2.757   0.971
  963SOL     OW20030   2.435   2.652   1.181
  963SOL    HW120031   2.489   2.700   1.244
  963SOL    HW220032   2.499   2.603   1.128
  964SOL     OW20033   3.998   2.408   7.397
  964SOL    HW120034   4.014   2.330   7.451
  964SOL    HW220035   3.994   2.480   7.459
  965SOL     OW20036   6.193   0.953   6.841
  965SOL    HW120037   6.174   0.897   6.916
  965SOL    HW220038   6.276   0.995   6.863
  966SOL     OW20039   1.308   4.682   0.892
  966SOL    HW120040   1.332   4.682   0.800
  966SOL    HW220041   1.315   4.591   0.919
  967SOL     OW20042   3.591   4.496   6.673
  967SOL    HW120043   3.657   4.565   6.679
  967SOL    HW220044   3.508   4.542   6.671
  968SOL     OW20045   4.755   3.473   2.321
  968SOL    HW120046   4.772   3.566   2.303
  968SOL    HW220047   4.701   3.473   2.400
  969SOL     OW20048   1.236   4.738   5.939
  969SOL    HW120049   1.320   4.706   5.909
  969SOL    HW220050   1.171   4.688   5.889
  970SOL     OW20051   4.557   6.329   0.070
  970SOL    HW120052   4.514   6.363  -0.009
  970SOL    HW220053   4.540   6.396   0.136
  971SOL     OW20054   4.542   6.130   6.512
  971SOL    HW120055   4.618   6.187   6.502
  971SOL    HW220056   4.476   6.169   6.454
  972SOL     OW20057   0.715   2.951   6.813
  972SOL    HW120058   0.739   2.949   6.721
  972SOL    HW220059   0.665   2.871   6.827
  973SOL     OW20060   4.981   4.894   1.397
  973SOL    HW120061   4.946   4.900   1.309
  973SOL    HW220062   4.906   4.912   1.454
  974SOL     OW20063   5.095   1.115   6.386
  974SOL    HW120064   5.119   1.109   6.293
  974SOL    HW220065   5.075   1.208   6.400
  975SOL     OW20066   0.565   4.053   1.542
  975SOL    HW120067   0.597   3.995   1.474
  975SOL    HW220068   0.521   4.123   1.495
  976SOL     OW20069   4.239   4.686   0.746
  976SOL    HW120070   4.151   4.661   0.718
  976SOL    HW220071   4.266   4.753   0.683
  977SOL     OW20072   5.658   5.288   0.519
  977SOL    HW120073   5.643   5.237   0.598
  977SOL    HW220074   5.605   5.366   0.530
  978SOL     OW20075   0.129   2.200   1.380
  978SOL    HW120076   0.040   2.178   1.406
  978SOL    HW220077   0.182   2.125   1.407
  979SOL     OW20078   1.619   3.119   6.479
  979SOL    HW120079   1.704   3.076   6.472
  979SOL    HW220080   1.628   3.199   6.427
  980SOL     OW20081   3.328   6.096   6.707
  980SOL    HW120082   3.398   6.090   6.772
  980SOL    HW220083   3.336   6.184   6.672
  981SOL     OW20084   5.685   3.405   1.123
  981SOL    HW120085   5.609   3.457   1.149
  981SOL    HW220086   5.682   3.328   1.179
  982SOL     OW20087   4.418   4.431   7.201
  982SOL    HW120088   4.323   4.414   7.199
  982SOL    HW220089   4.435   4.461   7.290
  983SOL     OW20090   2.496   2.641   6.869
  983SOL    HW120091   2.520   2.579   6.800
  983SOL    HW220092   2.516   2.727   6.831
  984SOL     OW20093   3.694   6.408   6.259
  984SOL    HW120094   3.656   6.493   6.237
  984SOL    HW220095   3.618   6.350   6.273
  985SOL     OW20096   0.628   5.400   0.831
  985SOL    HW120097   0.712   5.376   0.871
  985SOL    HW220098   0.634   5.367   0.741
  986SOL     OW20099   0.362   1.984   7.292
  986SOL    HW120100   0.342   2.061   7.239
  986SOL    HW220101   0.312   1.996   7.373
  987SOL     OW20102   2.491   5.345   1.558
  987SOL    HW120103   2.450   5.274   1.607
  987SOL    HW220104   2.445   5.424   1.587
  988SOL     OW20105   0.466   3.239   6.609
  988SOL    HW120106   0.553   3.201   6.593
  988SOL    HW220107   0.483   3.330   6.629
  989SOL     OW20108   2.999   2.230   0.316
  989SOL    HW120109   3.091   2.203   0.311
  989SOL    HW220110   2.983   2.274   0.232
  990SOL     OW20111   4.917   6.241   1.957
  990SOL    HW120112   4.850   6.183   1.993
  990SOL    HW220113   4.877   6.279   1.879
  991SOL     OW20114   4.369   3.911   6.603
  991SOL    HW120115   4.448   3.948   6.563
  991SOL    HW220116   4.305   3.982   6.596
  992SOL     OW20117   4.977   2.508   0.182
  992SOL    HW120118   5.056   2.560   0.190
  992SOL    HW220119   5.004   2.419   0.205
  993SOL     OW20120   2.621   1.197   5.648
  993SOL    HW120121   2.628   1.112   5.693
  993SOL    HW220122   2.683   1.254   5.694
  994SOL     OW20123   5.307   1.018   1.166
  994SOL    HW120124   5.279   0.932   1.134
  994SOL    HW220125   5.395   1.002   1.202
  995SOL     OW20126   5.970   2.008   6.453
  995SOL    HW120127   6.064   2.028   6.446
  995SOL    HW220128   5.950   1.961   6.372
  996SOL     OW20129   2.962   4.604   1.078
  996SOL    HW120130   3.008   4.671   1.129
  996SOL    HW220131   2.877   4.595   1.122
  997SOL     OW20132   2.764   2.300   5.570
  997SOL    HW120133   2.849   2.273   5.535
  997SOL    HW220134   2.786   2.361   5.641
  998SOL     OW20135   6.010   1.809   0.043
  998SOL    HW120136   5.976   1.767  -0.036
  998SOL    HW220137   5.938   1.806   0.105
  999SOL     OW20138   3.881   3.108   0.829
  999SOL    HW120139   3.872   3.028   0.779
  999SOL    HW220140   3.791   3.142   0.836
 1000SOL     OW20141   1.133   2.151   7.663
 1000SOL    HW120142   1.106   2.083   7.725
 1000SOL    HW220143   1.107   2.233   7.705
 1001SOL     OW20144   0.976   0.192   7.559
 1001SOL    HW120145   0.950   0.184   7.650
 1001SOL    HW220146   0.894   0.190   7.510
 1002SOL     OW20147   3.689   4.813   0.689
 1002SOL    HW120148   3.681   4.783   0.780
 1002SOL    HW220149   3.687   4.909   0.695
 1003SOL     OW20150   2.785   5.254   6.423
 1003SOL    HW120151   2.766   5.346   6.406
 1003SOL    HW220152   2.711   5.223   6.475
 1004SOL     OW20153   0.896   4.045   7.517
 1004SOL    HW120154   0.937   4.118   7.564
 1004SOL    HW220155   0.915   4.062   7.425
 1005SOL     OW20156   1.121   5.996   0.310
 1005SOL    HW120157   1.065   6.057   0.357
 1005SOL    HW220158   1.089   5.909   0.335
 1006SOL     OW20159   6.183   5.008   6.857
 1006SOL    HW120160   6.130   4.960   6.794
 1006SOL    HW220161   6.131   5.086   6.877
 1007SOL     OW20162   0.490   2.065   0.954
 1007SOL    HW120163   0.536   2.069   1.037
 1007SOL    HW220164   0.492   2.155   0.921
 1008SOL     OW20165   3.959   2.966   0.577
 1008SOL    HW120166   3.880   3.005   0.539
 1008SOL    HW220167   4.015   3.041   0.596
 1009SOL     OW20168   2.712   5.975   0.158
 1009SOL    HW120169   2.739   5.972   0.066
 1009SOL    HW220170   2.625   5.935   0.159
 1010SOL     OW20171   3.788   0.689   2.032
 1010SOL    HW120172   3.798   0.625   2.102
 1010SOL    HW220173   3.877   0.719   2.013
 1011SOL     OW20174   1.612   1.539   7.170
 1011SOL    HW120175   1.583   1.614   7.222
 1011SOL    HW220176   1.538   1.478   7.171
 1012SOL     OW20177   3.187   6.270   0.570
 1012SOL    HW120178   3.102   6.263   0.613
 1012SOL    HW220179   3.250   6.258   0.640
 1013SOL     OW20180   2.886   1.774   6.303
 1013SOL    HW120181   2.891   1.830   6.381
 1013SOL    HW220182   2.862   1.688   6.338
 1014SOL     OW20183   2.873   1.889   0.089
 1014SOL    HW120184   2.890   1.983   0.078
 1014SOL    HW220185   2.926   1.847   0.022
 1015SOL     OW20186   3.762   3.032   6.871
 1015SOL    HW120187   3.800   2.955   6.915
 1015SOL    HW220188   3.833   3.065   6.816
 1016SOL     OW20189   4.521   6.013   2.717
 1016SOL    HW120190   4.596   5.999   2.659
 1016SOL    HW220191   4.553   6.075   2.782
 1017SOL     OW20192   4.480   2.316   0.261
 1017SOL    HW120193   4.455   2.386   0.321
 1017SOL    HW220194   4.405   2.256   0.263
 1018SOL     OW20195   4.818   4.903   1.114
 1018SOL    HW120196   4.865   4.934   1.037
 1018SOL    HW220197   4.745   4.852   1.079
 1019SOL     OW20198   1.947   4.815   1.550
 1019SOL    HW120199   1.980   4.903   1.534
 1019SOL    HW220200   1.886   4.799   1.477
 1020SOL     OW20201   6.002   5.310   0.406
 1020SOL    HW120202   6.044   5.336   0.324
 1020SOL    HW220203   5.946   5.384   0.430
 1021SOL     OW20204   5.830   1.418   1.384
 1021SOL    HW120205   5.839   1.375   1.469
 1021SOL    HW220206   5.918   1.451   1.364
 1022SOL     OW20207   4.176   5.420   0.530
 1022SOL    HW120208   4.212   5.400   0.443
 1022SOL    HW220209   4.219   5.357   0.588
 1023SOL     OW20210   3.553   5.036   6.195
 1023SOL    HW120211   3.542   5.029   6.101
 1023SOL    HW220212   3.621   4.973   6.216
 1024SOL     OW20213   6.031   3.089   6.992
 1024SOL    HW120214   6.019   3.000   6.958
 1024SOL    HW220215   6.005   3.082   7.084
 1025SOL     OW20216   5.898   0.560   6.257
 1025SOL    HW120217   5.853   0.522   6.333
 1025SOL    HW220218   5.976   0.506   6.246
 1026SOL     OW20219   0.912   5.622   6.392
 1026SOL    HW120220   0.843   5.687   6.389
 1026SOL    HW220221   0.906   5.576   6.308
 1027SOL     OW20222   4.905   0.722   7.293
 1027SOL    HW120223   4.913   0.672   7.374
 1027SOL    HW220224   4.872   0.659   7.229
 1028SOL     OW20225   6.110   3.708   1.145
 1028SOL    HW120226   6.065   3.762   1.080
 1028SOL    HW220227   6.061   3.625   1.146
 1029SOL     OW20228   2.646   3.641   7.362
 1029SOL    HW120229   2.568   3.586   7.350
 1029SOL    HW220230   2.717   3.590   7.323
 1030SOL     OW20231   3.607   1.975   6.747
 1030SOL    HW120232   3.571   2.063   6.758
 1030SOL    HW220233   3.702   1.987   6.751
 1031SOL     OW20234   1.474   5.671   1.148
 1031SOL    HW120235   1.410   5.716   1.093
 1031SOL    HW220236   1.431   5.660   1.232
 1032SOL     OW20237   1.301   3.068   0.482
 1032SOL    HW120238   1.255   3.023   0.553
 1032SOL    HW220239   1.255   3.040   0.403
 1033SOL     OW20240   1.959   5.049   7.491
 1033SOL    HW120241   2.001   4.989   7.430
 1033SOL    HW220242   1.869   5.056   7.460
 1034SOL     OW20243   3.471   3.970   1.336
 1034SOL    HW120244   3.488   4.053   1.292
 1034SOL    HW220245   3.519   3.905   1.285
 1035SOL     OW20246   6.290   2.707   7.222
 1035SOL    HW120247   6.322   2.648   7.155
 1035SOL    HW220248   6.218   2.659   7.264
 1036SOL     OW20249   5.651   2.378   0.785
 1036SOL    HW120250   5.696   2.413   0.862
 1036SOL    HW220251   5.672   2.285   0.784
 1037SOL     OW20252   3.819   0.320   0.496
 1037SOL    HW120253   3.881   0.388   0.472
 1037SOL    HW220254   3.814   0.325   0.592
 1038SOL     OW20255   3.996   4.005   7.753
 1038SOL    HW120256   4.091   4.016   7.762
 1038SOL    HW220257   3.985   3.913   7.729
 1039SOL     OW20258   3.960   5.169   6.419
 1039SOL    HW120259   3.947   5.158   6.325
 1039SOL    HW220260   3.903   5.242   6.443
 1040SOL     OW20261   5.405   4.939   6.065
 1040SOL    HW120262   5.484   4.918   6.015
 1040SOL    HW220263   5.397   4.867   6.128
 1041SOL     OW20264   2.036   5.612   6.473
 1041SOL    HW120265   2.050   5.687   6.531
 1041SOL    HW220266   1.946   5.584   6.491
 1042SOL     OW20267   3.925   5.512   0.536
 1042SOL    HW120268   3.937   5.604   0.561
 1042SOL    HW220269   4.012   5.474   0.539
 1043SOL     OW20270   5.463   3.137   6.098
 1043SOL    HW120271   5.390   3.195   6.123
 1043SOL    HW220272   5.497   3.176   6.017
 1044SOL     OW20273   3.549   4.628   2.154
 1044SOL    HW120274   3.644   4.625   2.152
 1044SOL    HW220275   3.521   4.537   2.138
 1045SOL     OW20276   4.146   4.747   7.685
 1045SOL    HW120277   4.188   4.809   7.626
 1045SOL    HW220278   4.210   4.734   7.755
 1046SOL     OW20279   2.094   1.701   6.398
 1046SOL    HW120280   2.037   1.746   6.460
 1046SOL    HW220281   2.139   1.772   6.351
 1047SOL     OW20282   3.683   5.315   6.648
 1047SOL    HW120283   3.683   5.303   6.553
 1047SOL    HW220284   3.605   5.269   6.678
 1048SOL     OW20285   4.451   1.668   7.822
 1048SOL    HW120286   4.356   1.653   7.814
 1048SOL    HW220287   4.481   1.672   7.731
 1049SOL     OW20288   2.500   0.390   7.466
 1049SOL    HW120289   2.469   0.416   7.552
 1049SOL    HW220290   2.595   0.398   7.470
 1050SOL     OW20291   4.341   3.619   7.295
 1050SOL    HW120292   4.378   3.590   7.378
 1050SOL    HW220293   4.341   3.540   7.240
 1051SOL     OW20294   0.668   4.858   0.831
 1051SOL    HW120295   0.575   4.863   0.854
 1051SOL    HW220296   0.711   4.825   0.909
 1052SOL     OW20297   2.534   1.820   1.360
 1052SOL    HW120298   2.561   1.810   1.451
 1052SOL    HW220299   2.440   1.803   1.360
 1053SOL     OW20300   1.009   1.692   7.125
 1053SOL    HW120301   0.964   1.741   7.194
 1053SOL    HW220302   1.075   1.753   7.092
 1054SOL     OW20303   2.671   3.521   5.870
 1054SOL    HW120304   2.750   3.508   5.817
 1054SOL    HW220305   2.652   3.434   5.905
 1055SOL     OW20306   1.160   3.331   0.316
 1055SOL    HW120307   1.153   3.315   0.222
 1055SOL    HW220308   1.074   3.307   0.351
 1056SOL     OW20309   2.929   0.421   0.663
 1056SOL    HW120310   2.880   0.478   0.722
 1056SOL    HW220311   2.865   0.391   0.599
 1057SOL     OW20312   3.051   3.359   5.517
 1057SOL    HW120313   2.982   3.345   5.452
 1057SOL    HW220314   3.106   3.428   5.481
 1058SOL     OW20315   2.781   4.722   0.602
 1058SOL    HW120316   2.716   4.763   0.545
 1058SOL    HW220317   2.842   4.679   0.542
 1059SOL     OW20318   4.271   0.744   5.573
 1059SOL    HW120319   4.205   0.678   5.551
 1059SOL    HW220320   4.247   0.820   5.519
 1060SOL     OW20321   0.302   3.322   7.741
 1060SOL    HW120322   0.285   3.232   7.714
 1060SOL    HW220323   0.246   3.336   7.817
 1061SOL     OW20324   1.082   2.257   0.981
 1061SOL    HW120325   1.049   2.290   1.065
 1061SOL    HW220326   1.115   2.170   1.001
 1062SOL     OW20327   3.758   1.193   2.593
 1062SOL    HW120328   3.700   1.269   2.603
 1062SOL    HW220329   3.774   1.187   2.499
 1063SOL     OW20330   5.438   5.588   0.305
 1063SOL    HW120331   5.375   5.622   0.368
 1063SOL    HW220332   5.436   5.493   0.318
 1064SOL     OW20333   4.970   5.552   1.998
 1064SOL    HW120334   4.919   5.628   1.970
 1064SOL    HW220335   4.905   5.493   2.036
 1065SOL     OW20336   6.268   6.173   1.870
 1065SOL    HW120337   6.273   6.096   1.814
 1065SOL    HW220338   6.296   6.143   1.957
 1066SOL     OW20339   2.962   1.395   1.011
 1066SOL    HW120340   2.946   1.320   0.953
 1066SOL    HW220341   2.914   1.467   0.971
 1067SOL     OW20342   0.417   4.422   1.594
 1067SOL    HW120343   0.432   4.392   1.684
 1067SOL    HW220344   0.380   4.510   1.603
 1068SOL     OW20345   2.772   4.475   6.732
 1068SOL    HW120346   2.765   4.380   6.727
 1068SOL    HW220347   2.839   4.497   6.667
 1069SOL     OW20348   0.956   2.093   1.633
 1069SOL    HW120349   0.994   2.169   1.588
 1069SOL    HW220350   0.862   2.108   1.630
 1070SOL     OW20351   1.311   5.405   1.900
 1070SOL    HW120352   1.328   5.473   1.965
 1070SOL    HW220353   1.231   5.362   1.930
 1071SOL     OW20354   3.310   3.863   0.627
 1071SOL    HW120355   3.252   3.928   0.587
 1071SOL    HW220356   3.279   3.779   0.593
 1072SOL     OW20357   5.929   6.203   0.955
 1072SOL    HW120358   5.874   6.273   0.991
 1072SOL    HW220359   6.013   6.245   0.939
 1073SOL     OW20360   5.988   2.361   0.470
 1073SOL    HW120361   5.982   2.417   0.547
 1073SOL    HW220362   5.952   2.277   0.498
 1074SOL     OW20363   4.757   2.321   6.579
 1074SOL    HW120364   4.703   2.248   6.607
 1074SOL    HW220365   4.845   2.283   6.567
 1075SOL     OW20366   4.172   3.989   5.472
 1075SOL    HW120367   4.194   4.080   5.450
 1075SOL    HW220368   4.077   3.991   5.488
 1076SOL     OW20369   3.587   1.395   0.125
 1076SOL    HW120370   3.510   1.368   0.176
 1076SOL    HW220371   3.661   1.381   0.184
 1077SOL     OW20372   1.011   6.017   6.537
 1077SOL    HW120373   1.078   6.044   6.599
 1077SOL    HW220374   0.991   6.097   6.488
 1078SOL     OW20375   0.049   3.060   6.965
 1078SOL    HW120376   0.024   2.993   6.901
 1078SOL    HW220377  -0.019   3.054   7.033
 1079SOL     OW20378   5.269   2.309   7.361
 1079SOL    HW120379   5.265   2.399   7.328
 1079SOL    HW220380   5.196   2.264   7.319
 1080SOL     OW20381   6.349   2.840   0.129
 1080SOL    HW120382   6.315   2.897   0.060
 1080SOL    HW220383   6.326   2.752   0.101
 1081SOL     OW20384   5.096   1.763   6.763
 1081SOL    HW120385   5.026   1.826   6.779
 1081SOL    HW220386   5.155   1.808   6.703
 1082SOL     OW20387   0.850   4.766   6.821
 1082SOL    HW120388   0.835   4.845   6.873
 1082SOL    HW220389   0.943   4.767   6.801
 1083SOL     OW20390   5.445   5.060   5.554
 1083SOL    HW120391   5.521   5.054   5.495
 1083SOL    HW220392   5.482   5.087   5.638
 1084SOL     OW20393   5.579   5.782   0.202
 1084SOL    HW120394   5.537   5.718   0.259
 1084SOL    HW220395   5.625   5.840   0.262
 1085SOL     OW20396   4.294   5.878   2.621
 1085SOL    HW120397   4.226   5.944   2.606
 1085SOL    HW220398   4.362   5.925   2.669
 1086SOL     OW20399   5.750   5.942   5.943
 1086SOL    HW120400   5.656   5.926   5.949
 1086SOL    HW220401   5.777   5.897   5.863
 1087SOL     OW20402   4.603   1.963   7.442
 1087SOL    HW120403   4.598   2.056   7.419
 1087SOL    HW220404   4.638   1.962   7.531
 1088SOL     OW20405   0.718   1.646   5.562
 1088SOL    HW120406   0.638   1.606   5.528
 1088SOL    HW220407   0.706   1.740   5.546
 1089SOL     OW20408   5.242   0.039   1.208
 1089SOL    HW120409   5.258  -0.035   1.266
 1089SOL    HW220410   5.174   0.090   1.253
 1090SOL     OW20411   5.234   2.508   6.983
 1090SOL    HW120412   5.201   2.523   7.072
 1090SOL    HW220413   5.193   2.427   6.955
 1091SOL     OW20414   4.217   5.747   7.254
 1091SOL    HW120415   4.126   5.737   7.225
 1091SOL    HW220416   4.212   5.740   7.349
 1092SOL     OW20417   5.367   3.514   6.707
 1092SOL    HW120418   5.396   3.591   6.660
 1092SOL    HW220419   5.412   3.518   6.791
 1093SOL     OW20420   4.794   0.875   7.053
 1093SOL    HW120421   4.806   0.956   7.102
 1093SOL    HW220422   4.855   0.813   7.094
 1094SOL     OW20423   0.194   4.861   5.813
 1094SOL    HW120424   0.121   4.806   5.784
 1094SOL    HW220425   0.231   4.897   5.732
 1095SOL     OW20426   2.183   3.571   0.665
 1095SOL    HW120427   2.091   3.569   0.692
 1095SOL    HW220428   2.207   3.479   0.653
 1096SOL     OW20429   0.396   0.166   6.063
 1096SOL    HW120430   0.396   0.126   5.976
 1096SOL    HW220431   0.419   0.258   6.047
 1097SOL     OW20432   0.635   2.721   5.643
 1097SOL    HW120433   0.585   2.735   5.563
 1097SOL    HW220434   0.608   2.791   5.702
 1098SOL     OW20435   5.678   3.570   1.522
 1098SOL    HW120436   5.597   3.524   1.500
 1098SOL    HW220437   5.698   3.540   1.611
 1099SOL     OW20438   0.441   1.906   1.209
 1099SOL    HW120439   0.418   1.915   1.117
 1099SOL    HW220440   0.374   1.848   1.245
 1100SOL     OW20441   0.209   2.695   0.542
 1100SOL    HW120442   0.145   2.652   0.485
 1100SOL    HW220443   0.163   2.706   0.625
 1101SOL     OW20444   1.775   3.058   0.357
 1101SOL    HW120445   1.851   3.115   0.354
 1101SOL    HW220446   1.770   3.028   0.447
 1102SOL     OW20447   1.203   4.972   0.556
 1102SOL    HW120448   1.140   5.028   0.602
 1102SOL    HW220449   1.149   4.917   0.499
 1103SOL     OW20450   2.187   3.074   1.444
 1103SOL    HW120451   2.109   3.099   1.493
 1103SOL    HW220452   2.258   3.122   1.485
 1104SOL     OW20453   3.084   5.547   0.919
 1104SOL    HW120454   3.060   5.483   0.852
 1104SOL    HW220455   3.145   5.606   0.874
 1105SOL     OW20456   6.431   5.312   0.127
 1105SOL    HW120457   6.506   5.371   0.127
 1105SOL    HW220458   6.355   5.370   0.123
 1106SOL     OW20459   4.093   3.501   7.366
 1106SOL    HW120460   4.152   3.564   7.324
 1106SOL    HW220461   4.034   3.474   7.296
 1107SOL     OW20462   2.346   4.716   6.447
 1107SOL    HW120463   2.435   4.737   6.474
 1107SOL    HW220464   2.290   4.754   6.515
 1108SOL     OW20465   5.867   4.742   2.450
 1108SOL    HW120466   5.782   4.699   2.443
 1108SOL    HW220467   5.858   4.823   2.400
 1109SOL     OW20468   1.164   2.801   7.778
 1109SOL    HW120469   1.207   2.819   7.861
 1109SOL    HW220470   1.070   2.798   7.799
 1110SOL     OW20471   4.196   4.923   0.496
 1110SOL    HW120472   4.151   5.006   0.478
 1110SOL    HW220473   4.126   4.862   0.520
 1111SOL     OW20474   0.714   4.386   7.779
 1111SOL    HW120475   0.790   4.391   7.837
 1111SOL    HW220476   0.749   4.353   7.696
 1112SOL     OW20477   1.349   2.308   0.374
 1112SOL    HW120478   1.328   2.287   0.283
 1112SOL    HW220479   1.279   2.266   0.425
 1113SOL     OW20480   4.922   0.658   7.584
 1113SOL    HW120481   4.886   0.570   7.582
 1113SOL    HW220482   4.855   0.711   7.628
 1114SOL     OW20483   4.944   3.438   0.910
 1114SOL    HW120484   4.910   3.516   0.954
 1114SOL    HW220485   4.914   3.446   0.820
 1115SOL     OW20486   1.723   3.149   6.816
 1115SOL    HW120487   1.730   3.225   6.874
 1115SOL    HW220488   1.724   3.074   6.875
 1116SOL     OW20489   0.085   1.205   1.421
 1116SOL    HW120490   0.026   1.151   1.370
 1116SOL    HW220491   0.059   1.190   1.512
 1117SOL     OW20492   2.863   1.125   5.943
 1117SOL    HW120493   2.828   1.172   5.867
 1117SOL    HW220494   2.790   1.071   5.973
 1118SOL     OW20495   4.085   5.611   6.919
 1118SOL    HW120496   4.090   5.553   6.842
 1118SOL    HW220497   4.059   5.553   6.991
 1119SOL     OW20498   4.821   3.220   7.094
 1119SOL    HW120499   4.762   3.280   7.047
 1119SOL    HW220500   4.909   3.250   7.071
 1120SOL     OW20501   3.012   4.145   6.791
 1120SOL    HW120502   2.938   4.170   6.736
 1120SOL    HW220503   3.083   4.128   6.729
 1121SOL     OW20504   4.671   4.455   1.157
 1121SOL    HW120505   4.614   4.454   1.080
 1121SOL    HW220506   4.678   4.363   1.183
 1122SOL     OW20507   3.729   4.764   1.641
 1122SOL    HW120508   3.737   4.692   1.579
 1122SOL    HW220509   3.650   4.744   1.691
 1123SOL     OW20510   4.908   3.751   1.672
 1123SOL    HW120511   4.908   3.685   1.742
 1123SOL    HW220512   4.843   3.815   1.700
 1124SOL     OW20513   2.440   2.062   1.779
 1124SOL    HW120514   2.393   2.007   1.841
 1124SOL    HW220515   2.463   2.140   1.830
 1125SOL     OW20516   2.804   1.964   2.158
 1125SOL    HW120517   2.854   1.890   2.191
 1125SOL    HW220518   2.716   1.952   2.195
 1126SOL     OW20519   4.075   0.280   6.250
 1126SOL    HW120520   3.999   0.331   6.223
 1126SOL    HW220521   4.074   0.203   6.192
 1127SOL     OW20522   4.062   5.060   5.820
 1127SOL    HW120523   4.099   5.110   5.892
 1127SOL    HW220524   4.099   4.973   5.829
 1128SOL     OW20525   3.131   5.083   1.236
 1128SOL    HW120526   3.103   5.100   1.326
 1128SOL    HW220527   3.211   5.134   1.226
 1129SOL     OW20528   5.334   4.075   7.213
 1129SOL    HW120529   5.393   4.005   7.240
 1129SOL    HW220530   5.388   4.154   7.212
 1130SOL     OW20531   6.082   2.895   1.927
 1130SOL    HW120532   6.050   2.857   1.845
 1130SOL    HW220533   6.112   2.983   1.903
 1131SOL     OW20534   1.358   5.250   5.498
 1131SOL    HW120535   1.441   5.262   5.453
 1131SOL    HW220536   1.337   5.157   5.485
 1132SOL     OW20537   3.634   0.713   1.260
 1132SOL    HW120538   3.673   0.789   1.304
 1132SOL    HW220539   3.548   0.704   1.301
 1133SOL     OW20540   2.755   3.058   7.420
 1133SOL    HW120541   2.833   3.074   7.366
 1133SOL    HW220542   2.691   3.121   7.388
 1134SOL     OW20543   4.992   6.180   6.327
 1134SOL    HW120544   5.054   6.126   6.376
 1134SOL    HW220545   4.983   6.136   6.242
 1135SOL     OW20546   3.470   1.622   7.209
 1135SOL    HW120547   3.559   1.644   7.238
 1135SOL    HW220548   3.432   1.705   7.182
 1136SOL     OW20549   3.721   0.096   7.815
 1136SOL    HW120550   3.781   0.171   7.815
 1136SOL    HW220551   3.776   0.022   7.840
 1137SOL     OW20552   5.549   3.446   6.360
 1137SOL    HW120553   5.579   3.373   6.412
 1137SOL    HW220554   5.541   3.519   6.422
 1138SOL     OW20555   2.113   0.457   1.625
 1138SOL    HW120556   2.140   0.549   1.629
 1138SOL    HW220557   2.186   0.410   1.666
 1139SOL     OW20558   2.300   4.852   6.861
 1139SOL    HW120559   2.249   4.781   6.900
 1139SOL    HW220560   2.358   4.881   6.932
 1140SOL     OW20561  -0.001   6.063   7.826
 1140SOL    HW120562   0.076   6.114   7.800
 1140SOL    HW220563  -0.005   5.992   7.762
 1141SOL     OW20564   5.354   1.123   1.789
 1141SOL    HW120565   5.449   1.130   1.786
 1141SOL    HW220566   5.322   1.203   1.748
 1142SOL     OW20567   3.898   3.556   0.842
 1142SOL    HW120568   3.953   3.507   0.902
 1142SOL    HW220569   3.886   3.497   0.767
 1143SOL     OW20570   3.122   4.478   1.333
 1143SOL    HW120571   3.144   4.468   1.426
 1143SOL    HW220572   3.158   4.563   1.309
 1144SOL     OW20573   2.864   2.022   5.624
 1144SOL    HW120574   2.774   2.003   5.596
 1144SOL    HW220575   2.903   2.069   5.550
 1145SOL     OW20576   2.400   1.268   5.939
 1145SOL    HW120577   2.385   1.175   5.953
 1145SOL    HW220578   2.356   1.288   5.857
 1146SOL     OW20579   4.266   3.543   7.040
 1146SOL    HW120580   4.346   3.594   7.038
 1146SOL    HW220581   4.277   3.479   6.969
 1147SOL     OW20582   3.466   4.826   1.251
 1147SOL    HW120583   3.444   4.802   1.161
 1147SOL    HW220584   3.559   4.802   1.261
 1148SOL     OW20585   3.217   2.595   0.446
 1148SOL    HW120586   3.142   2.537   0.459
 1148SOL    HW220587   3.210   2.660   0.516
 1149SOL     OW20588   5.953   3.471   1.166
 1149SOL    HW120589   5.858   3.465   1.157
 1149SOL    HW220590   5.978   3.388   1.209
 1150SOL     OW20591   2.351   0.108   7.447
 1150SOL    HW120592   2.397   0.030   7.479
 1150SOL    HW220593   2.406   0.182   7.474
 1151SOL     OW20594   1.248   6.307   1.870
 1151SOL    HW120595   1.317   6.288   1.934
 1151SOL    HW220596   1.262   6.399   1.848
 1152SOL     OW20597   1.444   2.669   6.822
 1152SOL    HW120598   1.438   2.663   6.917
 1152SOL    HW220599   1.368   2.723   6.797
 1153SOL     OW20600   2.442   3.598   5.778
 1153SOL    HW120601   2.532   3.595   5.810
 1153SOL    HW220602   2.450   3.603   5.683
 1154SOL     OW20603   3.628   5.611   0.589
 1154SOL    HW120604   3.563   5.577   0.528
 1154SOL    HW220605   3.704   5.554   0.578
 1155SOL     OW20606   1.460   1.008   6.036
 1155SOL    HW120607   1.446   0.983   5.944
 1155SOL    HW220608   1.463   1.104   6.034
 1156SOL     OW20609   2.056   1.267   6.969
 1156SOL    HW120610   2.014   1.352   6.954
 1156SOL    HW220611   2.122   1.260   6.900
 1157SOL     OW20612   6.283   6.071   2.105
 1157SOL    HW120613   6.236   6.136   2.158
 1157SOL    HW220614   6.279   5.990   2.156
 1158SOL     OW20615   1.823   4.016   1.217
 1158SOL    HW120616   1.762   4.018   1.143
 1158SOL    HW220617   1.902   4.060   1.184
 1159SOL     OW20618   1.527   2.951   6.232
 1159SOL    HW120619   1.581   3.024   6.201
 1159SOL    HW220620   1.549   2.942   6.324
 1160SOL     OW20621   1.496   6.276   1.317
 1160SOL    HW120622   1.568   6.216   1.336
 1160SOL    HW220623   1.493   6.281   1.222
 1161SOL     OW20624   4.250   5.179   6.098
 1161SOL    HW120625   4.228   5.193   6.190
 1161SOL    HW220626   4.309   5.251   6.076
 1162SOL     OW20627   0.471   1.472   7.641
 1162SOL    HW120628   0.473   1.488   7.547
 1162SOL    HW220629   0.402   1.407   7.654
 1163SOL     OW20630   1.901   0.221   7.429
 1163SOL    HW120631   1.878   0.305   7.389
 1163SOL    HW220632   1.914   0.162   7.355
 1164SOL     OW20633   5.344   5.155   0.647
 1164SOL    HW120634   5.405   5.088   0.617
 1164SOL    HW220635   5.342   5.144   0.742
 1165SOL     OW20636   1.526   5.939   5.860
 1165SOL    HW120637   1.451   5.932   5.801
 1165SOL    HW220638   1.503   6.009   5.920
 1166SOL     OW20639   1.057   5.325   1.760
 1166SOL    HW120640   1.078   5.256   1.822
 1166SOL    HW220641   0.970   5.301   1.727
 1167SOL     OW20642   6.202   3.167   6.773
 1167SOL    HW120643   6.140   3.149   6.702
 1167SOL    HW220644   6.158   3.134   6.852
 1168SOL     OW20645   0.994   0.212   6.295
 1168SOL    HW120646   1.089   0.208   6.312
 1168SOL    HW220647   0.960   0.268   6.365
 1169SOL     OW20648   2.519   1.685   6.752
 1169SOL    HW120649   2.423   1.684   6.747
 1169SOL    HW220650   2.538   1.690   6.845
 1170SOL     OW20651   6.312   4.260   7.425
 1170SOL    HW120652   6.257   4.336   7.404
 1170SOL    HW220653   6.392   4.297   7.461
 1171SOL     OW20654   6.233   4.747   1.649
 1171SOL    HW120655   6.165   4.684   1.673
 1171SOL    HW220656   6.281   4.763   1.730
 1172SOL     OW20657   5.589   0.290   1.684
 1172SOL    HW120658   5.640   0.356   1.732
 1172SOL    HW220659   5.611   0.207   1.727
 1173SOL     OW20660   2.603   2.995   2.304
 1173SOL    HW120661   2.659   2.967   2.232
 1173SOL    HW220662   2.538   2.925   2.313
 1174SOL     OW20663   0.421   2.843   5.997
 1174SOL    HW120664   0.461   2.886   6.072
 1174SOL    HW220665   0.331   2.877   5.994
 1175SOL     OW20666   4.853   5.876   1.576
 1175SOL    HW120667   4.807   5.929   1.642
 1175SOL    HW220668   4.783   5.827   1.532
 1176SOL     OW20669   0.464   5.776   0.420
 1176SOL    HW120670   0.432   5.714   0.355
 1176SOL    HW220671   0.541   5.734   0.458
 1177SOL     OW20672   0.579   0.739   1.277
 1177SOL    HW120673   0.536   0.802   1.334
 1177SOL    HW220674   0.655   0.709   1.327
 1178SOL     OW20675   1.672   0.866   7.530
 1178SOL    HW120676   1.623   0.805   7.586
 1178SOL    HW220677   1.764   0.849   7.551
 1179SOL     OW20678   4.336   5.751   1.399
 1179SOL    HW120679   4.250   5.719   1.427
 1179SOL    HW220680   4.387   5.756   1.480
 1180SOL     OW20681   1.736   1.776   7.744
 1180SOL    HW120682   1.711   1.713   7.811
 1180SOL    HW220683   1.743   1.725   7.664
 1181SOL     OW20684   5.552   0.841   0.477
 1181SOL    HW120685   5.548   0.936   0.469
 1181SOL    HW220686   5.577   0.826   0.568
 1182SOL     OW20687   1.331   5.306   0.130
 1182SOL    HW120688   1.242   5.332   0.108
 1182SOL    HW220689   1.320   5.238   0.197
 1183SOL     OW20690   4.016   4.219   6.311
 1183SOL    HW120691   3.970   4.302   6.303
 1183SOL    HW220692   3.947   4.153   6.317
 1184SOL     OW20693   3.374   4.668   6.262
 1184SOL    HW120694   3.354   4.734   6.329
 1184SOL    HW220695   3.288   4.632   6.238
 1185SOL     OW20696   0.518   1.175   0.097
 1185SOL    HW120697   0.541   1.161   0.189
 1185SOL    HW220698   0.597   1.149   0.048
 1186SOL     OW20699   2.724   4.483   6.377
 1186SOL    HW120700   2.634   4.451   6.368
 1186SOL    HW220701   2.738   4.537   6.298
 1187SOL     OW20702   4.396   2.809   1.463
 1187SOL    HW120703   4.466   2.803   1.527
 1187SOL    HW220704   4.316   2.805   1.515
 1188SOL     OW20705   4.807   1.975   6.248
 1188SOL    HW120706   4.830   1.970   6.155
 1188SOL    HW220707   4.880   1.936   6.294
 1189SOL     OW20708   1.432   6.388   1.087
 1189SOL    HW120709   1.376   6.459   1.055
 1189SOL    HW220710   1.518   6.406   1.047
 1190SOL     OW20711   4.553   2.964   7.679
 1190SOL    HW120712   4.624   2.901   7.670
 1190SOL    HW220713   4.515   2.971   7.592
 1191SOL     OW20714   4.953   2.556   0.915
 1191SOL    HW120715   4.879   2.514   0.872
 1191SOL    HW220716   4.987   2.490   0.975
 1192SOL     OW20717   0.458   0.924   1.434
 1192SOL    HW120718   0.450   1.009   1.392
 1192SOL    HW220719   0.368   0.889   1.434
 1193SOL     OW20720   5.895   3.354   0.409
 1193SOL    HW120721   5.953   3.345   0.484
 1193SOL    HW220722   5.895   3.448   0.390
 1194SOL     OW20723   6.027   2.920   7.509
 1194SOL    HW120724   6.101   2.979   7.523
 1194SOL    HW220725   5.970   2.968   7.449
 1195SOL     OW20726   3.517   1.576   6.793
 1195SOL    HW120727   3.449   1.598   6.731
 1195SOL    HW220728   3.536   1.658   6.839
 1196SOL     OW20729   3.385   5.516   6.205
 1196SOL    HW120730   3.297   5.513   6.242
 1196SOL    HW220731   3.436   5.457   6.260
 1197SOL     OW20732   0.096   4.878   0.499
 1197SOL    HW120733   0.003   4.901   0.490
 1197SOL    HW220734   0.135   4.899   0.414
 1198SOL     OW20735   0.910   3.899   0.660
 1198SOL    HW120736   0.968   3.862   0.726
 1198SOL    HW220737   0.833   3.841   0.661
 1199SOL     OW20738   2.512   2.678   7.427
 1199SOL    HW120739   2.526   2.679   7.332
 1199SOL    HW220740   2.530   2.587   7.452
 1200SOL     OW20741   4.672   4.480   0.859
 1200SOL    HW120742   4.674   4.385   0.849
 1200SOL    HW220743   4.764   4.506   0.868
 1201SOL     OW20744   1.915   5.875   1.536
 1201SOL    HW120745   1.840   5.837   1.583
 1201SOL    HW220746   1.931   5.815   1.463
 1202SOL     OW20747   0.410   5.989   7.043
 1202SOL    HW120748   0.420   5.922   6.976
 1202SOL    HW220749   0.497   6.000   7.080
 1203SOL     OW20750   2.467   5.854   0.256
 1203SOL    HW120751   2.476   5.759   0.266
 1203SOL    HW220752   2.376   5.867   0.231
 1204SOL     OW20753   4.485   1.729   2.187
 1204SOL    HW120754   4.430   1.676   2.130
 1204SOL    HW220755   4.482   1.817   2.149
 1205SOL     OW20756   3.852   6.023   6.965
 1205SOL    HW120757   3.791   5.977   7.023
 1205SOL    HW220758   3.810   6.106   6.946
 1206SOL     OW20759   2.773   1.017   7.393
 1206SOL    HW120760   2.681   0.999   7.411
 1206SOL    HW220761   2.813   0.931   7.384
 1207SOL     OW20762   3.052   6.263   6.913
 1207SOL    HW120763   2.979   6.213   6.950
 1207SOL    HW220764   3.116   6.197   6.886
 1208SOL     OW20765   1.992   5.657   0.486
 1208SOL    HW120766   2.060   5.664   0.553
 1208SOL    HW220767   2.037   5.624   0.409
 1209SOL     OW20768   4.797   4.421   0.361
 1209SOL    HW120769   4.764   4.511   0.355
 1209SOL    HW220770   4.724   4.366   0.335
 1210SOL     OW20771   3.721   6.044   5.823
 1210SOL    HW120772   3.700   6.010   5.910
 1210SOL    HW220773   3.816   6.053   5.823
 1211SOL     OW20774   1.894   0.637   0.855
 1211SOL    HW120775   1.908   0.705   0.789
 1211SOL    HW220776   1.968   0.576   0.843
 1212SOL     OW20777   6.059   3.774   6.892
 1212SOL    HW120778   6.106   3.690   6.893
 1212SOL    HW220779   5.984   3.758   6.835
 1213SOL     OW20780   5.956   4.966   7.368
 1213SOL    HW120781   5.969   5.049   7.413
 1213SOL    HW220782   6.025   4.963   7.302
 1214SOL     OW20783   2.241   3.341   5.832
 1214SOL    HW120784   2.328   3.303   5.825
 1214SOL    HW220785   2.240   3.384   5.918
 1215SOL     OW20786   2.367   1.043   6.378
 1215SOL    HW120787   2.396   0.954   6.399
 1215SOL    HW220788   2.446   1.096   6.387
 1216SOL     OW20789   2.655   5.894   1.474
 1216SOL    HW120790   2.565   5.877   1.503
 1216SOL    HW220791   2.648   5.909   1.380
 1217SOL     OW20792   1.635   2.194   1.538
 1217SOL    HW120793   1.578   2.119   1.526
 1217SOL    HW220794   1.708   2.178   1.478
 1218SOL     OW20795   2.197   3.100   5.209
 1218SOL    HW120796   2.118   3.053   5.236
 1218SOL    HW220797   2.180   3.191   5.231
 1219SOL     OW20798   2.026   6.414   7.625
 1219SOL    HW120799   1.975   6.389   7.548
 1219SOL    HW220800   2.016   6.340   7.685
 1220SOL     OW20801   4.161   4.093   6.628
 1220SOL    HW120802   4.191   4.126   6.712
 1220SOL    HW220803   4.174   4.166   6.568
 1221SOL     OW20804   5.842   3.622   6.798
 1221SOL    HW120805   5.764   3.655   6.843
 1221SOL    HW220806   5.849   3.531   6.826
 1222SOL     OW20807   5.437   1.508   7.501
 1222SOL    HW120808   5.515   1.452   7.492
 1222SOL    HW220809   5.439   1.536   7.592
 1223SOL     OW20810   5.749   0.320   0.295
 1223SOL    HW120811   5.729   0.263   0.221
 1223SOL    HW220812   5.668   0.369   0.311
 1224SOL     OW20813   5.908   2.168   1.167
 1224SOL    HW120814   5.936   2.078   1.173
 1224SOL    HW220815   5.850   2.181   1.242
 1225SOL     OW20816   4.266   0.287   0.474
 1225SOL    HW120817   4.240   0.374   0.506
 1225SOL    HW220818   4.185   0.247   0.443
 1226SOL     OW20819   2.439   3.378   0.490
 1226SOL    HW120820   2.441   3.284   0.470
 1226SOL    HW220821   2.407   3.382   0.581
 1227SOL     OW20822   1.293   0.189   0.464
 1227SOL    HW120823   1.381   0.173   0.500
 1227SOL    HW220824   1.238   0.203   0.541
 1228SOL     OW20825   3.652   3.424   7.081
 1228SOL    HW120826   3.722   3.485   7.103
 1228SOL    HW220827   3.668   3.400   6.989
 1229SOL     OW20828   2.819   2.660   0.130
 1229SOL    HW120829   2.904   2.685   0.166
 1229SOL    HW220830   2.763   2.649   0.207
 1230SOL     OW20831   2.349   4.001   1.130
 1230SOL    HW120832   2.418   4.027   1.069
 1230SOL    HW220833   2.294   3.940   1.081
 1231SOL     OW20834   1.159   5.769   1.536
 1231SOL    HW120835   1.131   5.681   1.561
 1231SOL    HW220836   1.232   5.789   1.595
 1232SOL     OW20837   6.083   0.324   7.474
 1232SOL    HW120838   5.997   0.342   7.511
 1232SOL    HW220839   6.130   0.277   7.542
 1233SOL     OW20840   2.686   2.243   7.399
 1233SOL    HW120841   2.681   2.332   7.435
 1233SOL    HW220842   2.778   2.218   7.411
 1234SOL     OW20843   2.770   5.337   0.589
 1234SOL    HW120844   2.763   5.414   0.532
 1234SOL    HW220845   2.858   5.343   0.626
 1235SOL     OW20846   3.672   0.948   2.677
 1235SOL    HW120847   3.719   1.028   2.653
 1235SOL    HW220848   3.590   0.980   2.716
 1236SOL     OW20849   1.003   5.010   1.832
 1236SOL    HW120850   0.945   4.983   1.902
 1236SOL    HW220851   1.089   5.021   1.874
 1237SOL     OW20852   1.988   0.598   6.716
 1237SOL    HW120853   2.017   0.644   6.637
 1237SOL    HW220854   1.918   0.540   6.685
 1238SOL     OW20855   3.199   3.217   5.715
 1238SOL    HW120856   3.144   3.211   5.636
 1238SOL    HW220857   3.285   3.240   5.681
 1239SOL     OW20858   5.813   3.843   7.727
 1239SOL    HW120859   5.840   3.913   7.668
 1239SOL    HW220860   5.726   3.818   7.697
 1240SOL     OW20861   5.704   2.800   7.191
 1240SOL    HW120862   5.692   2.785   7.285
 1240SOL    HW220863   5.741   2.718   7.158
 1241SOL     OW20864   0.686   2.963   0.673
 1241SOL    HW120865   0.688   3.018   0.595
 1241SOL    HW220866   0.629   2.890   0.650
 1242SOL     OW20867   4.790   3.929   2.050
 1242SOL    HW120868   4.759   3.947   2.139
 1242SOL    HW220869   4.711   3.927   1.997
 1243SOL     OW20870   5.793   6.111   0.238
 1243SOL    HW120871   5.757   6.112   0.327
 1243SOL    HW220872   5.858   6.041   0.239
 1244SOL     OW20873   4.602   0.689   0.078
 1244SOL    HW120874   4.685   0.679   0.124
 1244SOL    HW220875   4.558   0.761   0.123
 1245SOL     OW20876   3.478   5.492   7.240
 1245SOL    HW120877   3.416   5.424   7.265
 1245SOL    HW220878   3.444   5.572   7.281
 1246SOL     OW20879   3.654   1.332   2.143
 1246SOL    HW120880   3.563   1.355   2.163
 1246SOL    HW220881   3.700   1.416   2.138
 1247SOL     OW20882   6.017   3.034   6.618
 1247SOL    HW120883   6.015   3.030   6.522
 1247SOL    HW220884   5.925   3.029   6.644
 1248SOL     OW20885   1.791   1.973   5.243
 1248SOL    HW120886   1.876   1.980   5.200
 1248SOL    HW220887   1.775   2.060   5.280
 1249SOL     OW20888   0.795   0.247   5.305
 1249SOL    HW120889   0.708   0.286   5.311
 1249SOL    HW220890   0.854   0.314   5.338
 1250SOL     OW20891   4.312   1.559   6.543
 1250SOL    HW120892   4.298   1.471   6.578
 1250SOL    HW220893   4.308   1.547   6.448
 1251SOL     OW20894   5.932   0.964   6.587
 1251SOL    HW120895   5.973   1.050   6.590
 1251SOL    HW220896   5.843   0.979   6.619
 1252SOL     OW20897   5.914   6.413   7.511
 1252SOL    HW120898   5.829   6.451   7.488
 1252SOL    HW220899   5.906   6.320   7.488
 1253SOL     OW20900   5.482   3.220   5.845
 1253SOL    HW120901   5.414   3.286   5.828
 1253SOL    HW220902   5.564   3.267   5.833
 1254SOL     OW20903   3.055   2.632   0.922
 1254SOL    HW120904   3.048   2.706   0.982
 1254SOL    HW220905   2.998   2.565   0.960
 1255SOL     OW20906   1.876   4.533   5.306
 1255SOL    HW120907   1.964   4.513   5.338
 1255SOL    HW220908   1.891   4.579   5.224
 1256SOL     OW20909   1.315   1.943   0.253
 1256SOL    HW120910   1.329   1.885   0.178
 1256SOL    HW220911   1.401   1.983   0.268
 1257SOL     OW20912   6.004   4.972   7.716
 1257SOL    HW120913   5.987   4.916   7.792
 1257SOL    HW220914   6.017   5.059   7.753
 1258SOL     OW20915   4.986   3.558   0.013
 1258SOL    HW120916   4.894   3.582   0.011
 1258SOL    HW220917   5.031   3.635   0.048
 1259SOL     OW20918   0.299   0.285   7.611
 1259SOL    HW120919   0.255   0.207   7.576
 1259SOL    HW220920   0.392   0.263   7.607
 1260SOL     OW20921   1.931   1.501   0.497
 1260SOL    HW120922   1.840   1.525   0.482
 1260SOL    HW220923   1.966   1.572   0.551
 1261SOL     OW20924   2.373   5.856   2.226
 1261SOL    HW120925   2.392   5.808   2.146
 1261SOL    HW220926   2.445   5.833   2.285
 1262SOL     OW20927   6.065   4.840   6.694
 1262SOL    HW120928   6.046   4.809   6.605
 1262SOL    HW220929   6.091   4.762   6.742
 1263SOL     OW20930   3.389   2.175   1.300
 1263SOL    HW120931   3.483   2.163   1.312
 1263SOL    HW220932   3.364   2.236   1.369
 1264SOL     OW20933   4.515   3.133   1.476
 1264SOL    HW120934   4.591   3.117   1.420
 1264SOL    HW220935   4.440   3.105   1.424
 1265SOL     OW20936   5.908   4.637   6.478
 1265SOL    HW120937   5.819   4.644   6.512
 1265SOL    HW220938   5.946   4.563   6.525
 1266SOL     OW20939   0.081   3.786   7.689
 1266SOL    HW120940   0.058   3.739   7.609
 1266SOL    HW220941   0.049   3.876   7.674
 1267SOL     OW20942   3.167   0.378   1.778
 1267SOL    HW120943   3.214   0.347   1.856
 1267SOL    HW220944   3.075   0.364   1.799
 1268SOL     OW20945   6.023   4.383   5.527
 1268SOL    HW120946   6.110   4.344   5.518
 1268SOL    HW220947   5.970   4.314   5.567
 1269SOL     OW20948   5.017   3.380   5.977
 1269SOL    HW120949   5.052   3.291   5.968
 1269SOL    HW220950   5.080   3.435   5.931
 1270SOL     OW20951   2.838   3.715   5.540
 1270SOL    HW120952   2.839   3.626   5.505
 1270SOL    HW220953   2.812   3.769   5.465
 1271SOL     OW20954   4.479   5.140   1.140
 1271SOL    HW120955   4.547   5.144   1.074
 1271SOL    HW220956   4.403   5.182   1.100
 1272SOL     OW20957   1.126   5.498   1.551
 1272SOL    HW120958   1.092   5.448   1.625
 1272SOL    HW220959   1.221   5.487   1.557
 1273SOL     OW20960   4.734   3.838   1.061
 1273SOL    HW120961   4.674   3.851   0.987
 1273SOL    HW220962   4.678   3.808   1.132
 1274SOL     OW20963   1.336   0.675   1.601
 1274SOL    HW120964   1.379   0.600   1.640
 1274SOL    HW220965   1.260   0.692   1.658
 1275SOL     OW20966   5.719   5.027   1.758
 1275SOL    HW120967   5.677   5.037   1.843
 1275SOL    HW220968   5.757   4.940   1.761
 1276SOL     OW20969   3.206   4.072   6.157
 1276SOL    HW120970   3.123   4.047   6.197
 1276SOL    HW220971   3.218   4.164   6.180
 1277SOL     OW20972   2.751   1.155   6.328
 1277SOL    HW120973   2.775   1.233   6.279
 1277SOL    HW220974   2.737   1.088   6.261
 1278SOL     OW20975   0.269   4.438   6.852
 1278SOL    HW120976   0.212   4.501   6.896
 1278SOL    HW220977   0.213   4.398   6.786
 1279SOL     OW20978   1.022   4.105   7.006
 1279SOL    HW120979   0.927   4.092   7.003
 1279SOL    HW220980   1.058   4.017   7.000
 1280SOL     OW20981   6.232   3.745   0.366
 1280SOL    HW120982   6.254   3.653   0.380
 1280SOL    HW220983   6.285   3.771   0.291
 1281SOL     OW20984   3.271   4.788   7.328
 1281SOL    HW120985   3.249   4.845   7.401
 1281SOL    HW220986   3.218   4.710   7.342
 1282SOL     OW20987   3.076   0.257   6.758
 1282SOL    HW120988   3.084   0.242   6.852
 1282SOL    HW220989   3.055   0.172   6.721
 1283SOL     OW20990   2.056   3.844   7.016
 1283SOL    HW120991   2.005   3.779   6.968
 1283SOL    HW220992   2.028   3.834   7.107
 1284SOL     OW20993   2.711   4.605   5.665
 1284SOL    HW120994   2.771   4.547   5.616
 1284SOL    HW220995   2.707   4.685   5.612
 1285SOL     OW20996   5.180   0.729   6.557
 1285SOL    HW120997   5.086   0.743   6.552
 1285SOL    HW220998   5.218   0.817   6.551
 1286SOL     OW20999   5.766   5.791   5.702
 1286SOL    HW121000   5.740   5.705   5.734
 1286SOL    HW221001   5.727   5.797   5.615
 1287SOL     OW21002   2.748   3.849   5.296
 1287SOL    HW121003   2.657   3.821   5.303
 1287SOL    HW221004   2.744   3.933   5.249
 1288SOL     OW21005   1.888   5.950   0.291
 1288SOL    HW121006   1.935   6.026   0.256
 1288SOL    HW221007   1.926   5.935   0.377
 1289SOL     OW21008   4.756   1.424   2.181
 1289SOL    HW121009   4.789   1.458   2.098
 1289SOL    HW221010   4.815   1.350   2.201
 1290SOL     OW21011   5.553   1.139   0.446
 1290SOL    HW121012   5.642   1.157   0.419
 1290SOL    HW221013   5.502   1.140   0.365
 1291SOL     OW21014   5.775   3.817   7.413
 1291SOL    HW121015   5.868   3.843   7.419
 1291SOL    HW221016   5.766   3.780   7.326
 1292SOL     OW21017   0.282   6.364   6.027
 1292SOL    HW121018   0.291   6.455   6.057
 1292SOL    HW221019   0.282   6.370   5.932
 1293SOL     OW21020   0.990   6.320   5.291
 1293SOL    HW121021   0.956   6.245   5.242
 1293SOL    HW221022   1.016   6.284   5.375
 1294SOL     OW21023   2.505   0.320   7.781
 1294SOL    HW121024   2.431   0.321   7.842
 1294SOL    HW221025   2.514   0.411   7.752
 1295SOL     OW21026   5.124   2.296   6.871
 1295SOL    HW121027   5.109   2.323   6.780
 1295SOL    HW221028   5.191   2.228   6.865
 1296SOL     OW21029   2.883   1.748   1.633
 1296SOL    HW121030   2.895   1.754   1.728
 1296SOL    HW221031   2.966   1.713   1.601
 1297SOL     OW21032   1.150   0.604   1.265
 1297SOL    HW121033   1.169   0.590   1.358
 1297SOL    HW221034   1.075   0.547   1.247
 1298SOL     OW21035   0.824   3.906   6.643
 1298SOL    HW121036   0.814   3.842   6.714
 1298SOL    HW221037   0.823   3.991   6.688
 1299SOL     OW21038   4.394   0.758   0.314
 1299SOL    HW121039   4.299   0.757   0.315
 1299SOL    HW221040   4.417   0.842   0.273
 1300SOL     OW21041   6.418   4.622   7.675
 1300SOL    HW121042   6.452   4.664   7.754
 1300SOL    HW221043   6.334   4.666   7.660
 1301SOL     OW21044   6.321   5.171   7.506
 1301SOL    HW121045   6.309   5.260   7.474
 1301SOL    HW221046   6.237   5.128   7.490
 1302SOL     OW21047   3.561   4.952   1.491
 1302SOL    HW121048   3.610   4.876   1.522
 1302SOL    HW221049   3.533   4.928   1.403
 1303SOL     OW21050   0.416   6.348   0.350
 1303SOL    HW121051   0.496   6.331   0.399
 1303SOL    HW221052   0.359   6.274   0.370
 1304SOL     OW21053   3.448   2.023   1.641
 1304SOL    HW121054   3.487   1.986   1.562
 1304SOL    HW221055   3.521   2.064   1.688
 1305SOL     OW21056   5.323   0.717   7.323
 1305SOL    HW121057   5.268   0.790   7.293
 1305SOL    HW221058   5.271   0.673   7.390
 1306SOL     OW21059   5.317   2.615   1.998
 1306SOL    HW121060   5.396   2.637   2.048
 1306SOL    HW221061   5.337   2.532   1.956
 1307SOL     OW21062   1.982   0.658   1.280
 1307SOL    HW121063   2.065   0.610   1.279
 1307SOL    HW221064   1.916   0.592   1.259
 1308SOL     OW21065   5.842   4.741   5.405
 1308SOL    HW121066   5.857   4.694   5.323
 1308SOL    HW221067   5.747   4.735   5.419
 1309SOL     OW21068   1.274   5.586   7.637
 1309SOL    HW121069   1.289   5.505   7.685
 1309SOL    HW221070   1.359   5.630   7.639
 1310SOL     OW21071   6.423   5.124   0.843
 1310SOL    HW121072   6.442   5.164   0.758
 1310SOL    HW221073   6.418   5.199   0.903
 1311SOL     OW21074   3.885   3.402   0.627
 1311SOL    HW121075   3.931   3.324   0.596
 1311SOL    HW221076   3.902   3.468   0.560
 1312SOL     OW21077   3.581   0.240   6.571
 1312SOL    HW121078   3.673   0.262   6.561
 1312SOL    HW221079   3.548   0.303   6.635
 1313SOL     OW21080   1.148   1.198   0.022
 1313SOL    HW121081   1.112   1.124   0.071
 1313SOL    HW221082   1.159   1.166  -0.067
 1314SOL     OW21083   3.399   0.787   7.772
 1314SOL    HW121084   3.375   0.696   7.785
 1314SOL    HW221085   3.456   0.808   7.846
 1315SOL     OW21086   0.307   4.715   7.740
 1315SOL    HW121087   0.274   4.805   7.736
 1315SOL    HW221088   0.255   4.674   7.809
 1316SOL     OW21089   4.102   5.832   5.664
 1316SOL    HW121090   4.197   5.845   5.662
 1316SOL    HW221091   4.068   5.907   5.712
 1317SOL     OW21092   2.368   5.039   0.201
 1317SOL    HW121093   2.430   5.080   0.261
 1317SOL    HW221094   2.416   5.030   0.119
 1318SOL     OW21095   0.973   2.832   0.894
 1318SOL    HW121096   0.938   2.743   0.886
 1318SOL    HW221097   1.036   2.839   0.823
 1319SOL     OW21098   0.750   4.837   5.564
 1319SOL    HW121099   0.825   4.779   5.549
 1319SOL    HW221100   0.676   4.778   5.577
 1320SOL     OW21101   0.866   4.938   1.492
 1320SOL    HW121102   0.826   4.945   1.406
 1320SOL    HW221103   0.821   4.863   1.533
 1321SOL     OW21104   3.875   1.649   7.652
 1321SOL    HW121105   3.804   1.585   7.647
 1321SOL    HW221106   3.915   1.633   7.737
 1322SOL     OW21107   2.134   2.242   1.176
 1322SOL    HW121108   2.160   2.243   1.083
 1322SOL    HW221109   2.078   2.319   1.185
 1323SOL     OW21110   5.952   5.209   7.462
 1323SOL    HW121111   5.981   5.294   7.495
 1323SOL    HW221112   5.877   5.186   7.517
 1324SOL     OW21113   0.987   2.499   6.602
 1324SOL    HW121114   0.926   2.562   6.564
 1324SOL    HW221115   1.016   2.539   6.684
 1325SOL     OW21116   2.968   1.072   2.551
 1325SOL    HW121117   2.951   1.165   2.543
 1325SOL    HW221118   2.883   1.034   2.574
 1326SOL     OW21119   4.640   2.477   7.112
 1326SOL    HW121120   4.633   2.440   7.024
 1326SOL    HW221121   4.662   2.569   7.098
 1327SOL     OW21122   5.405   4.414   0.914
 1327SOL    HW121123   5.400   4.509   0.919
 1327SOL    HW221124   5.496   4.393   0.937
 1328SOL     OW21125   0.341   2.204   0.701
 1328SOL    HW121126   0.278   2.256   0.752
 1328SOL    HW221127   0.327   2.114   0.730
 1329SOL     OW21128   3.359   5.579   0.667
 1329SOL    HW121129   3.449   5.603   0.687
 1329SOL    HW221130   3.350   5.489   0.697
 1330SOL     OW21131   5.666   5.329   6.318
 1330SOL    HW121132   5.602   5.383   6.364
 1330SOL    HW221133   5.614   5.275   6.259
 1331SOL     OW21134   1.096   1.511   6.198
 1331SOL    HW121135   1.050   1.468   6.126
 1331SOL    HW221136   1.171   1.454   6.215
 1332SOL     OW21137   3.441   1.428   7.021
 1332SOL    HW121138   3.443   1.512   7.068
 1332SOL    HW221139   3.446   1.453   6.929
 1333SOL     OW21140   1.925   0.837   0.151
 1333SOL    HW121141   1.888   0.814   0.236
 1333SOL    HW221142   1.851   0.831   0.090
 1334SOL     OW21143   4.436   4.506   0.161
 1334SOL    HW121144   4.382   4.438   0.201
 1334SOL    HW221145   4.491   4.538   0.232
 1335SOL     OW21146   5.666   3.664   5.412
 1335SOL    HW121147   5.751   3.707   5.423
 1335SOL    HW221148   5.611   3.731   5.371
 1336SOL     OW21149   0.343   4.356   0.825
 1336SOL    HW121150   0.248   4.366   0.833
 1336SOL    HW221151   0.377   4.381   0.911
 1337SOL     OW21152   4.357   4.794   1.192
 1337SOL    HW121153   4.389   4.830   1.109
 1337SOL    HW221154   4.428   4.738   1.223
 1338SOL     OW21155   2.881   2.950   1.733
 1338SOL    HW121156   2.826   2.889   1.783
 1338SOL    HW221157   2.846   3.036   1.754
 1339SOL     OW21158   0.295   1.251   7.624
 1339SOL    HW121159   0.230   1.266   7.693
 1339SOL    HW221160   0.244   1.219   7.550
 1340SOL     OW21161   5.765   1.638   7.773
 1340SOL    HW121162   5.805   1.561   7.813
 1340SOL    HW221163   5.827   1.665   7.705
 1341SOL     OW21164   1.441   3.263   7.660
 1341SOL    HW121165   1.376   3.231   7.724
 1341SOL    HW221166   1.447   3.193   7.596
 1342SOL     OW21167   0.856   1.665   7.736
 1342SOL    HW121168   0.774   1.713   7.722
 1342SOL    HW221169   0.894   1.706   7.813
 1343SOL     OW21170   0.599   0.103   6.973
 1343SOL    HW121171   0.560   0.072   7.055
 1343SOL    HW221172   0.660   0.172   6.999
 1344SOL     OW21173   2.336   4.530   0.169
 1344SOL    HW121174   2.274   4.602   0.159
 1344SOL    HW221175   2.387   4.554   0.246
 1345SOL     OW21176   4.971   4.656   1.158
 1345SOL    HW121177   4.969   4.590   1.089
 1345SOL    HW221178   4.914   4.726   1.127
 1346SOL     OW21179   3.771   5.093   0.685
 1346SOL    HW121180   3.798   5.132   0.602
 1346SOL    HW221181   3.720   5.162   0.728
 1347SOL     OW21182   5.152   3.380   6.607
 1347SOL    HW121183   5.217   3.436   6.650
 1347SOL    HW221184   5.205   3.318   6.555
 1348SOL     OW21185   0.262   1.970   1.591
 1348SOL    HW121186   0.353   1.980   1.563
 1348SOL    HW221187   0.255   1.877   1.613
 1349SOL     OW21188   1.816   3.453   0.903
 1349SOL    HW121189   1.894   3.496   0.938
 1349SOL    HW221190   1.820   3.469   0.808
 1350SOL     OW21191   6.218   0.920   6.107
 1350SOL    HW121192   6.266   0.844   6.075
 1350SOL    HW221193   6.130   0.886   6.127
 1351SOL     OW21194   4.726   1.697   0.992
 1351SOL    HW121195   4.792   1.759   1.023
 1351SOL    HW221196   4.774   1.637   0.935
 1352SOL     OW21197   4.075   2.986   1.216
 1352SOL    HW121198   4.020   3.065   1.211
 1352SOL    HW221199   4.103   2.970   1.126
 1353SOL     OW21200   5.188   5.506   0.424
 1353SOL    HW121201   5.132   5.465   0.490
 1353SOL    HW221202   5.129   5.563   0.374
 1354SOL     OW21203   4.264   5.430   7.824
 1354SOL    HW121204   4.289   5.515   7.861
 1354SOL    HW221205   4.337   5.407   7.766
 1355SOL     OW21206   3.138   2.636   7.098
 1355SOL    HW121207   3.145   2.721   7.053
 1355SOL    HW221208   3.121   2.659   7.189
 1356SOL     OW21209   4.737   2.630   6.129
 1356SOL    HW121210   4.764   2.541   6.110
 1356SOL    HW221211   4.759   2.679   6.050
 1357SOL     OW21212   5.949   2.496   0.141
 1357SOL    HW121213   5.863   2.523   0.108
 1357SOL    HW221214   5.938   2.494   0.236
 1358SOL     OW21215   5.097   0.470   0.271
 1358SOL    HW121216   5.175   0.492   0.320
 1358SOL    HW221217   5.129   0.425   0.193
 1359SOL     OW21218   4.159   2.793   7.073
 1359SOL    HW121219   4.207   2.814   7.153
 1359SOL    HW221220   4.209   2.722   7.033
 1360SOL     OW21221   2.040   0.990   7.396
 1360SOL    HW121222   2.083   0.953   7.474
 1360SOL    HW221223   2.022   0.913   7.341
 1361SOL     OW21224   3.543   5.160   0.463
 1361SOL    HW121225   3.583   5.123   0.384
 1361SOL    HW221226   3.469   5.103   0.482
 1362SOL     OW21227   5.166   0.247   7.558
 1362SOL    HW121228   5.092   0.210   7.607
 1362SOL    HW221229   5.181   0.185   7.487
 1363SOL     OW21230   4.450   2.336   6.449
 1363SOL    HW121231   4.509   2.281   6.398
 1363SOL    HW221232   4.476   2.321   6.540
 1364SOL     OW21233   3.888   4.819   6.650
 1364SOL    HW121234   3.800   4.846   6.624
 1364SOL    HW221235   3.885   4.723   6.653
 1365SOL     OW21236   4.008   2.984   1.806
 1365SOL    HW121237   3.967   3.036   1.874
 1365SOL    HW221238   3.963   2.899   1.811
 1366SOL     OW21239   0.882   2.726   1.775
 1366SOL    HW121240   0.968   2.765   1.760
 1366SOL    HW221241   0.839   2.728   1.689
 1367SOL     OW21242   0.381   1.739   5.686
 1367SOL    HW121243   0.453   1.721   5.746
 1367SOL    HW221244   0.370   1.834   5.689
 1368SOL     OW21245   2.641   2.893   0.040
 1368SOL    HW121246   2.677   2.806   0.061
 1368SOL    HW221247   2.686   2.919  -0.039
 1369SOL     OW21248   2.168   2.196   6.650
 1369SOL    HW121249   2.120   2.114   6.666
 1369SOL    HW221250   2.252   2.168   6.612
 1370SOL     OW21251   3.715   4.548   1.475
 1370SOL    HW121252   3.773   4.487   1.520
 1370SOL    HW221253   3.644   4.494   1.441
 1371SOL     OW21254   0.994   4.281   7.679
 1371SOL    HW121255   1.089   4.281   7.674
 1371SOL    HW221256   0.973   4.242   7.764
 1372SOL     OW21257   3.412   4.028   0.295
 1372SOL    HW121258   3.482   3.963   0.294
 1372SOL    HW221259   3.452   4.105   0.335
 1373SOL     OW21260   4.675   4.664   0.291
 1373SOL    HW121261   4.737   4.718   0.339
 1373SOL    HW221262   4.621   4.726   0.242
 1374SOL     OW21263   4.482   0.409   0.118
 1374SOL    HW121264   4.394   0.426   0.151
 1374SOL    HW221265   4.522   0.496   0.112
 1375SOL     OW21266   2.332   4.117   1.514
 1375SOL    HW121267   2.253   4.163   1.543
 1375SOL    HW221268   2.389   4.117   1.591
 1376SOL     OW21269   3.737   4.263   6.631
 1376SOL    HW121270   3.821   4.279   6.673
 1376SOL    HW221271   3.688   4.345   6.645
 1377SOL     OW21272   1.196   2.574   0.699
 1377SOL    HW121273   1.182   2.563   0.605
 1377SOL    HW221274   1.125   2.523   0.740
 1378SOL     OW21275   2.204   3.655   5.491
 1378SOL    HW121276   2.203   3.714   5.417
 1378SOL    HW221277   2.295   3.625   5.498
 1379SOL     OW21278   1.866   0.455   0.264
 1379SOL    HW121279   1.795   0.486   0.320
 1379SOL    HW221280   1.945   0.471   0.315
 1380SOL     OW21281   5.334   0.353   1.577
 1380SOL    HW121282   5.308   0.394   1.659
 1380SOL    HW221283   5.423   0.321   1.594
 1381SOL     OW21284   1.006   4.950   0.161
 1381SOL    HW121285   0.942   4.893   0.203
 1381SOL    HW221286   1.020   5.021   0.223
 1382SOL     OW21287   2.641   0.385   6.546
 1382SOL    HW121288   2.633   0.294   6.577
 1382SOL    HW221289   2.556   0.403   6.505
 1383SOL     OW21290   6.374   0.169   0.527
 1383SOL    HW121291   6.319   0.220   0.587
 1383SOL    HW221292   6.355   0.206   0.441
 1384SOL     OW21293   4.089   6.240   0.322
 1384SOL    HW121294   4.096   6.274   0.233
 1384SOL    HW221295   4.156   6.288   0.371
 1385SOL     OW21296   3.330   2.260   5.521
 1385SOL    HW121297   3.348   2.314   5.444
 1385SOL    HW221298   3.416   2.229   5.549
 1386SOL     OW21299   5.868   2.872   1.392
 1386SOL    HW121300   5.836   2.782   1.391
 1386SOL    HW221301   5.814   2.916   1.458
 1387SOL     OW21302   2.709   0.967   2.597
 1387SOL    HW121303   2.658   1.028   2.545
 1387SOL    HW221304   2.648   0.896   2.619
 1388SOL     OW21305   1.695   1.371   6.606
 1388SOL    HW121306   1.633   1.444   6.598
 1388SOL    HW221307   1.642   1.293   6.588
 1389SOL     OW21308   3.914   2.595   7.145
 1389SOL    HW121309   3.937   2.503   7.137
 1389SOL    HW221310   3.991   2.635   7.186
 1390SOL     OW21311   3.721   0.205   1.141
 1390SOL    HW121312   3.670   0.159   1.074
 1390SOL    HW221313   3.668   0.283   1.161
 1391SOL     OW21314   2.583   0.692   6.006
 1391SOL    HW121315   2.534   0.672   5.926
 1391SOL    HW221316   2.675   0.686   5.979
 1392SOL     OW21317   2.988   2.977   6.908
 1392SOL    HW121318   3.075   3.018   6.912
 1392SOL    HW221319   3.005   2.889   6.875
 1393SOL     OW21320   1.499   0.726   6.053
 1393SOL    HW121321   1.496   0.821   6.041
 1393SOL    HW221322   1.507   0.691   5.965
 1394SOL     OW21323   3.956   1.891   0.866
 1394SOL    HW121324   3.885   1.833   0.840
 1394SOL    HW221325   4.014   1.836   0.919
 1395SOL     OW21326   6.363   0.366   1.916
 1395SOL    HW121327   6.366   0.424   1.992
 1395SOL    HW221328   6.295   0.403   1.860
 1396SOL     OW21329   0.713   4.996   7.302
 1396SOL    HW121330   0.659   5.030   7.373
 1396SOL    HW221331   0.803   5.000   7.335
 1397SOL     OW21332   4.729   5.995   2.502
 1397SOL    HW121333   4.687   6.006   2.416
 1397SOL    HW221334   4.806   5.941   2.484
 1398SOL     OW21335   3.559   2.981   0.128
 1398SOL    HW121336   3.621   2.916   0.161
 1398SOL    HW221337   3.482   2.970   0.183
 1399SOL     OW21338   0.968   3.763   7.437
 1399SOL    HW121339   1.014   3.843   7.466
 1399SOL    HW221340   1.018   3.734   7.360
 1400SOL     OW21341   0.076   0.885   7.810
 1400SOL    HW121342   0.072   0.953   7.743
 1400SOL    HW221343   0.132   0.921   7.878
 1401SOL     OW21344   3.508   3.297   5.718
 1401SOL    HW121345   3.587   3.330   5.674
 1401SOL    HW221346   3.515   3.332   5.807
 1402SOL     OW21347   4.863   5.868   6.530
 1402SOL    HW121348   4.775   5.873   6.566
 1402SOL    HW221349   4.850   5.862   6.436
 1403SOL     OW21350   3.878   4.570   1.142
 1403SOL    HW121351   3.923   4.491   1.111
 1403SOL    HW221352   3.949   4.631   1.163
 1404SOL     OW21353   4.890   0.018   1.115
 1404SOL    HW121354   4.951  -0.002   1.044
 1404SOL    HW221355   4.879  -0.065   1.161
 1405SOL     OW21356   4.403   6.352   1.239
 1405SOL    HW121357   4.368   6.441   1.237
 1405SOL    HW221358   4.327   6.296   1.226
 1406SOL     OW21359   1.105   2.101   1.302
 1406SOL    HW121360   1.091   2.142   1.388
 1406SOL    HW221361   1.053   2.021   1.305
 1407SOL     OW21362   3.360   5.857   1.500
 1407SOL    HW121363   3.426   5.818   1.443
 1407SOL    HW221364   3.410   5.901   1.569
 1408SOL     OW21365   0.219   3.930   5.510
 1408SOL    HW121366   0.311   3.916   5.534
 1408SOL    HW221367   0.222   3.981   5.430
 1409SOL     OW21368   2.389   0.096   1.761
 1409SOL    HW121369   2.378   0.013   1.715
 1409SOL    HW221370   2.469   0.085   1.812
 1410SOL     OW21371   1.146   0.567   0.608
 1410SOL    HW121372   1.157   0.543   0.516
 1410SOL    HW221373   1.051   0.572   0.620
 1411SOL     OW21374   3.192   4.473   0.959
 1411SOL    HW121375   3.115   4.520   0.993
 1411SOL    HW221376   3.159   4.423   0.885
 1412SOL     OW21377   5.128   4.507   6.048
 1412SOL    HW121378   5.194   4.572   6.022
 1412SOL    HW221379   5.095   4.539   6.132
 1413SOL     OW21380   4.344   2.669   6.898
 1413SOL    HW121381   4.379   2.757   6.884
 1413SOL    HW221382   4.399   2.613   6.842
 1414SOL     OW21383   5.837   4.450   7.714
 1414SOL    HW121384   5.838   4.542   7.742
 1414SOL    HW221385   5.872   4.402   7.790
 1415SOL     OW21386   6.279   3.279   1.076
 1415SOL    HW121387   6.274   3.208   1.011
 1415SOL    HW221388   6.204   3.262   1.134
 1416SOL     OW21389   3.720   3.736   6.217
 1416SOL    HW121390   3.691   3.674   6.284
 1416SOL    HW221391   3.780   3.686   6.162
 1417SOL     OW21392   2.953   4.057   6.292
 1417SOL    HW121393   2.868   4.044   6.250
 1417SOL    HW221394   2.938   4.032   6.383
 1418SOL     OW21395   3.036   6.437   6.705
 1418SOL    HW121396   3.069   6.365   6.651
 1418SOL    HW221397   3.032   6.401   6.793
 1419SOL     OW21398   4.067   5.804   0.496
 1419SOL    HW121399   4.039   5.868   0.561
 1419SOL    HW221400   4.044   5.844   0.412
 1420SOL     OW21401   3.068   2.385   1.300
 1420SOL    HW121402   3.008   2.459   1.299
 1420SOL    HW221403   3.017   2.311   1.268
 1421SOL     OW21404   2.017   4.156   6.426
 1421SOL    HW121405   1.969   4.189   6.350
 1421SOL    HW221406   1.965   4.184   6.501
 1422SOL     OW21407   0.341   5.547   7.771
 1422SOL    HW121408   0.425   5.582   7.743
 1422SOL    HW221409   0.299   5.619   7.819
 1423SOL     OW21410   3.875   1.735   1.208
 1423SOL    HW121411   3.921   1.676   1.149
 1423SOL    HW221412   3.793   1.690   1.229
 1424SOL     OW21413   0.672   3.446   7.093
 1424SOL    HW121414   0.616   3.368   7.084
 1424SOL    HW221415   0.633   3.510   7.034
 1425SOL     OW21416   3.550   5.354   7.580
 1425SOL    HW121417   3.626   5.410   7.573
 1425SOL    HW221418   3.480   5.410   7.613
 1426SOL     OW21419   3.284   1.384   0.706
 1426SOL    HW121420   3.258   1.464   0.659
 1426SOL    HW221421   3.259   1.402   0.797
 1427SOL     OW21422   2.179   3.982   0.403
 1427SOL    HW121423   2.179   3.914   0.335
 1427SOL    HW221424   2.087   4.006   0.414
 1428SOL     OW21425   3.391   2.071   1.041
 1428SOL    HW121426   3.325   2.001   1.036
 1428SOL    HW221427   3.390   2.099   1.133
 1429SOL     OW21428   0.501   1.435   0.687
 1429SOL    HW121429   0.591   1.441   0.655
 1429SOL    HW221430   0.500   1.491   0.764
 1430SOL     OW21431   2.765   5.121   6.165
 1430SOL    HW121432   2.783   5.178   6.240
 1430SOL    HW221433   2.840   5.132   6.107
 1431SOL     OW21434   5.222   0.235   6.650
 1431SOL    HW121435   5.205   0.188   6.568
 1431SOL    HW221436   5.317   0.227   6.662
 1432SOL     OW21437   3.763   6.265   2.420
 1432SOL    HW121438   3.776   6.359   2.421
 1432SOL    HW221439   3.671   6.254   2.393
 1433SOL     OW21440   4.930   2.554   0.477
 1433SOL    HW121441   4.951   2.579   0.387
 1433SOL    HW221442   5.015   2.542   0.519
 1434SOL     OW21443   0.074   1.533   6.279
 1434SOL    HW121444   0.000   1.481   6.309
 1434SOL    HW221445   0.034   1.609   6.236
 1435SOL     OW21446   0.425   2.626   0.776
 1435SOL    HW121447   0.468   2.670   0.849
 1435SOL    HW221448   0.457   2.536   0.781
 1436SOL     OW21449   1.549   2.640   7.682
 1436SOL    HW121450   1.596   2.663   7.601
 1436SOL    HW221451   1.610   2.661   7.752
 1437SOL     OW21452   4.996   4.798   0.196
 1437SOL    HW121453   4.996   4.811   0.101
 1437SOL    HW221454   4.937   4.864   0.230
 1438SOL     OW21455   3.725   5.717   6.370
 1438SOL    HW121456   3.742   5.671   6.452
 1438SOL    HW221457   3.804   5.704   6.318
 1439SOL     OW21458   0.869   1.996   0.342
 1439SOL    HW121459   0.785   1.964   0.374
 1439SOL    HW221460   0.934   1.937   0.381
 1440SOL     OW21461   0.777   3.447   6.798
 1440SOL    HW121462   0.688   3.443   6.833
 1440SOL    HW221463   0.771   3.403   6.713
 1441SOL     OW21464   2.491   4.221   6.549
 1441SOL    HW121465   2.496   4.303   6.501
 1441SOL    HW221466   2.524   4.155   6.488
 1442SOL     OW21467   1.702   6.218   6.654
 1442SOL    HW121468   1.651   6.293   6.625
 1442SOL    HW221469   1.639   6.147   6.662
 1443SOL     OW21470   0.110   4.750   6.287
 1443SOL    HW121471   0.121   4.676   6.227
 1443SOL    HW221472   0.170   4.731   6.360
 1444SOL     OW21473   4.522   5.430   1.913
 1444SOL    HW121474   4.567   5.410   1.995
 1444SOL    HW221475   4.579   5.393   1.845
 1445SOL     OW21476   4.466   3.742   6.950
 1445SOL    HW121477   4.521   3.817   6.927
 1445SOL    HW221478   4.389   3.750   6.893
 1446SOL     OW21479   6.221   1.641   2.185
 1446SOL    HW121480   6.195   1.599   2.103
 1446SOL    HW221481   6.289   1.703   2.159
 1447SOL     OW21482   2.948   4.414   2.290
 1447SOL    HW121483   3.042   4.397   2.285
 1447SOL    HW221484   2.938   4.501   2.252
 1448SOL     OW21485   4.757   0.848   7.695
 1448SOL    HW121486   4.760   0.942   7.677
 1448SOL    HW221487   4.703   0.840   7.774
 1449SOL     OW21488   4.542   1.846   0.831
 1449SOL    HW121489   4.538   1.794   0.751
 1449SOL    HW221490   4.577   1.787   0.898
 1450SOL     OW21491   4.396   4.429   5.869
 1450SOL    HW121492   4.415   4.438   5.962
 1450SOL    HW221493   4.335   4.500   5.849
 1451SOL     OW21494   1.592   5.341   5.377
 1451SOL    HW121495   1.681   5.362   5.350
 1451SOL    HW221496   1.573   5.401   5.449
 1452SOL     OW21497   3.000   3.631   0.251
 1452SOL    HW121498   2.990   3.578   0.330
 1452SOL    HW221499   3.075   3.688   0.269
 1453SOL     OW21500   0.849   6.248   0.763
 1453SOL    HW121501   0.779   6.252   0.828
 1453SOL    HW221502   0.913   6.187   0.799
 1454SOL     OW21503   3.294   4.375   6.080
 1454SOL    HW121504   3.361   4.406   6.141
 1454SOL    HW221505   3.215   4.424   6.104
 1455SOL     OW21506   5.669   6.215   0.476
 1455SOL    HW121507   5.725   6.290   0.457
 1455SOL    HW221508   5.661   6.215   0.571
 1456SOL     OW21509   0.807   1.204   7.186
 1456SOL    HW121510   0.816   1.126   7.241
 1456SOL    HW221511   0.768   1.270   7.244
 1457SOL     OW21512   3.734   1.992   0.477
 1457SOL    HW121513   3.675   1.925   0.511
 1457SOL    HW221514   3.731   2.061   0.544
 1458SOL     OW21515   3.048   0.139   0.794
 1458SOL    HW121516   2.996   0.163   0.870
 1458SOL    HW221517   3.041   0.214   0.735
 1459SOL     OW21518   0.812   0.656   1.370
 1459SOL    HW121519   0.872   0.625   1.439
 1459SOL    HW221520   0.842   0.611   1.291
 1460SOL     OW21521   1.622   4.038   6.500
 1460SOL    HW121522   1.578   3.996   6.427
 1460SOL    HW221523   1.647   4.125   6.467
 1461SOL     OW21524   0.327   5.292   1.921
 1461SOL    HW121525   0.320   5.297   1.825
 1461SOL    HW221526   0.420   5.308   1.938
 1462SOL     OW21527   0.845   2.939   7.393
 1462SOL    HW121528   0.933   2.942   7.356
 1462SOL    HW221529   0.832   3.026   7.431
 1463SOL     OW21530   5.459   5.065   0.061
 1463SOL    HW121531   5.415   5.060  -0.024
 1463SOL    HW221532   5.520   5.138   0.053
 1464SOL     OW21533   3.318   0.225   0.644
 1464SOL    HW121534   3.301   0.315   0.615
 1464SOL    HW221535   3.294   0.170   0.569
 1465SOL     OW21536   3.069   4.017   7.795
 1465SOL    HW121537   3.024   4.060   7.868
 1465SOL    HW221538   3.070   3.924   7.819
 1466SOL     OW21539   2.817   5.835   7.507
 1466SOL    HW121540   2.784   5.746   7.500
 1466SOL    HW221541   2.858   5.839   7.594
 1467SOL     OW21542   4.214   0.971   6.466
 1467SOL    HW121543   4.301   1.002   6.440
 1467SOL    HW221544   4.213   0.979   6.561
 1468SOL     OW21545   4.238   5.720   6.328
 1468SOL    HW121546   4.229   5.813   6.349
 1468SOL    HW221547   4.222   5.715   6.234
 1469SOL     OW21548   1.980   3.472   5.836
 1469SOL    HW121549   1.967   3.540   5.770
 1469SOL    HW221550   2.068   3.487   5.870
 1470SOL     OW21551   5.661   6.054   1.765
 1470SOL    HW121552   5.663   6.013   1.851
 1470SOL    HW221553   5.636   5.983   1.705
 1471SOL     OW21554   2.282   2.931   6.950
 1471SOL    HW121555   2.353   2.992   6.969
 1471SOL    HW221556   2.324   2.846   6.941
 1472SOL     OW21557   6.029   4.493   6.293
 1472SOL    HW121558   6.120   4.524   6.300
 1472SOL    HW221559   5.978   4.556   6.344
 1473SOL     OW21560   5.341   5.499   7.051
 1473SOL    HW121561   5.293   5.573   7.089
 1473SOL    HW221562   5.304   5.488   6.964
 1474SOL     OW21563   5.209   5.988   6.298
 1474SOL    HW121564   5.262   5.959   6.372
 1474SOL    HW221565   5.273   6.006   6.229
 1475SOL     OW21566   0.249   1.459   1.828
 1475SOL    HW121567   0.204   1.431   1.908
 1475SOL    HW221568   0.304   1.384   1.804
 1476SOL     OW21569   6.217   3.614   6.409
 1476SOL    HW121570   6.246   3.686   6.466
 1476SOL    HW221571   6.295   3.560   6.398
 1477SOL     OW21572   2.046   0.681   0.480
 1477SOL    HW121573   2.117   0.737   0.511
 1477SOL    HW221574   2.090   0.613   0.428
 1478SOL     OW21575   0.257   1.720   1.317
 1478SOL    HW121576   0.188   1.783   1.340
 1478SOL    HW221577   0.296   1.696   1.401
 1479SOL     OW21578   4.251   0.764   7.761
 1479SOL    HW121579   4.263   0.685   7.708
 1479SOL    HW221580   4.190   0.737   7.830
 1480SOL     OW21581   5.559   3.001   6.312
 1480SOL    HW121582   5.513   3.044   6.240
 1480SOL    HW221583   5.589   3.073   6.367
 1481SOL     OW21584   1.030   3.401   7.645
 1481SOL    HW121585   0.942   3.430   7.623
 1481SOL    HW221586   1.045   3.325   7.588
 1482SOL     OW21587   2.405   3.648   0.808
 1482SOL    HW121588   2.446   3.671   0.724
 1482SOL    HW221589   2.323   3.607   0.783
 1483SOL     OW21590   0.737   1.431   7.409
 1483SOL    HW121591   0.745   1.396   7.498
 1483SOL    HW221592   0.816   1.485   7.399
 1484SOL     OW21593   0.982   4.565   1.414
 1484SOL    HW121594   1.052   4.520   1.462
 1484SOL    HW221595   1.025   4.639   1.371
 1485SOL     OW21596   3.023   5.443   7.545
 1485SOL    HW121597   3.085   5.396   7.489
 1485SOL    HW221598   2.942   5.444   7.494
 1486SOL     OW21599   3.860   2.834   2.036
 1486SOL    HW121600   3.873   2.928   2.041
 1486SOL    HW221601   3.775   2.819   2.077
 1487SOL     OW21602   5.172   0.090   6.430
 1487SOL    HW121603   5.191   0.012   6.378
 1487SOL    HW221604   5.080   0.110   6.411
 1488SOL     OW21605   5.501   4.043   0.568
 1488SOL    HW121606   5.582   4.064   0.614
 1488SOL    HW221607   5.435   4.096   0.612
 1489SOL     OW21608   3.311   0.465   7.474
 1489SOL    HW121609   3.296   0.479   7.381
 1489SOL    HW221610   3.337   0.551   7.507
 1490SOL     OW21611   0.394   0.480   5.545
 1490SOL    HW121612   0.429   0.464   5.458
 1490SOL    HW221613   0.334   0.407   5.561
 1491SOL     OW21614   5.994   1.911   0.423
 1491SOL    HW121615   5.987   1.888   0.515
 1491SOL    HW221616   5.930   1.981   0.410
 1492SOL     OW21617   3.873   1.956   6.073
 1492SOL    HW121618   3.797   1.932   6.020
 1492SOL    HW221619   3.843   1.944   6.163
 1493SOL     OW21620   5.127   1.110   6.993
 1493SOL    HW121621   5.128   1.030   6.940
 1493SOL    HW221622   5.214   1.148   6.982
 1494SOL     OW21623   6.398   4.870   6.934
 1494SOL    HW121624   6.323   4.923   6.909
 1494SOL    HW221625   6.387   4.856   7.028
 1495SOL     OW21626   0.350   6.035   0.121
 1495SOL    HW121627   0.306   6.095   0.061
 1495SOL    HW221628   0.303   6.045   0.204
 1496SOL     OW21629   0.088   1.970   0.694
 1496SOL    HW121630   0.035   1.998   0.768
 1496SOL    HW221631   0.172   1.944   0.732
 1497SOL     OW21632   1.650   2.287   5.928
 1497SOL    HW121633   1.628   2.367   5.881
 1497SOL    HW221634   1.642   2.217   5.862
 1498SOL     OW21635   5.702   3.455   0.855
 1498SOL    HW121636   5.709   3.442   0.949
 1498SOL    HW221637   5.713   3.549   0.843
 1499SOL     OW21638   6.345   3.354   6.345
 1499SOL    HW121639   6.272   3.315   6.298
 1499SOL    HW221640   6.330   3.329   6.437
 1500SOL     OW21641   6.173   5.809   0.591
 1500SOL    HW121642   6.184   5.846   0.503
 1500SOL    HW221643   6.237   5.738   0.594
 1501SOL     OW21644   4.013   6.242   7.433
 1501SOL    HW121645   4.028   6.210   7.344
 1501SOL    HW221646   3.961   6.321   7.421
 1502SOL     OW21647   0.309   4.699   1.655
 1502SOL    HW121648   0.253   4.705   1.732
 1502SOL    HW221649   0.284   4.774   1.601
 1503SOL     OW21650   1.143   2.691   0.419
 1503SOL    HW121651   1.096   2.619   0.377
 1503SOL    HW221652   1.227   2.693   0.373
 1504SOL     OW21653   4.079   1.809   6.449
 1504SOL    HW121654   4.090   1.714   6.444
 1504SOL    HW221655   4.011   1.828   6.384
 1505SOL     OW21656   1.134   5.199   2.024
 1505SOL    HW121657   1.101   5.153   2.100
 1505SOL    HW221658   1.221   5.162   2.009
 1506SOL     OW21659   0.624   6.109   6.752
 1506SOL    HW121660   0.556   6.043   6.766
 1506SOL    HW221661   0.643   6.142   6.840
 1507SOL     OW21662   0.084   0.205   0.089
 1507SOL    HW121663   0.177   0.200   0.066
 1507SOL    HW221664   0.056   0.290   0.057
 1508SOL     OW21665   5.352   1.461   5.568
 1508SOL    HW121666   5.420   1.504   5.516
 1508SOL    HW221667   5.341   1.375   5.526
 1509SOL     OW21668   5.768   4.524   1.656
 1509SOL    HW121669   5.767   4.438   1.615
 1509SOL    HW221670   5.716   4.514   1.735
 1510SOL     OW21671   1.460   4.845   0.614
 1510SOL    HW121672   1.536   4.900   0.598
 1510SOL    HW221673   1.385   4.901   0.592
 1511SOL     OW21674   4.029   1.254   1.180
 1511SOL    HW121675   3.958   1.284   1.124
 1511SOL    HW221676   4.098   1.227   1.120
 1512SOL     OW21677   1.028   1.335   7.530
 1512SOL    HW121678   1.048   1.427   7.549
 1512SOL    HW221679   0.936   1.325   7.555
 1513SOL     OW21680   1.384   4.731   6.445
 1513SOL    HW121681   1.330   4.781   6.384
 1513SOL    HW221682   1.440   4.677   6.389
 1514SOL     OW21683   0.516   5.238   6.605
 1514SOL    HW121684   0.568   5.198   6.675
 1514SOL    HW221685   0.426   5.229   6.634
 1515SOL     OW21686   3.231   0.967   2.070
 1515SOL    HW121687   3.156   1.011   2.109
 1515SOL    HW221688   3.299   1.034   2.068
 1516SOL     OW21689   6.271   2.998   7.141
 1516SOL    HW121690   6.249   2.907   7.159
 1516SOL    HW221691   6.194   3.048   7.169
 1517SOL     OW21692   4.547   4.539   6.241
 1517SOL    HW121693   4.573   4.600   6.172
 1517SOL    HW221694   4.601   4.564   6.316
 1518SOL     OW21695   5.623   0.051   6.636
 1518SOL    HW121696   5.572  -0.025   6.666
 1518SOL    HW221697   5.566   0.095   6.574
 1519SOL     OW21698   4.862   2.281   6.963
 1519SOL    HW121699   4.952   2.276   6.930
 1519SOL    HW221700   4.841   2.375   6.961
 1520SOL     OW21701   1.467   0.204   7.653
 1520SOL    HW121702   1.559   0.176   7.648
 1520SOL    HW221703   1.461   0.251   7.736
 1521SOL     OW21704   1.798   4.546   6.007
 1521SOL    HW121705   1.822   4.465   5.963
 1521SOL    HW221706   1.873   4.565   6.064
 1522SOL     OW21707   4.039   0.153   0.421
 1522SOL    HW121708   3.949   0.159   0.453
 1522SOL    HW221709   4.069   0.066   0.449
 1523SOL     OW21710   5.985   0.822   1.013
 1523SOL    HW121711   6.011   0.821   0.920
 1523SOL    HW221712   5.933   0.902   1.022
 1524SOL     OW21713   1.536   5.950   2.711
 1524SOL    HW121714   1.459   5.903   2.678
 1524SOL    HW221715   1.551   6.019   2.647
 1525SOL     OW21716   1.811   4.930   6.637
 1525SOL    HW121717   1.858   4.873   6.698
 1525SOL    HW221718   1.749   4.873   6.593
 1526SOL     OW21719   1.360   0.473   6.520
 1526SOL    HW121720   1.286   0.482   6.580
 1526SOL    HW221721   1.335   0.525   6.444
 1527SOL     OW21722   4.148   1.388   0.133
 1527SOL    HW121723   4.098   1.448   0.077
 1527SOL    HW221724   4.230   1.435   0.150
 1528SOL     OW21725   0.021   3.470   5.630
 1528SOL    HW121726   0.058   3.558   5.620
 1528SOL    HW221727  -0.014   3.449   5.543
 1529SOL     OW21728   1.023   3.749   0.851
 1529SOL    HW121729   1.113   3.780   0.852
 1529SOL    HW221730   1.017   3.692   0.928
 1530SOL     OW21731   3.463   5.480   1.234
 1530SOL    HW121732   3.536   5.475   1.174
 1530SOL    HW221733   3.385   5.481   1.178
 1531SOL     OW21734   0.167   0.766   7.460
 1531SOL    HW121735   0.228   0.751   7.387
 1531SOL    HW221736   0.090   0.806   7.420
 1532SOL     OW21737   0.519   5.152   6.278
 1532SOL    HW121738   0.474   5.152   6.193
 1532SOL    HW221739   0.458   5.195   6.337
 1533SOL     OW21740   5.036   1.539   6.881
 1533SOL    HW121741   5.054   1.620   6.833
 1533SOL    HW221742   5.115   1.524   6.933
 1534SOL     OW21743   3.023   4.246   7.450
 1534SOL    HW121744   2.989   4.161   7.476
 1534SOL    HW221745   3.091   4.265   7.515
 1535SOL     OW21746   2.813   4.301   5.537
 1535SOL    HW121747   2.729   4.343   5.558
 1535SOL    HW221748   2.810   4.218   5.584
 1536SOL     OW21749   2.614   1.049   1.663
 1536SOL    HW121750   2.592   1.041   1.756
 1536SOL    HW221751   2.702   1.087   1.663
 1537SOL     OW21752   1.587   2.431   0.337
 1537SOL    HW121753   1.504   2.398   0.372
 1537SOL    HW221754   1.572   2.437   0.243
 1538SOL     OW21755   1.500   2.178   0.941
 1538SOL    HW121756   1.429   2.200   0.882
 1538SOL    HW221757   1.557   2.120   0.890
 1539SOL     OW21758   1.439   5.898   7.824
 1539SOL    HW121759   1.533   5.906   7.839
 1539SOL    HW221760   1.405   5.863   7.906
 1540SOL     OW21761   1.774   1.044   0.477
 1540SOL    HW121762   1.786   1.089   0.393
 1540SOL    HW221763   1.787   1.112   0.543
 1541SOL     OW21764   2.355   1.099   0.374
 1541SOL    HW121765   2.328   1.184   0.409
 1541SOL    HW221766   2.323   1.036   0.439
 1542SOL     OW21767   5.590   5.666   2.180
 1542SOL    HW121768   5.592   5.646   2.274
 1542SOL    HW221769   5.591   5.762   2.177
 1543SOL     OW21770   5.992   5.857   7.436
 1543SOL    HW121771   5.984   5.843   7.341
 1543SOL    HW221772   6.081   5.889   7.448
 1544SOL     OW21773   5.853   3.893   0.177
 1544SOL    HW121774   5.869   3.914   0.085
 1544SOL    HW221775   5.770   3.846   0.177
 1545SOL     OW21776   6.362   5.436   7.393
 1545SOL    HW121777   6.353   5.504   7.326
 1545SOL    HW221778   6.361   5.484   7.476
 1546SOL     OW21779   5.092   6.021   1.050
 1546SOL    HW121780   5.125   5.993   0.964
 1546SOL    HW221781   5.020   6.080   1.029
 1547SOL     OW21782   2.620   1.127   1.161
 1547SOL    HW121783   2.588   1.140   1.071
 1547SOL    HW221784   2.673   1.205   1.178
 1548SOL     OW21785   4.855   2.400   6.058
 1548SOL    HW121786   4.942   2.429   6.087
 1548SOL    HW221787   4.872   2.318   6.011
 1549SOL     OW21788   1.119   4.704   7.541
 1549SOL    HW121789   1.138   4.645   7.468
 1549SOL    HW221790   1.204   4.719   7.582
 1550SOL     OW21791   3.186   1.249   1.618
 1550SOL    HW121792   3.115   1.196   1.581
 1550SOL    HW221793   3.168   1.250   1.712
 1551SOL     OW21794   5.147   2.272   0.267
 1551SOL    HW121795   5.076   2.229   0.219
 1551SOL    HW221796   5.226   2.225   0.241
 1552SOL     OW21797   4.840   1.685   0.416
 1552SOL    HW121798   4.890   1.763   0.440
 1552SOL    HW221799   4.866   1.667   0.325
 1553SOL     OW21800   4.959   0.484   6.257
 1553SOL    HW121801   5.046   0.476   6.294
 1553SOL    HW221802   4.956   0.419   6.187
 1554SOL     OW21803   1.554   4.923   7.033
 1554SOL    HW121804   1.570   5.018   7.028
 1554SOL    HW221805   1.514   4.901   6.948
 1555SOL     OW21806   4.890   6.108   5.294
 1555SOL    HW121807   4.821   6.043   5.310
 1555SOL    HW221808   4.845   6.179   5.248
 1556SOL     OW21809   0.299   0.182   6.783
 1556SOL    HW121810   0.282   0.193   6.877
 1556SOL    HW221811   0.330   0.092   6.775
 1557SOL     OW21812   3.619   3.109   1.212
 1557SOL    HW121813   3.621   3.196   1.170
 1557SOL    HW221814   3.710   3.094   1.239
 1558SOL     OW21815   3.600   4.128   7.263
 1558SOL    HW121816   3.595   4.087   7.176
 1558SOL    HW221817   3.661   4.201   7.251
 1559SOL     OW21818   2.560   3.167   1.808
 1559SOL    HW121819   2.508   3.153   1.887
 1559SOL    HW221820   2.619   3.239   1.830
 1560SOL     OW21821   4.101   2.187   1.398
 1560SOL    HW121822   4.063   2.118   1.343
 1560SOL    HW221823   4.026   2.224   1.444
 1561SOL     OW21824   5.172   4.248   2.191
 1561SOL    HW121825   5.106   4.189   2.227
 1561SOL    HW221826   5.205   4.296   2.267
 1562SOL     OW21827   2.467   1.585   6.396
 1562SOL    HW121828   2.469   1.539   6.480
 1562SOL    HW221829   2.547   1.558   6.352
 1563SOL     OW21830   0.937   2.801   0.084
 1563SOL    HW121831   0.851   2.772   0.052
 1563SOL    HW221832   0.931   2.791   0.179
 1564SOL     OW21833   2.362   3.090   7.364
 1564SOL    HW121834   2.274   3.117   7.390
 1564SOL    HW221835   2.394   3.037   7.437
 1565SOL     OW21836   3.329   4.263   1.067
 1565SOL    HW121837   3.295   4.351   1.050
 1565SOL    HW221838   3.272   4.206   1.015
 1566SOL     OW21839   2.607   2.990   1.313
 1566SOL    HW121840   2.564   3.000   1.399
 1566SOL    HW221841   2.682   3.050   1.318
 1567SOL     OW21842   1.264   4.831   0.235
 1567SOL    HW121843   1.290   4.923   0.239
 1567SOL    HW221844   1.168   4.833   0.231
 1568SOL     OW21845   4.893   4.705   0.637
 1568SOL    HW121846   4.986   4.724   0.628
 1568SOL    HW221847   4.886   4.612   0.617
 1569SOL     OW21848   3.241   1.176   1.174
 1569SOL    HW121849   3.185   1.101   1.195
 1569SOL    HW221850   3.330   1.140   1.175
 1570SOL     OW21851   0.577   6.436   7.270
 1570SOL    HW121852   0.599   6.519   7.313
 1570SOL    HW221853   0.633   6.371   7.313
 1571SOL     OW21854   3.700   5.396   1.444
 1571SOL    HW121855   3.729   5.405   1.535
 1571SOL    HW221856   3.609   5.366   1.451
 1572SOL     OW21857   1.916   1.839   0.277
 1572SOL    HW121858   1.941   1.899   0.207
 1572SOL    HW221859   1.830   1.806   0.252
 1573SOL     OW21860   3.068   0.229   1.438
 1573SOL    HW121861   3.132   0.224   1.509
 1573SOL    HW221862   3.104   0.295   1.379
 1574SOL     OW21863   0.714   0.090   1.332
 1574SOL    HW121864   0.626   0.120   1.308
 1574SOL    HW221865   0.742   0.151   1.401
 1575SOL     OW21866   5.067   2.208   7.206
 1575SOL    HW121867   5.093   2.151   7.133
 1575SOL    HW221868   4.992   2.257   7.173
 1576SOL     OW21869   0.848   3.153   6.102
 1576SOL    HW121870   0.908   3.204   6.156
 1576SOL    HW221871   0.841   3.068   6.145
 1577SOL     OW21872   0.400   3.778   0.598
 1577SOL    HW121873   0.381   3.699   0.548
 1577SOL    HW221874   0.414   3.748   0.688
 1578SOL     OW21875   3.727   4.771   1.289
 1578SOL    HW121876   3.786   4.772   1.365
 1578SOL    HW221877   3.744   4.688   1.246
 1579SOL     OW21878   4.563   3.352   7.460
 1579SOL    HW121879   4.516   3.352   7.376
 1579SOL    HW221880   4.636   3.412   7.446
 1580SOL     OW21881   4.199   5.691   0.261
 1580SOL    HW121882   4.189   5.772   0.310
 1580SOL    HW221883   4.223   5.625   0.326
 1581SOL     OW21884   3.220   5.909   7.607
 1581SOL    HW121885   3.186   5.983   7.557
 1581SOL    HW221886   3.145   5.851   7.619
 1582SOL     OW21887   4.623   3.375   6.893
 1582SOL    HW121888   4.573   3.435   6.838
 1582SOL    HW221889   4.645   3.302   6.834
 1583SOL     OW21890   2.510   4.769   6.047
 1583SOL    HW121891   2.517   4.683   6.006
 1583SOL    HW221892   2.556   4.827   5.986
 1584SOL     OW21893   1.139   4.920   1.555
 1584SOL    HW121894   1.045   4.904   1.551
 1584SOL    HW221895   1.161   4.916   1.648
 1585SOL     OW21896   3.842   5.558   1.280
 1585SOL    HW121897   3.777   5.510   1.331
 1585SOL    HW221898   3.841   5.646   1.318
 1586SOL     OW21899   2.465   4.829   5.230
 1586SOL    HW121900   2.498   4.897   5.171
 1586SOL    HW221901   2.467   4.869   5.316
 1587SOL     OW21902   1.629   5.417   6.235
 1587SOL    HW121903   1.647   5.397   6.327
 1587SOL    HW221904   1.536   5.397   6.224
 1588SOL     OW21905   3.681   1.009   7.674
 1588SOL    HW121906   3.618   0.968   7.613
 1588SOL    HW221907   3.626   1.058   7.735
 1589SOL     OW21908   4.933   0.175   7.782
 1589SOL    HW121909   4.860   0.210   7.834
 1589SOL    HW221910   4.953   0.091   7.823
 1590SOL     OW21911   1.724   1.911   7.395
 1590SOL    HW121912   1.721   1.841   7.460
 1590SOL    HW221913   1.713   1.866   7.311
 1591SOL     OW21914   1.311   2.366   6.902
 1591SOL    HW121915   1.243   2.429   6.879
 1591SOL    HW221916   1.264   2.285   6.922
 1592SOL     OW21917   6.386   5.727   0.360
 1592SOL    HW121918   6.331   5.791   0.315
 1592SOL    HW221919   6.460   5.777   0.393
 1593SOL     OW21920   3.175   0.937   2.397
 1593SOL    HW121921   3.105   0.980   2.446
 1593SOL    HW221922   3.160   0.963   2.306
 1594SOL     OW21923   1.589   2.689   1.067
 1594SOL    HW121924   1.678   2.665   1.039
 1594SOL    HW221925   1.540   2.697   0.985
 1595SOL     OW21926   5.672   2.273   7.640
 1595SOL    HW121927   5.728   2.229   7.703
 1595SOL    HW221928   5.583   2.252   7.668
 1596SOL     OW21929   1.492   0.229   1.609
 1596SOL    HW121930   1.499   0.217   1.515
 1596SOL    HW221931   1.557   0.170   1.647
 1597SOL     OW21932   4.290   0.863   6.109
 1597SOL    HW121933   4.330   0.797   6.052
 1597SOL    HW221934   4.199   0.867   6.079
 1598SOL     OW21935   4.019   5.596   6.451
 1598SOL    HW121936   4.102   5.624   6.413
 1598SOL    HW221937   3.976   5.678   6.479
 1599SOL     OW21938   5.624   2.999   0.156
 1599SOL    HW121939   5.705   3.032   0.196
 1599SOL    HW221940   5.621   2.906   0.180
 1600SOL     OW21941   3.099   0.760   0.558
 1600SOL    HW121942   3.186   0.796   0.571
 1600SOL    HW221943   3.049   0.792   0.633
 1601SOL     OW21944   0.745   4.045   0.349
 1601SOL    HW121945   0.797   4.067   0.426
 1601SOL    HW221946   0.720   3.953   0.363
 1602SOL     OW21947   5.955   5.232   6.822
 1602SOL    HW121948   5.941   5.319   6.783
 1602SOL    HW221949   5.932   5.244   6.914
 1603SOL     OW21950   6.132   4.394   7.704
 1603SOL    HW121951   6.089   4.477   7.687
 1603SOL    HW221952   6.070   4.344   7.757
 1604SOL     OW21953   0.072   3.015   0.479
 1604SOL    HW121954  -0.003   2.962   0.450
 1604SOL    HW221955   0.136   3.008   0.408
 1605SOL     OW21956   1.352   4.579   0.299
 1605SOL    HW121957   1.342   4.665   0.257
 1605SOL    HW221958   1.313   4.518   0.237
 1606SOL     OW21959   2.282   4.349   7.305
 1606SOL    HW121960   2.269   4.256   7.291
 1606SOL    HW221961   2.372   4.357   7.336
 1607SOL     OW21962   2.907   2.363   6.899
 1607SOL    HW121963   2.857   2.437   6.933
 1607SOL    HW221964   2.966   2.401   6.835
 1608SOL     OW21965   6.235   5.572   0.067
 1608SOL    HW121966   6.170   5.637   0.040
 1608SOL    HW221967   6.216   5.557   0.160
 1609SOL     OW21968   3.373   2.545   0.244
 1609SOL    HW121969   3.314   2.563   0.317
 1609SOL    HW221970   3.461   2.562   0.280
 1610SOL     OW21971   2.693   1.394   1.166
 1610SOL    HW121972   2.788   1.387   1.156
 1610SOL    HW221973   2.681   1.458   1.236
 1611SOL     OW21974   0.460   4.377   0.072
 1611SOL    HW121975   0.469   4.315   0.144
 1611SOL    HW221976   0.548   4.388   0.037
 1612SOL     OW21977   6.025   2.096   6.798
 1612SOL    HW121978   5.944   2.097   6.747
 1612SOL    HW221979   6.091   2.135   6.741
 1613SOL     OW21980   2.849   3.606   6.477
 1613SOL    HW121981   2.805   3.526   6.450
 1613SOL    HW221982   2.838   3.608   6.572
 1614SOL     OW21983   4.741   2.703   1.254
 1614SOL    HW121984   4.727   2.646   1.178
 1614SOL    HW221985   4.666   2.762   1.254
 1615SOL     OW21986   3.115   4.372   6.922
 1615SOL    HW121987   3.171   4.346   6.995
 1615SOL    HW221988   3.082   4.290   6.886
 1616SOL     OW21989   3.121   2.820   1.652
 1616SOL    HW121990   3.030   2.850   1.652
 1616SOL    HW221991   3.150   2.832   1.743
 1617SOL     OW21992   3.064   3.349   0.186
 1617SOL    HW121993   3.016   3.411   0.241
 1617SOL    HW221994   3.133   3.402   0.145
 1618SOL     OW21995   3.528   5.680   1.391
 1618SOL    HW121996   3.577   5.719   1.318
 1618SOL    HW221997   3.494   5.598   1.356
 1619SOL     OW21998   4.986   4.592   1.726
 1619SOL    HW121999   5.048   4.522   1.707
 1619SOL    HW222000   4.974   4.637   1.642
 1620SOL     OW22001   5.984   5.237   0.850
 1620SOL    HW122002   6.047   5.255   0.919
 1620SOL    HW222003   5.998   5.145   0.828
 1621SOL     OW22004   4.338   3.859   7.185
 1621SOL    HW122005   4.308   3.776   7.222
 1621SOL    HW222006   4.408   3.835   7.125
 1622SOL     OW22007   2.395   3.109   4.405
 1622SOL    HW122008   2.458   3.046   4.442
 1622SOL    HW222009   2.426   3.194   4.436
 1623SOL     OW22010   2.727   3.585   0.112
 1623SOL    HW122011   2.783   3.564   0.186
 1623SOL    HW222012   2.643   3.543   0.131
 1624SOL     OW22013   4.466   1.469   0.996
 1624SOL    HW122014   4.533   1.443   1.060
 1624SOL    HW222015   4.505   1.448   0.911
 1625SOL     OW22016   2.101   1.410   7.210
 1625SOL    HW122017   2.091   1.353   7.134
 1625SOL    HW222018   2.011   1.424   7.241
 1626SOL     OW22019   1.324   4.260   7.159
 1626SOL    HW122020   1.232   4.246   7.182
 1626SOL    HW222021   1.331   4.228   7.070
 1627SOL     OW22022   0.872   2.268   7.076
 1627SOL    HW122023   0.820   2.238   7.002
 1627SOL    HW222024   0.844   2.359   7.089
 1628SOL     OW22025   6.274   0.557   0.965
 1628SOL    HW122026   6.343   0.503   1.004
 1628SOL    HW222027   6.311   0.587   0.882
 1629SOL     OW22028   6.328   4.129   7.163
 1629SOL    HW122029   6.372   4.209   7.133
 1629SOL    HW222030   6.299   4.149   7.252
 1630SOL     OW22031   1.715   2.050   1.899
 1630SOL    HW122032   1.781   2.041   1.967
 1630SOL    HW222033   1.648   2.108   1.937
 1631SOL     OW22034   1.350   3.922   6.829
 1631SOL    HW122035   1.302   3.963   6.757
 1631SOL    HW222036   1.408   3.859   6.786
 1632SOL     OW22037   3.977   2.673   5.553
 1632SOL    HW122038   4.005   2.582   5.565
 1632SOL    HW222039   4.013   2.697   5.467
 1633SOL     OW22040   4.926   0.372   6.019
 1633SOL    HW122041   5.008   0.395   5.975
 1633SOL    HW222042   4.858   0.393   5.954
 1634SOL     OW22043   1.888   0.596   5.929
 1634SOL    HW122044   1.929   0.682   5.928
 1634SOL    HW222045   1.806   0.608   5.881
 1635SOL     OW22046   0.033   2.212   7.763
 1635SOL    HW122047   0.116   2.247   7.732
 1635SOL    HW222048  -0.009   2.286   7.808
 1636SOL     OW22049   5.294   4.107   1.174
 1636SOL    HW122050   5.243   4.028   1.156
 1636SOL    HW222051   5.319   4.098   1.266
 1637SOL     OW22052   2.214   2.554   6.228
 1637SOL    HW122053   2.297   2.508   6.236
 1637SOL    HW222054   2.148   2.491   6.257
 1638SOL     OW22055   0.641   4.038   0.899
 1638SOL    HW122056   0.697   3.971   0.939
 1638SOL    HW222057   0.599   4.081   0.973
 1639SOL     OW22058   5.284   1.857   0.334
 1639SOL    HW122059   5.265   1.908   0.413
 1639SOL    HW222060   5.201   1.816   0.311
 1640SOL     OW22061   4.728   1.688   7.784
 1640SOL    HW122062   4.802   1.659   7.837
 1640SOL    HW222063   4.651   1.658   7.832
 1641SOL     OW22064   1.476   1.867   5.822
 1641SOL    HW122065   1.485   1.892   5.914
 1641SOL    HW222066   1.479   1.950   5.774
 1642SOL     OW22067   5.165   1.911   2.025
 1642SOL    HW122068   5.071   1.927   2.021
 1642SOL    HW222069   5.176   1.853   2.101
 1643SOL     OW22070   3.827   0.310   7.219
 1643SOL    HW122071   3.732   0.306   7.228
 1643SOL    HW222072   3.861   0.259   7.293
 1644SOL     OW22073   1.851   4.320   1.980
 1644SOL    HW122074   1.893   4.402   1.955
 1644SOL    HW222075   1.923   4.261   1.998
 1645SOL     OW22076   1.101   0.956   0.361
 1645SOL    HW122077   1.043   0.881   0.375
 1645SOL    HW222078   1.185   0.928   0.396
 1646SOL     OW22079   5.782   2.133   0.755
 1646SOL    HW122080   5.875   2.152   0.768
 1646SOL    HW222081   5.756   2.085   0.833
 1647SOL     OW22082   3.961   1.998   1.267
 1647SOL    HW122083   3.909   1.917   1.260
 1647SOL    HW222084   3.929   2.052   1.194
 1648SOL     OW22085   5.231   5.732   1.320
 1648SOL    HW122086   5.213   5.823   1.298
 1648SOL    HW222087   5.153   5.684   1.291
 1649SOL     OW22088   0.411   2.640   2.143
 1649SOL    HW122089   0.458   2.573   2.194
 1649SOL    HW222090   0.480   2.686   2.096
 1650SOL     OW22091   2.973   3.016   5.006
 1650SOL    HW122092   3.038   3.061   5.060
 1650SOL    HW222093   2.895   3.013   5.061
 1651SOL     OW22094   5.378   4.546   2.284
 1651SOL    HW122095   5.366   4.471   2.341
 1651SOL    HW222096   5.385   4.509   2.196
 1652SOL     OW22097   1.337   3.521   6.941
 1652SOL    HW122098   1.398   3.447   6.936
 1652SOL    HW222099   1.364   3.578   6.869
 1653SOL     OW22100   0.116   2.595   6.913
 1653SOL    HW122101   0.088   2.545   6.837
 1653SOL    HW222102   0.086   2.685   6.895
 1654SOL     OW22103   4.557   5.948   1.925
 1654SOL    HW122104   4.645   5.955   1.963
 1654SOL    HW222105   4.550   5.856   1.900
 1655SOL     OW22106   5.967   3.642   0.008
 1655SOL    HW122107   5.912   3.718  -0.009
 1655SOL    HW222108   5.981   3.602  -0.078
 1656SOL     OW22109   3.993   3.662   6.156
 1656SOL    HW122110   3.987   3.608   6.078
 1656SOL    HW222111   4.032   3.605   6.223
 1657SOL     OW22112   5.616   4.933   0.300
 1657SOL    HW122113   5.557   4.968   0.234
 1657SOL    HW222114   5.681   5.001   0.313
 1658SOL     OW22115   2.473   3.592   7.654
 1658SOL    HW122116   2.412   3.542   7.600
 1658SOL    HW222117   2.547   3.611   7.596
 1659SOL     OW22118   4.078   4.412   0.267
 1659SOL    HW122119   4.025   4.413   0.188
 1659SOL    HW222120   4.095   4.504   0.286
 1660SOL     OW22121   5.706   3.952   6.702
 1660SOL    HW122122   5.791   3.916   6.675
 1660SOL    HW222123   5.661   3.879   6.744
 1661SOL     OW22124   2.079   3.485   0.400
 1661SOL    HW122125   2.105   3.416   0.339
 1661SOL    HW222126   2.013   3.535   0.352
 1662SOL     OW22127   5.268   0.023   1.988
 1662SOL    HW122128   5.342   0.081   2.004
 1662SOL    HW222129   5.272   0.003   1.895
 1663SOL     OW22130   5.710   3.341   5.822
 1663SOL    HW122131   5.786   3.346   5.880
 1663SOL    HW222132   5.721   3.414   5.762
 1664SOL     OW22133   1.866   3.570   0.281
 1664SOL    HW122134   1.808   3.646   0.271
 1664SOL    HW222135   1.807   3.497   0.298
 1665SOL     OW22136   2.360   5.579   1.626
 1665SOL    HW122137   2.272   5.613   1.638
 1665SOL    HW222138   2.416   5.656   1.630
 1666SOL     OW22139   5.252   0.308   2.264
 1666SOL    HW122140   5.328   0.259   2.233
 1666SOL    HW222141   5.185   0.242   2.277
 1667SOL     OW22142   2.926   0.244   1.017
 1667SOL    HW122143   2.883   0.328   1.000
 1667SOL    HW222144   2.854   0.180   1.015
 1668SOL     OW22145   3.339   3.578   5.684
 1668SOL    HW122146   3.284   3.634   5.629
 1668SOL    HW222147   3.404   3.542   5.624
 1669SOL     OW22148   4.722   2.165   0.243
 1669SOL    HW122149   4.719   2.134   0.333
 1669SOL    HW222150   4.657   2.235   0.240
 1670SOL     OW22151   2.715   0.677   1.524
 1670SOL    HW122152   2.654   0.742   1.488
 1670SOL    HW222153   2.777   0.728   1.575
 1671SOL     OW22154   4.657   2.550   0.492
 1671SOL    HW122155   4.640   2.642   0.508
 1671SOL    HW222156   4.752   2.542   0.492
 1672SOL     OW22157   0.527   1.679   7.812
 1672SOL    HW122158   0.512   1.624   7.735
 1672SOL    HW222159   0.440   1.709   7.838
 1673SOL     OW22160   3.214   2.699   7.371
 1673SOL    HW122161   3.187   2.637   7.438
 1673SOL    HW222162   3.310   2.703   7.378
 1674SOL     OW22163   5.524   0.024   0.446
 1674SOL    HW122164   5.478   0.059   0.369
 1674SOL    HW222165   5.516   0.093   0.512
 1675SOL     OW22166   6.342   6.124   7.264
 1675SOL    HW122167   6.305   6.190   7.322
 1675SOL    HW222168   6.281   6.119   7.191
 1676SOL     OW22169   1.403   2.598   6.045
 1676SOL    HW122170   1.351   2.564   5.971
 1676SOL    HW222171   1.363   2.558   6.122
 1677SOL     OW22172   5.237   5.592   2.074
 1677SOL    HW122173   5.257   5.568   2.164
 1677SOL    HW222174   5.142   5.603   2.073
 1678SOL     OW22175   0.472   3.568   6.613
 1678SOL    HW122176   0.452   3.660   6.594
 1678SOL    HW222177   0.482   3.564   6.708
 1679SOL     OW22178   0.953   5.866   0.064
 1679SOL    HW122179   1.020   5.839   0.001
 1679SOL    HW222180   1.002   5.916   0.130
 1680SOL     OW22181   5.468   5.997   0.684
 1680SOL    HW122182   5.457   6.081   0.639
 1680SOL    HW222183   5.562   5.980   0.680
 1681SOL     OW22184   1.491   3.685   7.166
 1681SOL    HW122185   1.441   3.732   7.232
 1681SOL    HW222186   1.427   3.663   7.098
 1682SOL     OW22187   0.931   2.220   0.637
 1682SOL    HW122188   0.896   2.279   0.571
 1682SOL    HW222189   0.872   2.144   0.635
 1683SOL     OW22190   0.639   0.023   5.952
 1683SOL    HW122191   0.684   0.046   6.033
 1683SOL    HW222192   0.622   0.106   5.908
 1684SOL     OW22193   3.103   5.394   6.808
 1684SOL    HW122194   3.094   5.312   6.758
 1684SOL    HW222195   3.083   5.463   6.745
 1685SOL     OW22196   5.218   4.417   0.515
 1685SOL    HW122197   5.181   4.383   0.434
 1685SOL    HW222198   5.286   4.479   0.487
 1686SOL     OW22199   3.335   0.663   1.133
 1686SOL    HW122200   3.336   0.698   1.222
 1686SOL    HW222201   3.427   0.647   1.112
 1687SOL     OW22202   2.813   6.398   7.135
 1687SOL    HW122203   2.870   6.321   7.124
 1687SOL    HW222204   2.739   6.365   7.186
 1688SOL     OW22205   3.351   3.144   7.099
 1688SOL    HW122206   3.373   3.225   7.146
 1688SOL    HW222207   3.255   3.143   7.098
 1689SOL     OW22208   1.586   4.730   1.433
 1689SOL    HW122209   1.533   4.755   1.358
 1689SOL    HW222210   1.523   4.715   1.504
 1690SOL     OW22211   4.112   1.124   6.235
 1690SOL    HW122212   4.133   1.065   6.308
 1690SOL    HW222213   4.019   1.144   6.247
 1691SOL     OW22214   3.460   3.975   6.133
 1691SOL    HW122215   3.369   3.995   6.154
 1691SOL    HW222216   3.512   4.024   6.197
 1692SOL     OW22217   0.297   4.020   7.172
 1692SOL    HW122218   0.243   4.056   7.243
 1692SOL    HW222219   0.385   4.054   7.190
 1693SOL     OW22220   3.842   5.872   1.613
 1693SOL    HW122221   3.842   5.867   1.518
 1693SOL    HW222222   3.798   5.792   1.642
 1694SOL     OW22223   4.105   2.419   5.603
 1694SOL    HW122224   4.048   2.346   5.626
 1694SOL    HW222225   4.173   2.380   5.548
 1695SOL     OW22226   4.526   5.276   0.553
 1695SOL    HW122227   4.591   5.338   0.588
 1695SOL    HW222228   4.530   5.290   0.458
 1696SOL     OW22229   4.546   3.539   1.431
 1696SOL    HW122230   4.625   3.500   1.469
 1696SOL    HW222231   4.501   3.465   1.389
 1697SOL     OW22232   2.657   4.582   5.336
 1697SOL    HW122233   2.681   4.607   5.246
 1697SOL    HW222234   2.660   4.664   5.385
 1698SOL     OW22235   3.639   0.493   1.485
 1698SOL    HW122236   3.657   0.586   1.492
 1698SOL    HW222237   3.724   0.451   1.492
 1699SOL     OW22238   2.054   5.043   0.556
 1699SOL    HW122239   2.125   5.000   0.603
 1699SOL    HW222240   2.087   5.131   0.538
 1700SOL     OW22241   1.377   2.669   7.092
 1700SOL    HW122242   1.444   2.686   7.158
 1700SOL    HW222243   1.324   2.598   7.129
 1701SOL     OW22244   5.618   5.132   1.465
 1701SOL    HW122245   5.544   5.077   1.440
 1701SOL    HW222246   5.694   5.074   1.458
 1702SOL     OW22247   1.269   2.999   1.273
 1702SOL    HW122248   1.217   2.951   1.336
 1702SOL    HW222249   1.298   3.078   1.320
 1703SOL     OW22250   0.197   5.651   7.445
 1703SOL    HW122251   0.287   5.637   7.417
 1703SOL    HW222252   0.180   5.580   7.507
 1704SOL     OW22253   2.627   1.731   0.983
 1704SOL    HW122254   2.580   1.815   0.988
 1704SOL    HW222255   2.657   1.715   1.073
 1705SOL     OW22256   3.335   2.430   5.787
 1705SOL    HW122257   3.297   2.376   5.856
 1705SOL    HW222258   3.380   2.367   5.730
 1706SOL     OW22259   4.343   1.872   6.307
 1706SOL    HW122260   4.286   1.863   6.231
 1706SOL    HW222261   4.283   1.889   6.380
 1707SOL     OW22262   5.062   5.070   2.073
 1707SOL    HW122263   5.148   5.028   2.077
 1707SOL    HW222264   5.000   4.997   2.072
 1708SOL     OW22265   5.212   2.592   0.534
 1708SOL    HW122266   5.229   2.679   0.498
 1708SOL    HW222267   5.296   2.562   0.568
 1709SOL     OW22268   3.956   1.795   0.562
 1709SOL    HW122269   3.897   1.778   0.489
 1709SOL    HW222270   4.019   1.723   0.559
 1710SOL     OW22271   4.702   2.090   0.805
 1710SOL    HW122272   4.767   2.114   0.870
 1710SOL    HW222273   4.637   2.038   0.853
 1711SOL     OW22274   1.708   5.280   7.821
 1711SOL    HW122275   1.689   5.199   7.869
 1711SOL    HW222276   1.798   5.268   7.790
 1712SOL     OW22277   5.473   5.285   0.289
 1712SOL    HW122278   5.554   5.259   0.333
 1712SOL    HW222279   5.501   5.314   0.202
 1713SOL     OW22280   2.553   4.763   1.242
 1713SOL    HW122281   2.607   4.818   1.299
 1713SOL    HW222282   2.613   4.697   1.209
 1714SOL     OW22283   0.763   2.769   1.122
 1714SOL    HW122284   0.857   2.768   1.139
 1714SOL    HW222285   0.736   2.677   1.126
 1715SOL     OW22286   0.657   2.083   6.987
 1715SOL    HW122287   0.643   2.004   7.041
 1715SOL    HW222288   0.615   2.154   7.037
 1716SOL     OW22289   6.126   3.378   1.916
 1716SOL    HW122290   6.068   3.322   1.966
 1716SOL    HW222291   6.184   3.417   1.981
 1717SOL     OW22292   4.709   0.267   0.673
 1717SOL    HW122293   4.644   0.282   0.742
 1717SOL    HW222294   4.793   0.274   0.718
 1718SOL     OW22295   0.124   4.072   7.386
 1718SOL    HW122296   0.127   4.019   7.466
 1718SOL    HW222297   0.126   4.162   7.417
 1719SOL     OW22298   5.879   0.483   7.290
 1719SOL    HW122299   5.953   0.474   7.349
 1719SOL    HW222300   5.894   0.566   7.245
 1720SOL     OW22301   0.001   2.055   0.961
 1720SOL    HW122302   0.081   2.072   1.010
 1720SOL    HW222303  -0.044   1.986   1.010
 1721SOL     OW22304   5.256   3.828   7.643
 1721SOL    HW122305   5.265   3.737   7.671
 1721SOL    HW222306   5.301   3.878   7.711
 1722SOL     OW22307   5.794   6.187   6.567
 1722SOL    HW122308   5.715   6.239   6.550
 1722SOL    HW222309   5.788   6.114   6.506
 1723SOL     OW22310   3.702   2.728   0.177
 1723SOL    HW122311   3.693   2.670   0.253
 1723SOL    HW222312   3.794   2.724   0.154
 1724SOL     OW22313   0.199   6.226   5.599
 1724SOL    HW122314   0.206   6.321   5.601
 1724SOL    HW222315   0.210   6.203   5.507
 1725SOL     OW22316   1.213   0.444   0.038
 1725SOL    HW122317   1.225   0.530   0.078
 1725SOL    HW222318   1.119   0.435   0.029
 1726SOL     OW22319   6.275   0.661   6.289
 1726SOL    HW122320   6.241   0.732   6.344
 1726SOL    HW222321   6.263   0.692   6.199
 1727SOL     OW22322   2.605   1.917   2.324
 1727SOL    HW122323   2.536   1.856   2.299
 1727SOL    HW222324   2.637   1.884   2.408
 1728SOL     OW22325   5.001   3.954   1.888
 1728SOL    HW122326   4.924   3.930   1.939
 1728SOL    HW222327   5.074   3.909   1.931
 1729SOL     OW22328   3.109   5.517   7.803
 1729SOL    HW122329   3.053   5.546   7.875
 1729SOL    HW222330   3.052   5.515   7.726
 1730SOL     OW22331   3.528   1.822   0.212
 1730SOL    HW122332   3.487   1.751   0.261
 1730SOL    HW222333   3.461   1.849   0.149
 1731SOL     OW22334   2.852   1.389   6.652
 1731SOL    HW122335   2.820   1.300   6.646
 1731SOL    HW222336   2.814   1.423   6.733
 1732SOL     OW22337   2.709   0.450   1.102
 1732SOL    HW122338   2.620   0.449   1.139
 1732SOL    HW222339   2.765   0.471   1.177
 1733SOL     OW22340   3.035   0.272   2.208
 1733SOL    HW122341   2.944   0.276   2.179
 1733SOL    HW222342   3.034   0.211   2.282
 1734SOL     OW22343   0.932   5.291   0.557
 1734SOL    HW122344   0.971   5.230   0.619
 1734SOL    HW222345   0.950   5.253   0.471
 1735SOL     OW22346   2.418   2.413   1.420
 1735SOL    HW122347   2.503   2.417   1.377
 1735SOL    HW222348   2.372   2.491   1.389
 1736SOL     OW22349   0.829   3.561   1.579
 1736SOL    HW122350   0.788   3.510   1.509
 1736SOL    HW222351   0.877   3.496   1.630
 1737SOL     OW22352   1.115   3.689   6.378
 1737SOL    HW122353   1.084   3.620   6.437
 1737SOL    HW222354   1.093   3.771   6.423
 1738SOL     OW22355   0.520   1.448   7.055
 1738SOL    HW122356   0.433   1.479   7.028
 1738SOL    HW222357   0.503   1.390   7.129
 1739SOL     OW22358   5.588   3.831   1.787
 1739SOL    HW122359   5.557   3.764   1.848
 1739SOL    HW222360   5.679   3.846   1.813
 1740SOL     OW22361   5.659   3.192   7.472
 1740SOL    HW122362   5.623   3.109   7.505
 1740SOL    HW222363   5.687   3.238   7.551
 1741SOL     OW22364   3.871   1.034   0.768
 1741SOL    HW122365   3.850   1.020   0.675
 1741SOL    HW222366   3.958   1.073   0.767
 1742SOL     OW22367   1.301   5.360   1.138
 1742SOL    HW122368   1.273   5.420   1.207
 1742SOL    HW222369   1.248   5.384   1.062
 1743SOL     OW22370   1.147   5.656   0.807
 1743SOL    HW122371   1.225   5.602   0.799
 1743SOL    HW222372   1.077   5.603   0.769
 1744SOL     OW22373   5.466   0.210   2.020
 1744SOL    HW122374   5.503   0.297   2.038
 1744SOL    HW222375   5.533   0.167   1.968
 1745SOL     OW22376   5.924   5.396   6.233
 1745SOL    HW122377   5.926   5.425   6.142
 1745SOL    HW222378   5.834   5.370   6.248
 1746SOL     OW22379   4.094   2.288   7.670
 1746SOL    HW122380   4.172   2.298   7.616
 1746SOL    HW222381   4.047   2.371   7.659
 1747SOL     OW22382   2.244   2.242   7.617
 1747SOL    HW122383   2.247   2.148   7.597
 1747SOL    HW222384   2.288   2.284   7.543
 1748SOL     OW22385   2.770   1.103   2.140
 1748SOL    HW122386   2.696   1.045   2.161
 1748SOL    HW222387   2.746   1.187   2.178
 1749SOL     OW22388   1.742   0.791   7.800
 1749SOL    HW122389   1.716   0.883   7.803
 1749SOL    HW222390   1.660   0.743   7.813
 1750SOL     OW22391   0.488   4.638   0.269
 1750SOL    HW122392   0.505   4.545   0.261
 1750SOL    HW222393   0.537   4.678   0.197
 1751SOL     OW22394   5.094   4.855   5.841
 1751SOL    HW122395   5.179   4.863   5.797
 1751SOL    HW222396   5.046   4.934   5.815
 1752SOL     OW22397   5.924   3.302   6.825
 1752SOL    HW122398   5.935   3.265   6.912
 1752SOL    HW222399   6.011   3.297   6.786
 1753SOL     OW22400   3.193   3.680   1.750
 1753SOL    HW122401   3.210   3.647   1.838
 1753SOL    HW222402   3.142   3.610   1.708
 1754SOL     OW22403   1.631   2.705   6.089
 1754SOL    HW122404   1.593   2.777   6.139
 1754SOL    HW222405   1.556   2.648   6.070
 1755SOL     OW22406   4.641   4.932   5.895
 1755SOL    HW122407   4.683   4.922   5.809
 1755SOL    HW222408   4.707   4.979   5.948
 1756SOL     OW22409   1.667   0.946   6.996
 1756SOL    HW122410   1.741   0.976   7.049
 1756SOL    HW222411   1.673   0.850   6.997
 1757SOL     OW22412   4.157   0.121   5.479
 1757SOL    HW122413   4.150   0.054   5.411
 1757SOL    HW222414   4.125   0.077   5.558
 1758SOL     OW22415   5.188   0.151   0.388
 1758SOL    HW122416   5.188   0.056   0.398
 1758SOL    HW222417   5.095   0.173   0.376
 1759SOL     OW22418   5.795   4.148   1.254
 1759SOL    HW122419   5.821   4.082   1.190
 1759SOL    HW222420   5.826   4.113   1.338
 1760SOL     OW22421   0.434   3.980   7.749
 1760SOL    HW122422   0.391   4.061   7.722
 1760SOL    HW222423   0.402   3.963   7.838
 1761SOL     OW22424   2.025   5.069   6.895
 1761SOL    HW122425   1.985   5.130   6.833
 1761SOL    HW222426   1.969   4.991   6.891
 1762SOL     OW22427   1.275   3.952   6.114
 1762SOL    HW122428   1.257   3.860   6.133
 1762SOL    HW222429   1.201   3.999   6.153
 1763SOL     OW22430   1.897   2.075   5.673
 1763SOL    HW122431   1.937   2.142   5.617
 1763SOL    HW222432   1.854   2.015   5.611
 1764SOL     OW22433   4.726   6.096   1.740
 1764SOL    HW122434   4.729   6.065   1.830
 1764SOL    HW222435   4.633   6.106   1.720
 1765SOL     OW22436   2.584   2.964   1.051
 1765SOL    HW122437   2.571   2.964   1.146
 1765SOL    HW222438   2.628   3.047   1.033
 1766SOL     OW22439   5.035   3.143   0.932
 1766SOL    HW122440   5.024   3.235   0.909
 1766SOL    HW222441   4.951   3.102   0.907
 1767SOL     OW22442   4.856   0.544   1.080
 1767SOL    HW122443   4.933   0.496   1.049
 1767SOL    HW222444   4.784   0.481   1.076
 1768SOL     OW22445   3.325   1.404   0.302
 1768SOL    HW122446   3.313   1.499   0.312
 1768SOL    HW222447   3.246   1.375   0.255
 1769SOL     OW22448   4.494   6.125   6.782
 1769SOL    HW122449   4.458   6.144   6.695
 1769SOL    HW222450   4.419   6.091   6.831
 1770SOL     OW22451   5.332   4.239   0.736
 1770SOL    HW122452   5.293   4.292   0.666
 1770SOL    HW222453   5.353   4.302   0.805
 1771SOL     OW22454   1.522   4.722   6.807
 1771SOL    HW122455   1.442   4.671   6.794
 1771SOL    HW222456   1.589   4.656   6.823
 1772SOL     OW22457   4.241   4.524   5.562
 1772SOL    HW122458   4.169   4.571   5.604
 1772SOL    HW222459   4.294   4.593   5.522
 1773SOL     OW22460   4.152   0.380   1.167
 1773SOL    HW122461   4.104   0.389   1.084
 1773SOL    HW222462   4.172   0.469   1.193
 1774SOL     OW22463   3.309   4.735   1.457
 1774SOL    HW122464   3.352   4.778   1.384
 1774SOL    HW222465   3.217   4.760   1.448
 1775SOL     OW22466   0.185   5.726   7.118
 1775SOL    HW122467   0.111   5.755   7.066
 1775SOL    HW222468   0.147   5.701   7.202
 1776SOL     OW22469   6.203   0.587   0.410
 1776SOL    HW122470   6.293   0.568   0.384
 1776SOL    HW222471   6.190   0.679   0.386
 1777SOL     OW22472   5.787   3.876   7.110
 1777SOL    HW122473   5.790   3.864   7.015
 1777SOL    HW222474   5.694   3.871   7.132
 1778SOL     OW22475   0.599   4.527   5.641
 1778SOL    HW122476   0.561   4.596   5.695
 1778SOL    HW222477   0.666   4.487   5.696
 1779SOL     OW22478   2.232   6.230   7.010
 1779SOL    HW122479   2.229   6.265   7.099
 1779SOL    HW222480   2.201   6.140   7.019
 1780SOL     OW22481   2.964   1.487   7.775
 1780SOL    HW122482   2.897   1.486   7.706
 1780SOL    HW222483   3.005   1.572   7.766
 1781SOL     OW22484   1.334   2.853   5.719
 1781SOL    HW122485   1.339   2.908   5.797
 1781SOL    HW222486   1.339   2.763   5.752
 1782SOL     OW22487   6.288   4.986   6.570
 1782SOL    HW122488   6.233   4.954   6.498
 1782SOL    HW222489   6.250   4.946   6.648
 1783SOL     OW22490   2.833   2.565   7.703
 1783SOL    HW122491   2.834   2.602   7.791
 1783SOL    HW222492   2.869   2.635   7.648
 1784SOL     OW22493   5.214   6.250   6.727
 1784SOL    HW122494   5.282   6.223   6.665
 1784SOL    HW222495   5.134   6.209   6.694
 1785SOL     OW22496   1.751   4.443   0.142
 1785SOL    HW122497   1.673   4.444   0.086
 1785SOL    HW222498   1.796   4.525   0.124
 1786SOL     OW22499   0.324   3.905   0.972
 1786SOL    HW122500   0.248   3.846   0.965
 1786SOL    HW222501   0.398   3.852   0.941
 1787SOL     OW22502   2.254   1.007   0.822
 1787SOL    HW122503   2.197   1.083   0.826
 1787SOL    HW222504   2.283   0.994   0.912
 1788SOL     OW22505   2.742   5.066   0.663
 1788SOL    HW122506   2.757   5.159   0.678
 1788SOL    HW222507   2.781   5.049   0.577
 1789SOL     OW22508   3.824   4.146   0.447
 1789SOL    HW122509   3.917   4.165   0.461
 1789SOL    HW222510   3.801   4.195   0.368
 1790SOL     OW22511   6.205   3.982   6.792
 1790SOL    HW122512   6.151   3.905   6.807
 1790SOL    HW222513   6.285   3.966   6.843
 1791SOL     OW22514   2.426   3.873   0.004
 1791SOL    HW122515   2.479   3.798  -0.024
 1791SOL    HW222516   2.407   3.856   0.096
 1792SOL     OW22517   5.532   2.690   7.789
 1792SOL    HW122518   5.487   2.774   7.792
 1792SOL    HW222519   5.503   2.650   7.707
 1793SOL     OW22520   5.618   3.294   7.718
 1793SOL    HW122521   5.571   3.376   7.702
 1793SOL    HW222522   5.550   3.228   7.724
 1794SOL     OW22523   3.938   5.140   1.273
 1794SOL    HW122524   3.903   5.125   1.361
 1794SOL    HW222525   4.017   5.086   1.270
 1795SOL     OW22526   3.494   3.491   5.455
 1795SOL    HW122527   3.509   3.553   5.384
 1795SOL    HW222528   3.551   3.417   5.435
 1796SOL     OW22529   4.473   0.983   0.559
 1796SOL    HW122530   4.561   0.960   0.528
 1796SOL    HW222531   4.464   0.937   0.642
 1797SOL     OW22532   2.326   2.936   7.824
 1797SOL    HW122533   2.421   2.931   7.833
 1797SOL    HW222534   2.304   2.871   7.757
 1798SOL     OW22535   1.913   5.607   7.410
 1798SOL    HW122536   1.944   5.565   7.329
 1798SOL    HW222537   1.823   5.633   7.390
 1799SOL     OW22538   1.617   5.541   0.129
 1799SOL    HW122539   1.650   5.453   0.109
 1799SOL    HW222540   1.679   5.577   0.192
 1800SOL     OW22541   2.434   3.671   7.166
 1800SOL    HW122542   2.371   3.657   7.095
 1800SOL    HW222543   2.484   3.748   7.138
 1801SOL     OW22544   1.252   0.906   7.147
 1801SOL    HW122545   1.201   0.960   7.085
 1801SOL    HW222546   1.186   0.855   7.194
 1802SOL     OW22547   4.059   2.356   0.222
 1802SOL    HW122548   4.007   2.317   0.292
 1802SOL    HW222549   4.070   2.284   0.159
 1803SOL     OW22550   4.466   4.630   0.984
 1803SOL    HW122551   4.538   4.592   0.933
 1803SOL    HW222552   4.463   4.721   0.955
 1804SOL     OW22553   2.995   2.885   0.299
 1804SOL    HW122554   3.032   2.973   0.307
 1804SOL    HW222555   3.024   2.856   0.212
 1805SOL     OW22556   4.540   4.362   6.977
 1805SOL    HW122557   4.608   4.300   7.002
 1805SOL    HW222558   4.497   4.386   7.059
 1806SOL     OW22559   6.020   2.454   7.699
 1806SOL    HW122560   6.078   2.378   7.698
 1806SOL    HW222561   5.984   2.455   7.788
 1807SOL     OW22562   5.169   2.017   6.375
 1807SOL    HW122563   5.133   2.089   6.324
 1807SOL    HW222564   5.214   1.962   6.311
 1808SOL     OW22565   4.210   6.161   1.642
 1808SOL    HW122566   4.168   6.094   1.696
 1808SOL    HW222567   4.147   6.178   1.572
 1809SOL     OW22568   0.503   1.197   0.853
 1809SOL    HW122569   0.444   1.218   0.925
 1809SOL    HW222570   0.499   1.274   0.796
 1810SOL     OW22571   4.942   6.334   0.588
 1810SOL    HW122572   4.976   6.298   0.670
 1810SOL    HW222573   4.934   6.258   0.531
 1811SOL     OW22574   0.802   0.708   5.699
 1811SOL    HW122575   0.785   0.785   5.644
 1811SOL    HW222576   0.860   0.653   5.646
 1812SOL     OW22577   5.355   0.825   2.084
 1812SOL    HW122578   5.329   0.737   2.112
 1812SOL    HW222579   5.278   0.858   2.037
 1813SOL     OW22580   4.011   1.273   1.567
 1813SOL    HW122581   4.063   1.326   1.627
 1813SOL    HW222582   3.945   1.332   1.533
 1814SOL     OW22583   0.188   0.994   0.747
 1814SOL    HW122584   0.224   0.906   0.763
 1814SOL    HW222585   0.096   0.987   0.771
 1815SOL     OW22586   0.640   3.264   5.996
 1815SOL    HW122587   0.719   3.243   6.046
 1815SOL    HW222588   0.672   3.317   5.923
 1816SOL     OW22589   5.020   0.660   1.260
 1816SOL    HW122590   4.946   0.628   1.208
 1816SOL    HW222591   5.015   0.610   1.341
 1817SOL     OW22592   5.304   0.968   6.506
 1817SOL    HW122593   5.395   0.990   6.522
 1817SOL    HW222594   5.262   1.051   6.485
 1818SOL     OW22595   6.164   1.797   7.130
 1818SOL    HW122596   6.241   1.814   7.075
 1818SOL    HW222597   6.180   1.709   7.166
 1819SOL     OW22598   4.424   3.712   1.626
 1819SOL    HW122599   4.464   3.658   1.557
 1819SOL    HW222600   4.384   3.648   1.686
 1820SOL     OW22601   0.702   4.377   6.812
 1820SOL    HW122602   0.627   4.422   6.772
 1820SOL    HW222603   0.675   4.362   6.903
 1821SOL     OW22604   2.123   5.785   7.420
 1821SOL    HW122605   2.095   5.870   7.388
 1821SOL    HW222606   2.044   5.731   7.416
 1822SOL     OW22607   3.405   0.885   1.645
 1822SOL    HW122608   3.312   0.887   1.622
 1822SOL    HW222609   3.413   0.813   1.706
 1823SOL     OW22610   3.687   4.888   7.090
 1823SOL    HW122611   3.614   4.890   7.029
 1823SOL    HW222612   3.651   4.850   7.170
 1824SOL     OW22613   3.587   0.212   6.191
 1824SOL    HW122614   3.524   0.245   6.255
 1824SOL    HW222615   3.551   0.239   6.106
 1825SOL     OW22616   3.407   4.918   1.873
 1825SOL    HW122617   3.429   4.844   1.817
 1825SOL    HW222618   3.344   4.969   1.823
 1826SOL     OW22619   1.899   3.951   5.432
 1826SOL    HW122620   1.934   3.884   5.374
 1826SOL    HW222621   1.804   3.940   5.429
 1827SOL     OW22622   1.876   1.106   7.110
 1827SOL    HW122623   1.926   1.176   7.069
 1827SOL    HW222624   1.942   1.048   7.148
 1828SOL     OW22625   1.327   3.251   6.211
 1828SOL    HW122626   1.412   3.268   6.252
 1828SOL    HW222627   1.334   3.291   6.124
 1829SOL     OW22628   0.834   5.686   7.428
 1829SOL    HW122629   0.797   5.629   7.360
 1829SOL    HW222630   0.775   5.761   7.431
 1830SOL     OW22631   2.478   3.846   6.654
 1830SOL    HW122632   2.425   3.889   6.586
 1830SOL    HW222633   2.500   3.761   6.616
 1831SOL     OW22634   6.353   1.334   6.615
 1831SOL    HW122635   6.300   1.333   6.536
 1831SOL    HW222636   6.313   1.402   6.670
 1832SOL     OW22637   1.114   4.764   6.768
 1832SOL    HW122638   1.113   4.827   6.696
 1832SOL    HW222639   1.158   4.686   6.732
 1833SOL     OW22640   0.429   4.598   0.629
 1833SOL    HW122641   0.480   4.593   0.711
 1833SOL    HW222642   0.346   4.557   0.650
 1834SOL     OW22643   0.641   4.894   1.244
 1834SOL    HW122644   0.699   4.889   1.168
 1834SOL    HW222645   0.621   4.803   1.265
 1835SOL     OW22646   0.989   6.345   0.549
 1835SOL    HW122647   0.933   6.340   0.627
 1835SOL    HW222648   0.951   6.282   0.488
 1836SOL     OW22649   0.360   4.907   0.304
 1836SOL    HW122650   0.389   4.861   0.382
 1836SOL    HW222651   0.374   4.845   0.232
 1837SOL     OW22652   2.141   4.237   0.630
 1837SOL    HW122653   2.075   4.249   0.561
 1837SOL    HW222654   2.220   4.211   0.583
 1838SOL     OW22655   2.525   0.252   0.448
 1838SOL    HW122656   2.459   0.250   0.517
 1838SOL    HW222657   2.475   0.237   0.367
 1839SOL     OW22658   4.190   1.041   6.909
 1839SOL    HW122659   4.217   0.974   6.847
 1839SOL    HW222660   4.149   0.992   6.980
 1840SOL     OW22661   1.690   0.739   5.793
 1840SOL    HW122662   1.715   0.802   5.726
 1840SOL    HW222663   1.600   0.715   5.770
 1841SOL     OW22664   2.675   2.395   1.328
 1841SOL    HW122665   2.706   2.357   1.246
 1841SOL    HW222666   2.699   2.488   1.322
 1842SOL     OW22667   4.555   0.129   0.211
 1842SOL    HW122668   4.498   0.176   0.150
 1842SOL    HW222669   4.526   0.157   0.298
 1843SOL     OW22670   5.506   3.620   7.493
 1843SOL    HW122671   5.488   3.527   7.504
 1843SOL    HW222672   5.514   3.654   7.582
 1844SOL     OW22673   0.708   3.034   0.939
 1844SOL    HW122674   0.751   2.953   0.964
 1844SOL    HW222675   0.692   3.025   0.845
 1845SOL     OW22676   2.242   2.096   6.109
 1845SOL    HW122677   2.171   2.159   6.123
 1845SOL    HW222678   2.309   2.145   6.063
 1846SOL     OW22679   2.077   0.962   6.789
 1846SOL    HW122680   2.031   0.962   6.705
 1846SOL    HW222681   2.046   0.884   6.834
 1847SOL     OW22682   6.270   1.559   6.806
 1847SOL    HW122683   6.241   1.600   6.725
 1847SOL    HW222684   6.195   1.569   6.865
 1848SOL     OW22685   5.243   5.172   6.975
 1848SOL    HW122686   5.338   5.181   6.970
 1848SOL    HW222687   5.229   5.112   7.048
 1849SOL     OW22688   6.115   1.447   1.028
 1849SOL    HW122689   6.207   1.439   1.004
 1849SOL    HW222690   6.110   1.529   1.077
 1850SOL     OW22691   5.119   2.732   0.748
 1850SOL    HW122692   5.089   2.661   0.805
 1850SOL    HW222693   5.148   2.688   0.668
 1851SOL     OW22694   1.373   4.383   6.522
 1851SOL    HW122695   1.398   4.382   6.430
 1851SOL    HW222696   1.453   4.362   6.570
 1852SOL     OW22697   3.351   6.361   7.583
 1852SOL    HW122698   3.409   6.422   7.628
 1852SOL    HW222699   3.284   6.417   7.543
 1853SOL     OW22700   3.778   0.453   0.168
 1853SOL    HW122701   3.810   0.488   0.250
 1853SOL    HW222702   3.740   0.528   0.123
 1854SOL     OW22703   2.781   1.266   0.029
 1854SOL    HW122704   2.778   1.333  -0.039
 1854SOL    HW222705   2.861   1.285   0.078
 1855SOL     OW22706   5.201   2.009   7.079
 1855SOL    HW122707   5.269   2.028   7.143
 1855SOL    HW222708   5.242   2.026   6.995
 1856SOL     OW22709   3.031   5.548   6.099
 1856SOL    HW122710   3.085   5.551   6.020
 1856SOL    HW222711   2.988   5.633   6.101
 1857SOL     OW22712   4.669   5.479   0.084
 1857SOL    HW122713   4.757   5.468   0.121
 1857SOL    HW222714   4.646   5.392   0.051
 1858SOL     OW22715   2.024   1.222   1.017
 1858SOL    HW122716   1.948   1.165   1.026
 1858SOL    HW222717   2.036   1.231   0.923
 1859SOL     OW22718   5.017   3.654   5.033
 1859SOL    HW122719   4.938   3.684   5.078
 1859SOL    HW222720   5.056   3.590   5.093
 1860SOL     OW22721   4.690   0.802   6.524
 1860SOL    HW122722   4.688   0.855   6.603
 1860SOL    HW222723   4.772   0.753   6.529
 1861SOL     OW22724   2.695   0.236   6.192
 1861SOL    HW122725   2.697   0.267   6.102
 1861SOL    HW222726   2.738   0.305   6.242
 1862SOL     OW22727   4.837   3.740   2.315
 1862SOL    HW122728   4.772   3.808   2.330
 1862SOL    HW222729   4.882   3.730   2.399
 1863SOL     OW22730   3.598   3.783   1.637
 1863SOL    HW122731   3.687   3.819   1.642
 1863SOL    HW222732   3.610   3.699   1.592
 1864SOL     OW22733   5.030   1.745   7.368
 1864SOL    HW122734   5.120   1.751   7.337
 1864SOL    HW222735   5.028   1.795   7.449
 1865SOL     OW22736   5.969   2.484   0.735
 1865SOL    HW122737   6.016   2.425   0.794
 1865SOL    HW222738   5.922   2.543   0.793
 1866SOL     OW22739   3.983   2.538   7.645
 1866SOL    HW122740   3.930   2.527   7.724
 1866SOL    HW222741   4.045   2.608   7.667
 1867SOL     OW22742   0.603   4.489   6.461
 1867SOL    HW122743   0.550   4.438   6.401
 1867SOL    HW222744   0.547   4.504   6.537
 1868SOL     OW22745   1.684   0.344   2.284
 1868SOL    HW122746   1.675   0.433   2.319
 1868SOL    HW222747   1.636   0.345   2.202
 1869SOL     OW22748   4.115   3.157   0.961
 1869SOL    HW122749   4.164   3.090   0.915
 1869SOL    HW222750   4.025   3.149   0.928
 1870SOL     OW22751   0.796   3.841   1.004
 1870SOL    HW122752   0.871   3.816   0.950
 1870SOL    HW222753   0.730   3.774   0.985
 1871SOL     OW22754   1.700   0.280   0.911
 1871SOL    HW122755   1.777   0.291   0.854
 1871SOL    HW222756   1.677   0.369   0.937
 1872SOL     OW22757   5.478   0.074   7.432
 1872SOL    HW122758   5.405   0.114   7.384
 1872SOL    HW222759   5.521   0.147   7.476
 1873SOL     OW22760   2.410   3.078   0.397
 1873SOL    HW122761   2.462   3.001   0.376
 1873SOL    HW222762   2.330   3.067   0.345
 1874SOL     OW22763   0.369   1.991   6.969
 1874SOL    HW122764   0.355   2.076   6.928
 1874SOL    HW222765   0.350   1.928   6.899
 1875SOL     OW22766   4.398   6.354   7.492
 1875SOL    HW122767   4.473   6.297   7.475
 1875SOL    HW222768   4.355   6.362   7.407
 1876SOL     OW22769   5.636   0.074   1.849
 1876SOL    HW122770   5.685   0.013   1.905
 1876SOL    HW222771   5.575   0.019   1.801
 1877SOL     OW22772   3.360   3.785   7.177
 1877SOL    HW122773   3.300   3.715   7.203
 1877SOL    HW222774   3.402   3.811   7.258
 1878SOL     OW22775   5.127   3.421   0.282
 1878SOL    HW122776   5.212   3.454   0.313
 1878SOL    HW222777   5.088   3.495   0.237
 1879SOL     OW22778   4.546   1.059   6.907
 1879SOL    HW122779   4.618   1.106   6.863
 1879SOL    HW222780   4.516   0.996   6.842
 1880SOL     OW22781   0.425   0.426   6.019
 1880SOL    HW122782   0.384   0.511   6.034
 1880SOL    HW222783   0.393   0.399   5.934
 1881SOL     OW22784   4.032   5.855   1.155
 1881SOL    HW122785   4.085   5.786   1.117
 1881SOL    HW222786   4.096   5.916   1.194
 1882SOL     OW22787   1.167   4.891   1.000
 1882SOL    HW122788   1.224   4.820   0.971
 1882SOL    HW222789   1.224   4.968   1.005
 1883SOL     OW22790   3.555   3.420   6.673
 1883SOL    HW122791   3.461   3.414   6.659
 1883SOL    HW222792   3.580   3.336   6.711
 1884SOL     OW22793   0.588   0.373   6.219
 1884SOL    HW122794   0.536   0.396   6.142
 1884SOL    HW222795   0.565   0.439   6.285
 1885SOL     OW22796   3.838   4.493   7.019
 1885SOL    HW122797   3.900   4.431   6.979
 1885SOL    HW222798   3.858   4.577   6.977
 1886SOL     OW22799   0.328   1.001   7.063
 1886SOL    HW122800   0.394   0.963   7.120
 1886SOL    HW222801   0.326   0.943   6.987
 1887SOL     OW22802   3.312   4.865   6.433
 1887SOL    HW122803   3.241   4.887   6.373
 1887SOL    HW222804   3.299   4.923   6.508
 1888SOL     OW22805   4.079   3.249   0.537
 1888SOL    HW122806   4.157   3.219   0.584
 1888SOL    HW222807   4.111   3.319   0.480
 1889SOL     OW22808   5.107   6.424   0.933
 1889SOL    HW122809   5.152   6.373   0.866
 1889SOL    HW222810   5.170   6.430   1.005
 1890SOL     OW22811   0.564   5.126   1.451
 1890SOL    HW122812   0.621   5.162   1.383
 1890SOL    HW222813   0.500   5.073   1.403
 1891SOL     OW22814   5.714   1.623   7.381
 1891SOL    HW122815   5.711   1.537   7.338
 1891SOL    HW222816   5.804   1.652   7.370
 1892SOL     OW22817   0.308   2.381   1.000
 1892SOL    HW122818   0.307   2.458   1.057
 1892SOL    HW222819   0.229   2.389   0.946
 1893SOL     OW22820   3.322   4.069   6.583
 1893SOL    HW122821   3.340   4.154   6.623
 1893SOL    HW222822   3.403   4.020   6.593
 1894SOL     OW22823   4.801   6.380   0.294
 1894SOL    HW122824   4.839   6.432   0.364
 1894SOL    HW222825   4.758   6.444   0.237
 1895SOL     OW22826   4.369   3.696   1.012
 1895SOL    HW122827   4.380   3.787   0.983
 1895SOL    HW222828   4.361   3.702   1.108
 1896SOL     OW22829   1.562   2.342   5.571
 1896SOL    HW122830   1.547   2.413   5.634
 1896SOL    HW222831   1.477   2.327   5.531
 1897SOL     OW22832   0.986   4.720   5.520
 1897SOL    HW122833   0.935   4.670   5.457
 1897SOL    HW222834   1.069   4.737   5.476
 1898SOL     OW22835   2.737   4.005   0.227
 1898SOL    HW122836   2.789   3.998   0.147
 1898SOL    HW222837   2.658   3.953   0.209
 1899SOL     OW22838   5.188   2.247   1.304
 1899SOL    HW122839   5.221   2.319   1.358
 1899SOL    HW222840   5.259   2.228   1.243
 1900SOL     OW22841   5.573   3.247   1.514
 1900SOL    HW122842   5.626   3.169   1.528
 1900SOL    HW222843   5.543   3.271   1.602
 1901SOL     OW22844   3.035   1.088   2.189
 1901SOL    HW122845   2.942   1.099   2.173
 1901SOL    HW222846   3.069   1.178   2.193
 1902SOL     OW22847   5.822   2.412   1.006
 1902SOL    HW122848   5.909   2.446   0.982
 1902SOL    HW222849   5.838   2.321   1.029
 1903SOL     OW22850   4.390   0.850   2.061
 1903SOL    HW122851   4.457   0.911   2.091
 1903SOL    HW222852   4.312   0.904   2.050
 1904SOL     OW22853   6.322   2.485   7.758
 1904SOL    HW122854   6.270   2.425   7.704
 1904SOL    HW222855   6.388   2.520   7.698
 1905SOL     OW22856   0.195   5.225   6.419
 1905SOL    HW122857   0.192   5.129   6.416
 1905SOL    HW222858   0.241   5.245   6.500
 1906SOL     OW22859   0.047   3.934   6.276
 1906SOL    HW122860   0.053   3.985   6.357
 1906SOL    HW222861   0.054   3.843   6.304
 1907SOL     OW22862   1.726   1.217   0.719
 1907SOL    HW122863   1.714   1.297   0.771
 1907SOL    HW222864   1.772   1.157   0.778
 1908SOL     OW22865   3.073   5.067   0.554
 1908SOL    HW122866   3.090   5.048   0.462
 1908SOL    HW222867   3.057   5.161   0.557
 1909SOL     OW22868   2.853   4.829   6.669
 1909SOL    HW122869   2.880   4.807   6.758
 1909SOL    HW222870   2.870   4.923   6.661
 1910SOL     OW22871   0.054   3.381   1.228
 1910SOL    HW122872   0.053   3.324   1.306
 1910SOL    HW222873  -0.018   3.348   1.174
 1911SOL     OW22874   1.904   3.326   7.411
 1911SOL    HW122875   1.837   3.259   7.397
 1911SOL    HW222876   1.879   3.368   7.494
 1912SOL     OW22877   2.296   1.927   5.459
 1912SOL    HW122878   2.255   1.911   5.544
 1912SOL    HW222879   2.247   2.002   5.423
 1913SOL     OW22880   1.855   2.130   7.533
 1913SOL    HW122881   1.813   2.069   7.472
 1913SOL    HW222882   1.784   2.188   7.561
 1914SOL     OW22883   2.183   1.164   1.249
 1914SOL    HW122884   2.141   1.190   1.167
 1914SOL    HW222885   2.240   1.237   1.271
 1915SOL     OW22886   0.090   1.767   7.390
 1915SOL    HW122887   0.094   1.792   7.297
 1915SOL    HW222888   0.116   1.675   7.391
 1916SOL     OW22889   1.358   0.143   1.885
 1916SOL    HW122890   1.366   0.178   1.796
 1916SOL    HW222891   1.440   0.097   1.901
 1917SOL     OW22892   5.792   0.206   7.174
 1917SOL    HW122893   5.784   0.113   7.197
 1917SOL    HW222894   5.804   0.250   7.257
 1918SOL     OW22895   4.847   2.140   1.557
 1918SOL    HW122896   4.831   2.084   1.633
 1918SOL    HW222897   4.922   2.099   1.513
 1919SOL     OW22898   3.306   1.129   0.771
 1919SOL    HW122899   3.307   1.223   0.756
 1919SOL    HW222900   3.274   1.092   0.688
 1920SOL     OW22901   1.554   0.587   7.023
 1920SOL    HW122902   1.559   0.498   6.988
 1920SOL    HW222903   1.561   0.643   6.947
 1921SOL     OW22904   6.367   1.133   1.060
 1921SOL    HW122905   6.324   1.134   1.145
 1921SOL    HW222906   6.397   1.223   1.047
 1922SOL     OW22907   2.280   5.620   7.282
 1922SOL    HW122908   2.330   5.546   7.318
 1922SOL    HW222909   2.253   5.671   7.359
 1923SOL     OW22910   5.063   3.255   0.017
 1923SOL    HW122911   4.972   3.239   0.043
 1923SOL    HW222912   5.098   3.311   0.087
 1924SOL     OW22913   2.081   0.652   5.663
 1924SOL    HW122914   2.077   0.687   5.574
 1924SOL    HW222915   1.990   0.633   5.685
 1925SOL     OW22916   0.580   4.610   1.291
 1925SOL    HW122917   0.516   4.616   1.220
 1925SOL    HW222918   0.558   4.529   1.337
 1926SOL     OW22919   0.683   4.543   0.559
 1926SOL    HW122920   0.591   4.570   0.556
 1926SOL    HW222921   0.682   4.458   0.602
 1927SOL     OW22922   5.721   3.643   6.548
 1927SOL    HW122923   5.785   3.605   6.488
 1927SOL    HW222924   5.760   3.632   6.634
 1928SOL     OW22925   5.856   4.825   6.231
 1928SOL    HW122926   5.777   4.821   6.285
 1928SOL    HW222927   5.869   4.919   6.215
 1929SOL     OW22928   1.771   5.284   0.403
 1929SOL    HW122929   1.757   5.378   0.390
 1929SOL    HW222930   1.827   5.279   0.481
 1930SOL     OW22931   4.709   3.813   5.735
 1930SOL    HW122932   4.751   3.866   5.803
 1930SOL    HW222933   4.780   3.762   5.697
 1931SOL     OW22934   4.220   0.899   7.514
 1931SOL    HW122935   4.143   0.955   7.515
 1931SOL    HW222936   4.224   0.861   7.602
 1932SOL     OW22937   3.682   3.075   5.782
 1932SOL    HW122938   3.658   3.150   5.727
 1932SOL    HW222939   3.658   3.102   5.871
 1933SOL     OW22940   3.714   3.444   7.389
 1933SOL    HW122941   3.639   3.400   7.428
 1933SOL    HW222942   3.775   3.374   7.367
 1934SOL     OW22943   4.389   5.428   5.981
 1934SOL    HW122944   4.331   5.491   5.938
 1934SOL    HW222945   4.443   5.481   6.039
 1935SOL     OW22946   5.509   2.970   7.483
 1935SOL    HW122947   5.500   2.994   7.391
 1935SOL    HW222948   5.543   2.880   7.481
 1936SOL     OW22949   6.435   4.402   7.130
 1936SOL    HW122950   6.468   4.465   7.065
 1936SOL    HW222951   6.502   4.401   7.198
 1937SOL     OW22952   2.707   4.216   2.349
 1937SOL    HW122953   2.651   4.292   2.370
 1937SOL    HW222954   2.657   4.166   2.285
 1938SOL     OW22955   5.298   3.923   6.135
 1938SOL    HW122956   5.231   3.927   6.203
 1938SOL    HW222957   5.364   3.988   6.162
 1939SOL     OW22958   6.049   1.041   0.794
 1939SOL    HW122959   5.987   1.098   0.748
 1939SOL    HW222960   6.038   0.955   0.753
 1940SOL     OW22961   3.565   3.101   0.644
 1940SOL    HW122962   3.602   3.175   0.693
 1940SOL    HW222963   3.523   3.047   0.711
 1941SOL     OW22964   3.485   3.674   6.708
 1941SOL    HW122965   3.435   3.660   6.628
 1941SOL    HW222966   3.546   3.600   6.711
 1942SOL     OW22967   0.472   4.804   5.556
 1942SOL    HW122968   0.406   4.873   5.558
 1942SOL    HW222969   0.452   4.750   5.632
 1943SOL     OW22970   5.402   4.681   0.935
 1943SOL    HW122971   5.341   4.675   1.009
 1943SOL    HW222972   5.436   4.770   0.938
 1944SOL     OW22973   1.704   4.177   7.281
 1944SOL    HW122974   1.795   4.153   7.264
 1944SOL    HW222975   1.688   4.252   7.223
 1945SOL     OW22976   3.333   2.957   0.274
 1945SOL    HW122977   3.259   3.015   0.294
 1945SOL    HW222978   3.309   2.873   0.312
 1946SOL     OW22979   2.752   1.586   1.386
 1946SOL    HW122980   2.702   1.662   1.357
 1946SOL    HW222981   2.807   1.619   1.457
 1947SOL     OW22982   5.193   6.066   7.090
 1947SOL    HW122983   5.205   6.161   7.097
 1947SOL    HW222984   5.099   6.053   7.101
 1948SOL     OW22985   3.306   1.363   1.384
 1948SOL    HW122986   3.256   1.319   1.453
 1948SOL    HW222987   3.251   1.357   1.306
 1949SOL     OW22988   2.025   4.137   1.596
 1949SOL    HW122989   1.949   4.178   1.553
 1949SOL    HW222990   1.986   4.072   1.655
 1950SOL     OW22991   4.044   5.142   0.363
 1950SOL    HW122992   3.978   5.189   0.415
 1950SOL    HW222993   4.110   5.208   0.342
 1951SOL     OW22994   0.584   4.027   6.804
 1951SOL    HW122995   0.630   4.097   6.757
 1951SOL    HW222996   0.586   4.054   6.896
 1952SOL     OW22997   4.976   4.022   1.006
 1952SOL    HW122998   4.930   3.939   1.022
 1952SOL    HW222999   5.062   3.996   0.975
 1953SOL     OW23000   1.921   0.465   6.361
 1953SOL    HW123001   1.948   0.548   6.402
 1953SOL    HW223002   1.990   0.403   6.385
 1954SOL     OW23003   3.039   5.817   6.913
 1954SOL    HW123004   2.958   5.867   6.905
 1954SOL    HW223005   3.016   5.742   6.968
 1955SOL     OW23006   1.713   0.524   5.593
 1955SOL    HW123007   1.768   0.449   5.613
 1955SOL    HW223008   1.771   0.600   5.599
 1956SOL     OW23009   2.142   5.958   5.579
 1956SOL    HW123010   2.150   5.885   5.517
 1956SOL    HW223011   2.229   5.966   5.618
 1957SOL     OW23012   0.408   2.904   6.616
 1957SOL    HW123013   0.422   2.990   6.656
 1957SOL    HW223014   0.432   2.842   6.685
 1958SOL     OW23015   2.248   1.721   7.068
 1958SOL    HW123016   2.214   1.699   7.155
 1958SOL    HW223017   2.179   1.773   7.027
 1959SOL     OW23018   1.857   6.347   1.408
 1959SOL    HW123019   1.768   6.340   1.373
 1959SOL    HW223020   1.855   6.423   1.465
 1960SOL     OW23021   3.891   0.210   6.919
 1960SOL    HW123022   3.969   0.182   6.870
 1960SOL    HW223023   3.915   0.198   7.011
 1961SOL     OW23024   1.737   0.542   0.581
 1961SOL    HW123025   1.659   0.518   0.630
 1961SOL    HW223026   1.721   0.632   0.553
 1962SOL     OW23027   3.881   3.905   0.405
 1962SOL    HW123028   3.855   3.995   0.423
 1962SOL    HW223029   3.967   3.912   0.364
 1963SOL     OW23030   2.294   3.325   0.748
 1963SOL    HW123031   2.320   3.236   0.725
 1963SOL    HW223032   2.321   3.335   0.840
 1964SOL     OW23033   2.574   1.241   0.266
 1964SOL    HW123034   2.509   1.224   0.335
 1964SOL    HW223035   2.545   1.188   0.192
 1965SOL     OW23036   1.875   3.969   0.708
 1965SOL    HW123037   1.931   3.949   0.783
 1965SOL    HW223038   1.797   3.915   0.722
 1966SOL     OW23039   6.221   3.479   7.230
 1966SOL    HW123040   6.273   3.557   7.250
 1966SOL    HW223041   6.265   3.439   7.155
 1967SOL     OW23042   3.200   4.042   0.892
 1967SOL    HW123043   3.141   3.970   0.870
 1967SOL    HW223044   3.284   3.999   0.908
 1968SOL     OW23045   5.701   5.745   7.096
 1968SOL    HW123046   5.715   5.816   7.033
 1968SOL    HW223047   5.699   5.789   7.181
 1969SOL     OW23048   3.346   4.690   7.069
 1969SOL    HW123049   3.399   4.651   7.138
 1969SOL    HW223050   3.374   4.782   7.067
 1970SOL     OW23051   2.404   5.764   0.604
 1970SOL    HW123052   2.440   5.732   0.687
 1970SOL    HW223053   2.309   5.757   0.615
 1971SOL     OW23054   4.181   5.625   0.706
 1971SOL    HW123055   4.174   5.692   0.638
 1971SOL    HW223056   4.181   5.542   0.659
 1972SOL     OW23057   3.518   0.042   0.696
 1972SOL    HW123058   3.434   0.081   0.670
 1972SOL    HW223059   3.500  -0.052   0.699
 1973SOL     OW23060   5.208   2.117   1.824
 1973SOL    HW123061   5.115   2.135   1.810
 1973SOL    HW223062   5.209   2.044   1.886
 1974SOL     OW23063   5.190   0.549   7.485
 1974SOL    HW123064   5.208   0.459   7.513
 1974SOL    HW223065   5.148   0.590   7.561
 1975SOL     OW23066   3.284   0.261   0.287
 1975SOL    HW123067   3.370   0.243   0.248
 1975SOL    HW223068   3.261   0.180   0.332
 1976SOL     OW23069   3.801   2.483   6.489
 1976SOL    HW123070   3.864   2.519   6.551
 1976SOL    HW223071   3.836   2.505   6.403
 1977SOL     OW23072   1.624   5.298   6.522
 1977SOL    HW123073   1.581   5.251   6.593
 1977SOL    HW223074   1.616   5.240   6.446
 1978SOL     OW23075   3.588   5.700   6.143
 1978SOL    HW123076   3.619   5.694   6.233
 1978SOL    HW223077   3.513   5.640   6.139
 1979SOL     OW23078   3.816   5.704   7.728
 1979SOL    HW123079   3.745   5.671   7.673
 1979SOL    HW223080   3.895   5.688   7.677
 1980SOL     OW23081   1.218   1.709   5.231
 1980SOL    HW123082   1.238   1.785   5.176
 1980SOL    HW223083   1.300   1.659   5.233
 1981SOL     OW23084   1.617   0.868   0.662
 1981SOL    HW123085   1.605   0.958   0.632
 1981SOL    HW223086   1.711   0.852   0.655
 1982SOL     OW23087   4.688   6.061   2.234
 1982SOL    HW123088   4.721   6.043   2.146
 1982SOL    HW223089   4.675   6.156   2.235
 1983SOL     OW23090   4.489   1.942   2.045
 1983SOL    HW123091   4.558   1.910   1.986
 1983SOL    HW223092   4.433   1.996   1.989
 1984SOL     OW23093   0.683   2.059   0.130
 1984SOL    HW123094   0.772   2.060   0.166
 1984SOL    HW223095   0.696   2.045   0.036
 1985SOL     OW23096   1.490   1.059   7.651
 1985SOL    HW123097   1.560   1.025   7.595
 1985SOL    HW223098   1.518   1.035   7.740
 1986SOL     OW23099   4.878   1.275   7.827
 1986SOL    HW123100   4.910   1.358   7.791
 1986SOL    HW223101   4.877   1.215   7.752
 1987SOL     OW23102   1.115   5.113   6.126
 1987SOL    HW123103   1.166   5.033   6.141
 1987SOL    HW223104   1.082   5.136   6.213
 1988SOL     OW23105   2.679   5.613   7.471
 1988SOL    HW123106   2.639   5.546   7.527
 1988SOL    HW223107   2.605   5.666   7.441
 1989SOL     OW23108   2.330   2.777   5.451
 1989SOL    HW123109   2.413   2.824   5.464
 1989SOL    HW223110   2.353   2.705   5.392
 1990SOL     OW23111   1.050   2.735   1.224
 1990SOL    HW123112   1.136   2.744   1.184
 1990SOL    HW223113   1.067   2.721   1.317
 1991SOL     OW23114   4.224   1.780   0.979
 1991SOL    HW123115   4.245   1.856   0.925
 1991SOL    HW223116   4.302   1.767   1.033
 1992SOL     OW23117   1.511   2.115   7.823
 1992SOL    HW123118   1.480   2.040   7.773
 1992SOL    HW223119   1.557   2.076   7.898
 1993SOL     OW23120   4.253   5.032   7.080
 1993SOL    HW123121   4.205   5.085   7.144
 1993SOL    HW223122   4.202   4.952   7.072
 1994SOL     OW23123   4.511   0.983   5.900
 1994SOL    HW123124   4.443   1.031   5.946
 1994SOL    HW223125   4.465   0.909   5.859
 1995SOL     OW23126   2.869   4.658   7.198
 1995SOL    HW123127   2.792   4.604   7.178
 1995SOL    HW223128   2.924   4.601   7.252
 1996SOL     OW23129   4.819   0.514   6.534
 1996SOL    HW123130   4.846   0.488   6.446
 1996SOL    HW223131   4.900   0.510   6.586
 1997SOL     OW23132   3.324   5.189   7.561
 1997SOL    HW123133   3.323   5.097   7.588
 1997SOL    HW223134   3.406   5.224   7.596
 1998SOL     OW23135   2.505   6.334   6.930
 1998SOL    HW123136   2.414   6.302   6.924
 1998SOL    HW223137   2.534   6.308   7.017
 1999SOL     OW23138   2.035   0.548   7.244
 1999SOL    HW123139   2.018   0.621   7.185
 1999SOL    HW223140   2.082   0.484   7.190
 2000SOL     OW23141   6.142   4.649   1.184
 2000SOL    HW123142   6.133   4.676   1.093
 2000SOL    HW223143   6.225   4.687   1.212
 2001SOL     OW23144   3.982   3.477   7.110
 2001SOL    HW123145   3.946   3.520   7.033
 2001SOL    HW223146   4.073   3.460   7.089
 2002SOL     OW23147   3.349   4.324   6.732
 2002SOL    HW123148   3.391   4.402   6.694
 2002SOL    HW223149   3.259   4.352   6.749
 2003SOL     OW23150   0.918   1.307   5.546
 2003SOL    HW123151   0.831   1.275   5.523
 2003SOL    HW223152   0.975   1.272   5.477
 2004SOL     OW23153   0.229   1.293   0.093
 2004SOL    HW123154   0.321   1.317   0.085
 2004SOL    HW223155   0.183   1.352   0.033
 2005SOL     OW23156   3.297   3.140   1.282
 2005SOL    HW123157   3.305   3.171   1.192
 2005SOL    HW223158   3.348   3.203   1.333
 2006SOL     OW23159   3.326   5.741   6.747
 2006SOL    HW123160   3.355   5.821   6.702
 2006SOL    HW223161   3.233   5.734   6.726
 2007SOL     OW23162   1.971   5.521   7.166
 2007SOL    HW123163   1.952   5.456   7.099
 2007SOL    HW223164   2.059   5.553   7.145
 2008SOL     OW23165   5.903   0.659   2.125
 2008SOL    HW123166   5.811   0.643   2.107
 2008SOL    HW223167   5.905   0.744   2.168
 2009SOL     OW23168   1.701   3.639   0.544
 2009SOL    HW123169   1.627   3.665   0.598
 2009SOL    HW223170   1.697   3.697   0.468
 2010SOL     OW23171   3.701   2.498   5.801
 2010SOL    HW123172   3.692   2.529   5.711
 2010SOL    HW223173   3.727   2.406   5.793
 2011SOL     OW23174   2.977   1.072   6.483
 2011SOL    HW123175   2.909   1.127   6.445
 2011SOL    HW223176   2.929   1.007   6.535
 2012SOL     OW23177   1.884   2.233   0.710
 2012SOL    HW123178   1.827   2.246   0.786
 2012SOL    HW223179   1.836   2.272   0.637
 2013SOL     OW23180   6.124   2.916   1.492
 2013SOL    HW123181   6.204   2.865   1.480
 2013SOL    HW223182   6.066   2.885   1.422
 2014SOL     OW23183   4.553   1.112   0.924
 2014SOL    HW123184   4.464   1.134   0.951
 2014SOL    HW223185   4.549   1.018   0.903
 2015SOL     OW23186   6.048   1.595   7.368
 2015SOL    HW123187   6.130   1.546   7.358
 2015SOL    HW223188   6.007   1.591   7.281
 2016SOL     OW23189   6.055   5.878   0.949
 2016SOL    HW123190   6.094   5.829   0.877
 2016SOL    HW223191   6.082   5.969   0.934
 2017SOL     OW23192   1.512   1.183   1.545
 2017SOL    HW123193   1.552   1.149   1.466
 2017SOL    HW223194   1.557   1.138   1.617
 2018SOL     OW23195   4.002   1.669   0.122
 2018SOL    HW123196   4.079   1.697   0.172
 2018SOL    HW223197   3.930   1.673   0.185
 2019SOL     OW23198   1.433   3.240   6.730
 2019SOL    HW123199   1.427   3.330   6.698
 2019SOL    HW223200   1.527   3.223   6.737
 2020SOL     OW23201   5.624   2.166   6.824
 2020SOL    HW123202   5.655   2.088   6.870
 2020SOL    HW223203   5.672   2.166   6.742
 2021SOL     OW23204   4.808   3.852   6.238
 2021SOL    HW123205   4.783   3.766   6.274
 2021SOL    HW223206   4.724   3.895   6.220
 2022SOL     OW23207   0.062   4.405   7.552
 2022SOL    HW123208   0.157   4.400   7.547
 2022SOL    HW223209   0.043   4.497   7.574
 2023SOL     OW23210   2.077   5.405   5.133
 2023SOL    HW123211   2.073   5.378   5.041
 2023SOL    HW223212   2.164   5.445   5.142
 2024SOL     OW23213   3.105   4.184   1.775
 2024SOL    HW123214   3.169   4.222   1.834
 2024SOL    HW223215   3.152   4.112   1.732
 2025SOL     OW23216   1.515   1.117   0.922
 2025SOL    HW123217   1.604   1.081   0.915
 2025SOL    HW223218   1.520   1.177   0.997
 2026SOL     OW23219   1.566   0.861   2.231
 2026SOL    HW123220   1.556   0.954   2.254
 2026SOL    HW223221   1.483   0.821   2.256
 2027SOL     OW23222   3.803   4.867   1.030
 2027SOL    HW123223   3.885   4.874   1.081
 2027SOL    HW223224   3.737   4.842   1.095
 2028SOL     OW23225   3.438   5.408   6.923
 2028SOL    HW123226   3.531   5.406   6.946
 2028SOL    HW223227   3.409   5.495   6.950
 2029SOL     OW23228   3.608   0.700   7.221
 2029SOL    HW123229   3.541   0.766   7.199
 2029SOL    HW223230   3.663   0.695   7.143
 2030SOL     OW23231   0.297   5.241   1.400
 2030SOL    HW123232   0.226   5.203   1.452
 2030SOL    HW223233   0.334   5.167   1.352
 2031SOL     OW23234   0.051   0.696   1.197
 2031SOL    HW123235  -0.039   0.708   1.228
 2031SOL    HW223236   0.072   0.605   1.219
 2032SOL     OW23237   2.243   4.293   0.127
 2032SOL    HW123238   2.184   4.291   0.202
 2032SOL    HW223239   2.271   4.384   0.120
 2033SOL     OW23240   2.038   4.546   0.106
 2033SOL    HW123241   2.073   4.591   0.029
 2033SOL    HW223242   1.973   4.606   0.142
 2034SOL     OW23243   0.758   5.311   2.066
 2034SOL    HW123244   0.691   5.333   2.002
 2034SOL    HW223245   0.721   5.237   2.115
 2035SOL     OW23246   0.364   0.751   0.793
 2035SOL    HW123247   0.352   0.678   0.854
 2035SOL    HW223248   0.415   0.815   0.843
 2036SOL     OW23249   4.622   4.788   7.812
 2036SOL    HW123250   4.675   4.711   7.794
 2036SOL    HW223251   4.617   4.835   7.728
 2037SOL     OW23252   5.653   0.835   6.744
 2037SOL    HW123253   5.616   0.911   6.700
 2037SOL    HW223254   5.694   0.870   6.823
 2038SOL     OW23255   2.881   2.611   1.277
 2038SOL    HW123256   2.945   2.632   1.345
 2038SOL    HW223257   2.888   2.684   1.215
 2039SOL     OW23258   3.555   5.964   1.666
 2039SOL    HW123259   3.510   5.965   1.750
 2039SOL    HW223260   3.637   5.918   1.683
 2040SOL     OW23261   5.007   4.076   2.286
 2040SOL    HW123262   5.037   4.012   2.351
 2040SOL    HW223263   4.950   4.027   2.228
 2041SOL     OW23264   4.977   3.840   5.465
 2041SOL    HW123265   5.004   3.749   5.454
 2041SOL    HW223266   4.941   3.865   5.380
 2042SOL     OW23267   2.121   1.384   1.606
 2042SOL    HW123268   2.063   1.438   1.660
 2042SOL    HW223269   2.142   1.309   1.661
 2043SOL     OW23270   1.620   5.579   1.412
 2043SOL    HW123271   1.620   5.674   1.421
 2043SOL    HW223272   1.614   5.547   1.502
 2044SOL     OW23273   0.794   4.764   0.243
 2044SOL    HW123274   0.748   4.771   0.159
 2044SOL    HW223275   0.788   4.672   0.266
 2045SOL     OW23276   0.234   4.578   6.107
 2045SOL    HW123277   0.275   4.499   6.143
 2045SOL    HW223278   0.229   4.562   6.013
 2046SOL     OW23279   5.809   5.572   1.905
 2046SOL    HW123280   5.752   5.505   1.867
 2046SOL    HW223281   5.851   5.528   1.979
 2047SOL     OW23282   6.232   2.276   7.611
 2047SOL    HW123283   6.198   2.245   7.527
 2047SOL    HW223284   6.276   2.199   7.648
 2048SOL     OW23285   1.658   2.278   7.597
 2048SOL    HW123286   1.613   2.222   7.661
 2048SOL    HW223287   1.590   2.300   7.533
 2049SOL     OW23288   1.396   4.647   7.629
 2049SOL    HW123289   1.447   4.728   7.636
 2049SOL    HW223290   1.390   4.631   7.535
 2050SOL     OW23291   2.424   5.243   0.833
 2050SOL    HW123292   2.396   5.156   0.862
 2050SOL    HW223293   2.505   5.259   0.882
 2051SOL     OW23294   5.449   5.683   1.934
 2051SOL    HW123295   5.516   5.677   2.002
 2051SOL    HW223296   5.368   5.655   1.977
 2052SOL     OW23297   0.559   0.608   6.359
 2052SOL    HW123298   0.582   0.699   6.337
 2052SOL    HW223299   0.478   0.615   6.409
 2053SOL     OW23300   1.599   4.315   1.640
 2053SOL    HW123301   1.514   4.328   1.597
 2053SOL    HW223302   1.624   4.403   1.670
 2054SOL     OW23303   5.199   0.727   7.817
 2054SOL    HW123304   5.125   0.750   7.874
 2054SOL    HW223305   5.183   0.637   7.791
 2055SOL     OW23306   2.821   5.648   7.067
 2055SOL    HW123307   2.762   5.719   7.094
 2055SOL    HW223308   2.801   5.577   7.127
 2056SOL     OW23309   3.075   6.157   7.468
 2056SOL    HW123310   3.160   6.161   7.512
 2056SOL    HW223311   3.059   6.247   7.439
 2057SOL     OW23312   3.193   1.926   1.568
 2057SOL    HW123313   3.207   1.842   1.611
 2057SOL    HW223314   3.268   1.979   1.594
 2058SOL     OW23315   4.087   1.523   1.327
 2058SOL    HW123316   4.010   1.505   1.382
 2058SOL    HW223317   4.056   1.510   1.237
 2059SOL     OW23318   4.263   0.548   1.453
 2059SOL    HW123319   4.320   0.590   1.518
 2059SOL    HW223320   4.288   0.456   1.455
 2060SOL     OW23321   0.571   0.786   6.103
 2060SOL    HW123322   0.491   0.741   6.075
 2060SOL    HW223323   0.605   0.825   6.023
 2061SOL     OW23324   0.157   2.905   5.939
 2061SOL    HW123325   0.070   2.865   5.929
 2061SOL    HW223326   0.163   2.969   5.869
 2062SOL     OW23327   6.137   4.930   7.162
 2062SOL    HW123328   6.194   4.981   7.104
 2062SOL    HW223329   6.125   4.847   7.117
 2063SOL     OW23330   3.962   3.870   1.295
 2063SOL    HW123331   3.949   3.911   1.209
 2063SOL    HW223332   3.983   3.779   1.276
 2064SOL     OW23333   2.714   6.325   6.710
 2064SOL    HW123334   2.633   6.296   6.751
 2064SOL    HW223335   2.756   6.381   6.776
 2065SOL     OW23336   3.490   0.822   0.393
 2065SOL    HW123337   3.441   0.841   0.473
 2065SOL    HW223338   3.458   0.737   0.364
 2066SOL     OW23339   4.830   0.382   7.579
 2066SOL    HW123340   4.846   0.334   7.497
 2066SOL    HW223341   4.849   0.319   7.648
 2067SOL     OW23342   2.016   5.996   7.262
 2067SOL    HW123343   1.922   5.980   7.251
 2067SOL    HW223344   2.052   5.987   7.174
 2068SOL     OW23345   3.128   5.854   0.133
 2068SOL    HW123346   3.193   5.784   0.124
 2068SOL    HW223347   3.181   5.934   0.139
 2069SOL     OW23348   4.659   2.881   6.632
 2069SOL    HW123349   4.724   2.814   6.654
 2069SOL    HW223350   4.634   2.861   6.542
 2070SOL     OW23351   2.939   1.405   2.009
 2070SOL    HW123352   3.012   1.397   2.071
 2070SOL    HW223353   2.871   1.449   2.059
 2071SOL     OW23354   0.172   3.835   1.445
 2071SOL    HW123355   0.120   3.870   1.517
 2071SOL    HW223356   0.159   3.897   1.373
 2072SOL     OW23357   6.075   3.997   7.078
 2072SOL    HW123358   6.155   4.047   7.092
 2072SOL    HW223359   6.092   3.948   6.997
 2073SOL     OW23360   4.262   5.130   7.661
 2073SOL    HW123361   4.261   5.220   7.627
 2073SOL    HW223362   4.237   5.076   7.586
 2074SOL     OW23363   1.318   1.863   6.868
 2074SOL    HW123364   1.313   1.878   6.774
 2074SOL    HW223365   1.368   1.782   6.877
 2075SOL     OW23366   3.497   4.017   1.709
 2075SOL    HW123367   3.552   4.072   1.654
 2075SOL    HW223368   3.533   3.929   1.700
 2076SOL     OW23369   4.246   2.363   6.864
 2076SOL    HW123370   4.197   2.339   6.942
 2076SOL    HW223371   4.334   2.329   6.879
 2077SOL     OW23372   0.324   0.676   6.018
 2077SOL    HW123373   0.316   0.700   5.926
 2077SOL    HW223374   0.256   0.727   6.062
 2078SOL     OW23375   0.759   2.310   0.843
 2078SOL    HW123376   0.824   2.262   0.791
 2078SOL    HW223377   0.685   2.323   0.784
 2079SOL     OW23378   4.832   2.704   1.513
 2079SOL    HW123379   4.876   2.619   1.520
 2079SOL    HW223380   4.808   2.710   1.420
 2080SOL     OW23381   3.352   0.720   1.398
 2080SOL    HW123382   3.274   0.770   1.418
 2080SOL    HW223383   3.408   0.730   1.475
 2081SOL     OW23384   1.468   2.095   5.701
 2081SOL    HW123385   1.372   2.099   5.707
 2081SOL    HW223386   1.493   2.183   5.672
 2082SOL     OW23387   2.488   3.484   0.235
 2082SOL    HW123388   2.472   3.465   0.328
 2082SOL    HW223389   2.497   3.397   0.194
 2083SOL     OW23390   3.212   0.397   6.559
 2083SOL    HW123391   3.290   0.406   6.612
 2083SOL    HW223392   3.142   0.378   6.622
 2084SOL     OW23393   5.391   6.037   6.109
 2084SOL    HW123394   5.427   6.021   6.022
 2084SOL    HW223395   5.379   6.132   6.113
 2085SOL     OW23396   5.147   3.157   5.912
 2085SOL    HW123397   5.209   3.084   5.924
 2085SOL    HW223398   5.196   3.221   5.860
 2086SOL     OW23399   4.464   5.826   0.745
 2086SOL    HW123400   4.516   5.906   0.736
 2086SOL    HW223401   4.379   5.856   0.776
 2087SOL     OW23402   3.830   2.159   0.013
 2087SOL    HW123403   3.793   2.108   0.085
 2087SOL    HW223404   3.754   2.193  -0.034
 2088SOL     OW23405   4.181   1.644   7.776
 2088SOL    HW123406   4.182   1.727   7.727
 2088SOL    HW223407   4.107   1.652   7.835
 2089SOL     OW23408   4.876   0.066   6.382
 2089SOL    HW123409   4.838  -0.021   6.374
 2089SOL    HW223410   4.902   0.089   6.292
 2090SOL     OW23411   1.559   1.326   0.311
 2090SOL    HW123412   1.528   1.269   0.381
 2090SOL    HW223413   1.480   1.358   0.269
 2091SOL     OW23414   4.369   3.536   1.819
 2091SOL    HW123415   4.460   3.507   1.830
 2091SOL    HW223416   4.324   3.501   1.896
 2092SOL     OW23417   6.335   5.795   6.065
 2092SOL    HW123418   6.382   5.878   6.054
 2092SOL    HW223419   6.314   5.792   6.159
 2093SOL     OW23420   0.760   2.290   2.023
 2093SOL    HW123421   0.812   2.210   2.034
 2093SOL    HW223422   0.778   2.317   1.933
 2094SOL     OW23423   2.451   5.586   1.108
 2094SOL    HW123424   2.371   5.630   1.136
 2094SOL    HW223425   2.453   5.597   1.013
 2095SOL     OW23426   1.594   6.094   0.972
 2095SOL    HW123427   1.611   6.179   0.931
 2095SOL    HW223428   1.549   6.043   0.905
 2096SOL     OW23429   3.653   2.650   5.583
 2096SOL    HW123430   3.743   2.667   5.553
 2096SOL    HW223431   3.605   2.633   5.502
 2097SOL     OW23432   0.065   4.396   0.808
 2097SOL    HW123433   0.035   4.484   0.831
 2097SOL    HW223434   0.019   4.338   0.869
 2098SOL     OW23435   4.247   2.994   6.328
 2098SOL    HW123436   4.284   3.033   6.249
 2098SOL    HW223437   4.254   2.899   6.313
 2099SOL     OW23438   5.418   3.448   0.068
 2099SOL    HW123439   5.403   3.484   0.156
 2099SOL    HW223440   5.411   3.353   0.079
 2100SOL     OW23441   5.292   4.377   1.170
 2100SOL    HW123442   5.316   4.407   1.083
 2100SOL    HW223443   5.285   4.282   1.161
 2101SOL     OW23444   4.668   3.165   6.700
 2101SOL    HW123445   4.663   3.069   6.695
 2101SOL    HW223446   4.761   3.183   6.717
 2102SOL     OW23447   3.235   3.809   5.143
 2102SOL    HW123448   3.263   3.892   5.106
 2102SOL    HW223449   3.157   3.830   5.195
 2103SOL     OW23450   5.892   1.389   0.013
 2103SOL    HW123451   5.828   1.356   0.076
 2103SOL    HW223452   5.886   1.329  -0.061
 2104SOL     OW23453   1.219   3.148   6.873
 2104SOL    HW123454   1.296   3.156   6.817
 2104SOL    HW223455   1.156   3.210   6.835
 2105SOL     OW23456   5.559   2.526   6.506
 2105SOL    HW123457   5.630   2.467   6.481
 2105SOL    HW223458   5.537   2.572   6.425
 2106SOL     OW23459   4.207   1.688   5.550
 2106SOL    HW123460   4.139   1.710   5.614
 2106SOL    HW223461   4.256   1.769   5.539
 2107SOL     OW23462   4.330   1.538   1.602
 2107SOL    HW123463   4.257   1.503   1.653
 2107SOL    HW223464   4.392   1.570   1.668
 2108SOL     OW23465   5.216   5.641   0.844
 2108SOL    HW123466   5.132   5.596   0.833
 2108SOL    HW223467   5.271   5.578   0.891
 2109SOL     OW23468   5.125   5.209   1.812
 2109SOL    HW123469   5.093   5.160   1.888
 2109SOL    HW223470   5.175   5.282   1.850
 2110SOL     OW23471   2.451   4.462   6.394
 2110SOL    HW123472   2.388   4.441   6.325
 2110SOL    HW223473   2.406   4.528   6.447
 2111SOL     OW23474   5.767   0.827   5.844
 2111SOL    HW123475   5.738   0.854   5.757
 2111SOL    HW223476   5.821   0.750   5.828
 2112SOL     OW23477   1.520   0.695   0.857
 2112SOL    HW123478   1.478   0.769   0.901
 2112SOL    HW223479   1.553   0.732   0.775
 2113SOL     OW23480   3.569   4.835   0.425
 2113SOL    HW123481   3.492   4.884   0.454
 2113SOL    HW223482   3.593   4.781   0.500
 2114SOL     OW23483   1.725   4.948   1.152
 2114SOL    HW123484   1.766   4.862   1.159
 2114SOL    HW223485   1.662   4.939   1.080
 2115SOL     OW23486   0.231   5.442   6.220
 2115SOL    HW123487   0.314   5.446   6.171
 2115SOL    HW223488   0.243   5.368   6.279
 2116SOL     OW23489   4.271   3.740   5.502
 2116SOL    HW123490   4.239   3.827   5.476
 2116SOL    HW223491   4.243   3.683   5.431
 2117SOL     OW23492   2.862   3.690   7.020
 2117SOL    HW123493   2.912   3.672   7.100
 2117SOL    HW223494   2.791   3.747   7.049
 2118SOL     OW23495   6.328   1.496   7.521
 2118SOL    HW123496   6.339   1.507   7.427
 2118SOL    HW223497   6.303   1.583   7.552
 2119SOL     OW23498   5.096   3.262   0.493
 2119SOL    HW123499   5.093   3.309   0.410
 2119SOL    HW223500   5.180   3.285   0.532
 2120SOL     OW23501   2.767   2.537   7.091
 2120SOL    HW123502   2.807   2.567   7.173
 2120SOL    HW223503   2.713   2.611   7.062
 2121SOL     OW23504   2.538   5.626   6.012
 2121SOL    HW123505   2.576   5.700   5.964
 2121SOL    HW223506   2.601   5.608   6.082
 2122SOL     OW23507   5.989   2.889   0.080
 2122SOL    HW123508   6.051   2.823   0.111
 2122SOL    HW223509   5.916   2.884   0.141
 2123SOL     OW23510   4.927   0.390   5.483
 2123SOL    HW123511   4.968   0.469   5.518
 2123SOL    HW223512   4.914   0.334   5.559
 2124SOL     OW23513   0.253   0.315   5.810
 2124SOL    HW123514   0.269   0.280   5.722
 2124SOL    HW223515   0.184   0.259   5.846
 2125SOL     OW23516   2.809   3.742   0.701
 2125SOL    HW123517   2.751   3.816   0.719
 2125SOL    HW223518   2.802   3.729   0.606
 2126SOL     OW23519   3.347   3.539   2.365
 2126SOL    HW123520   3.296   3.613   2.400
 2126SOL    HW223521   3.435   3.552   2.401
 2127SOL     OW23522   5.045   3.665   6.761
 2127SOL    HW123523   5.023   3.646   6.670
 2127SOL    HW223524   5.140   3.671   6.763
 2128SOL     OW23525   1.074   2.447   7.721
 2128SOL    HW123526   1.165   2.471   7.733
 2128SOL    HW223527   1.033   2.525   7.684
 2129SOL     OW23528   6.422   5.399   6.443
 2129SOL    HW123529   6.384   5.394   6.531
 2129SOL    HW223530   6.503   5.349   6.449
 2130SOL     OW23531   2.727   4.007   7.781
 2130SOL    HW123532   2.632   4.020   7.771
 2130SOL    HW223533   2.753   3.960   7.702
 2131SOL     OW23534   4.244   3.389   6.815
 2131SOL    HW123535   4.224   3.296   6.825
 2131SOL    HW223536   4.299   3.393   6.737
 2132SOL     OW23537   0.233   4.242   0.015
 2132SOL    HW123538   0.312   4.294   0.031
 2132SOL    HW223539   0.162   4.305   0.021
 2133SOL     OW23540   3.658   3.336   0.779
 2133SOL    HW123541   3.721   3.369   0.715
 2133SOL    HW223542   3.579   3.387   0.763
 2134SOL     OW23543   1.586   1.004   0.074
 2134SOL    HW123544   1.534   0.957   0.139
 2134SOL    HW223545   1.609   1.086   0.116
 2135SOL     OW23546   4.858   6.274   1.299
 2135SOL    HW123547   4.779   6.294   1.350
 2135SOL    HW223548   4.892   6.194   1.338
 2136SOL     OW23549   5.586   3.423   7.239
 2136SOL    HW123550   5.497   3.454   7.230
 2136SOL    HW223551   5.616   3.459   7.323
 2137SOL     OW23552   4.816   4.836   6.128
 2137SOL    HW123553   4.784   4.747   6.110
 2137SOL    HW223554   4.744   4.877   6.177
 2138SOL     OW23555   4.398   5.559   7.187
 2138SOL    HW123556   4.345   5.638   7.200
 2138SOL    HW223557   4.351   5.510   7.120
 2139SOL     OW23558   5.640   3.304   0.658
 2139SOL    HW123559   5.692   3.228   0.684
 2139SOL    HW223560   5.649   3.365   0.731
 2140SOL     OW23561   0.734   6.160   7.000
 2140SOL    HW123562   0.664   6.169   7.064
 2140SOL    HW223563   0.801   6.108   7.045
 2141SOL     OW23564   0.045   1.120   0.206
 2141SOL    HW123565   0.106   1.188   0.179
 2141SOL    HW223566   0.057   1.050   0.141
 2142SOL     OW23567   2.533   0.150   6.645
 2142SOL    HW123568   2.484   0.174   6.724
 2142SOL    HW223569   2.608   0.101   6.678
 2143SOL     OW23570   3.528   2.508   6.012
 2143SOL    HW123571   3.579   2.517   5.932
 2143SOL    HW223572   3.439   2.491   5.982
 2144SOL     OW23573   3.506   3.512   5.023
 2144SOL    HW123574   3.486   3.600   5.056
 2144SOL    HW223575   3.510   3.523   4.928
 2145SOL     OW23576   5.291   1.537   6.279
 2145SOL    HW123577   5.296   1.632   6.264
 2145SOL    HW223578   5.219   1.508   6.222
 2146SOL     OW23579   2.541   2.990   6.470
 2146SOL    HW123580   2.457   2.946   6.484
 2146SOL    HW223581   2.529   3.076   6.509
 2147SOL     OW23582   4.776   0.791   1.010
 2147SOL    HW123583   4.804   0.831   1.093
 2147SOL    HW223584   4.795   0.698   1.020
 2148SOL     OW23585   5.193   6.254   1.352
 2148SOL    HW123586   5.223   6.165   1.331
 2148SOL    HW223587   5.099   6.252   1.335
 2149SOL     OW23588   2.937   0.318   1.915
 2149SOL    HW123589   2.920   0.406   1.882
 2149SOL    HW223590   2.879   0.309   1.991
 2150SOL     OW23591   3.361   4.052   1.981
 2150SOL    HW123592   3.335   4.144   1.982
 2150SOL    HW223593   3.390   4.036   1.892
 2151SOL     OW23594   2.554   4.979   0.843
 2151SOL    HW123595   2.618   4.929   0.894
 2151SOL    HW223596   2.607   5.040   0.791
 2152SOL     OW23597   0.092   4.628   6.958
 2152SOL    HW123598   0.152   4.684   7.008
 2152SOL    HW223599   0.042   4.688   6.903
 2153SOL     OW23600   5.724   0.978   0.176
 2153SOL    HW123601   5.729   0.895   0.224
 2153SOL    HW223602   5.747   0.955   0.086
 2154SOL     OW23603   0.021   3.502   0.605
 2154SOL    HW123604   0.031   3.598   0.607
 2154SOL    HW223605   0.013   3.482   0.512
 2155SOL     OW23606   3.973   2.088   2.013
 2155SOL    HW123607   4.037   2.120   1.949
 2155SOL    HW223608   3.994   2.135   2.093
 2156SOL     OW23609   2.322   3.021   5.920
 2156SOL    HW123610   2.370   3.092   5.878
 2156SOL    HW223611   2.238   3.018   5.874
 2157SOL     OW23612   4.600   3.120   0.053
 2157SOL    HW123613   4.594   3.065  -0.025
 2157SOL    HW223614   4.512   3.117   0.091
 2158SOL     OW23615   4.715   3.658   2.566
 2158SOL    HW123616   4.650   3.715   2.526
 2158SOL    HW223617   4.671   3.574   2.574
 2159SOL     OW23618   0.598   1.018   1.668
 2159SOL    HW123619   0.663   0.961   1.627
 2159SOL    HW223620   0.517   1.000   1.620
 2160SOL     OW23621   3.797   6.232   0.354
 2160SOL    HW123622   3.882   6.265   0.326
 2160SOL    HW223623   3.734   6.298   0.323
 2161SOL     OW23624   0.670   6.263   1.413
 2161SOL    HW123625   0.593   6.245   1.467
 2161SOL    HW223626   0.676   6.359   1.411
 2162SOL     OW23627   2.508   0.890   1.474
 2162SOL    HW123628   2.525   0.939   1.554
 2162SOL    HW223629   2.430   0.931   1.437
 2163SOL     OW23630   4.425   0.537   0.496
 2163SOL    HW123631   4.340   0.521   0.539
 2163SOL    HW223632   4.417   0.625   0.460
 2164SOL     OW23633   0.362   3.207   0.673
 2164SOL    HW123634   0.430   3.258   0.628
 2164SOL    HW223635   0.331   3.265   0.743
 2165SOL     OW23636   4.463   4.590   6.617
 2165SOL    HW123637   4.548   4.591   6.574
 2165SOL    HW223638   4.418   4.667   6.583
 2166SOL     OW23639   0.255   5.204   6.666
 2166SOL    HW123640   0.252   5.274   6.731
 2166SOL    HW223641   0.186   5.143   6.694
 2167SOL     OW23642   5.426   2.460   1.301
 2167SOL    HW123643   5.476   2.525   1.252
 2167SOL    HW223644   5.488   2.425   1.365
 2168SOL     OW23645   6.317   5.849   7.674
 2168SOL    HW123646   6.309   5.887   7.587
 2168SOL    HW223647   6.231   5.862   7.713
 2169SOL     OW23648   3.601   1.047   7.273
 2169SOL    HW123649   3.684   1.045   7.226
 2169SOL    HW223650   3.606   0.974   7.335
 2170SOL     OW23651   0.589   0.253   5.794
 2170SOL    HW123652   0.581   0.348   5.801
 2170SOL    HW223653   0.500   0.223   5.778
 2171SOL     OW23654   3.843   1.456   1.442
 2171SOL    HW123655   3.794   1.422   1.367
 2171SOL    HW223656   3.775   1.476   1.507
 2172SOL     OW23657   4.234   5.086   0.966
 2172SOL    HW123658   4.286   5.007   0.955
 2172SOL    HW223659   4.159   5.074   0.908
 2173SOL     OW23660   1.766   4.202   0.602
 2173SOL    HW123661   1.712   4.261   0.654
 2173SOL    HW223662   1.799   4.138   0.665
 2174SOL     OW23663   3.375   3.240   0.137
 2174SOL    HW123664   3.360   3.265   0.228
 2174SOL    HW223665   3.432   3.163   0.142
 2175SOL     OW23666   5.619   4.095   5.908
 2175SOL    HW123667   5.708   4.074   5.934
 2175SOL    HW223668   5.627   4.131   5.820
 2176SOL     OW23669   3.440   0.034   7.015
 2176SOL    HW123670   3.434  -0.048   6.966
 2176SOL    HW223671   3.474   0.097   6.952
 2177SOL     OW23672   2.812   0.524   1.776
 2177SOL    HW123673   2.849   0.612   1.780
 2177SOL    HW223674   2.717   0.538   1.776
 2178SOL     OW23675   5.061   1.801   6.036
 2178SOL    HW123676   4.975   1.843   6.042
 2178SOL    HW223677   5.114   1.863   5.986
 2179SOL     OW23678   3.081   4.256   5.952
 2179SOL    HW123679   3.158   4.298   5.992
 2179SOL    HW223680   3.118   4.186   5.899
 2180SOL     OW23681   3.987   4.738   0.596
 2180SOL    HW123682   3.936   4.696   0.526
 2180SOL    HW223683   3.923   4.788   0.646
 2181SOL     OW23684   1.557   0.283   2.039
 2181SOL    HW123685   1.468   0.286   2.004
 2181SOL    HW223686   1.574   0.190   2.053
 2182SOL     OW23687   4.436   4.858   6.983
 2182SOL    HW123688   4.410   4.924   7.047
 2182SOL    HW223689   4.382   4.877   6.906
 2183SOL     OW23690   4.545   5.543   0.750
 2183SOL    HW123691   4.513   5.633   0.754
 2183SOL    HW223692   4.506   5.499   0.826
 2184SOL     OW23693   1.249   2.540   6.251
 2184SOL    HW123694   1.288   2.489   6.322
 2184SOL    HW223695   1.191   2.602   6.296
 2185SOL     OW23696   5.067   5.223   0.288
 2185SOL    HW123697   5.155   5.187   0.292
 2185SOL    HW223698   5.052   5.259   0.376
 2186SOL     OW23699   4.039   2.451   1.840
 2186SOL    HW123700   4.087   2.376   1.876
 2186SOL    HW223701   3.948   2.424   1.841
 2187SOL     OW23702   0.315   3.546   0.501
 2187SOL    HW123703   0.244   3.518   0.559
 2187SOL    HW223704   0.388   3.488   0.523
 2188SOL     OW23705   2.027   1.917   6.914
 2188SOL    HW123706   1.996   2.008   6.910
 2188SOL    HW223707   2.106   1.917   6.859
 2189SOL     OW23708   4.888   0.638   0.648
 2189SOL    HW123709   4.899   0.560   0.594
 2189SOL    HW223710   4.804   0.625   0.692
 2190SOL     OW23711   5.457   4.792   0.076
 2190SOL    HW123712   5.381   4.757   0.123
 2190SOL    HW223713   5.446   4.887   0.081
 2191SOL     OW23714   6.222   3.530   0.071
 2191SOL    HW123715   6.140   3.576   0.055
 2191SOL    HW223716   6.252   3.502  -0.015
 2192SOL     OW23717   4.986   2.386   7.618
 2192SOL    HW123718   4.901   2.374   7.661
 2192SOL    HW223719   4.978   2.337   7.536
 2193SOL     OW23720   0.303   1.780   0.047
 2193SOL    HW123721   0.304   1.869   0.012
 2193SOL    HW223722   0.210   1.760   0.059
 2194SOL     OW23723   6.010   6.266   6.843
 2194SOL    HW123724   5.928   6.291   6.885
 2194SOL    HW223725   5.990   6.182   6.800
 2195SOL     OW23726   5.833   3.346   6.561
 2195SOL    HW123727   5.906   3.330   6.501
 2195SOL    HW223728   5.871   3.338   6.648
 2196SOL     OW23729   3.088   5.070   6.112
 2196SOL    HW123730   3.066   4.986   6.151
 2196SOL    HW223731   3.151   5.109   6.173
 2197SOL     OW23732   0.245   0.105   1.396
 2197SOL    HW123733   0.252   0.173   1.463
 2197SOL    HW223734   0.255   0.023   1.443
 2198SOL     OW23735   4.820   1.662   7.059
 2198SOL    HW123736   4.904   1.639   7.020
 2198SOL    HW223737   4.839   1.740   7.112
 2199SOL     OW23738   3.350   4.944   7.125
 2199SOL    HW123739   3.297   4.909   7.197
 2199SOL    HW223740   3.372   5.033   7.153
 2200SOL     OW23741   2.684   5.733   5.336
 2200SOL    HW123742   2.688   5.821   5.298
 2200SOL    HW223743   2.614   5.738   5.401
 2201SOL     OW23744   0.214   2.955   0.690
 2201SOL    HW123745   0.157   2.959   0.613
 2201SOL    HW223746   0.276   3.027   0.678
 2202SOL     OW23747   4.589   3.797   1.308
 2202SOL    HW123748   4.567   3.706   1.327
 2202SOL    HW223749   4.663   3.817   1.366
 2203SOL     OW23750   6.065   5.355   1.953
 2203SOL    HW123751   6.132   5.369   2.020
 2203SOL    HW223752   6.112   5.359   1.870
 2204SOL     OW23753   5.182   1.963   0.603
 2204SOL    HW123754   5.086   1.966   0.608
 2204SOL    HW223755   5.208   2.053   0.587
 2205SOL     OW23756   2.880   4.388   0.883
 2205SOL    HW123757   2.906   4.313   0.935
 2205SOL    HW223758   2.889   4.463   0.942
 2206SOL     OW23759   5.486   4.165   0.270
 2206SOL    HW123760   5.441   4.083   0.288
 2206SOL    HW223761   5.538   4.183   0.349
 2207SOL     OW23762   5.412   5.258   6.634
 2207SOL    HW123763   5.345   5.242   6.700
 2207SOL    HW223764   5.493   5.266   6.683
 2208SOL     OW23765   6.190   4.125   0.420
 2208SOL    HW123766   6.255   4.190   0.446
 2208SOL    HW223767   6.209   4.048   0.473
 2209SOL     OW23768   2.456   5.553   0.410
 2209SOL    HW123769   2.464   5.479   0.470
 2209SOL    HW223770   2.464   5.630   0.466
 2210SOL     OW23771   4.471   1.006   6.238
 2210SOL    HW123772   4.397   0.970   6.190
 2210SOL    HW223773   4.472   1.099   6.216
 2211SOL     OW23774   1.395   3.427   1.162
 2211SOL    HW123775   1.482   3.405   1.128
 2211SOL    HW223776   1.381   3.365   1.233
 2212SOL     OW23777   0.286   1.452   0.518
 2212SOL    HW123778   0.364   1.429   0.567
 2212SOL    HW223779   0.213   1.415   0.568
 2213SOL     OW23780   3.204   2.983   7.312
 2213SOL    HW123781   3.193   2.889   7.325
 2213SOL    HW223782   3.258   3.010   7.386
 2214SOL     OW23783   5.332   2.480   7.817
 2214SOL    HW123784   5.390   2.556   7.814
 2214SOL    HW223785   5.263   2.500   7.754
 2215SOL     OW23786   4.975   2.888   1.238
 2215SOL    HW123787   5.034   2.824   1.199
 2215SOL    HW223788   4.887   2.852   1.225
 2216SOL     OW23789   3.186   1.321   6.407
 2216SOL    HW123790   3.155   1.238   6.443
 2216SOL    HW223791   3.271   1.299   6.368
 2217SOL     OW23792   1.654   3.196   0.942
 2217SOL    HW123793   1.700   3.271   0.904
 2217SOL    HW223794   1.720   3.126   0.943
 2218SOL     OW23795   4.310   0.444   7.032
 2218SOL    HW123796   4.361   0.413   6.957
 2218SOL    HW223797   4.375   0.480   7.092
 2219SOL     OW23798   1.189   2.960   7.527
 2219SOL    HW123799   1.276   2.933   7.555
 2219SOL    HW223800   1.143   2.981   7.608
 2220SOL     OW23801   4.825   1.132   7.599
 2220SOL    HW123802   4.853   1.087   7.519
 2220SOL    HW223803   4.785   1.213   7.568
 2221SOL     OW23804   2.513   5.639   0.832
 2221SOL    HW123805   2.555   5.711   0.879
 2221SOL    HW223806   2.586   5.583   0.804
 2222SOL     OW23807   2.714   5.010   7.656
 2222SOL    HW123808   2.750   4.946   7.595
 2222SOL    HW223809   2.646   4.962   7.703
 2223SOL     OW23810   4.856   4.527   5.583
 2223SOL    HW123811   4.856   4.545   5.677
 2223SOL    HW223812   4.765   4.507   5.562
 2224SOL     OW23813   4.230   6.267   1.015
 2224SOL    HW123814   4.281   6.201   0.968
 2224SOL    HW223815   4.143   6.227   1.026
 2225SOL     OW23816   0.668   5.683   6.655
 2225SOL    HW123817   0.662   5.601   6.608
 2225SOL    HW223818   0.728   5.737   6.603
 2226SOL     OW23819   4.441   6.327   0.441
 2226SOL    HW123820   4.378   6.337   0.512
 2226SOL    HW223821   4.477   6.415   0.429
 2227SOL     OW23822   4.252   1.302   6.663
 2227SOL    HW123823   4.305   1.240   6.612
 2227SOL    HW223824   4.279   1.286   6.754
 2228SOL     OW23825   5.982   1.258   1.889
 2228SOL    HW123826   5.918   1.191   1.867
 2228SOL    HW223827   6.023   1.281   1.805
 2229SOL     OW23828   5.647   6.124   1.303
 2229SOL    HW123829   5.653   6.147   1.210
 2229SOL    HW223830   5.713   6.056   1.316
 2230SOL     OW23831   1.703   1.420   0.914
 2230SOL    HW123832   1.637   1.486   0.892
 2230SOL    HW223833   1.786   1.460   0.887
 2231SOL     OW23834   5.087   2.804   7.344
 2231SOL    HW123835   5.139   2.812   7.423
 2231SOL    HW223836   5.130   2.860   7.280
 2232SOL     OW23837   4.444   1.928   1.691
 2232SOL    HW123838   4.411   1.993   1.753
 2232SOL    HW223839   4.530   1.904   1.725
 2233SOL     OW23840   4.989   6.094   6.663
 2233SOL    HW123841   4.915   6.149   6.690
 2233SOL    HW223842   4.948   6.015   6.627
 2234SOL     OW23843   6.087   3.296   0.607
 2234SOL    HW123844   6.180   3.274   0.616
 2234SOL    HW223845   6.059   3.318   0.695
 2235SOL     OW23846   0.877   4.464   6.529
 2235SOL    HW123847   0.789   4.470   6.494
 2235SOL    HW223848   0.872   4.508   6.614
 2236SOL     OW23849   2.467   3.119   0.661
 2236SOL    HW123850   2.413   3.055   0.708
 2236SOL    HW223851   2.457   3.095   0.568
 2237SOL     OW23852   2.530   4.617   6.691
 2237SOL    HW123853   2.611   4.570   6.712
 2237SOL    HW223854   2.559   4.694   6.643
 2238SOL     OW23855   0.393   2.638   6.974
 2238SOL    HW123856   0.358   2.719   7.012
 2238SOL    HW223857   0.327   2.572   6.994
 2239SOL     OW23858   0.906   6.185   0.354
 2239SOL    HW123859   0.967   6.244   0.309
 2239SOL    HW223860   0.834   6.173   0.292
 2240SOL     OW23861   5.203   1.493   5.811
 2240SOL    HW123862   5.256   1.473   5.734
 2240SOL    HW223863   5.166   1.579   5.792
 2241SOL     OW23864   5.240   3.873   5.389
 2241SOL    HW123865   5.214   3.903   5.302
 2241SOL    HW223866   5.160   3.878   5.442
 2242SOL     OW23867   5.075   4.241   6.852
 2242SOL    HW123868   5.134   4.292   6.907
 2242SOL    HW223869   5.118   4.238   6.767
 2243SOL     OW23870   2.865   4.216   1.653
 2243SOL    HW123871   2.953   4.194   1.685
 2243SOL    HW223872   2.875   4.220   1.558
 2244SOL     OW23873   2.790   4.423   4.982
 2244SOL    HW123874   2.780   4.359   4.912
 2244SOL    HW223875   2.848   4.380   5.045
 2245SOL     OW23876   4.894   1.931   7.177
 2245SOL    HW123877   4.877   1.919   7.271
 2245SOL    HW223878   4.988   1.946   7.171
 2246SOL     OW23879   5.871   2.963   0.665
 2246SOL    HW123880   5.942   3.016   0.628
 2246SOL    HW223881   5.841   2.909   0.592
 2247SOL     OW23882   6.402   1.830   6.967
 2247SOL    HW123883   6.394   1.904   6.906
 2247SOL    HW223884   6.428   1.756   6.912
 2248SOL     OW23885   3.529   4.876   6.828
 2248SOL    HW123886   3.473   4.809   6.788
 2248SOL    HW223887   3.579   4.912   6.755
 2249SOL     OW23888   2.379   1.970   7.572
 2249SOL    HW123889   2.294   1.956   7.530
 2249SOL    HW223890   2.387   1.898   7.634
 2250SOL     OW23891   4.199   5.337   6.301
 2250SOL    HW123892   4.149   5.361   6.379
 2250SOL    HW223893   4.141   5.354   6.228
 2251SOL     OW23894   3.448   6.123   7.076
 2251SOL    HW123895   3.388   6.049   7.067
 2251SOL    HW223896   3.422   6.165   7.158
 2252SOL     OW23897   4.666   2.466   7.467
 2252SOL    HW123898   4.670   2.555   7.505
 2252SOL    HW223899   4.695   2.409   7.538
 2253SOL     OW23900   1.540   2.116   7.362
 2253SOL    HW123901   1.453   2.080   7.344
 2253SOL    HW223902   1.596   2.038   7.374
 2254SOL     OW23903   5.339   5.037   7.667
 2254SOL    HW123904   5.347   5.056   7.574
 2254SOL    HW223905   5.306   4.947   7.670
 2255SOL     OW23906   5.404   4.462   2.027
 2255SOL    HW123907   5.476   4.451   1.965
 2255SOL    HW223908   5.340   4.516   1.980
 2256SOL     OW23909   1.030   0.780   7.328
 2256SOL    HW123910   1.025   0.691   7.364
 2256SOL    HW223911   0.948   0.790   7.280
 2257SOL     OW23912   5.175   3.063   7.722
 2257SOL    HW123913   5.128   3.132   7.768
 2257SOL    HW223914   5.257   3.053   7.771
 2258SOL     OW23915   3.739   1.746   0.773
 2258SOL    HW123916   3.666   1.711   0.824
 2258SOL    HW223917   3.794   1.670   0.755
 2259SOL     OW23918   1.587   2.785   0.513
 2259SOL    HW123919   1.662   2.838   0.487
 2259SOL    HW223920   1.541   2.839   0.577
 2260SOL     OW23921   3.946   5.649   6.164
 2260SOL    HW123922   4.031   5.673   6.127
 2260SOL    HW223923   3.913   5.581   6.106
 2261SOL     OW23924   1.211   3.624   7.154
 2261SOL    HW123925   1.155   3.561   7.199
 2261SOL    HW223926   1.239   3.579   7.074
 2262SOL     OW23927   4.992   4.645   7.032
 2262SOL    HW123928   4.977   4.731   7.070
 2262SOL    HW223929   4.930   4.639   6.960
 2263SOL     OW23930   3.284   2.990   5.851
 2263SOL    HW123931   3.240   3.068   5.817
 2263SOL    HW223932   3.353   2.971   5.787
 2264SOL     OW23933   4.513   3.729   2.126
 2264SOL    HW123934   4.553   3.647   2.099
 2264SOL    HW223935   4.531   3.789   2.054
 2265SOL     OW23936   1.775   0.873   6.048
 2265SOL    HW123937   1.743   0.853   5.960
 2265SOL    HW223938   1.869   0.856   6.043
 2266SOL     OW23939   6.325   3.832   6.556
 2266SOL    HW123940   6.420   3.825   6.569
 2266SOL    HW223941   6.291   3.853   6.643
 2267SOL     OW23942   4.682   6.166   0.411
 2267SOL    HW123943   4.732   6.246   0.396
 2267SOL    HW223944   4.596   6.196   0.442
 2268SOL     OW23945   5.324   4.850   5.684
 2268SOL    HW123946   5.393   4.784   5.679
 2268SOL    HW223947   5.369   4.933   5.669
 2269SOL     OW23948   1.168   0.523   0.911
 2269SOL    HW123949   1.198   0.443   0.867
 2269SOL    HW223950   1.194   0.594   0.852
 2270SOL     OW23951   2.760   0.895   1.943
 2270SOL    HW123952   2.781   0.952   2.017
 2270SOL    HW223953   2.673   0.861   1.963
 2271SOL     OW23954   2.521   5.424   7.097
 2271SOL    HW123955   2.579   5.349   7.082
 2271SOL    HW223956   2.496   5.416   7.190
 2272SOL     OW23957   4.229   3.992   0.492
 2272SOL    HW123958   4.314   4.025   0.464
 2272SOL    HW223959   4.166   4.057   0.460
 2273SOL     OW23960   6.019   5.115   6.368
 2273SOL    HW123961   5.968   5.144   6.292
 2273SOL    HW223962   6.055   5.195   6.405
 2274SOL     OW23963   5.444   5.765   1.493
 2274SOL    HW123964   5.440   5.728   1.582
 2274SOL    HW223965   5.374   5.720   1.446
 2275SOL     OW23966   1.265   4.873   6.219
 2275SOL    HW123967   1.340   4.891   6.163
 2275SOL    HW223968   1.214   4.808   6.172
 2276SOL     OW23969   4.792   4.984   0.063
 2276SOL    HW123970   4.848   5.009  -0.011
 2276SOL    HW223971   4.720   4.935   0.024
 2277SOL     OW23972   6.124   4.871   6.381
 2277SOL    HW123973   6.076   4.953   6.385
 2277SOL    HW223974   6.061   4.808   6.344
 2278SOL     OW23975   6.136   2.565   6.837
 2278SOL    HW123976   6.076   2.490   6.847
 2278SOL    HW223977   6.196   2.558   6.912
 2279SOL     OW23978   4.512   5.835   0.253
 2279SOL    HW123979   4.443   5.775   0.280
 2279SOL    HW223980   4.466   5.917   0.233
 2280SOL     OW23981   5.272   4.794   2.199
 2280SOL    HW123982   5.215   4.835   2.264
 2280SOL    HW223983   5.315   4.723   2.246
 2281SOL     OW23984   4.774   4.174   7.567
 2281SOL    HW123985   4.817   4.090   7.574
 2281SOL    HW223986   4.788   4.216   7.652
 2282SOL     OW23987   4.931   0.887   0.307
 2282SOL    HW123988   4.889   0.812   0.265
 2282SOL    HW223989   4.929   0.956   0.240
 2283SOL     OW23990   0.164   3.288   6.282
 2283SOL    HW123991   0.080   3.309   6.322
 2283SOL    HW223992   0.209   3.372   6.275
 2284SOL     OW23993   0.842   4.172   6.676
 2284SOL    HW123994   0.804   4.249   6.719
 2284SOL    HW223995   0.935   4.191   6.670
 2285SOL     OW23996   1.849   1.973   1.695
 2285SOL    HW123997   1.882   1.899   1.746
 2285SOL    HW223998   1.774   2.005   1.745
 2286SOL     OW23999   4.470   4.272   7.572
 2286SOL    HW124000   4.449   4.209   7.503
 2286SOL    HW224001   4.532   4.226   7.629
 2287SOL     OW24002   0.038   1.611   0.114
 2287SOL    HW124003   0.096   1.612   0.190
 2287SOL    HW224004  -0.043   1.651   0.145
 2288SOL     OW24005   4.020   3.622   1.238
 2288SOL    HW124006   4.062   3.587   1.160
 2288SOL    HW224007   4.025   3.552   1.302
 2289SOL     OW24008   2.124   3.893   7.350
 2289SOL    HW124009   2.096   3.944   7.426
 2289SOL    HW224010   2.114   3.801   7.377
 2290SOL     OW24011   2.579   5.788   7.167
 2290SOL    HW124012   2.557   5.851   7.236
 2290SOL    HW224013   2.533   5.708   7.191
 2291SOL     OW24014   6.335   1.081   6.285
 2291SOL    HW124015   6.298   1.021   6.220
 2291SOL    HW224016   6.334   1.032   6.366
 2292SOL     OW24017   6.112   1.593   6.572
 2292SOL    HW124018   6.192   1.633   6.538
 2292SOL    HW224019   6.050   1.597   6.499
 2293SOL     OW24020   0.123   3.506   7.523
 2293SOL    HW124021   0.182   3.575   7.492
 2293SOL    HW224022   0.152   3.427   7.476
 2294SOL     OW24023   1.477   3.682   6.742
 2294SOL    HW124024   1.465   3.630   6.663
 2294SOL    HW224025   1.565   3.719   6.734
 2295SOL     OW24026   1.049   4.182   7.271
 2295SOL    HW124027   1.048   4.172   7.176
 2295SOL    HW224028   1.012   4.269   7.286
 2296SOL     OW24029   3.951   2.266   0.467
 2296SOL    HW124030   3.888   2.207   0.426
 2296SOL    HW224031   3.985   2.217   0.542
 2297SOL     OW24032   2.197   1.931   0.636
 2297SOL    HW124033   2.132   1.988   0.678
 2297SOL    HW224034   2.154   1.902   0.555
 2298SOL     OW24035   3.021   3.841   5.278
 2298SOL    HW124036   3.038   3.922   5.326
 2298SOL    HW224037   2.927   3.843   5.259
 2299SOL     OW24038   4.509   2.956   7.397
 2299SOL    HW124039   4.511   2.898   7.322
 2299SOL    HW224040   4.567   3.028   7.374
 2300SOL     OW24041   3.150   3.722   5.571
 2300SOL    HW124042   3.160   3.800   5.516
 2300SOL    HW224043   3.061   3.728   5.605
 2301SOL     OW24044   5.066   0.181   1.902
 2301SOL    HW124045   5.071   0.144   1.814
 2301SOL    HW224046   5.136   0.137   1.951
 2302SOL     OW24047   4.269   1.482   6.288
 2302SOL    HW124048   4.178   1.469   6.312
 2302SOL    HW224049   4.266   1.517   6.199
 2303SOL     OW24050   0.252   3.248   6.989
 2303SOL    HW124051   0.212   3.162   6.972
 2303SOL    HW224052   0.344   3.236   6.966
 2304SOL     OW24053   2.592   0.778   6.872
 2304SOL    HW124054   2.665   0.719   6.853
 2304SOL    HW224055   2.522   0.749   6.813
 2305SOL     OW24056   4.394   5.613   0.453
 2305SOL    HW124057   4.451   5.538   0.439
 2305SOL    HW224058   4.397   5.629   0.547
 2306SOL     OW24059   5.163   3.943   5.130
 2306SOL    HW124060   5.159   3.907   5.041
 2306SOL    HW224061   5.072   3.941   5.160
 2307SOL     OW24062   4.102   2.590   1.415
 2307SOL    HW124063   4.040   2.651   1.376
 2307SOL    HW224064   4.101   2.611   1.508
 2308SOL     OW24065   1.163   0.449   1.782
 2308SOL    HW124066   1.098   0.405   1.728
 2308SOL    HW224067   1.144   0.542   1.771
 2309SOL     OW24068   2.071   5.820   6.680
 2309SOL    HW124069   2.101   5.776   6.759
 2309SOL    HW224070   1.993   5.869   6.707
 2310SOL     OW24071   5.436   1.428   7.232
 2310SOL    HW124072   5.407   1.499   7.290
 2310SOL    HW224073   5.522   1.404   7.264
 2311SOL     OW24074   0.537   2.260   7.152
 2311SOL    HW124075   0.595   2.329   7.120
 2311SOL    HW224076   0.542   2.267   7.247
 2312SOL     OW24077   2.395   0.664   0.536
 2312SOL    HW124078   2.429   0.635   0.451
 2312SOL    HW224079   2.441   0.611   0.600
 2313SOL     OW24080   6.090   5.570   2.454
 2313SOL    HW124081   6.059   5.489   2.413
 2313SOL    HW224082   6.056   5.639   2.398
 2314SOL     OW24083   3.159   2.776   6.209
 2314SOL    HW124084   3.204   2.859   6.191
 2314SOL    HW224085   3.144   2.738   6.122
 2315SOL     OW24086   1.690   4.487   5.511
 2315SOL    HW124087   1.684   4.392   5.519
 2315SOL    HW224088   1.726   4.503   5.424
 2316SOL     OW24089   4.266   4.461   1.053
 2316SOL    HW124090   4.352   4.500   1.037
 2316SOL    HW224091   4.247   4.409   0.975
 2317SOL     OW24092   5.453   6.063   0.257
 2317SOL    HW124093   5.499   5.984   0.288
 2317SOL    HW224094   5.396   6.088   0.330
 2318SOL     OW24095   2.802   3.385   1.331
 2318SOL    HW124096   2.757   3.432   1.401
 2318SOL    HW224097   2.892   3.377   1.362
 2319SOL     OW24098   1.129   3.393   6.543
 2319SOL    HW124099   1.122   3.440   6.626
 2319SOL    HW224100   1.084   3.310   6.558
 2320SOL     OW24101   1.927   5.074   1.785
 2320SOL    HW124102   2.021   5.055   1.782
 2320SOL    HW224103   1.914   5.116   1.870
 2321SOL     OW24104   6.039   4.556   1.735
 2321SOL    HW124105   5.950   4.567   1.702
 2321SOL    HW224106   6.041   4.468   1.773
 2322SOL     OW24107   3.501   4.542   7.292
 2322SOL    HW124108   3.417   4.535   7.337
 2322SOL    HW224109   3.539   4.624   7.324
 2323SOL     OW24110   0.149   5.625   1.289
 2323SOL    HW124111   0.063   5.658   1.261
 2323SOL    HW224112   0.166   5.552   1.230
 2324SOL     OW24113   5.495   5.913   6.966
 2324SOL    HW124114   5.458   5.943   7.049
 2324SOL    HW224115   5.441   5.838   6.941
 2325SOL     OW24116   5.384   1.348   0.129
 2325SOL    HW124117   5.315   1.399   0.171
 2325SOL    HW224118   5.346   1.260   0.119
 2326SOL     OW24119   2.056   2.423   0.589
 2326SOL    HW124120   1.988   2.465   0.536
 2326SOL    HW224121   2.011   2.352   0.635
 2327SOL     OW24122   4.186   0.201   6.504
 2327SOL    HW124123   4.232   0.121   6.477
 2327SOL    HW224124   4.144   0.233   6.424
 2328SOL     OW24125   0.308   5.163   0.206
 2328SOL    HW124126   0.335   5.083   0.252
 2328SOL    HW224127   0.220   5.182   0.241
 2329SOL     OW24128   2.965   3.090   6.482
 2329SOL    HW124129   2.910   3.023   6.441
 2329SOL    HW224130   3.039   3.101   6.421
 2330SOL     OW24131   3.972   2.898   6.428
 2330SOL    HW124132   3.976   2.971   6.489
 2330SOL    HW224133   4.054   2.850   6.442
 2331SOL     OW24134   5.181   3.538   0.746
 2331SOL    HW124135   5.147   3.478   0.813
 2331SOL    HW224136   5.250   3.488   0.702
 2332SOL     OW24137   0.555   4.700   6.092
 2332SOL    HW124138   0.559   4.708   6.187
 2332SOL    HW224139   0.502   4.774   6.063
 2333SOL     OW24140   4.415   5.349   6.639
 2333SOL    HW124141   4.364   5.325   6.716
 2333SOL    HW224142   4.465   5.426   6.667
 2334SOL     OW24143   3.921   4.167   7.380
 2334SOL    HW124144   3.869   4.225   7.324
 2334SOL    HW224145   3.992   4.136   7.324
 2335SOL     OW24146   1.375   0.469   1.148
 2335SOL    HW124147   1.320   0.473   1.070
 2335SOL    HW224148   1.326   0.517   1.214
 2336SOL     OW24149   0.007   3.758   1.894
 2336SOL    HW124150   0.049   3.698   1.956
 2336SOL    HW224151  -0.079   3.775   1.931
 2337SOL     OW24152   3.133   6.191   1.409
 2337SOL    HW124153   3.053   6.182   1.358
 2337SOL    HW224154   3.151   6.103   1.441
 2338SOL     OW24155   0.443   5.434   1.295
 2338SOL    HW124156   0.399   5.365   1.344
 2338SOL    HW224157   0.440   5.405   1.204
 2339SOL     OW24158   4.191   3.855   0.798
 2339SOL    HW124159   4.236   3.851   0.714
 2339SOL    HW224160   4.098   3.848   0.776
 2340SOL     OW24161   0.917   0.908   6.846
 2340SOL    HW124162   0.863   0.977   6.884
 2340SOL    HW224163   0.994   0.953   6.811
 2341SOL     OW24164   1.921   4.158   5.593
 2341SOL    HW124165   1.919   4.067   5.564
 2341SOL    HW224166   1.833   4.190   5.574
 2342SOL     OW24167   4.501   0.899   7.178
 2342SOL    HW124168   4.511   0.955   7.101
 2342SOL    HW224169   4.588   0.902   7.220
 2343SOL     OW24170   0.639   2.711   2.008
 2343SOL    HW124171   0.694   2.735   1.934
 2343SOL    HW224172   0.694   2.652   2.060
 2344SOL     OW24173   0.152   1.202   6.211
 2344SOL    HW124174   0.176   1.228   6.300
 2344SOL    HW224175   0.070   1.154   6.221
 2345SOL     OW24176   3.608   2.230   6.419
 2345SOL    HW124177   3.681   2.218   6.480
 2345SOL    HW224178   3.624   2.315   6.378
 2346SOL     OW24179   4.482   1.329   1.316
 2346SOL    HW124180   4.411   1.394   1.317
 2346SOL    HW224181   4.547   1.366   1.256
 2347SOL     OW24182   1.412   5.474   5.954
 2347SOL    HW124183   1.374   5.434   5.875
 2347SOL    HW224184   1.382   5.419   6.026
 2348SOL     OW24185   3.467   0.055   2.094
 2348SOL    HW124186   3.392   0.113   2.100
 2348SOL    HW224187   3.530   0.090   2.157
 2349SOL     OW24188   4.328   3.612   6.232
 2349SOL    HW124189   4.277   3.542   6.191
 2349SOL    HW224190   4.313   3.688   6.176
 2350SOL     OW24191   4.357   4.610   6.891
 2350SOL    HW124192   4.424   4.597   6.824
 2350SOL    HW224193   4.397   4.669   6.954
 2351SOL     OW24194   1.088   4.592   5.768
 2351SOL    HW124195   1.055   4.502   5.765
 2351SOL    HW224196   1.080   4.625   5.679
 2352SOL     OW24197   0.767   1.008   7.388
 2352SOL    HW124198   0.695   1.037   7.444
 2352SOL    HW224199   0.837   0.985   7.448
 2353SOL     OW24200   2.952   1.571   7.414
 2353SOL    HW124201   2.894   1.504   7.449
 2353SOL    HW224202   3.025   1.523   7.376
 2354SOL     OW24203   6.065   0.588   7.514
 2354SOL    HW124204   6.095   0.502   7.485
 2354SOL    HW224205   6.054   0.579   7.609
 2355SOL     OW24206   5.596   0.713   7.254
 2355SOL    HW124207   5.502   0.730   7.260
 2355SOL    HW224208   5.605   0.621   7.280
 2356SOL     OW24209   2.004   1.179   6.022
 2356SOL    HW124210   2.057   1.166   5.943
 2356SOL    HW224211   1.919   1.143   6.000
 2357SOL     OW24212   0.599   6.025   7.236
 2357SOL    HW124213   0.523   5.980   7.276
 2357SOL    HW224214   0.672   6.005   7.295
 2358SOL     OW24215   2.671   3.392   6.472
 2358SOL    HW124216   2.592   3.428   6.433
 2358SOL    HW224217   2.701   3.327   6.409
 2359SOL     OW24218   1.000   4.476   0.546
 2359SOL    HW124219   1.003   4.397   0.491
 2359SOL    HW224220   0.912   4.510   0.533
 2360SOL     OW24221   6.139   0.255   0.879
 2360SOL    HW124222   6.160   0.300   0.797
 2360SOL    HW224223   6.221   0.210   0.903
 2361SOL     OW24224   3.574   1.809   0.559
 2361SOL    HW124225   3.483   1.838   0.566
 2361SOL    HW224226   3.602   1.796   0.649
 2362SOL     OW24227   0.179   1.275   6.600
 2362SOL    HW124228   0.090   1.298   6.572
 2362SOL    HW224229   0.229   1.356   6.591
 2363SOL     OW24230   3.205   0.977   6.822
 2363SOL    HW124231   3.120   0.988   6.863
 2363SOL    HW224232   3.234   0.889   6.848
 2364SOL     OW24233   1.656   0.628   2.321
 2364SOL    HW124234   1.638   0.720   2.303
 2364SOL    HW224235   1.580   0.581   2.286
 2365SOL     OW24236   4.692   1.204   1.430
 2365SOL    HW124237   4.704   1.263   1.504
 2365SOL    HW224238   4.609   1.231   1.391
 2366SOL     OW24239   2.872   4.759   6.931
 2366SOL    HW124240   2.963   4.734   6.920
 2366SOL    HW224241   2.838   4.700   6.999
 2367SOL     OW24242   1.480   5.298   6.752
 2367SOL    HW124243   1.489   5.234   6.823
 2367SOL    HW224244   1.417   5.362   6.785
 2368SOL     OW24245   4.771   3.880   7.158
 2368SOL    HW124246   4.684   3.919   7.147
 2368SOL    HW224247   4.787   3.834   7.075
 2369SOL     OW24248   0.421   4.248   6.704
 2369SOL    HW124249   0.373   4.315   6.754
 2369SOL    HW224250   0.407   4.167   6.753
 2370SOL     OW24251   3.544   0.164   0.946
 2370SOL    HW124252   3.454   0.190   0.966
 2370SOL    HW224253   3.536   0.104   0.872
 2371SOL     OW24254   4.253   6.325   6.769
 2371SOL    HW124255   4.190   6.253   6.773
 2371SOL    HW224256   4.330   6.293   6.817
 2372SOL     OW24257   1.384   5.302   7.696
 2372SOL    HW124258   1.412   5.315   7.787
 2372SOL    HW224259   1.338   5.218   7.698
 2373SOL     OW24260   3.321   3.263   0.984
 2373SOL    HW124261   3.361   3.318   0.916
 2373SOL    HW224262   3.264   3.204   0.936
 2374SOL     OW24263   3.203   5.322   7.382
 2374SOL    HW124264   3.204   5.270   7.301
 2374SOL    HW224265   3.248   5.268   7.446
 2375SOL     OW24266   0.768   6.225   7.774
 2375SOL    HW124267   0.689   6.173   7.764
 2375SOL    HW224268   0.840   6.163   7.761
 2376SOL     OW24269   5.290   4.556   7.310
 2376SOL    HW124270   5.251   4.604   7.383
 2376SOL    HW224271   5.302   4.621   7.241
 2377SOL     OW24272   5.424   0.739   0.175
 2377SOL    HW124273   5.481   0.694   0.113
 2377SOL    HW224274   5.337   0.734   0.136
 2378SOL     OW24275   4.859   1.271   0.535
 2378SOL    HW124276   4.827   1.209   0.600
 2378SOL    HW224277   4.897   1.343   0.585
 2379SOL     OW24278   5.026   0.332   7.241
 2379SOL    HW124279   4.944   0.291   7.269
 2379SOL    HW224280   5.023   0.420   7.280
 2380SOL     OW24281   2.396   0.221   7.205
 2380SOL    HW124282   2.391   0.135   7.249
 2380SOL    HW224283   2.437   0.278   7.270
 2381SOL     OW24284   0.192   3.039   7.770
 2381SOL    HW124285   0.126   3.086   7.821
 2381SOL    HW224286   0.172   2.947   7.782
 2382SOL     OW24287   5.739   2.340   6.998
 2382SOL    HW124288   5.679   2.371   7.066
 2382SOL    HW224289   5.681   2.307   6.929
 2383SOL     OW24290   1.183   2.999   0.996
 2383SOL    HW124291   1.216   3.008   1.086
 2383SOL    HW224292   1.117   2.930   1.002
 2384SOL     OW24293   4.804   0.011   6.933
 2384SOL    HW124294   4.887   0.049   6.904
 2384SOL    HW224295   4.827  -0.042   7.009
 2385SOL     OW24296   3.190   2.242   1.702
 2385SOL    HW124297   3.251   2.243   1.776
 2385SOL    HW224298   3.150   2.155   1.707
 2386SOL     OW24299   0.585   4.741   0.029
 2386SOL    HW124300   0.524   4.715  -0.040
 2386SOL    HW224301   0.573   4.836   0.036
 2387SOL     OW24302   4.031   2.040   5.746
 2387SOL    HW124303   4.113   2.028   5.793
 2387SOL    HW224304   3.989   1.954   5.747
 2388SOL     OW24305   5.384   3.085   6.743
 2388SOL    HW124306   5.421   3.025   6.677
 2388SOL    HW224307   5.296   3.053   6.758
 2389SOL     OW24308   2.409   2.647   5.200
 2389SOL    HW124309   2.356   2.724   5.179
 2389SOL    HW224310   2.499   2.678   5.197
 2390SOL     OW24311   4.162   2.700   6.514
 2390SOL    HW124312   4.208   2.632   6.464
 2390SOL    HW224313   4.203   2.698   6.601
 2391SOL     OW24314   0.635   1.931   6.137
 2391SOL    HW124315   0.577   1.855   6.147
 2391SOL    HW224316   0.693   1.907   6.066
 2392SOL     OW24317   5.779   3.150   0.844
 2392SOL    HW124318   5.742   3.126   0.930
 2392SOL    HW224319   5.802   3.067   0.804
 2393SOL     OW24320   2.992   6.057   1.067
 2393SOL    HW124321   2.968   5.967   1.087
 2393SOL    HW224322   3.087   6.056   1.060
 2394SOL     OW24323   2.971   0.887   7.646
 2394SOL    HW124324   2.881   0.899   7.679
 2394SOL    HW224325   2.997   0.973   7.615
 2395SOL     OW24326   3.545   0.588   6.379
 2395SOL    HW124327   3.486   0.529   6.333
 2395SOL    HW224328   3.487   0.645   6.430
 2396SOL     OW24329   0.086   2.948   6.482
 2396SOL    HW124330   0.155   2.920   6.422
 2396SOL    HW224331   0.118   3.031   6.517
 2397SOL     OW24332   5.293   2.386   1.883
 2397SOL    HW124333   5.340   2.411   1.803
 2397SOL    HW224334   5.271   2.294   1.869
 2398SOL     OW24335   4.002   5.984   0.285
 2398SOL    HW124336   4.018   6.077   0.304
 2398SOL    HW224337   3.909   5.979   0.265
 2399SOL     OW24338   5.852   4.190   5.659
 2399SOL    HW124339   5.766   4.154   5.637
 2399SOL    HW224340   5.834   4.263   5.717
 2400SOL     OW24341   0.685   0.832   5.492
 2400SOL    HW124342   0.590   0.833   5.497
 2400SOL    HW224343   0.707   0.743   5.465
 2401SOL     OW24344   3.760   1.087   2.014
 2401SOL    HW124345   3.841   1.052   2.049
 2401SOL    HW224346   3.741   1.163   2.069
 2402SOL     OW24347   6.260   6.329   0.508
 2402SOL    HW124348   6.186   6.281   0.547
 2402SOL    HW224349   6.236   6.421   0.516
 2403SOL     OW24350   2.870   6.159   1.294
 2403SOL    HW124351   2.887   6.102   1.219
 2403SOL    HW224352   2.808   6.224   1.261
 2404SOL     OW24353   1.465   1.685   0.567
 2404SOL    HW124354   1.492   1.776   0.578
 2404SOL    HW224355   1.369   1.688   0.574
 2405SOL     OW24356   6.391   6.353   6.063
 2405SOL    HW124357   6.341   6.355   5.981
 2405SOL    HW224358   6.483   6.359   6.035
 2406SOL     OW24359   2.447   1.375   0.993
 2406SOL    HW124360   2.451   1.282   0.971
 2406SOL    HW224361   2.534   1.394   1.028
 2407SOL     OW24362   4.336   3.317   0.984
 2407SOL    HW124363   4.387   3.321   0.903
 2407SOL    HW224364   4.290   3.234   0.979
 2408SOL     OW24365   2.925   6.009   7.263
 2408SOL    HW124366   2.994   6.026   7.328
 2408SOL    HW224367   2.873   5.938   7.302
 2409SOL     OW24368   1.529   0.075   5.763
 2409SOL    HW124369   1.602   0.095   5.704
 2409SOL    HW224370   1.509  -0.017   5.745
 2410SOL     OW24371   1.031   5.686   6.796
 2410SOL    HW124372   1.036   5.718   6.706
 2410SOL    HW224373   0.982   5.753   6.843
 2411SOL     OW24374   6.013   4.402   6.698
 2411SOL    HW124375   6.008   4.312   6.664
 2411SOL    HW224376   6.093   4.403   6.751
 2412SOL     OW24377   3.327   4.036   7.515
 2412SOL    HW124378   3.265   4.102   7.548
 2412SOL    HW224379   3.406   4.050   7.567
 2413SOL     OW24380   0.176   0.859   6.629
 2413SOL    HW124381   0.206   0.891   6.543
 2413SOL    HW224382   0.091   0.819   6.611
 2414SOL     OW24383   0.360   1.918   6.431
 2414SOL    HW124384   0.361   1.840   6.375
 2414SOL    HW224385   0.452   1.935   6.451
 2415SOL     OW24386   3.619   0.704   5.561
 2415SOL    HW124387   3.638   0.787   5.604
 2415SOL    HW224388   3.540   0.722   5.510
 2416SOL     OW24389   3.042   3.029   1.235
 2416SOL    HW124390   3.034   3.055   1.326
 2416SOL    HW224391   3.133   3.048   1.212
 2417SOL     OW24392   3.349   1.638   1.365
 2417SOL    HW124393   3.265   1.678   1.342
 2417SOL    HW224394   3.325   1.551   1.398
 2418SOL     OW24395   0.699   2.659   0.459
 2418SOL    HW124396   0.679   2.634   0.369
 2418SOL    HW224397   0.614   2.670   0.501
 2419SOL     OW24398   6.141   4.326   6.965
 2419SOL    HW124399   6.045   4.331   6.965
 2419SOL    HW224400   6.167   4.358   7.051
 2420SOL     OW24401   6.048   2.720   0.391
 2420SOL    HW124402   6.001   2.703   0.473
 2420SOL    HW224403   5.980   2.740   0.328
 2421SOL     OW24404   0.595   5.125   0.397
 2421SOL    HW124405   0.642   5.049   0.430
 2421SOL    HW224406   0.623   5.134   0.306
 2422SOL     OW24407   4.365   1.088   1.254
 2422SOL    HW124408   4.375   1.067   1.161
 2422SOL    HW224409   4.392   1.180   1.261
 2423SOL     OW24410   3.243   4.844   0.726
 2423SOL    HW124411   3.153   4.876   0.715
 2423SOL    HW224412   3.263   4.858   0.818
 2424SOL     OW24413   5.757   4.714   0.129
 2424SOL    HW124414   5.665   4.741   0.124
 2424SOL    HW224415   5.753   4.620   0.144
 2425SOL     OW24416   3.402   0.145   7.254
 2425SOL    HW124417   3.410   0.132   7.159
 2425SOL    HW224418   3.453   0.224   7.272
 2426SOL     OW24419   1.791   3.853   1.476
 2426SOL    HW124420   1.793   3.920   1.408
 2426SOL    HW224421   1.797   3.770   1.429
 2427SOL     OW24422   2.489   3.248   7.627
 2427SOL    HW124423   2.501   3.261   7.533
 2427SOL    HW224424   2.490   3.153   7.639
 2428SOL     OW24425   1.346   1.695   6.068
 2428SOL    HW124426   1.270   1.752   6.081
 2428SOL    HW224427   1.419   1.755   6.054
 2429SOL     OW24428   4.415   0.300   1.488
 2429SOL    HW124429   4.498   0.308   1.535
 2429SOL    HW224430   4.350   0.284   1.556
 2430SOL     OW24431   5.479   2.635   6.275
 2430SOL    HW124432   5.407   2.621   6.213
 2430SOL    HW224433   5.558   2.631   6.221
 2431SOL     OW24434   2.603   2.770   0.832
 2431SOL    HW124435   2.552   2.691   0.817
 2431SOL    HW224436   2.542   2.830   0.877
 2432SOL     OW24437   2.312   2.885   0.646
 2432SOL    HW124438   2.289   2.822   0.714
 2432SOL    HW224439   2.301   2.837   0.564
 2433SOL     OW24440   5.562   1.174   5.890
 2433SOL    HW124441   5.490   1.173   5.953
 2433SOL    HW224442   5.637   1.203   5.940
 2434SOL     OW24443   2.626   2.567   0.325
 2434SOL    HW124444   2.574   2.557   0.405
 2434SOL    HW224445   2.692   2.498   0.330
 2435SOL     OW24446   0.995   4.995   7.736
 2435SOL    HW124447   0.994   4.902   7.711
 2435SOL    HW224448   0.991   4.994   7.831
 2436SOL     OW24449   3.296   5.042   6.642
 2436SOL    HW124450   3.265   5.013   6.728
 2436SOL    HW224451   3.356   5.114   6.661
 2437SOL     OW24452   1.758   1.996   1.092
 2437SOL    HW124453   1.840   1.963   1.054
 2437SOL    HW224454   1.690   1.964   1.033
 2438SOL     OW24455   0.680   5.620   0.488
 2438SOL    HW124456   0.686   5.531   0.522
 2438SOL    HW224457   0.771   5.647   0.474
 2439SOL     OW24458   1.135   2.196   7.047
 2439SOL    HW124459   1.043   2.220   7.038
 2439SOL    HW224460   1.139   2.106   7.014
 2440SOL     OW24461   0.103   5.656   6.456
 2440SOL    HW124462   0.011   5.643   6.432
 2440SOL    HW224463   0.152   5.611   6.387
 2441SOL     OW24464   6.084   4.827   0.624
 2441SOL    HW124465   6.003   4.833   0.574
 2441SOL    HW224466   6.148   4.876   0.572
 2442SOL     OW24467   0.090   1.792   5.592
 2442SOL    HW124468   0.181   1.818   5.579
 2442SOL    HW224469   0.043   1.832   5.519
 2443SOL     OW24470   2.652   5.789   6.269
 2443SOL    HW124471   2.608   5.724   6.324
 2443SOL    HW224472   2.743   5.786   6.296
 2444SOL     OW24473   5.739   5.985   0.937
 2444SOL    HW124474   5.732   5.920   1.007
 2444SOL    HW224475   5.803   6.048   0.971
 2445SOL     OW24476   3.338   3.450   1.514
 2445SOL    HW124477   3.401   3.468   1.584
 2445SOL    HW224478   3.309   3.537   1.486
 2446SOL     OW24479   1.452   1.614   6.909
 2446SOL    HW124480   1.481   1.610   7.000
 2446SOL    HW224481   1.446   1.522   6.883
 2447SOL     OW24482   3.301   5.143   6.265
 2447SOL    HW124483   3.314   5.178   6.353
 2447SOL    HW224484   3.388   5.113   6.238
 2448SOL     OW24485   3.451   1.856   6.550
 2448SOL    HW124486   3.365   1.895   6.531
 2448SOL    HW224487   3.478   1.897   6.632
 2449SOL     OW24488   4.141   5.713   7.798
 2449SOL    HW124489   4.193   5.741   7.874
 2449SOL    HW224490   4.071   5.660   7.835
 2450SOL     OW24491   1.134   5.372   7.324
 2450SOL    HW124492   1.046   5.335   7.331
 2450SOL    HW224493   1.126   5.458   7.365
 2451SOL     OW24494   5.375   6.254   0.548
 2451SOL    HW124495   5.289   6.274   0.511
 2451SOL    HW224496   5.435   6.314   0.503
 2452SOL     OW24497   4.678   5.548   7.191
 2452SOL    HW124498   4.583   5.550   7.180
 2452SOL    HW224499   4.701   5.638   7.213
 2453SOL     OW24500   2.322   4.579   1.375
 2453SOL    HW124501   2.393   4.519   1.353
 2453SOL    HW224502   2.364   4.665   1.378
 2454SOL     OW24503   0.223   4.710   1.352
 2454SOL    HW124504   0.173   4.635   1.382
 2454SOL    HW224505   0.301   4.711   1.407
 2455SOL     OW24506   3.918   0.023   6.415
 2455SOL    HW124507   3.879   0.106   6.442
 2455SOL    HW224508   3.848  -0.023   6.369
 2456SOL     OW24509   3.721   2.165   1.213
 2456SOL    HW124510   3.697   2.146   1.122
 2456SOL    HW224511   3.784   2.237   1.206
 2457SOL     OW24512   0.396   3.874   7.502
 2457SOL    HW124513   0.381   3.904   7.592
 2457SOL    HW224514   0.489   3.892   7.486
 2458SOL     OW24515   4.810   6.103   0.169
 2458SOL    HW124516   4.779   6.159   0.240
 2458SOL    HW224517   4.747   6.117   0.099
 2459SOL     OW24518   4.544   5.936   6.076
 2459SOL    HW124519   4.529   5.895   6.161
 2459SOL    HW224520   4.561   5.863   6.017
 2460SOL     OW24521   2.035   3.745   6.389
 2460SOL    HW124522   2.017   3.667   6.443
 2460SOL    HW224523   2.002   3.818   6.441
 2461SOL     OW24524   2.162   5.406   0.795
 2461SOL    HW124525   2.248   5.367   0.809
 2461SOL    HW224526   2.137   5.440   0.881
 2462SOL     OW24527   5.318   1.654   6.550
 2462SOL    HW124528   5.234   1.613   6.569
 2462SOL    HW224529   5.363   1.592   6.494
 2463SOL     OW24530   1.630   1.969   0.809
 2463SOL    HW124531   1.599   1.971   0.719
 2463SOL    HW224532   1.706   1.911   0.808
 2464SOL     OW24533   2.379   2.632   1.885
 2464SOL    HW124534   2.380   2.566   1.954
 2464SOL    HW224535   2.441   2.699   1.914
 2465SOL     OW24536   2.265   1.850   5.060
 2465SOL    HW124537   2.320   1.850   5.138
 2465SOL    HW224538   2.261   1.758   5.034
 2466SOL     OW24539   4.613   5.359   7.380
 2466SOL    HW124540   4.654   5.409   7.309
 2466SOL    HW224541   4.685   5.308   7.418
 2467SOL     OW24542   0.336   5.644   1.509
 2467SOL    HW124543   0.279   5.623   1.435
 2467SOL    HW224544   0.311   5.582   1.577
 2468SOL     OW24545   0.010   5.252   7.175
 2468SOL    HW124546   0.002   5.312   7.249
 2468SOL    HW224547  -0.003   5.307   7.098
 2469SOL     OW24548   2.984   3.432   0.467
 2469SOL    HW124549   2.897   3.453   0.501
 2469SOL    HW224550   3.012   3.356   0.519
 2470SOL     OW24551   3.255   0.269   2.046
 2470SOL    HW124552   3.180   0.277   2.104
 2470SOL    HW224553   3.329   0.301   2.098
 2471SOL     OW24554   4.147   4.989   7.471
 2471SOL    HW124555   4.063   5.017   7.509
 2471SOL    HW224556   4.159   5.046   7.395
 2472SOL     OW24557   2.745   2.725   6.575
 2472SOL    HW124558   2.740   2.642   6.528
 2472SOL    HW224559   2.743   2.792   6.506
 2473SOL     OW24560   2.986   4.135   4.890
 2473SOL    HW124561   2.989   4.041   4.872
 2473SOL    HW224562   2.934   4.171   4.819
 2474SOL     OW24563   2.959   3.231   5.902
 2474SOL    HW124564   3.010   3.229   5.983
 2474SOL    HW224565   3.024   3.237   5.832
 2475SOL     OW24566   3.490   1.348   0.528
 2475SOL    HW124567   3.435   1.336   0.450
 2475SOL    HW224568   3.428   1.368   0.598
 2476SOL     OW24569   3.541   6.221   6.377
 2476SOL    HW124570   3.479   6.245   6.446
 2476SOL    HW224571   3.573   6.135   6.403
 2477SOL     OW24572   4.857   3.587   5.645
 2477SOL    HW124573   4.826   3.587   5.554
 2477SOL    HW224574   4.902   3.504   5.656
 2478SOL     OW24575   5.309   5.676   6.025
 2478SOL    HW124576   5.238   5.707   6.081
 2478SOL    HW224577   5.346   5.601   6.072
 2479SOL     OW24578   5.490   3.788   0.458
 2479SOL    HW124579   5.547   3.767   0.531
 2479SOL    HW224580   5.507   3.880   0.440
 2480SOL     OW24581   4.203   1.465   0.810
 2480SOL    HW124582   4.240   1.513   0.885
 2480SOL    HW224583   4.253   1.497   0.735
 2481SOL     OW24584   3.409   3.031   7.518
 2481SOL    HW124585   3.500   3.044   7.545
 2481SOL    HW224586   3.361   3.104   7.558
 2482SOL     OW24587   1.618   1.067   5.747
 2482SOL    HW124588   1.583   1.154   5.765
 2482SOL    HW224589   1.541   1.012   5.734
 2483SOL     OW24590   2.035   6.233   0.871
 2483SOL    HW124591   2.123   6.270   0.874
 2483SOL    HW224592   2.038   6.159   0.932
 2484SOL     OW24593   2.518   2.846   0.295
 2484SOL    HW124594   2.548   2.855   0.205
 2484SOL    HW224595   2.544   2.757   0.320
 2485SOL     OW24596   4.967   4.576   6.238
 2485SOL    HW124597   4.985   4.557   6.330
 2485SOL    HW224598   4.966   4.672   6.233
 2486SOL     OW24599   0.584   0.764   0.612
 2486SOL    HW124600   0.543   0.814   0.683
 2486SOL    HW224601   0.554   0.807   0.532
 2487SOL     OW24602   3.426   2.252   7.546
 2487SOL    HW124603   3.363   2.203   7.493
 2487SOL    HW224604   3.484   2.294   7.483
 2488SOL     OW24605   3.001   2.430   1.965
 2488SOL    HW124606   3.038   2.517   1.952
 2488SOL    HW224607   3.053   2.392   2.036
 2489SOL     OW24608   4.740   5.740   7.745
 2489SOL    HW124609   4.816   5.690   7.716
 2489SOL    HW224610   4.773   5.793   7.818
 2490SOL     OW24611   3.542   4.228   0.075
 2490SOL    HW124612   3.494   4.171   0.135
 2490SOL    HW224613   3.596   4.283   0.132
 2491SOL     OW24614   0.723   4.356   7.439
 2491SOL    HW124615   0.686   4.444   7.442
 2491SOL    HW224616   0.807   4.366   7.395
 2492SOL     OW24617   3.834   4.458   1.876
 2492SOL    HW124618   3.784   4.521   1.823
 2492SOL    HW224619   3.925   4.481   1.859
 2493SOL     OW24620   0.363   1.509   1.150
 2493SOL    HW124621   0.342   1.581   1.209
 2493SOL    HW224622   0.437   1.464   1.192
 2494SOL     OW24623   5.488   0.652   6.925
 2494SOL    HW124624   5.463   0.632   7.016
 2494SOL    HW224625   5.583   0.653   6.927
 2495SOL     OW24626   4.723   3.150   7.342
 2495SOL    HW124627   4.694   3.209   7.411
 2495SOL    HW224628   4.752   3.208   7.271
 2496SOL     OW24629   0.652   6.122   0.271
 2496SOL    HW124630   0.580   6.118   0.335
 2496SOL    HW224631   0.621   6.069   0.198
 2497SOL     OW24632   5.972   2.798   1.693
 2497SOL    HW124633   6.003   2.860   1.627
 2497SOL    HW224634   5.877   2.793   1.680
 2498SOL     OW24635   2.027   6.118   1.410
 2498SOL    HW124636   1.989   6.055   1.471
 2498SOL    HW224637   1.957   6.181   1.394
 2499SOL     OW24638   5.672   4.539   0.425
 2499SOL    HW124639   5.594   4.596   0.422
 2499SOL    HW224640   5.715   4.562   0.507
 2500SOL     OW24641   4.987   5.650   7.823
 2500SOL    HW124642   4.958   5.599   7.899
 2500SOL    HW224643   5.063   5.699   7.855
 2501SOL     OW24644   4.720   4.002   2.320
 2501SOL    HW124645   4.759   4.050   2.393
 2501SOL    HW224646   4.645   4.055   2.294
 2502SOL     OW24647   4.348   0.376   6.199
 2502SOL    HW124648   4.253   0.370   6.205
 2502SOL    HW224649   4.379   0.365   6.289
 2503SOL     OW24650   4.086   1.582   7.198
 2503SOL    HW124651   4.065   1.610   7.287
 2503SOL    HW224652   4.151   1.646   7.167
 2504SOL     OW24653   3.867   0.269   6.535
 2504SOL    HW124654   3.888   0.278   6.628
 2504SOL    HW224655   3.892   0.353   6.497
 2505SOL     OW24656   5.713   2.887   1.066
 2505SOL    HW124657   5.720   2.798   1.100
 2505SOL    HW224658   5.623   2.892   1.032
 2506SOL     OW24659   6.148   2.953   0.590
 2506SOL    HW124660   6.213   2.913   0.533
 2506SOL    HW224661   6.107   2.880   0.636
 2507SOL     OW24662   1.369   1.974   1.192
 2507SOL    HW124663   1.384   2.029   1.115
 2507SOL    HW224664   1.284   2.001   1.226
 2508SOL     OW24665   1.887   4.278   6.213
 2508SOL    HW124666   1.913   4.370   6.222
 2508SOL    HW224667   1.894   4.260   6.119
 2509SOL     OW24668   2.296   3.438   6.083
 2509SOL    HW124669   2.271   3.512   6.138
 2509SOL    HW224670   2.363   3.392   6.133
 2510SOL     OW24671   5.580   1.363   1.712
 2510SOL    HW124672   5.608   1.272   1.725
 2510SOL    HW224673   5.494   1.356   1.674
 2511SOL     OW24674   3.515   6.227   2.296
 2511SOL    HW124675   3.437   6.281   2.301
 2511SOL    HW224676   3.513   6.190   2.207
 2512SOL     OW24677   4.867   5.771   6.914
 2512SOL    HW124678   4.805   5.820   6.861
 2512SOL    HW224679   4.933   5.739   6.852
 2513SOL     OW24680   5.774   3.182   7.236
 2513SOL    HW124681   5.770   3.143   7.323
 2513SOL    HW224682   5.701   3.244   7.234
 2514SOL     OW24683   1.243   0.234   6.932
 2514SOL    HW124684   1.176   0.273   6.988
 2514SOL    HW224685   1.226   0.139   6.937
 2515SOL     OW24686   1.271   2.617   7.586
 2515SOL    HW124687   1.365   2.605   7.570
 2515SOL    HW224688   1.263   2.707   7.616
 2516SOL     OW24689   3.829   2.993   1.425
 2516SOL    HW124690   3.855   3.065   1.483
 2516SOL    HW224691   3.911   2.961   1.388
 2517SOL     OW24692   4.795   1.185   1.073
 2517SOL    HW124693   4.869   1.132   1.045
 2517SOL    HW224694   4.718   1.136   1.043
 2518SOL     OW24695   3.086   3.418   1.410
 2518SOL    HW124696   3.050   3.423   1.498
 2518SOL    HW224697   3.175   3.384   1.422
 2519SOL     OW24698   2.172   2.521   7.024
 2519SOL    HW124699   2.206   2.441   7.063
 2519SOL    HW224700   2.207   2.522   6.935
 2520SOL     OW24701   2.749   3.047   6.808
 2520SOL    HW124702   2.833   3.059   6.852
 2520SOL    HW224703   2.771   3.042   6.715
 2521SOL     OW24704   6.214   3.059   0.012
 2521SOL    HW124705   6.202   3.123   0.083
 2521SOL    HW224706   6.129   3.015   0.005
 2522SOL     OW24707   0.124   4.330   6.641
 2522SOL    HW124708   0.035   4.320   6.676
 2522SOL    HW224709   0.146   4.243   6.607
 2523SOL     OW24710   2.549   3.233   0.177
 2523SOL    HW124711   2.602   3.176   0.121
 2523SOL    HW224712   2.502   3.172   0.235
 2524SOL     OW24713   3.787   2.194   6.616
 2524SOL    HW124714   3.817   2.274   6.659
 2524SOL    HW224715   3.827   2.123   6.666
 2525SOL     OW24716   6.012   3.261   6.392
 2525SOL    HW124717   6.036   3.288   6.303
 2525SOL    HW224718   5.973   3.175   6.381
 2526SOL     OW24719   4.198   6.411   6.307
 2526SOL    HW124720   4.112   6.446   6.329
 2526SOL    HW224721   4.207   6.427   6.213
 2527SOL     OW24722   5.256   4.838   0.268
 2527SOL    HW124723   5.262   4.924   0.309
 2527SOL    HW224724   5.162   4.820   0.262
 2528SOL     OW24725   5.304   3.291   6.929
 2528SOL    HW124726   5.339   3.253   6.849
 2528SOL    HW224727   5.361   3.367   6.946
 2529SOL     OW24728   3.264   4.420   1.577
 2529SOL    HW124729   3.340   4.385   1.532
 2529SOL    HW224730   3.255   4.364   1.655
 2530SOL     OW24731   6.423   2.190   0.521
 2530SOL    HW124732   6.460   2.117   0.571
 2530SOL    HW224733   6.495   2.223   0.468
 2531SOL     OW24734   1.736   4.566   1.718
 2531SOL    HW124735   1.792   4.516   1.778
 2531SOL    HW224736   1.756   4.657   1.737
 2532SOL     OW24737   1.392   4.127   0.758
 2532SOL    HW124738   1.369   4.088   0.842
 2532SOL    HW224739   1.465   4.185   0.778
 2533SOL     OW24740   6.230   2.048   6.391
 2533SOL    HW124741   6.248   2.036   6.298
 2533SOL    HW224742   6.311   2.084   6.427
 2534SOL     OW24743   5.698   3.594   5.707
 2534SOL    HW124744   5.634   3.611   5.638
 2534SOL    HW224745   5.726   3.681   5.735
 2535SOL     OW24746   0.320   4.014   5.265
 2535SOL    HW124747   0.413   3.991   5.258
 2535SOL    HW224748   0.312   4.096   5.216
 2536SOL     OW24749   0.445   5.574   1.813
 2536SOL    HW124750   0.522   5.610   1.768
 2536SOL    HW224751   0.410   5.508   1.753
 2537SOL     OW24752   5.688   5.629   1.457
 2537SOL    HW124753   5.692   5.543   1.499
 2537SOL    HW224754   5.607   5.668   1.490
 2538SOL     OW24755   3.351   5.733   7.025
 2538SOL    HW124756   3.323   5.745   6.934
 2538SOL    HW224757   3.289   5.669   7.060
 2539SOL     OW24758   0.553   2.697   6.761
 2539SOL    HW124759   0.527   2.680   6.851
 2539SOL    HW224760   0.557   2.610   6.721
 2540SOL     OW24761   5.147   3.071   1.183
 2540SOL    HW124762   5.077   3.017   1.221
 2540SOL    HW224763   5.108   3.107   1.104
 2541SOL     OW24764   2.154   2.706   1.230
 2541SOL    HW124765   2.115   2.627   1.193
 2541SOL    HW224766   2.245   2.703   1.201
 2542SOL     OW24767   1.679   6.344   0.919
 2542SOL    HW124768   1.773   6.356   0.934
 2542SOL    HW224769   1.654   6.417   0.863
 2543SOL     OW24770   2.812   3.164   1.162
 2543SOL    HW124771   2.888   3.113   1.189
 2543SOL    HW224772   2.796   3.224   1.235
 2544SOL     OW24773   5.577   1.064   6.625
 2544SOL    HW124774   5.571   1.127   6.697
 2544SOL    HW224775   5.620   1.112   6.554
 2545SOL     OW24776   2.208   4.873   6.612
 2545SOL    HW124777   2.248   4.872   6.698
 2545SOL    HW224778   2.194   4.966   6.593
 2546SOL     OW24779   2.773   0.563   6.701
 2546SOL    HW124780   2.703   0.513   6.659
 2546SOL    HW224781   2.835   0.580   6.630
 2547SOL     OW24782   5.616   2.577   1.160
 2547SOL    HW124783   5.664   2.618   1.232
 2547SOL    HW224784   5.681   2.520   1.117
 2548SOL     OW24785   3.811   4.806   7.808
 2548SOL    HW124786   3.816   4.901   7.798
 2548SOL    HW224787   3.901   4.775   7.793
 2549SOL     OW24788   0.072   0.626   6.423
 2549SOL    HW124789   0.039   0.644   6.511
 2549SOL    HW224790  -0.006   0.626   6.367
 2550SOL     OW24791   1.004   2.465   0.299
 2550SOL    HW124792   0.973   2.449   0.210
 2550SOL    HW224793   1.057   2.388   0.320
 2551SOL     OW24794   4.257   3.555   0.797
 2551SOL    HW124795   4.169   3.518   0.795
 2551SOL    HW224796   4.260   3.609   0.876
 2552SOL     OW24797   1.757   1.185   0.225
 2552SOL    HW124798   1.830   1.244   0.241
 2552SOL    HW224799   1.680   1.232   0.256
 2553SOL     OW24800   2.928   6.120   6.300
 2553SOL    HW124801   2.955   6.049   6.242
 2553SOL    HW224802   2.848   6.155   6.261
 2554SOL     OW24803   5.658   5.639   6.258
 2554SOL    HW124804   5.592   5.599   6.202
 2554SOL    HW224805   5.618   5.719   6.290
 2555SOL     OW24806   5.077   4.138   0.373
 2555SOL    HW124807   5.000   4.114   0.425
 2555SOL    HW224808   5.048   4.211   0.319
 2556SOL     OW24809   6.214   5.024   1.275
 2556SOL    HW124810   6.177   5.015   1.363
 2556SOL    HW224811   6.308   5.034   1.290
 2557SOL     OW24812   2.366   4.113   6.768
 2557SOL    HW124813   2.381   4.020   6.782
 2557SOL    HW224814   2.423   4.136   6.694
 2558SOL     OW24815   1.336   2.282   5.425
 2558SOL    HW124816   1.334   2.198   5.379
 2558SOL    HW224817   1.245   2.299   5.448
 2559SOL     OW24818   2.645   6.330   7.377
 2559SOL    HW124819   2.667   6.352   7.468
 2559SOL    HW224820   2.562   6.283   7.384
 2560SOL     OW24821   1.528   1.768   5.561
 2560SOL    HW124822   1.495   1.802   5.644
 2560SOL    HW224823   1.519   1.673   5.569
 2561SOL     OW24824   4.362   0.847   0.918
 2561SOL    HW124825   4.446   0.803   0.916
 2561SOL    HW224826   4.298   0.776   0.921
 2562SOL     OW24827   4.654   2.488   5.754
 2562SOL    HW124828   4.745   2.483   5.726
 2562SOL    HW224829   4.645   2.575   5.793
 2563SOL     OW24830   1.305   5.156   6.568
 2563SOL    HW124831   1.369   5.224   6.590
 2563SOL    HW224832   1.350   5.073   6.585
 2564SOL     OW24833   6.129   5.513   0.983
 2564SOL    HW124834   6.223   5.529   0.981
 2564SOL    HW224835   6.101   5.519   0.892
 2565SOL     OW24836   1.883   3.737   1.174
 2565SOL    HW124837   1.852   3.674   1.238
 2565SOL    HW224838   1.835   3.818   1.194
 2566SOL     OW24839   4.142   1.584   0.467
 2566SOL    HW124840   4.092   1.512   0.427
 2566SOL    HW224841   4.158   1.645   0.394
 2567SOL     OW24842   3.099   5.980   5.704
 2567SOL    HW124843   3.004   5.990   5.693
 2567SOL    HW224844   3.125   5.922   5.632
 2568SOL     OW24845   1.255   3.300   5.791
 2568SOL    HW124846   1.288   3.211   5.806
 2568SOL    HW224847   1.291   3.351   5.864
 2569SOL     OW24848   4.542   5.336   0.296
 2569SOL    HW124849   4.565   5.401   0.230
 2569SOL    HW224850   4.597   5.260   0.276
 2570SOL     OW24851   4.658   1.378   7.192
 2570SOL    HW124852   4.621   1.448   7.138
 2570SOL    HW224853   4.582   1.326   7.220
 2571SOL     OW24854   2.394   5.280   6.392
 2571SOL    HW124855   2.341   5.355   6.366
 2571SOL    HW224856   2.458   5.270   6.323
 2572SOL     OW24857   6.353   4.591   0.547
 2572SOL    HW124858   6.355   4.495   0.555
 2572SOL    HW224859   6.431   4.621   0.593
 2573SOL     OW24860   4.616   0.566   7.620
 2573SOL    HW124861   4.609   0.588   7.713
 2573SOL    HW224862   4.694   0.510   7.615
 2574SOL     OW24863   2.936   2.192   0.027
 2574SOL    HW124864   3.027   2.166   0.015
 2574SOL    HW224865   2.913   2.237  -0.054
 2575SOL     OW24866   6.196   3.217   6.167
 2575SOL    HW124867   6.275   3.201   6.116
 2575SOL    HW224868   6.171   3.130   6.200
 2576SOL     OW24869   1.642   5.576   7.373
 2576SOL    HW124870   1.553   5.603   7.352
 2576SOL    HW224871   1.635   5.536   7.460
 2577SOL     OW24872   2.496   0.905   0.211
 2577SOL    HW124873   2.467   0.956   0.286
 2577SOL    HW224874   2.591   0.898   0.222
 2578SOL     OW24875   4.611   2.339   5.515
 2578SOL    HW124876   4.589   2.416   5.464
 2578SOL    HW224877   4.603   2.367   5.606
 2579SOL     OW24878   6.032   5.732   6.399
 2579SOL    HW124879   5.964   5.700   6.458
 2579SOL    HW224880   5.983   5.774   6.327
 2580SOL     OW24881   3.828   4.181   1.059
 2580SOL    HW124882   3.893   4.125   1.017
 2580SOL    HW224883   3.879   4.237   1.118
 2581SOL     OW24884   1.013   4.709   6.410
 2581SOL    HW124885   1.039   4.678   6.323
 2581SOL    HW224886   0.951   4.643   6.441
 2582SOL     OW24887   1.143   2.869   7.275
 2582SOL    HW124888   1.160   2.891   7.367
 2582SOL    HW224889   1.147   2.953   7.229
 2583SOL     OW24890   2.324   3.677   0.427
 2583SOL    HW124891   2.264   3.627   0.482
 2583SOL    HW224892   2.267   3.726   0.368
 2584SOL     OW24893   3.981   3.470   6.359
 2584SOL    HW124894   4.065   3.428   6.377
 2584SOL    HW224895   3.916   3.411   6.396
 2585SOL     OW24896   1.319   0.712   0.102
 2585SOL    HW124897   1.383   0.698   0.172
 2585SOL    HW224898   1.372   0.724   0.023
 2586SOL     OW24899   4.243   0.276   0.830
 2586SOL    HW124900   4.176   0.270   0.898
 2586SOL    HW224901   4.211   0.343   0.770
 2587SOL     OW24902   1.854   4.651   0.807
 2587SOL    HW124903   1.810   4.636   0.724
 2587SOL    HW224904   1.881   4.564   0.836
 2588SOL     OW24905   1.354   2.874   0.164
 2588SOL    HW124906   1.389   2.801   0.215
 2588SOL    HW224907   1.416   2.945   0.179
 2589SOL     OW24908   0.043   3.368   0.843
 2589SOL    HW124909  -0.037   3.397   0.886
 2589SOL    HW224910   0.038   3.408   0.756
 2590SOL     OW24911   4.470   3.211   2.006
 2590SOL    HW124912   4.515   3.132   2.036
 2590SOL    HW224913   4.464   3.201   1.911
 2591SOL     OW24914   1.426   0.680   6.313
 2591SOL    HW124915   1.448   0.698   6.222
 2591SOL    HW224916   1.510   0.672   6.357
 2592SOL     OW24917   0.089   2.342   1.925
 2592SOL    HW124918   0.065   2.259   1.884
 2592SOL    HW224919   0.172   2.324   1.969
 2593SOL     OW24920   4.543   3.825   7.810
 2593SOL    HW124921   4.537   3.834   7.715
 2593SOL    HW224922   4.617   3.881   7.836
 2594SOL     OW24923   0.231   3.122   7.258
 2594SOL    HW124924   0.215   3.191   7.194
 2594SOL    HW224925   0.144   3.089   7.279
 2595SOL     OW24926   0.964   3.167   6.552
 2595SOL    HW124927   1.039   3.130   6.505
 2595SOL    HW224928   0.896   3.101   6.545
 2596SOL     OW24929   4.972   3.396   2.460
 2596SOL    HW124930   4.917   3.442   2.397
 2596SOL    HW224931   5.006   3.320   2.412
 2597SOL     OW24932   4.420   4.217   1.290
 2597SOL    HW124933   4.365   4.294   1.303
 2597SOL    HW224934   4.362   4.143   1.306
 2598SOL     OW24935   6.110   1.667   1.196
 2598SOL    HW124936   6.082   1.667   1.288
 2598SOL    HW224937   6.045   1.721   1.151
 2599SOL     OW24938   3.406   2.610   7.770
 2599SOL    HW124939   3.479   2.666   7.745
 2599SOL    HW224940   3.421   2.591   7.863
 2600SOL     OW24941   2.288   4.498   6.713
 2600SOL    HW124942   2.364   4.549   6.686
 2600SOL    HW224943   2.313   4.459   6.796
 2601SOL     OW24944   4.538   4.147   0.058
 2601SOL    HW124945   4.609   4.085   0.043
 2601SOL    HW224946   4.574   4.208   0.122
 2602SOL     OW24947   2.771   5.265   7.578
 2602SOL    HW124948   2.730   5.185   7.611
 2602SOL    HW224949   2.853   5.272   7.628
 2603SOL     OW24950   5.835   4.983   6.818
 2603SOL    HW124951   5.896   4.927   6.769
 2603SOL    HW224952   5.866   5.072   6.800
 2604SOL     OW24953   4.254   1.840   7.065
 2604SOL    HW124954   4.305   1.782   7.009
 2604SOL    HW224955   4.318   1.879   7.124
 2605SOL     OW24956   1.932   3.607  -0.002
 2605SOL    HW124957   1.927   3.597   0.093
 2605SOL    HW224958   1.927   3.517  -0.035
 2606SOL     OW24959   1.596   0.301   7.190
 2606SOL    HW124960   1.529   0.350   7.237
 2606SOL    HW224961   1.678   0.345   7.213
 2607SOL     OW24962   5.942   6.351   0.187
 2607SOL    HW124963   5.920   6.388   0.272
 2607SOL    HW224964   5.907   6.262   0.190
 2608SOL     OW24965   0.549   2.960   5.738
 2608SOL    HW124966   0.485   2.950   5.808
 2608SOL    HW224967   0.497   2.957   5.658
 2609SOL     OW24968   2.647   4.959   5.867
 2609SOL    HW124969   2.733   4.935   5.902
 2609SOL    HW224970   2.658   4.953   5.772
 2610SOL     OW24971   3.249   3.877   2.435
 2610SOL    HW124972   3.335   3.917   2.442
 2610SOL    HW224973   3.189   3.940   2.475
 2611SOL     OW24974   3.451   5.844   7.272
 2611SOL    HW124975   3.420   5.828   7.183
 2611SOL    HW224976   3.397   5.788   7.327
 2612SOL     OW24977   5.243   2.791   6.989
 2612SOL    HW124978   5.243   2.695   6.989
 2612SOL    HW224979   5.324   2.815   7.035
 2613SOL     OW24980   4.146   3.466   1.420
 2613SOL    HW124981   4.239   3.482   1.404
 2613SOL    HW224982   4.138   3.467   1.516
 2614SOL     OW24983   3.241   4.265   7.627
 2614SOL    HW124984   3.312   4.325   7.648
 2614SOL    HW224985   3.211   4.232   7.712
 2615SOL     OW24986   5.586   4.783   5.930
 2615SOL    HW124987   5.623   4.856   5.880
 2615SOL    HW224988   5.650   4.767   6.000
 2616SOL     OW24989   1.809   0.175   6.595
 2616SOL    HW124990   1.842   0.140   6.513
 2616SOL    HW224991   1.740   0.115   6.621
 2617SOL     OW24992   4.653   3.012   6.198
 2617SOL    HW124993   4.698   2.935   6.233
 2617SOL    HW224994   4.714   3.050   6.135
 2618SOL     OW24995   5.571   5.527   7.233
 2618SOL    HW124996   5.594   5.619   7.236
 2618SOL    HW224997   5.530   5.516   7.147
 2619SOL     OW24998   6.375   3.288   6.609
 2619SOL    HW124999   6.453   3.233   6.609
 2619SOL    HW225000   6.322   3.254   6.681
 2620SOL     OW25001   0.215   0.863   6.364
 2620SOL    HW125002   0.190   0.930   6.300
 2620SOL    HW225003   0.174   0.783   6.331
 2621SOL     OW25004   1.868   2.103   6.301
 2621SOL    HW125005   1.777   2.077   6.320
 2621SOL    HW225006   1.862   2.153   6.219
 2622SOL     OW25007   2.577   5.966   7.362
 2622SOL    HW125008   2.528   5.966   7.444
 2622SOL    HW225009   2.668   5.953   7.388
 2623SOL     OW25010   2.405   5.108   5.102
 2623SOL    HW125011   2.421   5.044   5.032
 2623SOL    HW225012   2.326   5.077   5.145
 2624SOL     OW25013   4.526   2.776   0.640
 2624SOL    HW125014   4.506   2.849   0.581
 2624SOL    HW225015   4.606   2.803   0.685
 2625SOL     OW25016   2.814   5.105   6.714
 2625SOL    HW125017   2.719   5.101   6.706
 2625SOL    HW225018   2.842   5.158   6.639
 2626SOL     OW25019   3.781   1.137   6.291
 2626SOL    HW125020   3.769   1.217   6.240
 2626SOL    HW225021   3.817   1.167   6.375
 2627SOL     OW25022   1.836   6.113   0.712
 2627SOL    HW125023   1.888   6.153   0.781
 2627SOL    HW225024   1.866   6.155   0.632
 2628SOL     OW25025   5.117   4.586   5.768
 2628SOL    HW125026   5.119   4.568   5.862
 2628SOL    HW225027   5.117   4.681   5.762
 2629SOL     OW25028   1.569   4.812   0.949
 2629SOL    HW125029   1.558   4.878   0.880
 2629SOL    HW225030   1.541   4.730   0.908
 2630SOL     OW25031   1.530   5.138   7.444
 2630SOL    HW125032   1.573   5.210   7.490
 2630SOL    HW225033   1.592   5.115   7.375
 2631SOL     OW25034   4.976   3.689   0.409
 2631SOL    HW125035   4.958   3.701   0.503
 2631SOL    HW225036   5.069   3.669   0.405
 2632SOL     OW25037   0.061   5.655   0.684
 2632SOL    HW125038   0.140   5.602   0.668
 2632SOL    HW225039   0.077   5.736   0.636
 2633SOL     OW25040   3.991   5.627   7.474
 2633SOL    HW125041   4.078   5.664   7.492
 2633SOL    HW225042   3.968   5.660   7.387
 2634SOL     OW25043   1.720   1.157   6.080
 2634SOL    HW125044   1.725   1.062   6.070
 2634SOL    HW225045   1.641   1.182   6.032
 2635SOL     OW25046   2.600   0.761   7.190
 2635SOL    HW125047   2.557   0.752   7.105
 2635SOL    HW225048   2.694   0.760   7.170
 2636SOL     OW25049   1.673   2.865   7.818
 2636SOL    HW125050   1.738   2.861   7.888
 2636SOL    HW225051   1.725   2.877   7.738
 2637SOL     OW25052   1.650   5.209   2.103
 2637SOL    HW125053   1.742   5.185   2.095
 2637SOL    HW225054   1.602   5.127   2.090
 2638SOL     OW25055   0.789   1.344   7.693
 2638SOL    HW125056   0.778   1.261   7.739
 2638SOL    HW225057   0.798   1.408   7.763
 2639SOL     OW25058   5.198   2.775   1.084
 2639SOL    HW125059   5.220   2.861   1.048
 2639SOL    HW225060   5.266   2.716   1.050
 2640SOL     OW25061   5.349   3.342   0.621
 2640SOL    HW125062   5.408   3.319   0.549
 2640SOL    HW225063   5.389   3.302   0.699
 2641SOL     OW25064   3.043   3.712   7.784
 2641SOL    HW125065   2.981   3.701   7.856
 2641SOL    HW225066   3.109   3.645   7.798
 2642SOL     OW25067   4.240   5.324   0.281
 2642SOL    HW125068   4.230   5.340   0.187
 2642SOL    HW225069   4.329   5.291   0.290
 2643SOL     OW25070   3.674   5.370   7.078
 2643SOL    HW125071   3.620   5.409   7.146
 2643SOL    HW225072   3.715   5.294   7.120
 2644SOL     OW25073   2.665   3.601   0.928
 2644SOL    HW125074   2.727   3.649   0.874
 2644SOL    HW225075   2.582   3.607   0.880
 2645SOL     OW25076   1.189   0.795   6.410
 2645SOL    HW125077   1.277   0.774   6.378
 2645SOL    HW225078   1.141   0.712   6.407
 2646SOL     OW25079   3.374   2.915   0.812
 2646SOL    HW125080   3.389   2.898   0.905
 2646SOL    HW225081   3.295   2.968   0.810
 2647SOL     OW25082   2.653   0.190   0.150
 2647SOL    HW125083   2.589   0.196   0.220
 2647SOL    HW225084   2.620   0.250   0.083
 2648SOL     OW25085   5.295   1.816   6.196
 2648SOL    HW125086   5.230   1.862   6.143
 2648SOL    HW225087   5.373   1.872   6.191
 2649SOL     OW25088   0.065   2.112   1.728
 2649SOL    HW125089   0.129   2.065   1.674
 2649SOL    HW225090  -0.017   2.105   1.679
 2650SOL     OW25091   2.781   2.442   6.142
 2650SOL    HW125092   2.798   2.348   6.152
 2650SOL    HW225093   2.859   2.476   6.097
 2651SOL     OW25094   0.620   5.691   7.203
 2651SOL    HW125095   0.686   5.671   7.137
 2651SOL    HW225096   0.541   5.646   7.173
 2652SOL     OW25097   3.862   2.257   5.705
 2652SOL    HW125098   3.795   2.235   5.769
 2652SOL    HW225099   3.921   2.181   5.704
 2653SOL     OW25100   1.083   5.749   6.539
 2653SOL    HW125101   1.063   5.842   6.527
 2653SOL    HW225102   1.024   5.703   6.479
 2654SOL     OW25103   0.019   5.087   0.311
 2654SOL    HW125104  -0.005   5.168   0.266
 2654SOL    HW225105   0.011   5.019   0.243
 2655SOL     OW25106   2.026   1.222   0.733
 2655SOL    HW125107   2.073   1.305   0.735
 2655SOL    HW225108   2.021   1.198   0.640
 2656SOL     OW25109   1.863   1.951   0.518
 2656SOL    HW125110   1.860   2.044   0.495
 2656SOL    HW225111   1.889   1.907   0.436
 2657SOL     OW25112   6.350   2.712   6.452
 2657SOL    HW125113   6.395   2.795   6.461
 2657SOL    HW225114   6.280   2.716   6.518
 2658SOL     OW25115   1.590   3.623   0.829
 2658SOL    HW125116   1.646   3.550   0.858
 2658SOL    HW225117   1.531   3.583   0.765
 2659SOL     OW25118   1.139   3.712   1.261
 2659SOL    HW125119   1.111   3.621   1.260
 2659SOL    HW225120   1.081   3.754   1.325
 2660SOL     OW25121   5.469   3.990   6.552
 2660SOL    HW125122   5.469   4.034   6.467
 2660SOL    HW225123   5.558   4.004   6.586
 2661SOL     OW25124   2.040   4.719   6.455
 2661SOL    HW125125   2.057   4.634   6.496
 2661SOL    HW225126   2.072   4.783   6.517
 2662SOL     OW25127   2.589   5.186   6.616
 2662SOL    HW125128   2.507   5.149   6.583
 2662SOL    HW225129   2.569   5.277   6.634
 2663SOL     OW25130   5.944   3.437   6.167
 2663SOL    HW125131   5.981   3.425   6.080
 2663SOL    HW225132   5.869   3.377   6.169
 2664SOL     OW25133   1.431   1.553   1.432
 2664SOL    HW125134   1.344   1.527   1.463
 2664SOL    HW225135   1.430   1.648   1.436
 2665SOL     OW25136   2.344   1.290   7.278
 2665SOL    HW125137   2.342   1.249   7.191
 2665SOL    HW225138   2.258   1.331   7.287
 2666SOL     OW25139   2.756   3.344   1.965
 2666SOL    HW125140   2.711   3.375   2.044
 2666SOL    HW225141   2.823   3.411   1.948
 2667SOL     OW25142   1.132   0.598   6.963
 2667SOL    HW125143   1.154   0.660   6.893
 2667SOL    HW225144   1.207   0.602   7.023
 2668SOL     OW25145   5.758   5.963   2.000
 2668SOL    HW125146   5.839   6.013   2.010
 2668SOL    HW225147   5.715   5.971   2.086
 2669SOL     OW25148   5.634   4.816   6.384
 2669SOL    HW125149   5.602   4.764   6.458
 2669SOL    HW225150   5.555   4.843   6.338
 2670SOL     OW25151   4.569   4.263   0.333
 2670SOL    HW125152   4.553   4.169   0.334
 2670SOL    HW225153   4.518   4.298   0.406
 2671SOL     OW25154   5.093   5.493   7.616
 2671SOL    HW125155   5.128   5.431   7.681
 2671SOL    HW225156   5.028   5.544   7.664
 2672SOL     OW25157   3.501   2.832   0.515
 2672SOL    HW125158   3.532   2.923   0.517
 2672SOL    HW225159   3.415   2.836   0.558
 2673SOL     OW25160   3.503   0.693   6.751
 2673SOL    HW125161   3.452   0.733   6.681
 2673SOL    HW225162   3.594   0.705   6.724
 2674SOL     OW25163   1.930   2.848   2.051
 2674SOL    HW125164   1.951   2.803   1.968
 2674SOL    HW225165   1.873   2.920   2.025
 2675SOL     OW25166   5.328   5.891   6.532
 2675SOL    HW125167   5.367   5.969   6.572
 2675SOL    HW225168   5.348   5.820   6.593
 2676SOL     OW25169   3.687   2.472   6.224
 2676SOL    HW125170   3.620   2.482   6.156
 2676SOL    HW225171   3.754   2.536   6.202
 2677SOL     OW25172   1.573   2.295   6.249
 2677SOL    HW125173   1.601   2.381   6.278
 2677SOL    HW225174   1.503   2.313   6.185
 2678SOL     OW25175   3.452   1.933   5.401
 2678SOL    HW125176   3.405   1.888   5.471
 2678SOL    HW225177   3.539   1.953   5.438
 2679SOL     OW25178   1.364   5.083   1.029
 2679SOL    HW125179   1.318   5.166   1.040
 2679SOL    HW225180   1.435   5.103   0.968
 2680SOL     OW25181   2.589   2.933   5.978
 2680SOL    HW125182   2.496   2.952   5.970
 2680SOL    HW225183   2.633   3.014   5.952
 2681SOL     OW25184   2.528   2.500   0.708
 2681SOL    HW125185   2.434   2.486   0.708
 2681SOL    HW225186   2.565   2.412   0.721
 2682SOL     OW25187   3.288   5.268   5.876
 2682SOL    HW125188   3.321   5.358   5.886
 2682SOL    HW225189   3.230   5.272   5.800
 2683SOL     OW25190   2.352   4.154   0.509
 2683SOL    HW125191   2.405   4.162   0.430
 2683SOL    HW225192   2.285   4.089   0.486
 2684SOL     OW25193   1.651   0.040   1.722
 2684SOL    HW125194   1.667  -0.053   1.704
 2684SOL    HW225195   1.633   0.044   1.816
 2685SOL     OW25196   5.597   3.739   6.887
 2685SOL    HW125197   5.514   3.785   6.892
 2685SOL    HW225198   5.574   3.647   6.888
 2686SOL     OW25199   3.225   4.247   0.726
 2686SOL    HW125200   3.315   4.230   0.699
 2686SOL    HW225201   3.212   4.189   0.801
 2687SOL     OW25202   4.229   4.109   5.018
 2687SOL    HW125203   4.294   4.040   5.029
 2687SOL    HW225204   4.257   4.179   5.078
 2688SOL     OW25205   3.196   4.456   6.494
 2688SOL    HW125206   3.109   4.427   6.523
 2688SOL    HW225207   3.233   4.379   6.451
 2689SOL     OW25208   5.075   2.026   1.431
 2689SOL    HW125209   5.101   1.966   1.362
 2689SOL    HW225210   5.103   2.113   1.400
 2690SOL     OW25211   1.019   5.419   6.546
 2690SOL    HW125212   1.027   5.418   6.642
 2690SOL    HW225213   0.977   5.502   6.526
 2691SOL     OW25214   2.079   4.028   0.909
 2691SOL    HW125215   2.129   4.086   0.852
 2691SOL    HW225216   2.062   4.080   0.987
 2692SOL     OW25217   5.669   2.718   7.461
 2692SOL    HW125218   5.605   2.647   7.473
 2692SOL    HW225219   5.754   2.675   7.475
 2693SOL     OW25220   1.632   3.160   6.080
 2693SOL    HW125221   1.722   3.161   6.111
 2693SOL    HW225222   1.601   3.250   6.094
 2694SOL     OW25223   3.123   3.136   0.327
 2694SOL    HW125224   3.082   3.184   0.398
 2694SOL    HW225225   3.116   3.194   0.251
 2695SOL     OW25226   0.711   3.823   5.568
 2695SOL    HW125227   0.741   3.780   5.488
 2695SOL    HW225228   0.780   3.805   5.632
 2696SOL     OW25229   4.865   3.760   0.652
 2696SOL    HW125230   4.789   3.814   0.672
 2696SOL    HW225231   4.897   3.731   0.738
 2697SOL     OW25232   1.163   5.849   7.227
 2697SOL    HW125233   1.162   5.942   7.208
 2697SOL    HW225234   1.207   5.809   7.151
 2698SOL     OW25235   4.561   3.452   2.106
 2698SOL    HW125236   4.524   3.367   2.080
 2698SOL    HW225237   4.651   3.433   2.130
 2699SOL     OW25238   0.512   4.265   0.591
 2699SOL    HW125239   0.537   4.173   0.598
 2699SOL    HW225240   0.512   4.297   0.681
 2700SOL     OW25241   3.585   0.893   0.145
 2700SOL    HW125242   3.575   0.874   0.238
 2700SOL    HW225243   3.530   0.970   0.130
 2701SOL     OW25244   2.315   1.514   6.038
 2701SOL    HW125245   2.324   1.425   6.003
 2701SOL    HW225246   2.285   1.501   6.128
 2702SOL     OW25247   4.378   3.067   6.119
 2702SOL    HW125248   4.358   3.052   6.026
 2702SOL    HW225249   4.461   3.022   6.133
 2703SOL     OW25250   5.534   2.918   6.553
 2703SOL    HW125251   5.512   2.826   6.569
 2703SOL    HW225252   5.556   2.921   6.460
 2704SOL     OW25253   5.377   0.027   0.116
 2704SOL    HW125254   5.455  -0.020   0.144
 2704SOL    HW225255   5.330  -0.035   0.060
 2705SOL     OW25256   0.490   4.183   6.450
 2705SOL    HW125257   0.487   4.202   6.544
 2705SOL    HW225258   0.439   4.253   6.409
 2706SOL     OW25259   0.777   5.705   0.862
 2706SOL    HW125260   0.822   5.630   0.823
 2706SOL    HW225261   0.815   5.781   0.817
 2707SOL     OW25262   3.307   0.120   1.563
 2707SOL    HW125263   3.389   0.162   1.537
 2707SOL    HW225264   3.310   0.117   1.658
 2708SOL     OW25265   4.619   0.633   5.850
 2708SOL    HW125266   4.583   0.598   5.932
 2708SOL    HW225267   4.692   0.574   5.830
 2709SOL     OW25268   5.418   1.682   6.914
 2709SOL    HW125269   5.355   1.724   6.974
 2709SOL    HW225270   5.365   1.655   6.839
 2710SOL     OW25271   0.024   5.871   0.974
 2710SOL    HW125272  -0.034   5.937   0.935
 2710SOL    HW225273   0.102   5.873   0.918
 2711SOL     OW25274   2.599   4.505   5.903
 2711SOL    HW125275   2.646   4.543   5.830
 2711SOL    HW225276   2.516   4.474   5.866
 2712SOL     OW25277   1.890   5.120   1.288
 2712SOL    HW125278   1.840   5.069   1.224
 2712SOL    HW225279   1.865   5.211   1.271
 2713SOL     OW25280   0.305   5.518   0.600
 2713SOL    HW125281   0.293   5.481   0.513
 2713SOL    HW225282   0.359   5.595   0.587
 2714SOL     OW25283   5.779   4.080   6.211
 2714SOL    HW125284   5.812   4.072   6.121
 2714SOL    HW225285   5.835   4.020   6.262
 2715SOL     OW25286   0.073   5.233   0.592
 2715SOL    HW125287   0.056   5.181   0.513
 2715SOL    HW225288   0.167   5.220   0.609
 2716SOL     OW25289   3.462   3.330   7.261
 2716SOL    HW125290   3.471   3.346   7.355
 2716SOL    HW225291   3.528   3.387   7.221
 2717SOL     OW25292   4.226   5.372   1.031
 2717SOL    HW125293   4.225   5.284   0.993
 2717SOL    HW225294   4.152   5.373   1.092
 2718SOL     OW25295   4.316   6.038   2.028
 2718SOL    HW125296   4.399   6.012   1.988
 2718SOL    HW225297   4.318   6.133   2.030
 2719SOL     OW25298   0.783   4.119   1.783
 2719SOL    HW125299   0.692   4.148   1.776
 2719SOL    HW225300   0.783   4.060   1.859
 2720SOL     OW25301   4.739   3.818   6.698
 2720SOL    HW125302   4.780   3.876   6.634
 2720SOL    HW225303   4.648   3.848   6.703
 2721SOL     OW25304   1.575   2.424   7.007
 2721SOL    HW125305   1.487   2.423   6.970
 2721SOL    HW225306   1.566   2.479   7.085
 2722SOL     OW25307   2.044   1.830   1.986
 2722SOL    HW125308   2.125   1.864   1.947
 2722SOL    HW225309   1.991   1.802   1.911
 2723SOL     OW25310   4.934   1.296   6.942
 2723SOL    HW125311   4.963   1.387   6.932
 2723SOL    HW225312   5.013   1.248   6.968
 2724SOL     OW25313   0.491   1.246   7.242
 2724SOL    HW125314   0.494   1.206   7.329
 2724SOL    HW225315   0.490   1.171   7.182
 2725SOL     OW25316   2.692   5.056   1.127
 2725SOL    HW125317   2.744   5.034   1.205
 2725SOL    HW225318   2.682   4.973   1.081
 2726SOL     OW25319   5.495   4.455   6.065
 2726SOL    HW125320   5.443   4.523   6.022
 2726SOL    HW225321   5.576   4.499   6.089
 2727SOL     OW25322   3.861   1.159   7.272
 2727SOL    HW125323   3.912   1.209   7.208
 2727SOL    HW225324   3.842   1.222   7.341
 2728SOL     OW25325   0.846   1.414   1.161
 2728SOL    HW125326   0.879   1.454   1.242
 2728SOL    HW225327   0.918   1.357   1.132
 2729SOL     OW25328   1.104   5.695   0.229
 2729SOL    HW125329   1.045   5.744   0.172
 2729SOL    HW225330   1.166   5.653   0.169
 2730SOL     OW25331   0.495   3.566   6.914
 2730SOL    HW125332   0.507   3.652   6.955
 2730SOL    HW225333   0.409   3.537   6.944
 2731SOL     OW25334   5.218   3.545   7.700
 2731SOL    HW125335   5.264   3.487   7.761
 2731SOL    HW225336   5.146   3.582   7.752
 2732SOL     OW25337   0.784   0.069   7.773
 2732SOL    HW125338   0.697   0.075   7.733
 2732SOL    HW225339   0.803  -0.025   7.775
 2733SOL     OW25340   1.489   4.929   7.639
 2733SOL    HW125341   1.409   4.967   7.674
 2733SOL    HW225342   1.515   4.988   7.568
 2734SOL     OW25343   4.168   4.432   6.967
 2734SOL    HW125344   4.209   4.516   6.948
 2734SOL    HW225345   4.138   4.439   7.057
 2735SOL     OW25346   3.939   2.340   0.819
 2735SOL    HW125347   4.010   2.386   0.772
 2735SOL    HW225348   3.984   2.273   0.870
 2736SOL     OW25349   3.010   1.832   6.731
 2736SOL    HW125350   3.001   1.739   6.748
 2736SOL    HW225351   3.032   1.870   6.816
 2737SOL     OW25352   0.601   3.521   0.133
 2737SOL    HW125353   0.673   3.509   0.195
 2737SOL    HW225354   0.563   3.606   0.155
 2738SOL     OW25355   4.645   3.364   1.737
 2738SOL    HW125356   4.596   3.282   1.726
 2738SOL    HW225357   4.688   3.355   1.821
 2739SOL     OW25358   4.365   0.429   2.189
 2739SOL    HW125359   4.311   0.363   2.144
 2739SOL    HW225360   4.346   0.416   2.282
 2740SOL     OW25361   2.516   2.288   1.950
 2740SOL    HW125362   2.493   2.367   1.999
 2740SOL    HW225363   2.606   2.269   1.977
 2741SOL     OW25364   3.488   2.727   7.466
 2741SOL    HW125365   3.511   2.807   7.419
 2741SOL    HW225366   3.557   2.717   7.532
 2742SOL     OW25367   4.525   3.911   6.222
 2742SOL    HW125368   4.509   3.841   6.286
 2742SOL    HW225369   4.476   3.884   6.144
 2743SOL     OW25370   2.776   5.620   6.798
 2743SOL    HW125371   2.816   5.662   6.874
 2743SOL    HW225372   2.682   5.621   6.816
 2744SOL     OW25373   4.938   1.012   0.914
 2744SOL    HW125374   4.917   0.918   0.918
 2744SOL    HW225375   5.012   1.017   0.853
 2745SOL     OW25376   2.268   1.720   1.404
 2745SOL    HW125377   2.219   1.757   1.477
 2745SOL    HW225378   2.264   1.626   1.418
 2746SOL     OW25379   5.041   5.708   6.669
 2746SOL    HW125380   5.081   5.791   6.697
 2746SOL    HW225381   4.984   5.733   6.596
 2747SOL     OW25382   4.142   4.647   1.196
 2747SOL    HW125383   4.174   4.578   1.138
 2747SOL    HW225384   4.203   4.719   1.183
 2748SOL     OW25385   0.717   3.881   1.348
 2748SOL    HW125386   0.682   3.797   1.319
 2748SOL    HW225387   0.812   3.871   1.343
 2749SOL     OW25388   6.334   3.911   5.715
 2749SOL    HW125389   6.382   3.986   5.750
 2749SOL    HW225390   6.248   3.915   5.756
 2750SOL     OW25391   5.782   4.414   1.215
 2750SOL    HW125392   5.759   4.327   1.247
 2750SOL    HW225393   5.861   4.438   1.265
 2751SOL     OW25394   1.015   0.962   7.540
 2751SOL    HW125395   1.033   0.907   7.463
 2751SOL    HW225396   1.093   1.017   7.548
 2752SOL     OW25397   3.301   4.179   5.442
 2752SOL    HW125398   3.368   4.217   5.386
 2752SOL    HW225399   3.251   4.254   5.474
 2753SOL     OW25400   5.769   5.833   7.614
 2753SOL    HW125401   5.740   5.920   7.642
 2753SOL    HW225402   5.846   5.849   7.560
 2754SOL     OW25403   1.944   3.635   5.586
 2754SOL    HW125404   2.023   3.653   5.537
 2754SOL    HW225405   1.890   3.583   5.526
 2755SOL     OW25406   3.988   5.596   5.761
 2755SOL    HW125407   3.993   5.535   5.688
 2755SOL    HW225408   4.006   5.682   5.723
 2756SOL     OW25409   4.707   5.173   0.971
 2756SOL    HW125410   4.737   5.239   0.908
 2756SOL    HW225411   4.700   5.093   0.919
 2757SOL     OW25412   5.641   1.466   0.724
 2757SOL    HW125413   5.674   1.401   0.786
 2757SOL    HW225414   5.567   1.424   0.681
 2758SOL     OW25415   5.001   4.824   1.900
 2758SOL    HW125416   4.964   4.905   1.867
 2758SOL    HW225417   4.951   4.755   1.855
 2759SOL     OW25418   0.681   4.606   7.322
 2759SOL    HW125419   0.694   4.629   7.414
 2759SOL    HW225420   0.769   4.593   7.288
 2760SOL     OW25421   0.916   6.178   1.076
 2760SOL    HW125422   0.893   6.270   1.070
 2760SOL    HW225423   0.918   6.160   1.170
 2761SOL     OW25424   2.626   4.810   6.535
 2761SOL    HW125425   2.643   4.854   6.452
 2761SOL    HW225426   2.708   4.817   6.583
 2762SOL     OW25427   2.532   5.979   1.864
 2762SOL    HW125428   2.567   5.905   1.815
 2762SOL    HW225429   2.442   5.954   1.886
 2763SOL     OW25430   5.390   5.461   0.963
 2763SOL    HW125431   5.481   5.468   0.933
 2763SOL    HW225432   5.392   5.491   1.054
 2764SOL     OW25433   4.464   0.604   7.222
 2764SOL    HW125434   4.457   0.665   7.150
 2764SOL    HW225435   4.464   0.659   7.301
 2765SOL     OW25436   0.866   5.281   7.289
 2765SOL    HW125437   0.785   5.284   7.238
 2765SOL    HW225438   0.880   5.188   7.307
 2766SOL     OW25439   6.232   2.058   1.259
 2766SOL    HW125440   6.144   2.020   1.257
 2766SOL    HW225441   6.289   1.985   1.283
 2767SOL     OW25442   4.750   6.260   6.373
 2767SOL    HW125443   4.724   6.214   6.293
 2767SOL    HW225444   4.826   6.212   6.405
 2768SOL     OW25445   0.002   6.182   0.325
 2768SOL    HW125446   0.023   6.241   0.252
 2768SOL    HW225447  -0.015   6.240   0.399
 2769SOL     OW25448   0.668   4.034   0.055
 2769SOL    HW125449   0.581   4.002   0.033
 2769SOL    HW225450   0.674   4.027   0.150
 2770SOL     OW25451   0.473   0.161   0.448
 2770SOL    HW125452   0.460   0.074   0.408
 2770SOL    HW225453   0.408   0.165   0.518
 2771SOL     OW25454   3.260   6.269   1.934
 2771SOL    HW125455   3.205   6.253   2.010
 2771SOL    HW225456   3.349   6.253   1.964
 2772SOL     OW25457   4.952   0.400   0.504
 2772SOL    HW125458   4.927   0.308   0.499
 2772SOL    HW225459   4.976   0.424   0.414
 2773SOL     OW25460   4.893   3.313   6.744
 2773SOL    HW125461   4.832   3.381   6.716
 2773SOL    HW225462   4.979   3.343   6.714
 2774SOL     OW25463   5.463   1.058   7.810
 2774SOL    HW125464   5.491   0.968   7.793
 2774SOL    HW225465   5.390   1.072   7.750
 2775SOL     OW25466   1.939   2.395   6.961
 2775SOL    HW125467   2.015   2.444   6.929
 2775SOL    HW225468   1.935   2.418   7.055
 2776SOL     OW25469   1.842   1.113   1.219
 2776SOL    HW125470   1.810   1.057   1.289
 2776SOL    HW225471   1.918   1.157   1.256
 2777SOL     OW25472   4.469   4.131   7.159
 2777SOL    HW125473   4.442   4.200   7.219
 2777SOL    HW225474   4.417   4.054   7.186
 2778SOL     OW25475   0.045   5.028   1.274
 2778SOL    HW125476   0.122   4.974   1.255
 2778SOL    HW225477   0.056   5.056   1.365
 2779SOL     OW25478   1.456   0.146   0.881
 2779SOL    HW125479   1.475   0.098   0.800
 2779SOL    HW225480   1.526   0.212   0.886
 2780SOL     OW25481   3.783   0.620   0.377
 2780SOL    HW125482   3.830   0.664   0.447
 2780SOL    HW225483   3.700   0.594   0.416
 2781SOL     OW25484   3.840   0.993   0.510
 2781SOL    HW125485   3.762   1.013   0.460
 2781SOL    HW225486   3.908   0.978   0.444
 2782SOL     OW25487   5.344   2.927   5.942
 2782SOL    HW125488   5.404   2.855   5.959
 2782SOL    HW225489   5.391   3.005   5.970
 2783SOL     OW25490   5.872   4.816   0.457
 2783SOL    HW125491   5.838   4.767   0.383
 2783SOL    HW225492   5.794   4.848   0.502
 2784SOL     OW25493   4.617   0.641   0.691
 2784SOL    HW125494   4.555   0.627   0.763
 2784SOL    HW225495   4.570   0.610   0.614
 2785SOL     OW25496   0.805   3.716   7.650
 2785SOL    HW125497   0.870   3.747   7.586
 2785SOL    HW225498   0.721   3.745   7.615
 2786SOL     OW25499   6.028   5.949   0.222
 2786SOL    HW125500   5.999   5.860   0.202
 2786SOL    HW225501   6.123   5.942   0.230
 2787SOL     OW25502   2.264   3.793   0.976
 2787SOL    HW125503   2.315   3.735   0.919
 2787SOL    HW225504   2.173   3.770   0.959
 2788SOL     OW25505   2.142   3.023   1.834
 2788SOL    HW125506   2.148   3.091   1.901
 2788SOL    HW225507   2.213   2.962   1.855
 2789SOL     OW25508   1.646   6.182   7.598
 2789SOL    HW125509   1.554   6.154   7.609
 2789SOL    HW225510   1.644   6.245   7.527
 2790SOL     OW25511   4.497   6.122   7.121
 2790SOL    HW125512   4.474   6.075   7.201
 2790SOL    HW225513   4.437   6.088   7.055
 2791SOL     OW25514   6.305   0.720   7.460
 2791SOL    HW125515   6.226   0.667   7.474
 2791SOL    HW225516   6.376   0.665   7.493
 2792SOL     OW25517   4.380   5.100   0.095
 2792SOL    HW125518   4.364   5.020   0.146
 2792SOL    HW225519   4.328   5.089   0.016
 2793SOL     OW25520   0.039   2.603   1.919
 2793SOL    HW125521   0.037   2.507   1.911
 2793SOL    HW225522  -0.046   2.625   1.957
 2794SOL     OW25523   5.414   2.208   5.861
 2794SOL    HW125524   5.476   2.270   5.900
 2794SOL    HW225525   5.328   2.246   5.881
 2795SOL     OW25526   4.858   6.054   7.346
 2795SOL    HW125527   4.898   6.019   7.266
 2795SOL    HW225528   4.889   5.997   7.416
 2796SOL     OW25529   6.141   0.820   6.461
 2796SOL    HW125530   6.089   0.807   6.382
 2796SOL    HW225531   6.077   0.823   6.532
 2797SOL     OW25532   2.288   0.701   0.869
 2797SOL    HW125533   2.370   0.750   0.881
 2797SOL    HW225534   2.228   0.740   0.932
 2798SOL     OW25535   1.921   3.896   0.207
 2798SOL    HW125536   1.897   3.953   0.133
 2798SOL    HW225537   1.928   3.956   0.281
 2799SOL     OW25538   4.904   3.935   7.638
 2799SOL    HW125539   4.980   3.899   7.683
 2799SOL    HW225540   4.929   3.937   7.546
 2800SOL     OW25541   1.760   4.645   0.519
 2800SOL    HW125542   1.847   4.628   0.483
 2800SOL    HW225543   1.704   4.581   0.476
 2801SOL     OW25544   4.431   5.691   1.873
 2801SOL    HW125545   4.459   5.600   1.882
 2801SOL    HW225546   4.340   5.685   1.844
 2802SOL     OW25547   5.115   1.785   1.260
 2802SOL    HW125548   5.200   1.824   1.243
 2802SOL    HW225549   5.134   1.696   1.290
 2803SOL     OW25550   1.975   0.343   2.232
 2803SOL    HW125551   2.003   0.400   2.304
 2803SOL    HW225552   1.995   0.254   2.264
 2804SOL     OW25553   2.494   3.614   5.470
 2804SOL    HW125554   2.580   3.574   5.452
 2804SOL    HW225555   2.497   3.697   5.423
 2805SOL     OW25556   4.214   2.745   0.122
 2805SOL    HW125557   4.121   2.729   0.138
 2805SOL    HW225558   4.255   2.659   0.131
 2806SOL     OW25559   4.981   2.771   7.010
 2806SOL    HW125560   4.997   2.843   7.071
 2806SOL    HW225561   5.067   2.750   6.974
 2807SOL     OW25562   6.010   0.676   1.535
 2807SOL    HW125563   5.985   0.761   1.574
 2807SOL    HW225564   5.982   0.612   1.600
 2808SOL     OW25565   4.369   4.748   0.053
 2808SOL    HW125566   4.384   4.659   0.085
 2808SOL    HW225567   4.457   4.781   0.033
 2809SOL     OW25568   4.776   6.195   6.829
 2809SOL    HW125569   4.768   6.279   6.875
 2809SOL    HW225570   4.688   6.178   6.796
 2810SOL     OW25571   6.353   0.717   6.600
 2810SOL    HW125572   6.304   0.674   6.671
 2810SOL    HW225573   6.297   0.791   6.575
 2811SOL     OW25574   0.256   6.101   0.646
 2811SOL    HW125575   0.213   6.187   0.651
 2811SOL    HW225576   0.235   6.059   0.730
 2812SOL     OW25577   0.019   1.744   0.503
 2812SOL    HW125578  -0.050   1.792   0.457
 2812SOL    HW225579   0.035   1.795   0.582
 2813SOL     OW25580   0.773   2.666   6.510
 2813SOL    HW125581   0.712   2.645   6.581
 2813SOL    HW225582   0.752   2.603   6.441
 2814SOL     OW25583   2.320   3.624   0.054
 2814SOL    HW125584   2.379   3.605   0.127
 2814SOL    HW225585   2.367   3.593  -0.023
 2815SOL     OW25586   6.066   2.060   7.455
 2815SOL    HW125587   6.027   2.027   7.536
 2815SOL    HW225588   6.147   2.010   7.446
 2816SOL     OW25589   0.544   4.033   2.073
 2816SOL    HW125590   0.537   4.103   2.008
 2816SOL    HW225591   0.621   3.983   2.047
 2817SOL     OW25592   6.222   6.404   6.430
 2817SOL    HW125593   6.281   6.456   6.484
 2817SOL    HW225594   6.140   6.401   6.480
 2818SOL     OW25595   3.518   3.880   7.363
 2818SOL    HW125596   3.580   3.946   7.333
 2818SOL    HW225597   3.467   3.923   7.432
 2819SOL     OW25598   4.603   6.299   1.411
 2819SOL    HW125599   4.555   6.229   1.456
 2819SOL    HW225600   4.545   6.326   1.341
 2820SOL     OW25601   2.977   1.442   6.296
 2820SOL    HW125602   2.998   1.423   6.204
 2820SOL    HW225603   3.047   1.399   6.346
 2821SOL     OW25604   4.691   5.038   4.846
 2821SOL    HW125605   4.614   4.994   4.881
 2821SOL    HW225606   4.700   5.005   4.757
 2822SOL     OW25607   3.427   4.722   0.184
 2822SOL    HW125608   3.415   4.637   0.226
 2822SOL    HW225609   3.449   4.781   0.256
 2823SOL     OW25610   1.058   3.550   0.477
 2823SOL    HW125611   1.095   3.518   0.559
 2823SOL    HW225612   1.094   3.491   0.410
 2824SOL     OW25613   4.552   5.745   1.624
 2824SOL    HW125614   4.598   5.662   1.635
 2824SOL    HW225615   4.521   5.768   1.712
 2825SOL     OW25616   2.882   6.176   0.840
 2825SOL    HW125617   2.852   6.101   0.789
 2825SOL    HW225618   2.936   6.137   0.909
 2826SOL     OW25619   1.341   5.856   1.326
 2826SOL    HW125620   1.333   5.875   1.232
 2826SOL    HW225621   1.251   5.848   1.356
 2827SOL     OW25622   1.464   3.946   7.289
 2827SOL    HW125623   1.486   4.033   7.321
 2827SOL    HW225624   1.465   3.891   7.368
 2828SOL     OW25625   0.080   5.173   7.731
 2828SOL    HW125626   0.032   5.221   7.799
 2828SOL    HW225627   0.032   5.192   7.650
 2829SOL     OW25628   0.254   4.814   7.101
 2829SOL    HW125629   0.184   4.868   7.137
 2829SOL    HW225630   0.330   4.833   7.157
 2830SOL     OW25631   5.478   3.114   1.259
 2830SOL    HW125632   5.458   3.162   1.339
 2830SOL    HW225633   5.566   3.144   1.234
 2831SOL     OW25634   1.725   5.069   6.163
 2831SOL    HW125635   1.820   5.069   6.169
 2831SOL    HW225636   1.706   5.113   6.080
 2832SOL     OW25637   4.187   3.275   6.414
 2832SOL    HW125638   4.230   3.288   6.499
 2832SOL    HW225639   4.199   3.183   6.394
 2833SOL     OW25640   3.664   3.936   1.065
 2833SOL    HW125641   3.714   3.856   1.050
 2833SOL    HW225642   3.730   4.006   1.066
 2834SOL     OW25643   3.948   4.864   5.479
 2834SOL    HW125644   3.958   4.957   5.502
 2834SOL    HW225645   3.854   4.847   5.489
 2835SOL     OW25646   2.925   4.681   5.915
 2835SOL    HW125647   2.903   4.748   5.850
 2835SOL    HW225648   2.940   4.602   5.865
 2836SOL     OW25649   5.602   6.351   7.608
 2836SOL    HW125650   5.628   6.408   7.680
 2836SOL    HW225651   5.556   6.408   7.547
 2837SOL     OW25652   1.298   6.123   6.287
 2837SOL    HW125653   1.205   6.144   6.278
 2837SOL    HW225654   1.334   6.134   6.199
 2838SOL     OW25655   0.472   2.952   7.691
 2838SOL    HW125656   0.416   2.943   7.614
 2838SOL    HW225657   0.432   3.023   7.742
 2839SOL     OW25658   6.378   5.578   7.642
 2839SOL    HW125659   6.334   5.660   7.618
 2839SOL    HW225660   6.396   5.587   7.735
 2840SOL     OW25661   5.980   5.245   7.132
 2840SOL    HW125662   5.999   5.228   7.224
 2840SOL    HW225663   5.905   5.305   7.133
 2841SOL     OW25664   2.587   2.469   1.035
 2841SOL    HW125665   2.577   2.467   0.939
 2841SOL    HW225666   2.676   2.501   1.049
 2842SOL     OW25667   2.709   1.495   6.307
 2842SOL    HW125668   2.798   1.468   6.329
 2842SOL    HW225669   2.688   1.446   6.227
 2843SOL     OW25670   3.837   2.688   1.814
 2843SOL    HW125671   3.830   2.731   1.900
 2843SOL    HW225672   3.921   2.642   1.817
 2844SOL     OW25673   2.913   0.538   5.825
 2844SOL    HW125674   2.820   0.536   5.800
 2844SOL    HW225675   2.951   0.462   5.782
 2845SOL     OW25676   6.246   1.448   7.230
 2845SOL    HW125677   6.214   1.362   7.203
 2845SOL    HW225678   6.338   1.436   7.249
 2846SOL     OW25679   4.270   6.148   2.320
 2846SOL    HW125680   4.344   6.205   2.297
 2846SOL    HW225681   4.273   6.078   2.256
 2847SOL     OW25682   3.840   1.684   6.256
 2847SOL    HW125683   3.855   1.670   6.163
 2847SOL    HW225684   3.753   1.725   6.261
 2848SOL     OW25685   5.877   1.591   7.118
 2848SOL    HW125686   5.802   1.604   7.059
 2848SOL    HW225687   5.928   1.671   7.109
 2849SOL     OW25688   5.591   6.314   6.370
 2849SOL    HW125689   5.601   6.316   6.275
 2849SOL    HW225690   5.553   6.399   6.392
 2850SOL     OW25691   0.479   2.816   1.451
 2850SOL    HW125692   0.451   2.861   1.531
 2850SOL    HW225693   0.564   2.855   1.430
 2851SOL     OW25694   5.483   4.951   1.295
 2851SOL    HW125695   5.546   4.981   1.229
 2851SOL    HW225696   5.507   4.860   1.312
 2852SOL     OW25697   3.787   0.227   7.508
 2852SOL    HW125698   3.693   0.238   7.494
 2852SOL    HW225699   3.805   0.270   7.591
 2853SOL     OW25700   0.618   6.284   0.527
 2853SOL    HW125701   0.710   6.267   0.543
 2853SOL    HW225702   0.576   6.198   0.533
 2854SOL     OW25703   3.509   3.077   1.676
 2854SOL    HW125704   3.417   3.090   1.651
 2854SOL    HW225705   3.559   3.133   1.617
 2855SOL     OW25706   4.376   3.223   6.617
 2855SOL    HW125707   4.434   3.148   6.602
 2855SOL    HW225708   4.431   3.286   6.663
 2856SOL     OW25709   2.228   3.096   6.154
 2856SOL    HW125710   2.312   3.133   6.184
 2856SOL    HW225711   2.250   3.050   6.073
 2857SOL     OW25712   2.252   2.528   2.329
 2857SOL    HW125713   2.178   2.510   2.387
 2857SOL    HW225714   2.283   2.615   2.355
 2858SOL     OW25715   1.745   5.725   7.687
 2858SOL    HW125716   1.725   5.632   7.684
 2858SOL    HW225717   1.749   5.745   7.781
 2859SOL     OW25718   4.632   6.306   1.951
 2859SOL    HW125719   4.541   6.282   1.934
 2859SOL    HW225720   4.636   6.319   2.046
 2860SOL     OW25721   5.794   4.176   0.671
 2860SOL    HW125722   5.811   4.267   0.647
 2860SOL    HW225723   5.848   4.124   0.612
 2861SOL     OW25724   2.055   4.179   1.125
 2861SOL    HW125725   2.032   4.266   1.156
 2861SOL    HW225726   2.150   4.179   1.121
 2862SOL     OW25727   3.415   2.149   7.174
 2862SOL    HW125728   3.429   2.236   7.136
 2862SOL    HW225729   3.329   2.155   7.216
 2863SOL     OW25730   4.439   1.238   7.262
 2863SOL    HW125731   4.347   1.257   7.244
 2863SOL    HW225732   4.438   1.154   7.309
 2864SOL     OW25733   2.409   2.584   0.170
 2864SOL    HW125734   2.373   2.507   0.125
 2864SOL    HW225735   2.501   2.563   0.183
 2865SOL     OW25736   4.293   0.170   1.276
 2865SOL    HW125737   4.245   0.241   1.233
 2865SOL    HW225738   4.314   0.203   1.363
 2866SOL     OW25739   0.195   3.402   6.776
 2866SOL    HW125740   0.126   3.466   6.793
 2866SOL    HW225741   0.216   3.365   6.861
 2867SOL     OW25742   5.163   6.249   2.081
 2867SOL    HW125743   5.183   6.342   2.066
 2867SOL    HW225744   5.081   6.235   2.032
 2868SOL     OW25745   2.967   0.588   6.505
 2868SOL    HW125746   3.021   0.516   6.473
 2868SOL    HW225747   2.986   0.661   6.445
 2869SOL     OW25748   4.221   4.262   5.449
 2869SOL    HW125749   4.242   4.268   5.356
 2869SOL    HW225750   4.236   4.350   5.483
 2870SOL     OW25751   2.707   0.516   0.261
 2870SOL    HW125752   2.684   0.436   0.308
 2870SOL    HW225753   2.764   0.564   0.321
 2871SOL     OW25754   3.613   5.822   0.333
 2871SOL    HW125755   3.649   5.808   0.245
 2871SOL    HW225756   3.675   5.879   0.376
 2872SOL     OW25757   6.194   2.224   7.121
 2872SOL    HW125758   6.199   2.128   7.113
 2872SOL    HW225759   6.118   2.239   7.177
 2873SOL     OW25760   3.285   2.811   6.649
 2873SOL    HW125761   3.261   2.753   6.577
 2873SOL    HW225762   3.315   2.752   6.718
 2874SOL     OW25763   3.175   1.954   6.524
 2874SOL    HW125764   3.142   2.019   6.463
 2874SOL    HW225765   3.097   1.905   6.550
 2875SOL     OW25766   0.394   1.185   0.433
 2875SOL    HW125767   0.488   1.191   0.420
 2875SOL    HW225768   0.367   1.273   0.460
 2876SOL     OW25769   5.661   6.111   7.242
 2876SOL    HW125770   5.575   6.074   7.224
 2876SOL    HW225771   5.648   6.205   7.238
 2877SOL     OW25772   3.436   2.162   6.053
 2877SOL    HW125773   3.425   2.099   5.982
 2877SOL    HW225774   3.361   2.221   6.045
 2878SOL     OW25775   2.577   0.951   5.786
 2878SOL    HW125776   2.580   0.856   5.778
 2878SOL    HW225777   2.489   0.969   5.820
 2879SOL     OW25778   4.185   3.510   5.371
 2879SOL    HW125779   4.210   3.418   5.368
 2879SOL    HW225780   4.097   3.510   5.409
 2880SOL     OW25781   0.386   6.012   7.623
 2880SOL    HW125782   0.307   5.962   7.642
 2880SOL    HW225783   0.411   5.987   7.534
 2881SOL     OW25784   4.154   4.424   0.671
 2881SOL    HW125785   4.221   4.490   0.687
 2881SOL    HW225786   4.083   4.447   0.731
 2882SOL     OW25787   6.307   1.351   0.697
 2882SOL    HW125788   6.292   1.338   0.603
 2882SOL    HW225789   6.401   1.336   0.708
 2883SOL     OW25790   4.650   4.773   5.456
 2883SOL    HW125791   4.717   4.769   5.524
 2883SOL    HW225792   4.629   4.681   5.438
 2884SOL     OW25793   4.877   4.646   7.625
 2884SOL    HW125794   4.822   4.568   7.629
 2884SOL    HW225795   4.892   4.659   7.531
 2885SOL     OW25796   3.593   4.134   6.363
 2885SOL    HW125797   3.688   4.125   6.352
 2885SOL    HW225798   3.568   4.060   6.418
 2886SOL     OW25799   5.066   0.564   1.514
 2886SOL    HW125800   5.026   0.483   1.546
 2886SOL    HW225801   5.075   0.618   1.592
 2887SOL     OW25802   0.704   3.582   0.972
 2887SOL    HW125803   0.744   3.597   1.057
 2887SOL    HW225804   0.708   3.487   0.960
 2888SOL     OW25805   2.699   6.350   1.304
 2888SOL    HW125806   2.750   6.430   1.313
 2888SOL    HW225807   2.619   6.377   1.258
 2889SOL     OW25808   1.446   3.002   0.911
 2889SOL    HW125809   1.504   3.075   0.934
 2889SOL    HW225810   1.369   3.014   0.967
 2890SOL     OW25811   3.329   5.084   1.527
 2890SOL    HW125812   3.292   5.061   1.613
 2890SOL    HW225813   3.420   5.055   1.531
 2891SOL     OW25814   1.222   1.111   7.592
 2891SOL    HW125815   1.315   1.088   7.597
 2891SOL    HW225816   1.219   1.184   7.530
 2892SOL     OW25817   3.718   2.776   1.558
 2892SOL    HW125818   3.737   2.864   1.525
 2892SOL    HW225819   3.759   2.773   1.644
 2893SOL     OW25820   1.523   0.702   1.377
 2893SOL    HW125821   1.451   0.687   1.438
 2893SOL    HW225822   1.603   0.691   1.429
 2894SOL     OW25823   0.047   0.383   7.683
 2894SOL    HW125824   0.051   0.478   7.694
 2894SOL    HW225825   0.129   0.361   7.638
 2895SOL     OW25826   3.254   3.965   1.683
 2895SOL    HW125827   3.239   3.870   1.682
 2895SOL    HW225828   3.348   3.974   1.691
 2896SOL     OW25829   1.739   1.054   6.747
 2896SOL    HW125830   1.709   1.005   6.824
 2896SOL    HW225831   1.662   1.103   6.718
 2897SOL     OW25832   4.391   2.258   7.552
 2897SOL    HW125833   4.473   2.278   7.507
 2897SOL    HW225834   4.412   2.261   7.645
 2898SOL     OW25835   2.686   2.931   0.622
 2898SOL    HW125836   2.663   2.863   0.684
 2898SOL    HW225837   2.623   3.001   0.639
 2899SOL     OW25838   2.739   1.478   0.291
 2899SOL    HW125839   2.681   1.406   0.267
 2899SOL    HW225840   2.823   1.455   0.252
 2900SOL     OW25841   5.682   6.194   0.748
 2900SOL    HW125842   5.704   6.288   0.748
 2900SOL    HW225843   5.737   6.157   0.817
 2901SOL     OW25844   3.044   4.930   1.457
 2901SOL    HW125845   2.955   4.941   1.490
 2901SOL    HW225846   3.100   4.964   1.527
 2902SOL     OW25847   1.379   5.270   2.225
 2902SOL    HW125848   1.344   5.342   2.173
 2902SOL    HW225849   1.473   5.272   2.208
 2903SOL     OW25850   3.083   1.039   0.280
 2903SOL    HW125851   2.988   1.052   0.287
 2903SOL    HW225852   3.094   0.945   0.267
 2904SOL     OW25853   6.261   3.148   1.587
 2904SOL    HW125854   6.337   3.159   1.529
 2904SOL    HW225855   6.226   3.061   1.565
 2905SOL     OW25856   0.959   1.791   1.320
 2905SOL    HW125857   0.970   1.701   1.349
 2905SOL    HW225858   0.884   1.824   1.369
 2906SOL     OW25859   1.284   1.932   0.679
 2906SOL    HW125860   1.263   1.979   0.599
 2906SOL    HW225861   1.269   1.840   0.658
 2907SOL     OW25862   3.086   0.340   7.071
 2907SOL    HW125863   3.017   0.393   7.032
 2907SOL    HW225864   3.041   0.287   7.137
 2908SOL     OW25865   6.413   5.968   6.367
 2908SOL    HW125866   6.425   6.062   6.354
 2908SOL    HW225867   6.495   5.929   6.335
 2909SOL     OW25868   0.744   2.009   0.615
 2909SOL    HW125869   0.779   1.922   0.599
 2909SOL    HW225870   0.649   1.997   0.618
 2910SOL     OW25871   2.052   6.405   6.804
 2910SOL    HW125872   2.087   6.390   6.716
 2910SOL    HW225873   2.110   6.354   6.861
 2911SOL     OW25874   1.884   2.081   6.698
 2911SOL    HW125875   1.809   2.109   6.751
 2911SOL    HW225876   1.920   2.163   6.663
 2912SOL     OW25877   5.476   5.458   6.447
 2912SOL    HW125878   5.419   5.533   6.431
 2912SOL    HW225879   5.437   5.413   6.522
 2913SOL     OW25880   2.210   1.621   4.904
 2913SOL    HW125881   2.122   1.583   4.901
 2913SOL    HW225882   2.238   1.623   4.812
 2914SOL     OW25883   2.435   3.291   0.996
 2914SOL    HW125884   2.439   3.329   1.084
 2914SOL    HW225885   2.509   3.231   0.993
 2915SOL     OW25886   2.784   3.813   5.791
 2915SOL    HW125887   2.831   3.748   5.843
 2915SOL    HW225888   2.802   3.788   5.700
 2916SOL     OW25889   2.189   0.796   0.136
 2916SOL    HW125890   2.220   0.885   0.148
 2916SOL    HW225891   2.100   0.796   0.172
 2917SOL     OW25892   2.968   2.765   6.730
 2917SOL    HW125893   3.004   2.835   6.675
 2917SOL    HW225894   2.878   2.754   6.699
 2918SOL     OW25895   0.528   0.082   1.959
 2918SOL    HW125896   0.471   0.154   1.931
 2918SOL    HW225897   0.488   0.050   2.040
 2919SOL     OW25898   0.918   0.818   0.593
 2919SOL    HW125899   1.009   0.846   0.579
 2919SOL    HW225900   0.871   0.898   0.613
 2920SOL     OW25901   0.817   0.223   0.824
 2920SOL    HW125902   0.896   0.171   0.809
 2920SOL    HW225903   0.845   0.293   0.882
 2921SOL     OW25904   4.212   1.467   7.572
 2921SOL    HW125905   4.146   1.506   7.515
 2921SOL    HW225906   4.217   1.526   7.647
 2922SOL     OW25907   5.758   3.759   0.550
 2922SOL    HW125908   5.792   3.847   0.531
 2922SOL    HW225909   5.810   3.701   0.494
 2923SOL     OW25910   5.734   3.736   0.824
 2923SOL    HW125911   5.744   3.755   0.730
 2923SOL    HW225912   5.644   3.761   0.843
 2924SOL     OW25913   2.390   2.347   6.216
 2924SOL    HW125914   2.415   2.292   6.290
 2924SOL    HW225915   2.445   2.316   6.144
 2925SOL     OW25916   1.031   5.151   0.308
 2925SOL    HW125917   0.937   5.154   0.295
 2925SOL    HW225918   1.065   5.225   0.257
 2926SOL     OW25919   5.543   0.471   0.274
 2926SOL    HW125920   5.547   0.567   0.272
 2926SOL    HW225921   5.475   0.451   0.339
 2927SOL     OW25922   3.206   0.433   1.352
 2927SOL    HW125923   3.268   0.366   1.326
 2927SOL    HW225924   3.248   0.516   1.328
 2928SOL     OW25925   0.765   5.944   6.521
 2928SOL    HW125926   0.701   6.015   6.521
 2928SOL    HW225927   0.844   5.983   6.558
 2929SOL     OW25928   5.681   5.820   1.177
 2929SOL    HW125929   5.621   5.770   1.232
 2929SOL    HW225930   5.760   5.766   1.174
 2930SOL     OW25931   4.723   3.587   5.380
 2930SOL    HW125932   4.755   3.651   5.317
 2930SOL    HW225933   4.647   3.547   5.338
 2931SOL     OW25934   2.673   2.157   0.133
 2931SOL    HW125935   2.764   2.184   0.143
 2931SOL    HW225936   2.657   2.158   0.039
 2932SOL     OW25937   4.723   3.282   6.431
 2932SOL    HW125938   4.682   3.214   6.484
 2932SOL    HW225939   4.653   3.315   6.375
 2933SOL     OW25940   4.996   3.350   5.623
 2933SOL    HW125941   5.085   3.361   5.657
 2933SOL    HW225942   4.997   3.397   5.539
 2934SOL     OW25943   3.035   1.117   7.520
 2934SOL    HW125944   2.988   1.101   7.438
 2934SOL    HW225945   3.066   1.207   7.513
 2935SOL     OW25946   3.817   4.141   7.606
 2935SOL    HW125947   3.843   4.154   7.515
 2935SOL    HW225948   3.883   4.082   7.643
 2936SOL     OW25949   3.527   1.223   6.066
 2936SOL    HW125950   3.599   1.285   6.078
 2936SOL    HW225951   3.477   1.257   5.992
 2937SOL     OW25952   6.190   3.186   0.244
 2937SOL    HW125953   6.145   3.137   0.313
 2937SOL    HW225954   6.183   3.277   0.272
 2938SOL     OW25955   3.566   1.788   6.951
 2938SOL    HW125956   3.597   1.858   6.893
 2938SOL    HW225957   3.481   1.819   6.982
 2939SOL     OW25958   2.452   4.434   7.621
 2939SOL    HW125959   2.472   4.474   7.706
 2939SOL    HW225960   2.524   4.372   7.606
 2940SOL     OW25961   2.557   2.103   6.323
 2940SOL    HW125962   2.608   2.034   6.367
 2940SOL    HW225963   2.617   2.140   6.258
 2941SOL     OW25964   4.761   5.353   0.730
 2941SOL    HW125965   4.832   5.414   0.709
 2941SOL    HW225966   4.682   5.407   0.728
 2942SOL     OW25967   5.615   1.581   1.339
 2942SOL    HW125968   5.651   1.663   1.306
 2942SOL    HW225969   5.693   1.528   1.360
 2943SOL     OW25970   5.228   1.453   7.058
 2943SOL    HW125971   5.167   1.416   7.121
 2943SOL    HW225972   5.313   1.449   7.101
 2944SOL     OW25973   5.922   3.647   7.239
 2944SOL    HW125974   5.911   3.721   7.178
 2944SOL    HW225975   6.016   3.641   7.252
 2945SOL     OW25976   1.283   0.377   2.022
 2945SOL    HW125977   1.280   0.283   2.005
 2945SOL    HW225978   1.244   0.416   1.944
 2946SOL     OW25979   1.813   0.451   1.606
 2946SOL    HW125980   1.787   0.359   1.611
 2946SOL    HW225981   1.909   0.449   1.612
 2947SOL     OW25982   6.363   3.057   5.979
 2947SOL    HW125983   6.366   2.966   5.948
 2947SOL    HW225984   6.380   3.110   5.901
 2948SOL     OW25985   0.942   3.755   6.042
 2948SOL    HW125986   1.026   3.729   6.079
 2948SOL    HW225987   0.887   3.676   6.048
 2949SOL     OW25988   2.730   4.204   6.699
 2949SOL    HW125989   2.712   4.139   6.766
 2949SOL    HW225990   2.646   4.215   6.653
 2950SOL     OW25991   2.415   4.152   7.772
 2950SOL    HW125992   2.410   4.068   7.818
 2950SOL    HW225993   2.339   4.201   7.803
 2951SOL     OW25994   0.863   4.975   6.999
 2951SOL    HW125995   0.814   5.052   6.969
 2951SOL    HW225996   0.821   4.951   7.082
 2952SOL     OW25997   3.214   2.319   6.018
 2952SOL    HW125998   3.156   2.254   5.979
 2952SOL    HW225999   3.158   2.371   6.075
 2953SOL     OW26000   2.006   3.255   0.730
 2953SOL    HW126001   1.961   3.338   0.711
 2953SOL    HW226002   2.088   3.281   0.771
 2954SOL     OW26003   1.886   0.383   0.735
 2954SOL    HW126004   1.975   0.417   0.745
 2954SOL    HW226005   1.833   0.460   0.710
 2955SOL     OW26006   1.617   3.459   0.313
 2955SOL    HW126007   1.560   3.458   0.389
 2955SOL    HW226008   1.557   3.452   0.238
 2956SOL     OW26009   0.714   4.287   0.818
 2956SOL    HW126010   0.669   4.203   0.814
 2956SOL    HW226011   0.795   4.273   0.769
 2957SOL     OW26012   3.208   4.381   0.492
 2957SOL    HW126013   3.187   4.319   0.562
 2957SOL    HW226014   3.248   4.455   0.538
 2958SOL     OW26015   2.156   4.783   5.316
 2958SOL    HW126016   2.222   4.781   5.246
 2958SOL    HW226017   2.143   4.691   5.339
 2959SOL     OW26018   2.585   1.163   6.522
 2959SOL    HW126019   2.628   1.140   6.604
 2959SOL    HW226020   2.652   1.147   6.455
 2960SOL     OW26021   3.937   6.048   2.419
 2960SOL    HW126022   3.871   6.116   2.420
 2960SOL    HW226023   3.992   6.066   2.495
 2961SOL     OW26024   5.203   1.127   0.105
 2961SOL    HW126025   5.255   1.056   0.142
 2961SOL    HW226026   5.114   1.092   0.103
 2962SOL     OW26027   5.900   0.908   2.213
 2962SOL    HW126028   5.937   0.994   2.192
 2962SOL    HW226029   5.834   0.926   2.280
 2963SOL     OW26030   2.514   5.945   6.675
 2963SOL    HW126031   2.518   6.037   6.650
 2963SOL    HW226032   2.441   5.910   6.624
 2964SOL     OW26033   3.977   0.933   1.700
 2964SOL    HW126034   3.975   0.882   1.781
 2964SOL    HW226035   3.892   0.977   1.699
 2965SOL     OW26036   5.532   6.022   6.706
 2965SOL    HW126037   5.507   5.986   6.791
 2965SOL    HW226038   5.569   5.947   6.658
 2966SOL     OW26039   3.089   4.350   5.515
 2966SOL    HW126040   2.997   4.325   5.512
 2966SOL    HW226041   3.097   4.418   5.448
 2967SOL     OW26042   1.321   2.743   1.161
 2967SOL    HW126043   1.415   2.750   1.143
 2967SOL    HW226044   1.299   2.824   1.207
 2968SOL     OW26045   3.155   0.400   0.515
 2968SOL    HW126046   3.105   0.342   0.458
 2968SOL    HW226047   3.090   0.432   0.578
 2969SOL     OW26048   2.964   4.354   5.177
 2969SOL    HW126049   2.974   4.434   5.228
 2969SOL    HW226050   3.053   4.330   5.151
 2970SOL     OW26051   5.297   3.975   0.346
 2970SOL    HW126052   5.303   3.923   0.426
 2970SOL    HW226053   5.226   4.037   0.363
 2971SOL     OW26054   3.656   4.288   2.037
 2971SOL    HW126055   3.575   4.339   2.029
 2971SOL    HW226056   3.715   4.327   1.973
 2972SOL     OW26057   3.913   2.745   1.282
 2972SOL    HW126058   3.945   2.826   1.242
 2972SOL    HW226059   3.824   2.734   1.247
 2973SOL     OW26060   1.392   3.403   0.155
 2973SOL    HW126061   1.388   3.490   0.115
 2973SOL    HW226062   1.314   3.358   0.123
 2974SOL     OW26063   5.552   4.070   1.028
 2974SOL    HW126064   5.516   4.154   1.057
 2974SOL    HW226065   5.498   4.046   0.952
 2975SOL     OW26066   3.804   1.300   6.710
 2975SOL    HW126067   3.785   1.359   6.782
 2975SOL    HW226068   3.795   1.212   6.747
 2976SOL     OW26069   4.142   3.292   0.218
 2976SOL    HW126070   4.170   3.211   0.259
 2976SOL    HW226071   4.186   3.292   0.132
 2977SOL     OW26072   1.427   0.408   7.365
 2977SOL    HW126073   1.397   0.498   7.355
 2977SOL    HW226074   1.352   0.361   7.400
 2978SOL     OW26075   2.026   3.621   0.986
 2978SOL    HW126076   1.969   3.665   1.049
 2978SOL    HW226077   2.076   3.559   1.038
 2979SOL     OW26078   2.149   4.348   5.607
 2979SOL    HW126079   2.075   4.288   5.591
 2979SOL    HW226080   2.140   4.415   5.540
 2980SOL     OW26081   4.353   2.585   0.717
 2980SOL    HW126082   4.366   2.547   0.804
 2980SOL    HW226083   4.434   2.634   0.700
 2981SOL     OW26084   3.857   2.547   0.460
 2981SOL    HW126085   3.878   2.458   0.488
 2981SOL    HW226086   3.916   2.603   0.510
 2982SOL     OW26087   5.536   3.685   7.753
 2982SOL    HW126088   5.528   3.768   7.802
 2982SOL    HW226089   5.551   3.619   7.821
 2983SOL     OW26090   4.827   5.879   1.193
 2983SOL    HW126091   4.838   5.888   1.098
 2983SOL    HW226092   4.747   5.828   1.203
 2984SOL     OW26093   6.419   6.084   6.907
 2984SOL    HW126094   6.466   6.113   6.829
 2984SOL    HW226095   6.359   6.156   6.926
 2985SOL     OW26096   4.392   3.597   0.352
 2985SOL    HW126097   4.388   3.688   0.324
 2985SOL    HW226098   4.351   3.598   0.439
 2986SOL     OW26099   1.592   5.606   5.535
 2986SOL    HW126100   1.629   5.673   5.594
 2986SOL    HW226101   1.580   5.652   5.452
 2987SOL     OW26102   2.616   3.138   4.654
 2987SOL    HW126103   2.695   3.114   4.703
 2987SOL    HW226104   2.615   3.079   4.579
 2988SOL     OW26105   3.381   5.574   7.673
 2988SOL    HW126106   3.300   5.576   7.725
 2988SOL    HW226107   3.421   5.659   7.690
 2989SOL     OW26108   5.816   3.966   1.871
 2989SOL    HW126109   5.799   4.057   1.895
 2989SOL    HW226110   5.892   3.970   1.813
 2990SOL     OW26111   5.251   5.767   7.137
 2990SOL    HW126112   5.158   5.788   7.142
 2990SOL    HW226113   5.295   5.852   7.143
 2991SOL     OW26114   5.447   4.046   1.692
 2991SOL    HW126115   5.513   3.987   1.727
 2991SOL    HW226116   5.397   4.075   1.769
 2992SOL     OW26117   3.455   0.114   7.740
 2992SOL    HW126118   3.435   0.206   7.755
 2992SOL    HW226119   3.550   0.112   7.732
 2993SOL     OW26120   0.584   4.767   1.727
 2993SOL    HW126121   0.621   4.682   1.702
 2993SOL    HW226122   0.489   4.753   1.724
 2994SOL     OW26123   4.609   4.639   7.090
 2994SOL    HW126124   4.548   4.710   7.069
 2994SOL    HW226125   4.554   4.560   7.093
 2995SOL     OW26126   3.176   2.077   5.608
 2995SOL    HW126127   3.234   2.130   5.552
 2995SOL    HW226128   3.092   2.079   5.564
 2996SOL     OW26129   1.239   1.996   0.945
 2996SOL    HW126130   1.262   1.907   0.971
 2996SOL    HW226131   1.249   1.997   0.850
 2997SOL     OW26132   5.739   2.408   7.417
 2997SOL    HW126133   5.819   2.363   7.391
 2997SOL    HW226134   5.728   2.385   7.510
 2998SOL     OW26135   1.165   1.926   1.676
 2998SOL    HW126136   1.184   1.955   1.765
 2998SOL    HW226137   1.098   1.987   1.645
 2999SOL     OW26138   0.544   0.304   5.083
 2999SOL    HW126139   0.507   0.230   5.034
 2999SOL    HW226140   0.630   0.318   5.043
 3000SOL     OW26141   4.853   4.040   6.542
 3000SOL    HW126142   4.942   4.008   6.542
 3000SOL    HW226143   4.841   4.079   6.629
 3001SOL     OW26144   4.642   6.049   0.759
 3001SOL    HW126145   4.606   6.137   0.748
 3001SOL    HW226146   4.672   6.024   0.671
 3002SOL     OW26147   4.550   5.120   2.012
 3002SOL    HW126148   4.457   5.140   2.003
 3002SOL    HW226149   4.585   5.190   2.067
 3003SOL     OW26150   1.401   0.912   0.397
 3003SOL    HW126151   1.363   0.889   0.482
 3003SOL    HW226152   1.419   1.006   0.404
 3004SOL     OW26153   3.881   0.025   7.381
 3004SOL    HW126154   3.857   0.089   7.448
 3004SOL    HW226155   3.797  -0.003   7.344
 3005SOL     OW26156   4.624   3.902   1.654
 3005SOL    HW126157   4.609   3.914   1.748
 3005SOL    HW226158   4.552   3.846   1.626
 3006SOL     OW26159   3.589   1.776   1.687
 3006SOL    HW126160   3.629   1.860   1.709
 3006SOL    HW226161   3.497   1.795   1.674
 3007SOL     OW26162   6.403   1.758   6.206
 3007SOL    HW126163   6.329   1.808   6.173
 3007SOL    HW226164   6.466   1.824   6.234
 3008SOL     OW26165   1.849   5.210   5.071
 3008SOL    HW126166   1.880   5.265   4.999
 3008SOL    HW226167   1.852   5.268   5.147
 3009SOL     OW26168   0.339   0.932   0.514
 3009SOL    HW126169   0.317   0.963   0.602
 3009SOL    HW226170   0.346   1.012   0.462
 3010SOL     OW26171   2.240   6.353   0.487
 3010SOL    HW126172   2.231   6.282   0.551
 3010SOL    HW226173   2.313   6.326   0.432
 3011SOL     OW26174   0.096   6.268   5.837
 3011SOL    HW126175   0.006   6.272   5.805
 3011SOL    HW226176   0.149   6.261   5.758
 3012SOL     OW26177   0.311   0.365   0.765
 3012SOL    HW126178   0.310   0.459   0.784
 3012SOL    HW226179   0.402   0.338   0.778
 3013SOL     OW26180   1.883   0.965   5.722
 3013SOL    HW126181   1.949   1.031   5.742
 3013SOL    HW226182   1.800   1.011   5.733
 3014SOL     OW26183   0.521   6.046   6.395
 3014SOL    HW126184   0.461   6.104   6.443
 3014SOL    HW226185   0.583   6.106   6.354
 3015SOL     OW26186   0.871   6.127   1.337
 3015SOL    HW126187   0.789   6.170   1.360
 3015SOL    HW226188   0.859   6.036   1.366
 3016SOL     OW26189   1.039   3.356   6.852
 3016SOL    HW126190   0.944   3.369   6.853
 3016SOL    HW226191   1.075   3.445   6.851
 3017SOL     OW26192   3.661   1.651   2.386
 3017SOL    HW126193   3.630   1.740   2.373
 3017SOL    HW226194   3.720   1.634   2.313
 3018SOL     OW26195   4.924   5.584   1.466
 3018SOL    HW126196   4.918   5.505   1.520
 3018SOL    HW226197   4.988   5.640   1.511
 3019SOL     OW26198   3.664   5.238   0.932
 3019SOL    HW126199   3.643   5.236   1.025
 3019SOL    HW226200   3.737   5.299   0.925
 3020SOL     OW26201   6.247   0.707   1.418
 3020SOL    HW126202   6.160   0.694   1.456
 3020SOL    HW226203   6.231   0.731   1.327
 3021SOL     OW26204   4.852   2.181   7.392
 3021SOL    HW126205   4.928   2.176   7.333
 3021SOL    HW226206   4.779   2.205   7.335
 3022SOL     OW26207   4.798   5.799   5.966
 3022SOL    HW126208   4.878   5.785   5.915
 3022SOL    HW226209   4.749   5.864   5.915
 3023SOL     OW26210   2.478   0.805   6.424
 3023SOL    HW126211   2.453   0.716   6.450
 3023SOL    HW226212   2.574   0.802   6.419
 3024SOL     OW26213   0.279   1.879   6.701
 3024SOL    HW126214   0.314   1.906   6.617
 3024SOL    HW226215   0.185   1.870   6.686
 3025SOL     OW26216   2.552   5.318   6.161
 3025SOL    HW126217   2.616   5.248   6.150
 3025SOL    HW226218   2.604   5.397   6.174
 3026SOL     OW26219   1.345   5.370   0.847
 3026SOL    HW126220   1.383   5.455   0.868
 3026SOL    HW226221   1.400   5.335   0.778
 3027SOL     OW26222   6.267   4.256   5.511
 3027SOL    HW126223   6.354   4.284   5.483
 3027SOL    HW226224   6.278   4.165   5.538
 3028SOL     OW26225   3.305   3.241   2.245
 3028SOL    HW126226   3.348   3.237   2.160
 3028SOL    HW226227   3.339   3.322   2.285
 3029SOL     OW26228   1.976   0.812   1.486
 3029SOL    HW126229   1.973   0.766   1.402
 3029SOL    HW226230   2.058   0.861   1.484
 3030SOL     OW26231   4.726   3.625   0.315
 3030SOL    HW126232   4.723   3.604   0.222
 3030SOL    HW226233   4.813   3.663   0.328
 3031SOL     OW26234   0.052   2.878   1.581
 3031SOL    HW126235   0.050   2.868   1.676
 3031SOL    HW226236   0.091   2.965   1.567
 3032SOL     OW26237   0.304   0.435   7.316
 3032SOL    HW126238   0.266   0.362   7.366
 3032SOL    HW226239   0.350   0.487   7.382
 3033SOL     OW26240   1.258   5.062   5.876
 3033SOL    HW126241   1.197   5.004   5.831
 3033SOL    HW226242   1.221   5.072   5.964
 3034SOL     OW26243   1.220   3.948   1.167
 3034SOL    HW126244   1.178   3.968   1.083
 3034SOL    HW226245   1.187   3.861   1.190
 3035SOL     OW26246   4.511   0.534   6.067
 3035SOL    HW126247   4.526   0.587   6.145
 3035SOL    HW226248   4.448   0.468   6.094
 3036SOL     OW26249   3.813   0.020   1.472
 3036SOL    HW126250   3.894   0.044   1.427
 3036SOL    HW226251   3.828  -0.070   1.502
 3037SOL     OW26252   0.352   4.041   5.831
 3037SOL    HW126253   0.327   4.133   5.829
 3037SOL    HW226254   0.391   4.025   5.745
 3038SOL     OW26255   2.773   5.557   1.666
 3038SOL    HW126256   2.758   5.555   1.572
 3038SOL    HW226257   2.770   5.465   1.692
 3039SOL     OW26258   1.553   4.383   6.031
 3039SOL    HW126259   1.607   4.318   5.985
 3039SOL    HW226260   1.615   4.448   6.064
 3040SOL     OW26261   4.259   5.974   1.248
 3040SOL    HW126262   4.273   6.060   1.290
 3040SOL    HW226263   4.301   5.912   1.307
 3041SOL     OW26264   0.391   3.333   6.051
 3041SOL    HW126265   0.344   3.251   6.065
 3041SOL    HW226266   0.477   3.306   6.018
 3042SOL     OW26267   5.480   2.349   0.389
 3042SOL    HW126268   5.496   2.260   0.422
 3042SOL    HW226269   5.492   2.342   0.294
 3043SOL     OW26270   2.214   4.957   0.752
 3043SOL    HW126271   2.142   4.912   0.796
 3043SOL    HW226272   2.266   4.886   0.713
 3044SOL     OW26273   1.643   1.085   1.756
 3044SOL    HW126274   1.704   1.153   1.785
 3044SOL    HW226275   1.644   1.021   1.828
 3045SOL     OW26276   3.495   0.876   7.533
 3045SOL    HW126277   3.426   0.917   7.481
 3045SOL    HW226278   3.451   0.845   7.612
 3046SOL     OW26279   4.121   3.686   0.080
 3046SOL    HW126280   4.180   3.628   0.031
 3046SOL    HW226281   4.038   3.681   0.033
 3047SOL     OW26282   6.431   0.577   7.142
 3047SOL    HW126283   6.402   0.486   7.129
 3047SOL    HW226284   6.524   0.569   7.164
 3048SOL     OW26285   1.190   6.054   2.360
 3048SOL    HW126286   1.097   6.072   2.351
 3048SOL    HW226287   1.224   6.060   2.271
 3049SOL     OW26288   3.291   2.997   6.143
 3049SOL    HW126289   3.248   3.005   6.058
 3049SOL    HW226290   3.375   3.041   6.132
 3050SOL     OW26291   4.438   2.823   0.964
 3050SOL    HW126292   4.481   2.857   1.043
 3050SOL    HW226293   4.493   2.750   0.936
 3051SOL     OW26294   5.314   0.478   1.866
 3051SOL    HW126295   5.372   0.547   1.897
 3051SOL    HW226296   5.339   0.401   1.918
 3052SOL     OW26297   0.228   6.215   7.789
 3052SOL    HW126298   0.262   6.227   7.700
 3052SOL    HW226299   0.256   6.293   7.837
 3053SOL     OW26300   2.834   4.952   1.654
 3053SOL    HW126301   2.795   4.937   1.740
 3053SOL    HW226302   2.893   5.027   1.667
 3054SOL     OW26303   2.753   0.943   6.127
 3054SOL    HW126304   2.818   0.899   6.072
 3054SOL    HW226305   2.703   0.872   6.166
 3055SOL     OW26306   2.451   5.394   7.373
 3055SOL    HW126307   2.403   5.316   7.402
 3055SOL    HW226308   2.496   5.425   7.452
 3056SOL     OW26309   3.942   4.365   1.558
 3056SOL    HW126310   3.963   4.313   1.480
 3056SOL    HW226311   4.016   4.425   1.567
 3057SOL     OW26312   5.004   6.109   0.383
 3057SOL    HW126313   4.961   6.103   0.297
 3057SOL    HW226314   5.057   6.030   0.388
 3058SOL     OW26315   4.743   1.221   6.757
 3058SOL    HW126316   4.677   1.283   6.726
 3058SOL    HW226317   4.798   1.272   6.817
 3059SOL     OW26318   2.946   1.092   1.594
 3059SOL    HW126319   2.915   1.131   1.675
 3059SOL    HW226320   2.902   1.007   1.590
 3060SOL     OW26321   4.749   1.152   0.302
 3060SOL    HW126322   4.735   1.081   0.364
 3060SOL    HW226323   4.788   1.222   0.354
 3061SOL     OW26324   0.297   2.587   7.704
 3061SOL    HW126325   0.303   2.670   7.656
 3061SOL    HW226326   0.251   2.610   7.785
 3062SOL     OW26327   4.271   5.968   5.986
 3062SOL    HW126328   4.361   5.939   6.003
 3062SOL    HW226329   4.273   6.062   6.003
 3063SOL     OW26330   4.899   3.025   0.432
 3063SOL    HW126331   4.975   3.082   0.435
 3063SOL    HW226332   4.827   3.081   0.402
 3064SOL     OW26333   5.362   4.206   7.479
 3064SOL    HW126334   5.399   4.269   7.418
 3064SOL    HW226335   5.390   4.121   7.447
 3065SOL     OW26336   4.648   5.488   1.254
 3065SOL    HW126337   4.587   5.467   1.184
 3065SOL    HW226338   4.735   5.479   1.214
 3066SOL     OW26339   1.122   4.461   7.017
 3066SOL    HW126340   1.028   4.483   7.013
 3066SOL    HW226341   1.160   4.528   7.074
 3067SOL     OW26342   2.898   3.187   0.834
 3067SOL    HW126343   2.837   3.126   0.875
 3067SOL    HW226344   2.897   3.264   0.891
 3068SOL     OW26345   6.107   1.353   0.183
 3068SOL    HW126346   6.033   1.384   0.131
 3068SOL    HW226347   6.179   1.348   0.120
 3069SOL     OW26348   3.703   2.260   0.650
 3069SOL    HW126349   3.781   2.284   0.700
 3069SOL    HW226350   3.629   2.291   0.702
 3070SOL     OW26351   4.457   0.873   6.713
 3070SOL    HW126352   4.516   0.815   6.665
 3070SOL    HW226353   4.402   0.815   6.765
 3071SOL     OW26354   4.967   0.907   6.554
 3071SOL    HW126355   5.010   0.985   6.517
 3071SOL    HW226356   4.924   0.939   6.633
 3072SOL     OW26357   6.072   2.521   1.019
 3072SOL    HW126358   6.130   2.454   1.055
 3072SOL    HW226359   6.088   2.598   1.072
 3073SOL     OW26360   0.381   3.783   5.972
 3073SOL    HW126361   0.466   3.741   5.986
 3073SOL    HW226362   0.401   3.859   5.916
 3074SOL     OW26363   1.426   0.290   0.085
 3074SOL    HW126364   1.352   0.345   0.060
 3074SOL    HW226365   1.464   0.335   0.160
 3075SOL     OW26366   6.376   1.035   7.057
 3075SOL    HW126367   6.393   1.033   6.963
 3075SOL    HW226368   6.312   1.105   7.069
 3076SOL     OW26369   4.976   2.096   0.112
 3076SOL    HW126370   4.882   2.103   0.131
 3076SOL    HW226371   4.981   2.083   0.018
 3077SOL     OW26372   2.104   3.391   1.655
 3077SOL    HW126373   2.080   3.373   1.564
 3077SOL    HW226374   2.057   3.326   1.707
 3078SOL     OW26375   3.272   1.821   5.569
 3078SOL    HW126376   3.234   1.757   5.629
 3078SOL    HW226377   3.224   1.902   5.587
 3079SOL     OW26378   2.689   4.603   0.851
 3079SOL    HW126379   2.740   4.522   0.858
 3079SOL    HW226380   2.718   4.642   0.768
 3080SOL     OW26381   3.565   6.361   1.878
 3080SOL    HW126382   3.532   6.415   1.949
 3080SOL    HW226383   3.560   6.271   1.911
 3081SOL     OW26384   5.010   1.454   0.643
 3081SOL    HW126385   5.046   1.541   0.627
 3081SOL    HW226386   5.083   1.404   0.679
 3082SOL     OW26387   6.022   5.847   5.786
 3082SOL    HW126388   5.940   5.807   5.756
 3082SOL    HW226389   6.068   5.776   5.831
 3083SOL     OW26390   3.284   2.388   0.666
 3083SOL    HW126391   3.308   2.478   0.687
 3083SOL    HW226392   3.191   2.383   0.690
 3084SOL     OW26393   2.890   1.820   7.084
 3084SOL    HW126394   2.892   1.834   7.179
 3084SOL    HW226395   2.951   1.748   7.069
 3085SOL     OW26396   5.849   4.146   7.158
 3085SOL    HW126397   5.920   4.191   7.113
 3085SOL    HW226398   5.873   4.053   7.154
 3086SOL     OW26399   0.196   3.165   6.608
 3086SOL    HW126400   0.291   3.150   6.604
 3086SOL    HW226401   0.184   3.220   6.686
 3087SOL     OW26402   1.086   5.634   7.366
 3087SOL    HW126403   1.089   5.703   7.299
 3087SOL    HW226404   0.998   5.641   7.403
 3088SOL     OW26405   6.152   4.899   1.922
 3088SOL    HW126406   6.164   4.973   1.862
 3088SOL    HW226407   6.226   4.842   1.905
 3089SOL     OW26408   2.617   2.699   1.438
 3089SOL    HW126409   2.669   2.768   1.395
 3089SOL    HW226410   2.540   2.745   1.471
 3090SOL     OW26411   1.568   5.772   6.492
 3090SOL    HW126412   1.616   5.689   6.490
 3090SOL    HW226413   1.496   5.757   6.553
 3091SOL     OW26414   3.205   2.206   6.385
 3091SOL    HW126415   3.290   2.170   6.361
 3091SOL    HW226416   3.212   2.300   6.367
 3092SOL     OW26417   5.219   3.278   1.339
 3092SOL    HW126418   5.197   3.191   1.306
 3092SOL    HW226419   5.177   3.338   1.278
 3093SOL     OW26420   4.511   5.568   6.199
 3093SOL    HW126421   4.498   5.484   6.242
 3093SOL    HW226422   4.475   5.633   6.259
 3094SOL     OW26423   5.773   1.624   0.489
 3094SOL    HW126424   5.798   1.611   0.397
 3094SOL    HW226425   5.794   1.541   0.531
 3095SOL     OW26426   5.735   1.511   6.600
 3095SOL    HW126427   5.753   1.504   6.506
 3095SOL    HW226428   5.801   1.456   6.641
 3096SOL     OW26429   3.218   4.238   0.259
 3096SOL    HW126430   3.215   4.291   0.338
 3096SOL    HW226431   3.269   4.161   0.283
 3097SOL     OW26432   5.219   1.987   0.927
 3097SOL    HW126433   5.167   2.028   0.858
 3097SOL    HW226434   5.285   1.935   0.881
 3098SOL     OW26435   2.758   1.932   0.519
 3098SOL    HW126436   2.832   1.991   0.509
 3098SOL    HW226437   2.700   1.954   0.446
 3099SOL     OW26438   1.347   0.016   7.486
 3099SOL    HW126439   1.400   0.019   7.406
 3099SOL    HW226440   1.375   0.092   7.536
 3100SOL     OW26441   4.513   2.615   6.676
 3100SOL    HW126442   4.447   2.629   6.608
 3100SOL    HW226443   4.596   2.614   6.628
 3101SOL     OW26444   4.783   5.294   6.565
 3101SOL    HW126445   4.739   5.240   6.630
 3101SOL    HW226446   4.876   5.276   6.577
 3102SOL     OW26447   2.664   6.208   6.251
 3102SOL    HW126448   2.664   6.298   6.217
 3102SOL    HW226449   2.590   6.167   6.208
 3103SOL     OW26450   3.194   5.981   5.997
 3103SOL    HW126451   3.262   6.039   6.031
 3103SOL    HW226452   3.224   5.958   5.909
 3104SOL     OW26453   5.548   4.572   6.929
 3104SOL    HW126454   5.560   4.576   7.024
 3104SOL    HW226455   5.637   4.570   6.894
 3105SOL     OW26456   1.259   2.889   6.759
 3105SOL    HW126457   1.297   2.926   6.679
 3105SOL    HW226458   1.248   2.965   6.818
 3106SOL     OW26459   3.942   3.889   7.511
 3106SOL    HW126460   3.958   3.938   7.430
 3106SOL    HW226461   3.888   3.815   7.484
 3107SOL     OW26462   3.297   6.425   1.350
 3107SOL    HW126463   3.235   6.352   1.357
 3107SOL    HW226464   3.308   6.455   1.440
 3108SOL     OW26465   2.652   2.787   5.655
 3108SOL    HW126466   2.667   2.853   5.723
 3108SOL    HW226467   2.635   2.839   5.576
 3109SOL     OW26468   2.541   3.536   6.914
 3109SOL    HW126469   2.467   3.535   6.975
 3109SOL    HW226470   2.510   3.589   6.840
 3110SOL     OW26471   3.028   0.161   6.432
 3110SOL    HW126472   3.054   0.089   6.489
 3110SOL    HW226473   2.937   0.143   6.410
 3111SOL     OW26474   5.252   3.163   2.065
 3111SOL    HW126475   5.223   3.074   2.047
 3111SOL    HW226476   5.276   3.198   1.979
 3112SOL     OW26477   4.883   5.313   1.138
 3112SOL    HW126478   4.807   5.257   1.119
 3112SOL    HW226479   4.889   5.314   1.233
 3113SOL     OW26480   5.051   2.438   6.552
 3113SOL    HW126481   5.128   2.384   6.535
 3113SOL    HW226482   5.078   2.497   6.623
 3114SOL     OW26483   2.722   5.243   1.435
 3114SOL    HW126484   2.700   5.309   1.370
 3114SOL    HW226485   2.656   5.253   1.504
 3115SOL     OW26486   0.163   5.843   7.633
 3115SOL    HW126487   0.189   5.789   7.558
 3115SOL    HW226488   0.070   5.826   7.643
 3116SOL     OW26489   0.191   6.116   5.317
 3116SOL    HW126490   0.105   6.074   5.309
 3116SOL    HW226491   0.251   6.044   5.335
 3117SOL     OW26492   5.736   3.153   1.275
 3117SOL    HW126493   5.757   3.062   1.253
 3117SOL    HW226494   5.791   3.173   1.351
 3118SOL     OW26495   0.701   0.116   4.901
 3118SOL    HW126496   0.714   0.211   4.901
 3118SOL    HW226497   0.764   0.083   4.965
 3119SOL     OW26498   1.654   0.915   1.957
 3119SOL    HW126499   1.642   0.932   2.051
 3119SOL    HW226500   1.582   0.857   1.933
 3120SOL     OW26501   5.238   0.091   1.653
 3120SOL    HW126502   5.144   0.083   1.636
 3120SOL    HW226503   5.272   0.142   1.579
 3121SOL     OW26504   2.888   3.402   6.892
 3121SOL    HW126505   2.892   3.488   6.851
 3121SOL    HW226506   2.919   3.342   6.824
 3122SOL     OW26507   2.185   0.502   0.288
 3122SOL    HW126508   2.226   0.433   0.235
 3122SOL    HW226509   2.215   0.583   0.248
 3123SOL     OW26510   4.358   6.373   7.218
 3123SOL    HW126511   4.263   6.380   7.206
 3123SOL    HW226512   4.382   6.292   7.172
 3124SOL     OW26513   5.458   1.964   7.604
 3124SOL    HW126514   5.505   1.939   7.524
 3124SOL    HW226515   5.434   2.055   7.590
 3125SOL     OW26516   1.176   3.931   7.625
 3125SOL    HW126517   1.205   4.022   7.638
 3125SOL    HW226518   1.249   3.889   7.580
 3126SOL     OW26519   5.538   4.402   6.342
 3126SOL    HW126520   5.583   4.452   6.274
 3126SOL    HW226521   5.547   4.456   6.421
 3127SOL     OW26522   2.983   4.715   7.793
 3127SOL    HW126523   2.967   4.658   7.717
 3127SOL    HW226524   3.068   4.687   7.826
 3128SOL     OW26525   6.122   1.409   1.358
 3128SOL    HW126526   6.206   1.445   1.387
 3128SOL    HW226527   6.137   1.383   1.268
 3129SOL     OW26528   2.471   6.252   1.896
 3129SOL    HW126529   2.429   6.265   1.811
 3129SOL    HW226530   2.494   6.159   1.897
 3130SOL     OW26531   6.011   6.120   1.989
 3130SOL    HW126532   6.067   6.070   1.930
 3130SOL    HW226533   6.069   6.188   2.024
 3131SOL     OW26534   2.798   0.084   6.873
 3131SOL    HW126535   2.861   0.156   6.868
 3131SOL    HW226536   2.802   0.054   6.963
 3132SOL     OW26537   2.908   2.360   0.773
 3132SOL    HW126538   2.927   2.393   0.685
 3132SOL    HW226539   2.992   2.328   0.806
 3133SOL     OW26540   1.794   3.063   0.624
 3133SOL    HW126541   1.837   3.119   0.689
 3133SOL    HW226542   1.702   3.061   0.651
 3134SOL     OW26543   1.534   0.702   0.283
 3134SOL    HW126544   1.624   0.722   0.310
 3134SOL    HW226545   1.482   0.775   0.317
 3135SOL     OW26546   3.916   2.092   7.510
 3135SOL    HW126547   3.989   2.064   7.455
 3135SOL    HW226548   3.955   2.146   7.577
 3136SOL     OW26549   1.167   0.085   7.296
 3136SOL    HW126550   1.251   0.079   7.343
 3136SOL    HW226551   1.153   0.179   7.284
 3137SOL     OW26552   4.288   1.094   0.970
 3137SOL    HW126553   4.319   1.007   0.946
 3137SOL    HW226554   4.231   1.120   0.897
 3138SOL     OW26555   2.140   6.134   7.493
 3138SOL    HW126556   2.107   6.115   7.405
 3138SOL    HW226557   2.067   6.178   7.537
 3139SOL     OW26558   6.009   4.955   2.172
 3139SOL    HW126559   5.962   5.037   2.158
 3139SOL    HW226560   6.067   4.948   2.096
 3140SOL     OW26561   5.176   1.753   5.720
 3140SOL    HW126562   5.249   1.815   5.715
 3140SOL    HW226563   5.106   1.795   5.671
 3141SOL     OW26564   2.443   6.045   0.518
 3141SOL    HW126565   2.465   5.957   0.488
 3141SOL    HW226566   2.354   6.037   0.552
 3142SOL     OW26567   2.649   1.288   7.192
 3142SOL    HW126568   2.598   1.339   7.130
 3142SOL    HW226569   2.667   1.206   7.147
 3143SOL     OW26570   2.062   1.946   1.247
 3143SOL    HW126571   2.106   1.897   1.177
 3143SOL    HW226572   2.114   2.026   1.256
 3144SOL     OW26573   2.371   1.802   2.229
 3144SOL    HW126574   2.326   1.718   2.224
 3144SOL    HW226575   2.329   1.849   2.301
 3145SOL     OW26576   3.989   6.060   5.844
 3145SOL    HW126577   4.021   6.053   5.934
 3145SOL    HW226578   4.043   6.128   5.805
 3146SOL     OW26579   0.767   6.315   7.426
 3146SOL    HW126580   0.835   6.302   7.360
 3146SOL    HW226581   0.782   6.403   7.459
 3147SOL     OW26582   4.619   0.456   1.285
 3147SOL    HW126583   4.664   0.538   1.304
 3147SOL    HW226584   4.530   0.481   1.262
 3148SOL     OW26585   1.294   4.418   0.988
 3148SOL    HW126586   1.310   4.462   1.072
 3148SOL    HW226587   1.308   4.326   1.006
 3149SOL     OW26588   6.161   1.605   0.794
 3149SOL    HW126589   6.244   1.559   0.782
 3149SOL    HW226590   6.103   1.541   0.836
 3150SOL     OW26591   3.830   4.827   6.340
 3150SOL    HW126592   3.807   4.819   6.247
 3150SOL    HW226593   3.881   4.748   6.358
 3151SOL     OW26594   5.937   4.919   0.153
 3151SOL    HW126595   5.935   4.938   0.247
 3151SOL    HW226596   5.858   4.868   0.137
 3152SOL     OW26597   4.407   0.933   0.088
 3152SOL    HW126598   4.345   1.006   0.084
 3152SOL    HW226599   4.389   0.882   0.009
 3153SOL     OW26600   0.142   4.920   7.750
 3153SOL    HW126601   0.141   5.016   7.739
 3153SOL    HW226602   0.091   4.905   7.830
 3154SOL     OW26603   5.997   0.512   1.304
 3154SOL    HW126604   5.911   0.529   1.265
 3154SOL    HW226605   5.997   0.562   1.385
 3155SOL     OW26606   5.270   0.164   6.118
 3155SOL    HW126607   5.267   0.246   6.068
 3155SOL    HW226608   5.363   0.141   6.121
 3156SOL     OW26609   4.990   3.481   5.391
 3156SOL    HW126610   4.896   3.487   5.373
 3156SOL    HW226611   5.028   3.453   5.308
 3157SOL     OW26612   1.798   2.359   0.011
 3157SOL    HW126613   1.805   2.448   0.045
 3157SOL    HW226614   1.810   2.368  -0.084
 3158SOL     OW26615   1.168   5.795   7.754
 3158SOL    HW126616   1.242   5.855   7.744
 3158SOL    HW226617   1.198   5.714   7.713
 3159SOL     OW26618   3.447   3.949   2.225
 3159SOL    HW126619   3.408   3.864   2.209
 3159SOL    HW226620   3.423   4.002   2.148
 3160SOL     OW26621   3.987   6.144   1.111
 3160SOL    HW126622   3.900   6.173   1.135
 3160SOL    HW226623   3.974   6.058   1.070
 3161SOL     OW26624   5.857   0.140   6.006
 3161SOL    HW126625   5.885   0.231   5.993
 3161SOL    HW226626   5.794   0.145   6.078
 3162SOL     OW26627   5.986   1.921   1.298
 3162SOL    HW126628   5.947   1.979   1.364
 3162SOL    HW226629   6.005   1.840   1.345
 3163SOL     OW26630   6.334   4.486   6.602
 3163SOL    HW126631   6.308   4.403   6.642
 3163SOL    HW226632   6.309   4.552   6.666
 3164SOL     OW26633   5.937   0.826   0.489
 3164SOL    HW126634   6.008   0.833   0.425
 3164SOL    HW226635   5.970   0.763   0.554
 3165SOL     OW26636   3.609   3.045   1.952
 3165SOL    HW126637   3.624   3.045   1.857
 3165SOL    HW226638   3.641   3.130   1.981
 3166SOL     OW26639   3.315   6.365   0.130
 3166SOL    HW126640   3.313   6.429   0.059
 3166SOL    HW226641   3.249   6.300   0.106
 3167SOL     OW26642   4.021   3.518   0.282
 3167SOL    HW126643   4.064   3.439   0.250
 3167SOL    HW226644   4.069   3.589   0.239
 3168SOL     OW26645   5.505   4.922   0.936
 3168SOL    HW126646   5.581   4.882   0.894
 3168SOL    HW226647   5.542   4.987   0.995
 3169SOL     OW26648   6.388   4.313   7.784
 3169SOL    HW126649   6.306   4.364   7.777
 3169SOL    HW226650   6.437   4.337   7.705
 3170SOL     OW26651   4.914   4.298   6.431
 3170SOL    HW126652   4.927   4.256   6.346
 3170SOL    HW226653   4.870   4.233   6.484
 3171SOL     OW26654   1.970   5.698   1.356
 3171SOL    HW126655   1.905   5.629   1.367
 3171SOL    HW226656   2.054   5.655   1.373
 3172SOL     OW26657   1.478   4.326   6.806
 3172SOL    HW126658   1.384   4.326   6.787
 3172SOL    HW226659   1.490   4.251   6.865
 3173SOL     OW26660   5.959   2.643   7.500
 3173SOL    HW126661   5.994   2.582   7.566
 3173SOL    HW226662   6.001   2.727   7.521
 3174SOL     OW26663   0.650   2.365   6.784
 3174SOL    HW126664   0.588   2.405   6.723
 3174SOL    HW226665   0.704   2.308   6.730
 3175SOL     OW26666   4.647   3.271   1.071
 3175SOL    HW126667   4.570   3.307   1.114
 3175SOL    HW226668   4.714   3.339   1.081
 3176SOL     OW26669   4.496   3.466   6.665
 3176SOL    HW126670   4.448   3.534   6.617
 3176SOL    HW226671   4.583   3.465   6.624
 3177SOL     OW26672   1.245   1.321   6.389
 3177SOL    HW126673   1.307   1.339   6.460
 3177SOL    HW226674   1.299   1.283   6.319
 3178SOL     OW26675   3.941   5.733   7.233
 3178SOL    HW126676   3.879   5.806   7.236
 3178SOL    HW226677   3.921   5.689   7.150
 3179SOL     OW26678   2.664   2.980   7.053
 3179SOL    HW126679   2.744   2.965   7.103
 3179SOL    HW226680   2.693   2.993   6.963
 3180SOL     OW26681   4.519   4.988   1.379
 3180SOL    HW126682   4.533   5.057   1.315
 3180SOL    HW226683   4.444   4.939   1.346
 3181SOL     OW26684   4.540   3.430   7.173
 3181SOL    HW126685   4.620   3.483   7.174
 3181SOL    HW226686   4.538   3.392   7.085
 3182SOL     OW26687   3.288   1.692   1.729
 3182SOL    HW126688   3.273   1.637   1.652
 3182SOL    HW226689   3.313   1.631   1.798
 3183SOL     OW26690   2.721   3.424   0.581
 3183SOL    HW126691   2.679   3.374   0.651
 3183SOL    HW226692   2.651   3.478   0.545
 3184SOL     OW26693   0.500   6.438   0.723
 3184SOL    HW126694   0.529   6.414   0.635
 3184SOL    HW226695   0.560   6.507   0.750
 3185SOL     OW26696   5.727   4.223   6.441
 3185SOL    HW126697   5.766   4.198   6.357
 3185SOL    HW226698   5.667   4.295   6.420
 3186SOL     OW26699   1.169   1.555   6.504
 3186SOL    HW126700   1.170   1.638   6.457
 3186SOL    HW226701   1.179   1.488   6.437
 3187SOL     OW26702   0.477   1.148   1.295
 3187SOL    HW126703   0.531   1.227   1.290
 3187SOL    HW226704   0.521   1.085   1.240
 3188SOL     OW26705   0.931   3.252   0.415
 3188SOL    HW126706   0.933   3.175   0.359
 3188SOL    HW226707   0.934   3.218   0.505
 3189SOL     OW26708   5.503   5.484   6.083
 3189SOL    HW126709   5.511   5.453   5.993
 3189SOL    HW226710   5.550   5.418   6.135
 3190SOL     OW26711   4.732   0.959   0.516
 3190SOL    HW126712   4.778   0.986   0.596
 3190SOL    HW226713   4.802   0.940   0.453
 3191SOL     OW26714   0.079   2.519   0.258
 3191SOL    HW126715   0.120   2.432   0.256
 3191SOL    HW226716   0.014   2.513   0.328
 3192SOL     OW26717   5.113   4.772   7.385
 3192SOL    HW126718   5.069   4.855   7.368
 3192SOL    HW226719   5.044   4.706   7.374
 3193SOL     OW26720   1.904   4.747   6.788
 3193SOL    HW126721   1.983   4.700   6.812
 3193SOL    HW226722   1.851   4.751   6.868
 3194SOL     OW26723   1.116   2.869   0.638
 3194SOL    HW126724   1.129   2.778   0.613
 3194SOL    HW226725   1.030   2.892   0.602
 3195SOL     OW26726   5.657   5.793   6.626
 3195SOL    HW126727   5.661   5.745   6.709
 3195SOL    HW226728   5.702   5.735   6.564
 3196SOL     OW26729   2.189   5.250   5.379
 3196SOL    HW126730   2.186   5.295   5.463
 3196SOL    HW226731   2.262   5.292   5.332
 3197SOL     OW26732   5.408   1.353   0.617
 3197SOL    HW126733   5.442   1.270   0.583
 3197SOL    HW226734   5.322   1.330   0.653
 3198SOL     OW26735   6.043   3.508   7.597
 3198SOL    HW126736   5.967   3.469   7.554
 3198SOL    HW226737   6.094   3.547   7.526
 3199SOL     OW26738   2.542   2.039   0.338
 3199SOL    HW126739   2.555   2.108   0.404
 3199SOL    HW226740   2.571   2.079   0.256
 3200SOL     OW26741   4.834   1.893   6.639
 3200SOL    HW126742   4.765   1.900   6.573
 3200SOL    HW226743   4.806   1.821   6.695
 3201SOL     OW26744   4.964   4.797   6.500
 3201SOL    HW126745   5.032   4.731   6.515
 3201SOL    HW226746   4.914   4.764   6.425
 3202SOL     OW26747   0.952   4.519   0.070
 3202SOL    HW126748   1.044   4.493   0.080
 3202SOL    HW226749   0.921   4.534   0.159
 3203SOL     OW26750   1.083   3.159   7.119
 3203SOL    HW126751   1.096   3.145   7.025
 3203SOL    HW226752   1.170   3.150   7.158
 3204SOL     OW26753   0.299   4.049   2.181
 3204SOL    HW126754   0.393   4.043   2.162
 3204SOL    HW226755   0.294   4.056   2.276
 3205SOL     OW26756   0.606   4.171   7.036
 3205SOL    HW126757   0.630   4.263   7.048
 3205SOL    HW226758   0.618   4.132   7.122
 3206SOL     OW26759   6.224   3.501   0.895
 3206SOL    HW126760   6.139   3.480   0.858
 3206SOL    HW226761   6.238   3.436   0.963
 3207SOL     OW26762   2.174   1.156   7.821
 3207SOL    HW126763   2.249   1.168   7.879
 3207SOL    HW226764   2.184   1.067   7.788
 3208SOL     OW26765   3.434   2.056   6.314
 3208SOL    HW126766   3.492   2.112   6.367
 3208SOL    HW226767   3.456   2.078   6.223
 3209SOL     OW26768   5.825   1.982   5.883
 3209SOL    HW126769   5.885   1.923   5.929
 3209SOL    HW226770   5.769   1.924   5.831
 3210SOL     OW26771   3.183   1.780   0.741
 3210SOL    HW126772   3.155   1.723   0.669
 3210SOL    HW226773   3.213   1.860   0.698
 3211SOL     OW26774   5.012   5.810   5.545
 3211SOL    HW126775   5.043   5.820   5.636
 3211SOL    HW226776   4.972   5.894   5.524
 3212SOL     OW26777   3.948   5.941   6.156
 3212SOL    HW126778   3.862   5.982   6.150
 3212SOL    HW226779   3.930   5.849   6.175
 3213SOL     OW26780   2.702   3.255   5.987
 3213SOL    HW126781   2.717   3.254   6.081
 3213SOL    HW226782   2.787   3.236   5.949
 3214SOL     OW26783   1.073   0.167   1.156
 3214SOL    HW126784   1.075   0.209   1.070
 3214SOL    HW226785   1.141   0.213   1.206
 3215SOL     OW26786   6.442   0.642   0.727
 3215SOL    HW126787   6.395   0.699   0.665
 3215SOL    HW226788   6.462   0.699   0.801
 3216SOL     OW26789   4.041   4.672   5.655
 3216SOL    HW126790   3.969   4.612   5.635
 3216SOL    HW226791   4.016   4.754   5.613
 3217SOL     OW26792   4.784   1.478   0.826
 3217SOL    HW126793   4.857   1.449   0.771
 3217SOL    HW226794   4.706   1.459   0.774
 3218SOL     OW26795   5.278   4.184   6.644
 3218SOL    HW126796   5.301   4.263   6.594
 3218SOL    HW226797   5.359   4.157   6.686
 3219SOL     OW26798   3.764   2.823   0.788
 3219SOL    HW126799   3.775   2.855   0.699
 3219SOL    HW226800   3.853   2.817   0.823
 3220SOL     OW26801   2.928   5.798   1.394
 3220SOL    HW126802   2.998   5.858   1.420
 3220SOL    HW226803   2.847   5.841   1.423
 3221SOL     OW26804   1.144   5.959   7.465
 3221SOL    HW126805   1.206   6.020   7.424
 3221SOL    HW226806   1.132   5.891   7.399
 3222SOL     OW26807   2.813   5.015   0.379
 3222SOL    HW126808   2.859   4.954   0.321
 3222SOL    HW226809   2.839   5.102   0.349
 3223SOL     OW26810   1.001   6.211   5.560
 3223SOL    HW126811   0.940   6.258   5.617
 3223SOL    HW226812   1.018   6.128   5.605
 3224SOL     OW26813   2.768   1.298   7.438
 3224SOL    HW126814   2.754   1.306   7.343
 3224SOL    HW226815   2.768   1.204   7.454
 3225SOL     OW26816   3.481   2.295   0.826
 3225SOL    HW126817   3.417   2.312   0.758
 3225SOL    HW226818   3.431   2.292   0.907
 3226SOL     OW26819   5.050   4.444   0.291
 3226SOL    HW126820   4.956   4.435   0.307
 3226SOL    HW226821   5.058   4.446   0.196
 3227SOL     OW26822   5.919   4.668   7.367
 3227SOL    HW126823   5.856   4.692   7.435
 3227SOL    HW226824   5.994   4.726   7.381
 3228SOL     OW26825   3.965   0.509   6.998
 3228SOL    HW126826   4.004   0.553   7.074
 3228SOL    HW226827   3.907   0.443   7.036
 3229SOL     OW26828   2.537   1.145   0.895
 3229SOL    HW126829   2.576   1.063   0.865
 3229SOL    HW226830   2.516   1.192   0.814
 3230SOL     OW26831   3.615   4.803   7.631
 3230SOL    HW126832   3.689   4.806   7.692
 3230SOL    HW226833   3.579   4.714   7.642
 3231SOL     OW26834   6.027   1.423   6.924
 3231SOL    HW126835   5.988   1.397   6.841
 3231SOL    HW226836   5.956   1.462   6.974
 3232SOL     OW26837   5.526   2.626   6.925
 3232SOL    HW126838   5.453   2.566   6.940
 3232SOL    HW226839   5.597   2.590   6.978
 3233SOL     OW26840   2.089   5.351   6.158
 3233SOL    HW126841   2.021   5.295   6.122
 3233SOL    HW226842   2.161   5.346   6.095
 3234SOL     OW26843   5.768   0.441   6.465
 3234SOL    HW126844   5.731   0.376   6.405
 3234SOL    HW226845   5.760   0.402   6.552
 3235SOL     OW26846   6.249   6.012   6.577
 3235SOL    HW126847   6.304   5.974   6.508
 3235SOL    HW226848   6.301   6.084   6.612
 3236SOL     OW26849   3.526   1.975   0.814
 3236SOL    HW126850   3.479   2.016   0.887
 3236SOL    HW226851   3.504   1.883   0.819
 3237SOL     OW26852   2.265   0.010   1.480
 3237SOL    HW126853   2.229  -0.030   1.401
 3237SOL    HW226854   2.207   0.083   1.499
 3238SOL     OW26855   6.037   5.270   7.812
 3238SOL    HW126856   5.999   5.348   7.854
 3238SOL    HW226857   6.065   5.300   7.726
 3239SOL     OW26858   2.681   3.862   7.556
 3239SOL    HW126859   2.604   3.876   7.501
 3239SOL    HW226860   2.717   3.778   7.525
 3240SOL     OW26861   1.536   1.908   6.091
 3240SOL    HW126862   1.552   1.853   6.168
 3240SOL    HW226863   1.576   1.993   6.113
 3241SOL     OW26864   0.251   1.522   7.022
 3241SOL    HW126865   0.226   1.429   7.016
 3241SOL    HW226866   0.214   1.562   6.943
 3242SOL     OW26867   0.061   6.260   1.320
 3242SOL    HW126868   0.062   6.316   1.398
 3242SOL    HW226869  -0.014   6.202   1.334
 3243SOL     OW26870   0.316   1.311   1.482
 3243SOL    HW126871   0.233   1.272   1.453
 3243SOL    HW226872   0.383   1.261   1.436
 3244SOL     OW26873   0.939   2.678   7.523
 3244SOL    HW126874   0.844   2.686   7.531
 3244SOL    HW226875   0.969   2.767   7.505
 3245SOL     OW26876   1.529   5.760   7.127
 3245SOL    HW126877   1.512   5.763   7.221
 3245SOL    HW226878   1.482   5.683   7.096
 3246SOL     OW26879   5.885   0.989   6.890
 3246SOL    HW126880   5.962   0.964   6.839
 3246SOL    HW226881   5.916   1.058   6.948
 3247SOL     OW26882   1.839   2.530   0.436
 3247SOL    HW126883   1.746   2.524   0.414
 3247SOL    HW226884   1.871   2.604   0.384
 3248SOL     OW26885   4.701   0.217   1.381
 3248SOL    HW126886   4.620   0.174   1.407
 3248SOL    HW226887   4.674   0.299   1.341
 3249SOL     OW26888   2.126   1.086   1.726
 3249SOL    HW126889   2.035   1.106   1.749
 3249SOL    HW226890   2.171   1.080   1.810
 3250SOL     OW26891   5.769   4.484   6.746
 3250SOL    HW126892   5.738   4.416   6.805
 3250SOL    HW226893   5.864   4.472   6.743
 3251SOL     OW26894   3.067   0.981   1.249
 3251SOL    HW126895   3.020   0.961   1.167
 3251SOL    HW226896   3.003   0.962   1.318
 3252SOL     OW26897   5.788   2.118   0.013
 3252SOL    HW126898   5.771   2.027   0.037
 3252SOL    HW226899   5.829   2.156   0.091
 3253SOL     OW26900   1.676   4.075   0.961
 3253SOL    HW126901   1.594   4.110   0.996
 3253SOL    HW226902   1.648   4.017   0.889
 3254SOL     OW26903   0.390   3.845   6.500
 3254SOL    HW126904   0.380   3.875   6.410
 3254SOL    HW226905   0.475   3.880   6.528
 3255SOL     OW26906   0.914   4.399   6.064
 3255SOL    HW126907   0.886   4.407   5.973
 3255SOL    HW226908   0.834   4.379   6.113
 3256SOL     OW26909   5.983   3.628   0.312
 3256SOL    HW126910   6.004   3.605   0.221
 3256SOL    HW226911   6.041   3.700   0.333
 3257SOL     OW26912   4.751   4.335   7.338
 3257SOL    HW126913   4.764   4.280   7.416
 3257SOL    HW226914   4.773   4.277   7.264
 3258SOL     OW26915   0.724   1.547   6.438
 3258SOL    HW126916   0.632   1.565   6.417
 3258SOL    HW226917   0.772   1.579   6.362
 3259SOL     OW26918   0.894   0.329   7.813
 3259SOL    HW126919   0.859   0.242   7.794
 3259SOL    HW226920   0.907   0.330   7.908
 3260SOL     OW26921   0.260   3.112   6.091
 3260SOL    HW126922   0.203   3.049   6.046
 3260SOL    HW226923   0.201   3.165   6.144
 3261SOL     OW26924   1.683   4.099   1.788
 3261SOL    HW126925   1.674   4.169   1.723
 3261SOL    HW226926   1.647   4.137   1.868
 3262SOL     OW26927   2.012   2.355   7.602
 3262SOL    HW126928   2.088   2.307   7.633
 3262SOL    HW226929   1.954   2.287   7.567
 3263SOL     OW26930   0.822   0.655   0.047
 3263SOL    HW126931   0.891   0.686   0.106
 3263SOL    HW226932   0.787   0.734   0.007
 3264SOL     OW26933   6.018   1.837   0.688
 3264SOL    HW126934   6.085   1.770   0.700
 3264SOL    HW226935   6.015   1.884   0.772
 3265SOL     OW26936   4.875   0.392   1.621
 3265SOL    HW126937   4.880   0.297   1.620
 3265SOL    HW226938   4.904   0.416   1.709
 3266SOL     OW26939   3.033   5.532   0.268
 3266SOL    HW126940   3.086   5.592   0.322
 3266SOL    HW226941   2.962   5.587   0.235
 3267SOL     OW26942   0.155   2.775   0.102
 3267SOL    HW126943   0.072   2.818   0.119
 3267SOL    HW226944   0.153   2.695   0.155
 3268SOL     OW26945   4.272   1.786   7.382
 3268SOL    HW126946   4.324   1.843   7.325
 3268SOL    HW226947   4.330   1.766   7.455
 3269SOL     OW26948   3.553   0.353   7.610
 3269SOL    HW126949   3.607   0.432   7.607
 3269SOL    HW226950   3.474   0.376   7.561
 3270SOL     OW26951   2.448   3.411   1.263
 3270SOL    HW126952   2.418   3.501   1.266
 3270SOL    HW226953   2.492   3.398   1.347
 3271SOL     OW26954   5.587   1.269   6.228
 3271SOL    HW126955   5.505   1.232   6.198
 3271SOL    HW226956   5.650   1.246   6.159
 3272SOL     OW26957   5.100   6.183   0.754
 3272SOL    HW126958   5.190   6.213   0.763
 3272SOL    HW226959   5.107   6.089   0.739
 3273SOL     OW26960   3.294   0.972   5.711
 3273SOL    HW126961   3.385   0.988   5.685
 3273SOL    HW226962   3.259   1.058   5.732
 3274SOL     OW26963   1.521   0.086   1.346
 3274SOL    HW126964   1.578   0.105   1.271
 3274SOL    HW226965   1.501  -0.007   1.337
 3275SOL     OW26966   6.229   1.214   7.550
 3275SOL    HW126967   6.144   1.227   7.591
 3275SOL    HW226968   6.259   1.303   7.528
 3276SOL     OW26969   3.269   4.165   5.735
 3276SOL    HW126970   3.302   4.142   5.648
 3276SOL    HW226971   3.348   4.182   5.787
 3277SOL     OW26972   4.766   4.725   6.873
 3277SOL    HW126973   4.724   4.702   6.956
 3277SOL    HW226974   4.771   4.643   6.824
 3278SOL     OW26975   2.062   4.492   6.587
 3278SOL    HW126976   2.141   4.492   6.642
 3278SOL    HW226977   2.022   4.406   6.603
 3279SOL     OW26978   5.427   6.345   1.710
 3279SOL    HW126979   5.497   6.324   1.648
 3279SOL    HW226980   5.391   6.429   1.679
 3280SOL     OW26981   4.597   0.044   6.731
 3280SOL    HW126982   4.666   0.029   6.796
 3280SOL    HW226983   4.643   0.070   6.652
 3281SOL     OW26984   4.042   5.558   5.295
 3281SOL    HW126985   4.098   5.618   5.345
 3281SOL    HW226986   4.101   5.487   5.269
 3282SOL     OW26987   3.238   3.803   0.266
 3282SOL    HW126988   3.191   3.878   0.302
 3282SOL    HW226989   3.320   3.838   0.234
 3283SOL     OW26990   4.166   1.881   7.649
 3283SOL    HW126991   4.173   1.945   7.579
 3283SOL    HW226992   4.090   1.910   7.700
 3284SOL     OW26993   4.371   3.834   0.194
 3284SOL    HW126994   4.286   3.830   0.149
 3284SOL    HW226995   4.433   3.859   0.125
 3285SOL     OW26996   0.850   4.734   0.640
 3285SOL    HW126997   0.799   4.653   0.629
 3285SOL    HW226998   0.820   4.770   0.723
 3286SOL     OW26999   1.818   1.260   1.870
 3286SOL    HW127000   1.843   1.352   1.871
 3286SOL    HW227001   1.874   1.219   1.936
 3287SOL     OW27002   1.532   5.178   7.049
 3287SOL    HW127003   1.570   5.227   7.122
 3287SOL    HW227004   1.439   5.200   7.053
 3288SOL     OW27005   2.207   3.892   6.020
 3288SOL    HW127006   2.279   3.884   6.083
 3288SOL    HW227007   2.148   3.956   6.059
 3289SOL     OW27008   2.939   3.652   6.243
 3289SOL    HW127009   2.918   3.653   6.336
 3289SOL    HW227010   3.006   3.719   6.232
 3290SOL     OW27011   0.590   2.615   5.991
 3290SOL    HW127012   0.514   2.673   5.994
 3290SOL    HW227013   0.636   2.632   6.073
 3291SOL     OW27014   5.240   6.004   1.242
 3291SOL    HW127015   5.193   5.997   1.158
 3291SOL    HW227016   5.331   5.981   1.220
 3292SOL     OW27017   5.381   2.225   1.016
 3292SOL    HW127018   5.339   2.139   1.014
 3292SOL    HW227019   5.333   2.277   0.952
 3293SOL     OW27020   5.031   3.582   7.198
 3293SOL    HW127021   5.072   3.637   7.265
 3293SOL    HW227022   4.960   3.635   7.163
 3294SOL     OW27023   2.434   6.081   5.967
 3294SOL    HW127024   2.375   6.151   5.993
 3294SOL    HW227025   2.461   6.039   6.049
 3295SOL     OW27026   2.524   1.619   5.469
 3295SOL    HW127027   2.510   1.539   5.519
 3295SOL    HW227028   2.579   1.593   5.395
 3296SOL     OW27029   5.840   3.345   0.041
 3296SOL    HW127030   5.857   3.428  -0.002
 3296SOL    HW227031   5.790   3.294  -0.023
 3297SOL     OW27032   5.510   1.498   6.407
 3297SOL    HW127033   5.575   1.436   6.375
 3297SOL    HW227034   5.434   1.485   6.351
 3298SOL     OW27035   3.614   0.885   1.937
 3298SOL    HW127036   3.683   0.822   1.960
 3298SOL    HW227037   3.639   0.966   1.980
 3299SOL     OW27038   5.738   0.021   0.678
 3299SOL    HW127039   5.787   0.097   0.710
 3299SOL    HW227040   5.761   0.016   0.585
 3300SOL     OW27041   2.031   2.837   0.533
 3300SOL    HW127042   2.065   2.926   0.527
 3300SOL    HW227043   2.097   2.783   0.491
 3301SOL     OW27044   0.232   2.270   6.681
 3301SOL    HW127045   0.270   2.271   6.769
 3301SOL    HW227046   0.304   2.247   6.623
 3302SOL     OW27047   0.876   3.787   5.322
 3302SOL    HW127048   0.824   3.754   5.249
 3302SOL    HW227049   0.950   3.727   5.328
 3303SOL     OW27050   5.397   1.007   7.085
 3303SOL    HW127051   5.352   0.978   7.006
 3303SOL    HW227052   5.486   0.974   7.076
 3304SOL     OW27053   0.548   3.360   0.546
 3304SOL    HW127054   0.553   3.337   0.453
 3304SOL    HW227055   0.631   3.405   0.564
 3305SOL     OW27056   2.006   6.294   5.942
 3305SOL    HW127057   1.959   6.309   5.860
 3305SOL    HW227058   1.945   6.320   6.010
 3306SOL     OW27059   1.718   3.512   7.257
 3306SOL    HW127060   1.647   3.566   7.225
 3306SOL    HW227061   1.754   3.560   7.332
 3307SOL     OW27062   1.920   0.623   6.962
 3307SOL    HW127063   1.967   0.612   6.879
 3307SOL    HW227064   1.864   0.545   6.968
 3308SOL     OW27065   1.763   3.667   7.497
 3308SOL    HW127066   1.855   3.642   7.496
 3308SOL    HW227067   1.725   3.615   7.568
 3309SOL     OW27068   0.871   2.429   0.040
 3309SOL    HW127069   0.804   2.443  -0.026
 3309SOL    HW227070   0.953   2.428  -0.008
 3310SOL     OW27071   1.024   5.417   5.890
 3310SOL    HW127072   1.102   5.379   5.850
 3310SOL    HW227073   0.975   5.454   5.817
 3311SOL     OW27074   0.936   4.870   1.114
 3311SOL    HW127075   0.961   4.826   1.195
 3311SOL    HW227076   1.018   4.887   1.069
 3312SOL     OW27077   2.152   0.239   1.400
 3312SOL    HW127078   2.123   0.318   1.447
 3312SOL    HW227079   2.097   0.237   1.321
 3313SOL     OW27080   6.226   5.798   6.736
 3313SOL    HW127081   6.237   5.878   6.685
 3313SOL    HW227082   6.216   5.729   6.671
 3314SOL     OW27083   1.413   4.541   1.832
 3314SOL    HW127084   1.395   4.634   1.842
 3314SOL    HW227085   1.445   4.514   1.918
 3315SOL     OW27086   3.926   4.302   0.028
 3315SOL    HW127087   3.948   4.235  -0.037
 3315SOL    HW227088   3.941   4.385  -0.018
 3316SOL     OW27089   3.426   4.250   7.043
 3316SOL    HW127090   3.461   4.338   7.053
 3316SOL    HW227091   3.458   4.221   6.957
 3317SOL     OW27092   5.012   3.566   6.483
 3317SOL    HW127093   5.043   3.572   6.393
 3317SOL    HW227094   5.055   3.488   6.518
 3318SOL     OW27095   4.611   4.497   7.788
 3318SOL    HW127096   4.576   4.532   7.870
 3318SOL    HW227097   4.553   4.424   7.766
 3319SOL     OW27098   1.552   4.809   0.258
 3319SOL    HW127099   1.573   4.797   0.351
 3319SOL    HW227100   1.457   4.799   0.253
 3320SOL     OW27101   5.444   3.221   0.207
 3320SOL    HW127102   5.477   3.131   0.202
 3320SOL    HW227103   5.513   3.269   0.253
 3321SOL     OW27104   3.430   4.610   0.916
 3321SOL    HW127105   3.344   4.569   0.925
 3321SOL    HW227106   3.411   4.704   0.915
 3322SOL     OW27107   0.059   5.029   6.729
 3322SOL    HW127108  -0.007   5.008   6.664
 3322SOL    HW227109   0.033   4.980   6.807
 3323SOL     OW27110   5.970   1.111   6.289
 3323SOL    HW127111   5.949   1.192   6.241
 3323SOL    HW227112   5.991   1.048   6.220
 3324SOL     OW27113   6.294   0.854   0.597
 3324SOL    HW127114   6.301   0.912   0.521
 3324SOL    HW227115   6.331   0.905   0.669
 3325SOL     OW27116   3.101   4.913   7.492
 3325SOL    HW127117   3.006   4.911   7.506
 3325SOL    HW227118   3.133   4.974   7.559
 3326SOL     OW27119   3.370   5.066   0.147
 3326SOL    HW127120   3.368   5.161   0.140
 3326SOL    HW227121   3.302   5.044   0.211
 3327SOL     OW27122   5.868   2.731   0.826
 3327SOL    HW127123   5.943   2.741   0.885
 3327SOL    HW227124   5.860   2.817   0.784
 3328SOL     OW27125   1.721   0.132   5.585
 3328SOL    HW127126   1.659   0.109   5.515
 3328SOL    HW227127   1.767   0.208   5.551
 3329SOL     OW27128   6.090   4.956   1.532
 3329SOL    HW127129   6.087   5.034   1.587
 3329SOL    HW227130   6.155   4.900   1.573
 3330SOL     OW27131   2.299   0.128   0.652
 3330SOL    HW127132   2.289   0.077   0.572
 3330SOL    HW227133   2.251   0.209   0.635
 3331SOL     OW27134   2.971   2.198   7.382
 3331SOL    HW127135   2.978   2.259   7.309
 3331SOL    HW227136   2.980   2.252   7.460
 3332SOL     OW27137   5.766   5.913   6.890
 3332SOL    HW127138   5.815   5.949   6.816
 3332SOL    HW227139   5.684   5.961   6.890
 3333SOL     OW27140   2.906   0.524   7.468
 3333SOL    HW127141   2.881   0.487   7.553
 3333SOL    HW227142   2.834   0.499   7.409
 3334SOL     OW27143   2.180   2.696   6.737
 3334SOL    HW127144   2.225   2.706   6.653
 3334SOL    HW227145   2.201   2.607   6.765
 3335SOL     OW27146   3.606   5.817   7.023
 3335SOL    HW127147   3.521   5.773   7.024
 3335SOL    HW227148   3.659   5.766   6.962
 3336SOL     OW27149   2.325   0.380   2.054
 3336SOL    HW127150   2.328   0.365   1.960
 3336SOL    HW227151   2.417   0.377   2.081
 3337SOL     OW27152   1.952   5.153   5.685
 3337SOL    HW127153   1.941   5.247   5.672
 3337SOL    HW227154   1.874   5.114   5.645
 3338SOL     OW27155   4.132   3.972   2.391
 3338SOL    HW127156   4.207   3.984   2.448
 3338SOL    HW227157   4.167   3.929   2.313
 3339SOL     OW27158   0.238   0.095   0.718
 3339SOL    HW127159   0.329   0.073   0.734
 3339SOL    HW227160   0.222   0.171   0.775
 3340SOL     OW27161   6.173   0.570   6.768
 3340SOL    HW127162   6.174   0.551   6.862
 3340SOL    HW227163   6.084   0.601   6.751
 3341SOL     OW27164   1.707   5.877   6.074
 3341SOL    HW127165   1.657   5.883   5.993
 3341SOL    HW227166   1.687   5.790   6.108
 3342SOL     OW27167   2.763   2.253   6.656
 3342SOL    HW127168   2.793   2.292   6.738
 3342SOL    HW227169   2.711   2.177   6.683
 3343SOL     OW27170   3.646   6.384   7.299
 3343SOL    HW127171   3.554   6.371   7.321
 3343SOL    HW227172   3.656   6.339   7.215
 3344SOL     OW27173   3.531   4.199   5.832
 3344SOL    HW127174   3.563   4.276   5.877
 3344SOL    HW227175   3.570   4.204   5.744
 3345SOL     OW27176   3.708   1.351   0.745
 3345SOL    HW127177   3.680   1.347   0.653
 3345SOL    HW227178   3.634   1.315   0.794
 3346SOL     OW27179   2.040   4.817   6.203
 3346SOL    HW127180   2.004   4.796   6.289
 3346SOL    HW227181   2.130   4.784   6.207
 3347SOL     OW27182   2.131   5.114   0.062
 3347SOL    HW127183   2.207   5.081   0.110
 3347SOL    HW227184   2.090   5.177   0.121
 3348SOL     OW27185   3.335   4.959   0.943
 3348SOL    HW127186   3.347   5.011   1.022
 3348SOL    HW227187   3.373   5.012   0.873
 3349SOL     OW27188   1.460   3.681   7.741
 3349SOL    HW127189   1.380   3.655   7.788
 3349SOL    HW227190   1.508   3.735   7.804
 3350SOL     OW27191   6.407   2.339   0.964
 3350SOL    HW127192   6.417   2.244   0.970
 3350SOL    HW227193   6.331   2.359   1.018
 3351SOL     OW27194   1.673   5.839   5.666
 3351SOL    HW127195   1.615   5.868   5.736
 3351SOL    HW227196   1.739   5.908   5.660
 3352SOL     OW27197   1.842   6.272   6.892
 3352SOL    HW127198   1.913   6.325   6.855
 3352SOL    HW227199   1.800   6.232   6.816
 3353SOL     OW27200   0.894   1.985   7.585
 3353SOL    HW127201   0.863   2.066   7.546
 3353SOL    HW227202   0.827   1.920   7.565
 3354SOL     OW27203   2.986   4.234   1.414
 3354SOL    HW127204   3.056   4.170   1.429
 3354SOL    HW227205   3.030   4.310   1.376
 3355SOL     OW27206   5.989   5.719   6.864
 3355SOL    HW127207   5.926   5.790   6.882
 3355SOL    HW227208   6.063   5.764   6.823
 3356SOL     OW27209   6.249   2.008   6.114
 3356SOL    HW127210   6.313   2.052   6.059
 3356SOL    HW227211   6.171   2.000   6.058
 3357SOL     OW27212   0.094   2.709   0.794
 3357SOL    HW127213   0.086   2.681   0.885
 3357SOL    HW227214   0.135   2.795   0.799
 3358SOL     OW27215   5.076   2.047   6.633
 3358SOL    HW127216   4.983   2.025   6.630
 3358SOL    HW227217   5.107   2.032   6.543
 3359SOL     OW27218   0.115   4.059   0.351
 3359SOL    HW127219   0.052   4.012   0.406
 3359SOL    HW227220   0.135   4.139   0.401
 3360SOL     OW27221   3.266   6.141   1.085
 3360SOL    HW127222   3.289   6.141   1.178
 3360SOL    HW227223   3.232   6.230   1.069
 3361SOL     OW27224   5.630   4.807   7.338
 3361SOL    HW127225   5.662   4.874   7.277
 3361SOL    HW227226   5.674   4.827   7.420
 3362SOL     OW27227   2.495   4.576   0.403
 3362SOL    HW127228   2.543   4.658   0.396
 3362SOL    HW227229   2.559   4.508   0.382
 3363SOL     OW27230   1.599   4.500   1.273
 3363SOL    HW127231   1.665   4.509   1.205
 3363SOL    HW227232   1.636   4.544   1.349
 3364SOL     OW27233   0.273   5.991   0.897
 3364SOL    HW127234   0.315   6.075   0.917
 3364SOL    HW227235   0.345   5.928   0.898
 3365SOL     OW27236   3.611   4.399   6.372
 3365SOL    HW127237   3.586   4.306   6.376
 3365SOL    HW227238   3.629   4.423   6.463
 3366SOL     OW27239   2.147   2.861   7.588
 3366SOL    HW127240   2.132   2.776   7.629
 3366SOL    HW227241   2.164   2.841   7.496
 3367SOL     OW27242   5.947   5.668   1.093
 3367SOL    HW127243   6.002   5.599   1.057
 3367SOL    HW227244   5.994   5.750   1.072
 3368SOL     OW27245   6.311   5.420   0.632
 3368SOL    HW127246   6.398   5.380   0.627
 3368SOL    HW227247   6.328   5.511   0.657
 3369SOL     OW27248   5.707   4.893   2.152
 3369SOL    HW127249   5.803   4.891   2.152
 3369SOL    HW227250   5.685   4.953   2.081
 3370SOL     OW27251   0.923   0.938   1.051
 3370SOL    HW127252   0.903   0.845   1.047
 3370SOL    HW227253   0.852   0.979   1.001
 3371SOL     OW27254   0.917   6.396   7.232
 3371SOL    HW127255   0.986   6.450   7.269
 3371SOL    HW227256   0.939   6.387   7.139
 3372SOL     OW27257   1.849   2.162   1.317
 3372SOL    HW127258   1.943   2.155   1.296
 3372SOL    HW227259   1.807   2.101   1.257
 3373SOL     OW27260   2.443   5.030   7.762
 3373SOL    HW127261   2.400   5.077   7.690
 3373SOL    HW227262   2.450   4.940   7.730
 3374SOL     OW27263   1.839   5.993   7.537
 3374SOL    HW127264   1.768   6.057   7.527
 3374SOL    HW227265   1.797   5.917   7.579
 3375SOL     OW27266   4.627   5.795   1.359
 3375SOL    HW127267   4.624   5.701   1.343
 3375SOL    HW227268   4.596   5.806   1.449
 3376SOL     OW27269   2.883   4.309   7.213
 3376SOL    HW127270   2.915   4.314   7.303
 3376SOL    HW227271   2.935   4.239   7.173
 3377SOL     OW27272   0.625   5.579   7.680
 3377SOL    HW127273   0.660   5.646   7.740
 3377SOL    HW227274   0.702   5.528   7.655
 3378SOL     OW27275   2.564   4.614   7.455
 3378SOL    HW127276   2.576   4.559   7.378
 3378SOL    HW227277   2.539   4.553   7.525
 3379SOL     OW27278   5.931   3.996   0.496
 3379SOL    HW127279   6.013   4.035   0.527
 3379SOL    HW227280   5.949   3.970   0.406
 3380SOL     OW27281   3.426   3.100   5.146
 3380SOL    HW127282   3.512   3.113   5.186
 3380SOL    HW227283   3.385   3.187   5.149
 3381SOL     OW27284   4.464   3.369   0.718
 3381SOL    HW127285   4.536   3.423   0.685
 3381SOL    HW227286   4.394   3.432   0.736
 3382SOL     OW27287   0.501   4.578   6.757
 3382SOL    HW127288   0.504   4.673   6.764
 3382SOL    HW227289   0.419   4.553   6.800
 3383SOL     OW27290   3.910   4.550   6.579
 3383SOL    HW127291   3.951   4.483   6.633
 3383SOL    HW227292   3.959   4.547   6.497
 3384SOL     OW27293   3.848   4.006   6.287
 3384SOL    HW127294   3.836   3.912   6.302
 3384SOL    HW227295   3.841   4.015   6.192
 3385SOL     OW27296   0.277   2.845   6.234
 3385SOL    HW127297   0.226   2.769   6.207
 3385SOL    HW227298   0.229   2.920   6.199
 3386SOL     OW27299   1.391   3.857   0.596
 3386SOL    HW127300   1.302   3.841   0.564
 3386SOL    HW227301   1.427   3.920   0.533
 3387SOL     OW27302   6.427   4.798   5.614
 3387SOL    HW127303   6.349   4.775   5.664
 3387SOL    HW227304   6.399   4.869   5.557
 3388SOL     OW27305   5.663   4.381   0.951
 3388SOL    HW127306   5.745   4.342   0.921
 3388SOL    HW227307   5.686   4.423   1.034
 3389SOL     OW27308   0.813   3.439   0.705
 3389SOL    HW127309   0.827   3.380   0.778
 3389SOL    HW227310   0.890   3.429   0.650
 3390SOL     OW27311   0.477   4.268   5.592
 3390SOL    HW127312   0.383   4.282   5.608
 3390SOL    HW227313   0.517   4.352   5.614
 3391SOL     OW27314   5.467   3.008   7.772
 3391SOL    HW127315   5.525   3.011   7.696
 3391SOL    HW227316   5.525   2.993   7.847
 3392SOL     OW27317   4.918   5.595   6.354
 3392SOL    HW127318   4.882   5.588   6.266
 3392SOL    HW227319   4.841   5.595   6.411
 3393SOL     OW27320   2.484   1.085   1.963
 3393SOL    HW127321   2.392   1.107   1.978
 3393SOL    HW227322   2.511   1.039   2.043
 3394SOL     OW27323   5.241   0.595   2.179
 3394SOL    HW127324   5.153   0.580   2.144
 3394SOL    HW227325   5.258   0.519   2.234
 3395SOL     OW27326   3.403   3.885   0.926
 3395SOL    HW127327   3.499   3.881   0.924
 3395SOL    HW227328   3.375   3.824   0.858
 3396SOL     OW27329   2.743   4.118   5.186
 3396SOL    HW127330   2.836   4.132   5.206
 3396SOL    HW227331   2.702   4.203   5.201
 3397SOL     OW27332   2.349   5.738   6.176
 3397SOL    HW127333   2.333   5.669   6.241
 3397SOL    HW227334   2.413   5.699   6.116
 3398SOL     OW27335   2.087   2.045   5.179
 3398SOL    HW127336   2.115   2.100   5.253
 3398SOL    HW227337   2.163   1.990   5.160
 3399SOL     OW27338   1.682   4.305   6.406
 3399SOL    HW127339   1.765   4.304   6.357
 3399SOL    HW227340   1.632   4.376   6.368
 3400SOL     OW27341   3.006   3.848   0.842
 3400SOL    HW127342   2.938   3.841   0.776
 3400SOL    HW227343   3.047   3.761   0.844
 3401SOL     OW27344   4.952   6.069   1.425
 3401SOL    HW127345   4.935   5.994   1.482
 3401SOL    HW227346   4.945   6.034   1.336
 3402SOL     OW27347   4.948   1.874   1.046
 3402SOL    HW127348   4.993   1.810   0.991
 3402SOL    HW227349   4.993   1.869   1.130
 3403SOL     OW27350   5.330   1.969   1.251
 3403SOL    HW127351   5.393   2.040   1.241
 3403SOL    HW227352   5.375   1.892   1.216
 3404SOL     OW27353   4.365   1.247   6.907
 3404SOL    HW127354   4.446   1.199   6.928
 3404SOL    HW227355   4.298   1.179   6.901
 3405SOL     OW27356   2.327   4.358   0.995
 3405SOL    HW127357   2.319   4.350   1.090
 3405SOL    HW227358   2.390   4.291   0.970
 3406SOL     OW27359   4.967   2.210   1.842
 3406SOL    HW127360   4.898   2.170   1.790
 3406SOL    HW227361   4.956   2.304   1.830
 3407SOL     OW27362   3.947   1.095   1.369
 3407SOL    HW127363   3.972   1.138   1.287
 3407SOL    HW227364   3.966   1.160   1.437
 3408SOL     OW27365   0.929   1.979   6.950
 3408SOL    HW127366   0.909   1.886   6.952
 3408SOL    HW227367   0.845   2.021   6.930
 3409SOL     OW27368   3.040   3.215   6.726
 3409SOL    HW127369   3.014   3.191   6.638
 3409SOL    HW227370   3.097   3.144   6.755
 3410SOL     OW27371   4.065   5.964   1.768
 3410SOL    HW127372   4.053   5.931   1.857
 3410SOL    HW227373   4.008   5.910   1.714
 3411SOL     OW27374   2.940   3.152   0.559
 3411SOL    HW127375   2.847   3.141   0.538
 3411SOL    HW227376   2.941   3.168   0.654
 3412SOL     OW27377   0.694   2.661   6.229
 3412SOL    HW127378   0.778   2.698   6.255
 3412SOL    HW227379   0.632   2.693   6.295
 3413SOL     OW27380   2.060   3.649   7.485
 3413SOL    HW127381   2.115   3.571   7.489
 3413SOL    HW227382   2.058   3.683   7.574
 3414SOL     OW27383   2.115   2.121   0.855
 3414SOL    HW127384   2.049   2.164   0.801
 3414SOL    HW227385   2.170   2.192   0.887
 3415SOL     OW27386   1.460   6.017   6.534
 3415SOL    HW127387   1.512   5.961   6.477
 3415SOL    HW227388   1.384   6.042   6.481
 3416SOL     OW27389   0.477   4.884   0.578
 3416SOL    HW127390   0.461   4.791   0.593
 3416SOL    HW227391   0.568   4.888   0.550
 3417SOL     OW27392   1.933   2.158   0.121
 3417SOL    HW127393   1.879   2.220   0.072
 3417SOL    HW227394   1.956   2.090   0.057
 3418SOL     OW27395   4.506   1.988   6.869
 3418SOL    HW127396   4.466   1.927   6.931
 3418SOL    HW227397   4.580   2.026   6.917
 3419SOL     OW27398   1.396   4.305   6.250
 3419SOL    HW127399   1.446   4.350   6.182
 3419SOL    HW227400   1.322   4.266   6.204
 3420SOL     OW27401   6.163   4.638   0.905
 3420SOL    HW127402   6.120   4.700   0.846
 3420SOL    HW227403   6.256   4.662   0.900
 3421SOL     OW27404   2.259   1.524   1.129
 3421SOL    HW127405   2.254   1.497   1.220
 3421SOL    HW227406   2.337   1.479   1.095
 3422SOL     OW27407   6.164   4.547   0.242
 3422SOL    HW127408   6.145   4.533   0.334
 3422SOL    HW227409   6.154   4.461   0.202
 3423SOL     OW27410   1.087   3.662   6.670
 3423SOL    HW127411   1.133   3.745   6.681
 3423SOL    HW227412   0.997   3.680   6.699
 3424SOL     OW27413   2.594   0.748   1.037
 3424SOL    HW127414   2.667   0.785   1.088
 3424SOL    HW227415   2.517   0.761   1.093
 3425SOL     OW27416   3.483   3.068   2.341
 3425SOL    HW127417   3.421   3.140   2.334
 3425SOL    HW227418   3.448   3.000   2.284
 3426SOL     OW27419   3.119   4.617   6.200
 3426SOL    HW127420   3.050   4.559   6.169
 3426SOL    HW227421   3.074   4.700   6.218
 3427SOL     OW27422   1.701   0.149   1.141
 3427SOL    HW127423   1.766   0.083   1.119
 3427SOL    HW227424   1.700   0.208   1.066
 3428SOL     OW27425   3.261   0.020   0.398
 3428SOL    HW127426   3.225  -0.056   0.445
 3428SOL    HW227427   3.287  -0.014   0.313
 3429SOL     OW27428   1.843   6.389   5.731
 3429SOL    HW127429   1.881   6.343   5.656
 3429SOL    HW227430   1.804   6.468   5.693
 3430SOL     OW27431   3.697   2.497   0.987
 3430SOL    HW127432   3.734   2.422   0.941
 3430SOL    HW227433   3.607   2.503   0.956
 3431SOL     OW27434   2.902   1.353   7.029
 3431SOL    HW127435   2.847   1.413   6.979
 3431SOL    HW227436   2.840   1.293   7.070
 3432SOL     OW27437   4.429   0.647   1.621
 3432SOL    HW127438   4.506   0.593   1.605
 3432SOL    HW227439   4.423   0.652   1.717
 3433SOL     OW27440   6.294   0.441   0.125
 3433SOL    HW127441   6.243   0.520   0.141
 3433SOL    HW227442   6.385   0.471   0.124
 3434SOL     OW27443   6.276   4.249   6.718
 3434SOL    HW127444   6.219   4.251   6.795
 3434SOL    HW227445   6.283   4.156   6.695
 3435SOL     OW27446   2.457   0.606   0.272
 3435SOL    HW127447   2.550   0.587   0.264
 3435SOL    HW227448   2.443   0.682   0.215
 3436SOL     OW27449   0.061   4.964   7.220
 3436SOL    HW127450   0.090   4.965   7.311
 3436SOL    HW227451   0.026   5.051   7.205
 3437SOL     OW27452   1.967   0.224   1.793
 3437SOL    HW127453   1.904   0.245   1.862
 3437SOL    HW227454   2.047   0.202   1.840
 3438SOL     OW27455   1.499   0.312   6.916
 3438SOL    HW127456   1.527   0.296   7.006
 3438SOL    HW227457   1.409   0.280   6.912
 3439SOL     OW27458   1.927   3.429   6.442
 3439SOL    HW127459   1.928   3.392   6.354
 3439SOL    HW227460   1.897   3.356   6.498
 3440SOL     OW27461   6.018   1.664   6.293
 3440SOL    HW127462   6.065   1.635   6.215
 3440SOL    HW227463   5.971   1.742   6.265
 3441SOL     OW27464   3.646   3.532   1.501
 3441SOL    HW127465   3.601   3.478   1.567
 3441SOL    HW227466   3.603   3.510   1.419
 3442SOL     OW27467   2.227   0.172   2.214
 3442SOL    HW127468   2.241   0.206   2.302
 3442SOL    HW227469   2.259   0.242   2.156
 3443SOL     OW27470   1.549   1.829   5.287
 3443SOL    HW127471   1.508   1.857   5.369
 3443SOL    HW227472   1.590   1.909   5.252
 3444SOL     OW27473   5.257   4.193   5.253
 3444SOL    HW127474   5.262   4.126   5.186
 3444SOL    HW227475   5.341   4.186   5.300
 3445SOL     OW27476   3.560   2.301   0.427
 3445SOL    HW127477   3.540   2.393   0.442
 3445SOL    HW227478   3.590   2.269   0.513
 3446SOL     OW27479   0.246   6.086   0.367
 3446SOL    HW127480   0.152   6.103   0.359
 3446SOL    HW227481   0.260   6.072   0.461
 3447SOL     OW27482   3.596   4.184   5.200
 3447SOL    HW127483   3.533   4.230   5.255
 3447SOL    HW227484   3.640   4.123   5.259
 3448SOL     OW27485   5.707   0.323   6.721
 3448SOL    HW127486   5.680   0.278   6.802
 3448SOL    HW227487   5.626   0.331   6.671
 3449SOL     OW27488   0.471   4.817   7.296
 3449SOL    HW127489   0.508   4.906   7.297
 3449SOL    HW227490   0.543   4.762   7.263
 3450SOL     OW27491   6.160   5.221   1.053
 3450SOL    HW127492   6.206   5.154   1.105
 3450SOL    HW227493   6.219   5.295   1.052
 3451SOL     OW27494   1.705   5.056   0.147
 3451SOL    HW127495   1.774   5.025   0.205
 3451SOL    HW227496   1.624   5.028   0.189
 3452SOL     OW27497   3.357   0.588   0.351
 3452SOL    HW127498   3.439   0.553   0.385
 3452SOL    HW227499   3.289   0.536   0.393
 3453SOL     OW27500   4.471   3.728   5.830
 3453SOL    HW127501   4.439   3.651   5.784
 3453SOL    HW227502   4.555   3.748   5.788
 3454SOL     OW27503   4.857   2.871   0.876
 3454SOL    HW127504   4.924   2.810   0.909
 3454SOL    HW227505   4.864   2.864   0.781
 3455SOL     OW27506   1.997   6.133   2.572
 3455SOL    HW127507   1.966   6.218   2.602
 3455SOL    HW227508   1.926   6.072   2.593
 3456SOL     OW27509   3.440   1.727   0.866
 3456SOL    HW127510   3.359   1.694   0.828
 3456SOL    HW227511   3.433   1.705   0.959
 3457SOL     OW27512   2.874   1.016   1.001
 3457SOL    HW127513   2.780   1.006   0.984
 3457SOL    HW227514   2.903   1.082   0.938
 3458SOL     OW27515   2.715   4.954   1.384
 3458SOL    HW127516   2.716   5.049   1.399
 3458SOL    HW227517   2.741   4.916   1.467
 3459SOL     OW27518   5.567   5.595   2.441
 3459SOL    HW127519   5.507   5.528   2.473
 3459SOL    HW227520   5.654   5.559   2.454
 3460SOL     OW27521   5.630   6.379   7.268
 3460SOL    HW127522   5.578   6.423   7.336
 3460SOL    HW227523   5.598   6.417   7.186
 3461SOL     OW27524   5.385   6.176   6.503
 3461SOL    HW127525   5.324   6.202   6.434
 3461SOL    HW227526   5.471   6.199   6.469
 3462SOL     OW27527   1.936   5.805   0.980
 3462SOL    HW127528   1.885   5.762   1.048
 3462SOL    HW227529   1.896   5.778   0.898
 3463SOL     OW27530   0.234   3.495   6.508
 3463SOL    HW127531   0.221   3.476   6.601
 3463SOL    HW227532   0.329   3.487   6.495
 3464SOL     OW27533   6.326   1.815   1.101
 3464SOL    HW127534   6.253   1.780   1.152
 3464SOL    HW227535   6.398   1.754   1.117
 3465SOL     OW27536   2.244   1.272   6.480
 3465SOL    HW127537   2.267   1.347   6.426
 3465SOL    HW227538   2.289   1.198   6.439
 3466SOL     OW27539   0.885   0.120   6.632
 3466SOL    HW127540   0.795   0.117   6.666
 3466SOL    HW227541   0.933   0.059   6.688
 3467SOL     OW27542   1.810   5.961   6.339
 3467SOL    HW127543   1.746   5.908   6.387
 3467SOL    HW227544   1.797   5.934   6.247
 3468SOL     OW27545   2.269   4.420   5.988
 3468SOL    HW127546   2.243   4.438   5.897
 3468SOL    HW227547   2.242   4.498   6.036
 3469SOL     OW27548   4.501   4.276   6.724
 3469SOL    HW127549   4.498   4.302   6.816
 3469SOL    HW227550   4.427   4.322   6.683
 3470SOL     OW27551   2.548   5.187   1.864
 3470SOL    HW127552   2.497   5.267   1.875
 3470SOL    HW227553   2.505   5.142   1.791
 3471SOL     OW27554   1.174   2.489   7.344
 3471SOL    HW127555   1.159   2.397   7.364
 3471SOL    HW227556   1.176   2.532   7.430
 3472SOL     OW27557   4.510   5.693   7.571
 3472SOL    HW127558   4.592   5.731   7.605
 3472SOL    HW227559   4.442   5.756   7.596
 3473SOL     OW27560   1.920   0.159   0.010
 3473SOL    HW127561   1.962   0.155   0.096
 3473SOL    HW227562   1.984   0.120  -0.049
 3474SOL     OW27563   3.671   1.460   7.665
 3474SOL    HW127564   3.590   1.415   7.640
 3474SOL    HW227565   3.673   1.454   7.761
 3475SOL     OW27566   4.217   2.762   1.093
 3475SOL    HW127567   4.303   2.758   1.052
 3475SOL    HW227568   4.234   2.756   1.187
 3476SOL     OW27569   5.326   1.778   7.733
 3476SOL    HW127570   5.388   1.848   7.714
 3476SOL    HW227571   5.378   1.698   7.726
 3477SOL     OW27572   0.223   3.996   1.226
 3477SOL    HW127573   0.258   3.995   1.137
 3477SOL    HW227574   0.145   4.051   1.220
 3478SOL     OW27575   2.935   6.370   0.661
 3478SOL    HW127576   2.894   6.307   0.721
 3478SOL    HW227577   2.980   6.432   0.718
 3479SOL     OW27578   1.747   3.635   6.413
 3479SOL    HW127579   1.788   3.702   6.468
 3479SOL    HW227580   1.810   3.562   6.413
 3480SOL     OW27581   0.834   1.916   6.577
 3480SOL    HW127582   0.888   1.841   6.599
 3480SOL    HW227583   0.890   1.992   6.593
 3481SOL     OW27584   2.632   3.915   7.059
 3481SOL    HW127585   2.607   4.007   7.052
 3481SOL    HW227586   2.693   3.912   7.133
 3482SOL     OW27587   4.303   2.592   5.682
 3482SOL    HW127588   4.349   2.583   5.599
 3482SOL    HW227589   4.230   2.531   5.676
 3483SOL     OW27590   0.778   1.900   1.074
 3483SOL    HW127591   0.747   1.990   1.078
 3483SOL    HW227592   0.858   1.904   1.021
 3484SOL     OW27593   5.680   1.792   5.628
 3484SOL    HW127594   5.659   1.710   5.584
 3484SOL    HW227595   5.739   1.837   5.568
 3485SOL     OW27596   2.658   4.786   1.813
 3485SOL    HW127597   2.587   4.819   1.757
 3485SOL    HW227598   2.649   4.691   1.809
 3486SOL     OW27599   4.843   4.235   7.080
 3486SOL    HW127600   4.903   4.182   7.132
 3486SOL    HW227601   4.898   4.302   7.040
 3487SOL     OW27602   5.606   5.228   7.185
 3487SOL    HW127603   5.571   5.200   7.100
 3487SOL    HW227604   5.562   5.311   7.203
 3488SOL     OW27605   1.028   3.650   1.800
 3488SOL    HW127606   1.049   3.557   1.794
 3488SOL    HW227607   1.112   3.693   1.816
 3489SOL     OW27608   5.299   0.590   0.455
 3489SOL    HW127609   5.356   0.645   0.402
 3489SOL    HW227610   5.242   0.653   0.500
 3490SOL     OW27611   3.675   5.234   1.224
 3490SOL    HW127612   3.758   5.190   1.206
 3490SOL    HW227613   3.695   5.298   1.292
 3491SOL     OW27614   1.926   4.384   0.387
 3491SOL    HW127615   1.831   4.374   0.384
 3491SOL    HW227616   1.941   4.478   0.373
 3492SOL     OW27617   3.434   1.140   1.754
 3492SOL    HW127618   3.374   1.168   1.685
 3492SOL    HW227619   3.460   1.051   1.728
 3493SOL     OW27620   5.689   2.531   0.121
 3493SOL    HW127621   5.655   2.442   0.126
 3493SOL    HW227622   5.615   2.584   0.092
 3494SOL     OW27623   6.337   1.009   0.824
 3494SOL    HW127624   6.359   1.068   0.896
 3494SOL    HW227625   6.242   1.000   0.829
 3495SOL     OW27626   4.752   3.050   1.784
 3495SOL    HW127627   4.703   3.063   1.865
 3495SOL    HW227628   4.838   3.020   1.813
 3496SOL     OW27629   2.896   3.469   5.723
 3496SOL    HW127630   2.943   3.452   5.642
 3496SOL    HW227631   2.963   3.461   5.791
 3497SOL     OW27632   5.411   5.474   7.782
 3497SOL    HW127633   5.395   5.568   7.785
 3497SOL    HW227634   5.418   5.455   7.688
 3498SOL     OW27635   3.786   2.271   6.879
 3498SOL    HW127636   3.854   2.206   6.864
 3498SOL    HW227637   3.759   2.258   6.969
 3499SOL     OW27638   4.182   4.792   4.953
 3499SOL    HW127639   4.118   4.858   4.978
 3499SOL    HW227640   4.208   4.751   5.036
 3500SOL     OW27641   3.268   2.371   1.479
 3500SOL    HW127642   3.191   2.355   1.424
 3500SOL    HW227643   3.256   2.314   1.554
 3501SOL     OW27644   3.890   6.320   6.057
 3501SOL    HW127645   3.870   6.380   5.985
 3501SOL    HW227646   3.807   6.309   6.103
 3502SOL     OW27647   0.462   0.054   5.019
 3502SOL    HW127648   0.419  -0.032   5.019
 3502SOL    HW227649   0.530   0.046   4.951
 3503SOL     OW27650   4.575   1.934   1.187
 3503SOL    HW127651   4.511   1.947   1.257
 3503SOL    HW227652   4.559   1.846   1.154
 3504SOL     OW27653   1.965   1.654   1.108
 3504SOL    HW127654   1.924   1.596   1.045
 3504SOL    HW227655   2.056   1.626   1.112
 3505SOL     OW27656   3.122   2.761   0.069
 3505SOL    HW127657   3.201   2.706   0.078
 3505SOL    HW227658   3.145   2.826   0.003
 3506SOL     OW27659   6.175   6.024   5.929
 3506SOL    HW127660   6.110   5.959   5.901
 3506SOL    HW227661   6.152   6.103   5.881
 3507SOL     OW27662   6.217   4.529   7.437
 3507SOL    HW127663   6.194   4.568   7.521
 3507SOL    HW227664   6.286   4.585   7.402
 3508SOL     OW27665   1.854   3.366   7.708
 3508SOL    HW127666   1.858   3.274   7.733
 3508SOL    HW227667   1.765   3.393   7.729
 3509SOL     OW27668   3.722   4.252   4.932
 3509SOL    HW127669   3.692   4.242   5.022
 3509SOL    HW227670   3.787   4.182   4.920
 3510SOL     OW27671   0.315   6.265   5.097
 3510SOL    HW127672   0.230   6.225   5.112
 3510SOL    HW227673   0.378   6.200   5.130
 3511SOL     OW27674   2.239   5.117   7.060
 3511SOL    HW127675   2.161   5.092   7.011
 3511SOL    HW227676   2.294   5.163   6.996
 3512SOL     OW27677   0.031   2.204   7.070
 3512SOL    HW127678   0.087   2.223   7.146
 3512SOL    HW227679  -0.058   2.215   7.103
 3513SOL     OW27680   0.474   2.748   1.024
 3513SOL    HW127681   0.566   2.736   1.047
 3513SOL    HW227682   0.426   2.695   1.087
 3514SOL     OW27683   0.321   0.576   0.072
 3514SOL    HW127684   0.399   0.565   0.018
 3514SOL    HW227685   0.248   0.576   0.010
 3515SOL     OW27686   4.172   5.651   0.994
 3515SOL    HW127687   4.192   5.566   1.034
 3515SOL    HW227688   4.158   5.631   0.902
 3516SOL     OW27689   0.238   6.239   6.268
 3516SOL    HW127690   0.259   6.242   6.174
 3516SOL    HW227691   0.143   6.224   6.270
 3517SOL     OW27692   4.718   5.210   6.308
 3517SOL    HW127693   4.757   5.223   6.394
 3517SOL    HW227694   4.637   5.261   6.311
 3518SOL     OW27695   0.361   2.351   0.480
 3518SOL    HW127696   0.369   2.272   0.533
 3518SOL    HW227697   0.284   2.396   0.514
 3519SOL     OW27698   4.049   4.029   0.216
 3519SOL    HW127699   4.002   4.026   0.134
 3519SOL    HW227700   4.105   4.107   0.209
 3520SOL     OW27701   4.465   1.682   6.917
 3520SOL    HW127702   4.397   1.619   6.941
 3520SOL    HW227703   4.446   1.704   6.826
 3521SOL     OW27704   4.371   3.540   5.672
 3521SOL    HW127705   4.295   3.481   5.669
 3521SOL    HW227706   4.359   3.598   5.597
 3522SOL     OW27707   0.270   5.207   7.122
 3522SOL    HW127708   0.175   5.202   7.130
 3522SOL    HW227709   0.285   5.245   7.035
 3523SOL     OW27710   1.997   2.581   7.403
 3523SOL    HW127711   2.012   2.518   7.473
 3523SOL    HW227712   2.070   2.642   7.409
 3524SOL     OW27713   0.171   4.075   6.514
 3524SOL    HW127714   0.209   4.101   6.430
 3524SOL    HW227715   0.246   4.060   6.571
 3525SOL     OW27716   2.548   4.323   0.613
 3525SOL    HW127717   2.497   4.397   0.578
 3525SOL    HW227718   2.487   4.249   0.611
 3526SOL     OW27719   3.242   3.212   0.616
 3526SOL    HW127720   3.202   3.146   0.560
 3526SOL    HW227721   3.314   3.247   0.564
 3527SOL     OW27722   4.510   4.691   2.014
 3527SOL    HW127723   4.518   4.611   2.066
 3527SOL    HW227724   4.532   4.761   2.076
 3528SOL     OW27725   1.676   2.338   0.584
 3528SOL    HW127726   1.597   2.322   0.635
 3528SOL    HW227727   1.644   2.374   0.501
 3529SOL     OW27728   1.233   6.359   5.465
 3529SOL    HW127729   1.190   6.440   5.441
 3529SOL    HW227730   1.166   6.309   5.512
 3530SOL     OW27731   4.730   5.826   0.905
 3530SOL    HW127732   4.686   5.901   0.866
 3530SOL    HW227733   4.659   5.765   0.926
 3531SOL     OW27734   3.568   0.485   0.485
 3531SOL    HW127735   3.590   0.394   0.504
 3531SOL    HW227736   3.614   0.535   0.552
 3532SOL     OW27737   0.498   2.173   6.201
 3532SOL    HW127738   0.544   2.091   6.183
 3532SOL    HW227739   0.462   2.200   6.117
 3533SOL     OW27740   4.857   4.063   0.503
 3533SOL    HW127741   4.762   4.076   0.502
 3533SOL    HW227742   4.869   3.971   0.478
 3534SOL     OW27743   2.890   5.758   5.515
 3534SOL    HW127744   2.814   5.747   5.458
 3534SOL    HW227745   2.879   5.844   5.555
 3535SOL     OW27746   5.338   0.533   1.343
 3535SOL    HW127747   5.246   0.543   1.315
 3535SOL    HW227748   5.334   0.471   1.417
 3536SOL     OW27749   5.887   6.151   7.379
 3536SOL    HW127750   5.807   6.140   7.328
 3536SOL    HW227751   5.940   6.074   7.356
 3537SOL     OW27752   1.392   0.480   0.687
 3537SOL    HW127753   1.422   0.531   0.763
 3537SOL    HW227754   1.310   0.521   0.661
 3538SOL     OW27755   3.971   5.858   6.550
 3538SOL    HW127756   3.905   5.927   6.558
 3538SOL    HW227757   4.001   5.843   6.639
 3539SOL     OW27758   0.027   3.904   6.828
 3539SOL    HW127759   0.055   3.833   6.771
 3539SOL    HW227760   0.051   3.875   6.916
 3540SOL     OW27761   0.993   1.204   6.493
 3540SOL    HW127762   1.081   1.235   6.471
 3540SOL    HW227763   0.948   1.282   6.525
 3541SOL     OW27764   5.854   1.106   1.210
 3541SOL    HW127765   5.785   1.173   1.219
 3541SOL    HW227766   5.920   1.148   1.155
 3542SOL     OW27767   1.101   5.138   0.742
 3542SOL    HW127768   1.174   5.091   0.781
 3542SOL    HW227769   1.074   5.201   0.809
 3543SOL     OW27770   4.687   5.932   0.522
 3543SOL    HW127771   4.693   6.010   0.467
 3543SOL    HW227772   4.644   5.867   0.467
 3544SOL     OW27773   2.006   4.307   7.467
 3544SOL    HW127774   2.077   4.371   7.462
 3544SOL    HW227775   1.986   4.285   7.376
 3545SOL     OW27776   0.574   0.760   7.641
 3545SOL    HW127777   0.651   0.817   7.642
 3545SOL    HW227778   0.502   0.815   7.672
 3546SOL     OW27779   5.290   5.426   1.885
 3546SOL    HW127780   5.364   5.377   1.922
 3546SOL    HW227781   5.271   5.493   1.950
 3547SOL     OW27782   3.864   2.686   6.666
 3547SOL    HW127783   3.955   2.673   6.693
 3547SOL    HW227784   3.819   2.715   6.745
 3548SOL     OW27785   4.580   4.935   6.319
 3548SOL    HW127786   4.603   5.009   6.375
 3548SOL    HW227787   4.558   4.865   6.380
 3549SOL     OW27788   5.365   3.575   0.323
 3549SOL    HW127789   5.435   3.531   0.372
 3549SOL    HW227790   5.361   3.663   0.360
 3550SOL     OW27791   5.306   1.347   6.796
 3550SOL    HW127792   5.305   1.396   6.878
 3550SOL    HW227793   5.398   1.340   6.772
 3551SOL     OW27794   3.336   5.882   0.408
 3551SOL    HW127795   3.357   5.945   0.339
 3551SOL    HW227796   3.422   5.853   0.441
 3552SOL     OW27797   1.874   6.010   5.627
 3552SOL    HW127798   1.859   6.091   5.577
 3552SOL    HW227799   1.970   6.001   5.628
 3553SOL     OW27800   1.545   5.924   1.663
 3553SOL    HW127801   1.612   5.874   1.710
 3553SOL    HW227802   1.462   5.888   1.694
 3554SOL     OW27803   5.280   3.357   6.089
 3554SOL    HW127804   5.198   3.407   6.096
 3554SOL    HW227805   5.293   3.344   5.995
 3555SOL     OW27806   5.107   3.990   6.561
 3555SOL    HW127807   5.116   3.941   6.643
 3555SOL    HW227808   5.157   4.071   6.576
 3556SOL     OW27809   4.186   6.344   0.082
 3556SOL    HW127810   4.253   6.343   0.013
 3556SOL    HW227811   4.182   6.436   0.109
 3557SOL     OW27812   2.394   5.782   7.520
 3557SOL    HW127813   2.308   5.810   7.487
 3557SOL    HW227814   2.373   5.726   7.595
 3558SOL     OW27815   0.053   2.707   6.151
 3558SOL    HW127816   0.001   2.740   6.077
 3558SOL    HW227817   0.034   2.613   6.155
 3559SOL     OW27818   5.174   1.422   0.930
 3559SOL    HW127819   5.263   1.456   0.937
 3559SOL    HW227820   5.184   1.333   0.897
 3560SOL     OW27821   0.475   0.608   7.443
 3560SOL    HW127822   0.511   0.652   7.520
 3560SOL    HW227823   0.527   0.641   7.370
 3561SOL     OW27824   3.833   3.620   0.459
 3561SOL    HW127825   3.840   3.714   0.442
 3561SOL    HW227826   3.896   3.580   0.398
 3562SOL     OW27827   5.146   3.788   0.103
 3562SOL    HW127828   5.100   3.872   0.096
 3562SOL    HW227829   5.221   3.806   0.159
 3563SOL     OW27830   5.955   1.384   0.429
 3563SOL    HW127831   6.018   1.420   0.366
 3563SOL    HW227832   5.932   1.298   0.393
 3564SOL     OW27833   2.102   4.554   1.536
 3564SOL    HW127834   2.176   4.571   1.478
 3564SOL    HW227835   2.061   4.640   1.548
 3565SOL     OW27836   2.935   5.868   7.759
 3565SOL    HW127837   2.993   5.899   7.829
 3565SOL    HW227838   2.908   5.781   7.788
 3566SOL     OW27839   3.509   0.586   1.996
 3566SOL    HW127840   3.594   0.630   1.998
 3566SOL    HW227841   3.517   0.515   2.060
 3567SOL     OW27842   2.979   4.437   0.361
 3567SOL    HW127843   2.919   4.400   0.426
 3567SOL    HW227844   3.066   4.423   0.399
 3568SOL     OW27845   0.789   0.553   5.939
 3568SOL    HW127846   0.797   0.617   5.868
 3568SOL    HW227847   0.697   0.528   5.939
 3569SOL     OW27848   0.740   5.139   7.767
 3569SOL    HW127849   0.692   5.145   7.684
 3569SOL    HW227850   0.827   5.107   7.742
 3570SOL     OW27851   1.091   1.088   6.724
 3570SOL    HW127852   1.131   1.161   6.771
 3570SOL    HW227853   1.042   1.129   6.653
 3571SOL     OW27854   0.303   2.460   7.447
 3571SOL    HW127855   0.286   2.484   7.538
 3571SOL    HW227856   0.294   2.543   7.399
 3572SOL     OW27857   3.221   5.333   0.445
 3572SOL    HW127858   3.159   5.406   0.445
 3572SOL    HW227859   3.298   5.366   0.400
 3573SOL     OW27860   2.983   2.058   0.532
 3573SOL    HW127861   2.991   2.126   0.466
 3573SOL    HW227862   3.035   2.091   0.606
 3574SOL     OW27863   1.249   2.156   6.467
 3574SOL    HW127864   1.270   2.125   6.379
 3574SOL    HW227865   1.274   2.248   6.467
 3575SOL     OW27866   5.547   3.860   1.233
 3575SOL    HW127867   5.636   3.837   1.259
 3575SOL    HW227868   5.558   3.932   1.171
 3576SOL     OW27869   2.369   0.645   7.032
 3576SOL    HW127870   2.324   0.633   6.948
 3576SOL    HW227871   2.339   0.730   7.064
 3577SOL     OW27872   5.537   0.606   7.809
 3577SOL    HW127873   5.498   0.665   7.744
 3577SOL    HW227874   5.487   0.525   7.800
 3578SOL     OW27875   5.461   0.350   6.569
 3578SOL    HW127876   5.462   0.444   6.587
 3578SOL    HW227877   5.446   0.344   6.475
 3579SOL     OW27878   0.695   5.828   6.291
 3579SOL    HW127879   0.629   5.856   6.227
 3579SOL    HW227880   0.684   5.888   6.365
 3580SOL     OW27881   5.593   0.274   7.567
 3580SOL    HW127882   5.685   0.256   7.588
 3580SOL    HW227883   5.554   0.296   7.651
 3581SOL     OW27884   3.757   3.663   6.875
 3581SOL    HW127885   3.674   3.682   6.919
 3581SOL    HW227886   3.823   3.706   6.930
 3582SOL     OW27887   3.623   5.249   6.356
 3582SOL    HW127888   3.670   5.299   6.290
 3582SOL    HW227889   3.583   5.176   6.308
 3583SOL     OW27890   0.275   0.652   7.165
 3583SOL    HW127891   0.291   0.583   7.230
 3583SOL    HW227892   0.350   0.646   7.106
 3584SOL     OW27893   3.965   4.191   5.709
 3584SOL    HW127894   3.948   4.161   5.620
 3584SOL    HW227895   4.059   4.178   5.721
 3585SOL     OW27896   0.772   5.381   7.549
 3585SOL    HW127897   0.685   5.341   7.554
 3585SOL    HW227898   0.795   5.377   7.456
 3586SOL     OW27899   6.029   4.170   1.997
 3586SOL    HW127900   6.046   4.090   1.947
 3586SOL    HW227901   5.936   4.187   1.982
 3587SOL     OW27902   1.283   3.074   7.817
 3587SOL    HW127903   1.330   3.020   7.753
 3587SOL    HW227904   1.289   3.025   7.899
 3588SOL     OW27905   3.627   0.287   6.898
 3588SOL    HW127906   3.715   0.250   6.888
 3588SOL    HW227907   3.636   0.354   6.966
 3589SOL     OW27908   2.602   2.573   5.955
 3589SOL    HW127909   2.602   2.658   6.000
 3589SOL    HW227910   2.627   2.510   6.023
 3590SOL     OW27911   3.921   1.991   6.777
 3590SOL    HW127912   4.014   2.002   6.759
 3590SOL    HW227913   3.918   1.952   6.864
 3591SOL     OW27914   3.655   4.010   7.028
 3591SOL    HW127915   3.595   3.936   7.018
 3591SOL    HW227916   3.681   4.033   6.939
 3592SOL     OW27917   0.961   3.451   7.174
 3592SOL    HW127918   0.996   3.376   7.126
 3592SOL    HW227919   0.867   3.438   7.172
 3593SOL     OW27920   1.883   6.224   7.763
 3593SOL    HW127921   1.940   6.150   7.742
 3593SOL    HW227922   1.796   6.197   7.731
 3594SOL     OW27923   3.508   4.266   0.410
 3594SOL    HW127924   3.473   4.275   0.498
 3594SOL    HW227925   3.600   4.241   0.423
 3595SOL     OW27926   1.298   0.745   6.770
 3595SOL    HW127927   1.281   0.758   6.677
 3595SOL    HW227928   1.393   0.749   6.778
 3596SOL     OW27929   0.015   4.446   1.148
 3596SOL    HW127930  -0.060   4.441   1.089
 3596SOL    HW227931  -0.016   4.498   1.222
 3597SOL     OW27932   6.362   3.351   7.018
 3597SOL    HW127933   6.456   3.369   7.011
 3597SOL    HW227934   6.349   3.273   6.963
 3598SOL     OW27935   0.718   6.284   6.595
 3598SOL    HW127936   0.701   6.371   6.630
 3598SOL    HW227937   0.660   6.226   6.645
 3599SOL     OW27938   3.473   5.912   0.867
 3599SOL    HW127939   3.507   5.912   0.777
 3599SOL    HW227940   3.389   5.867   0.862
 3600SOL     OW27941   3.929   1.543   0.795
 3600SOL    HW127942   3.872   1.480   0.750
 3600SOL    HW227943   4.016   1.523   0.762
 3601SOL     OW27944   5.491   6.419   1.042
 3601SOL    HW127945   5.469   6.326   1.052
 3601SOL    HW227946   5.436   6.464   1.106
 3602SOL     OW27947   1.591   2.705   1.609
 3602SOL    HW127948   1.528   2.693   1.680
 3602SOL    HW227949   1.676   2.684   1.649
 3603SOL     OW27950   3.366   0.880   0.608
 3603SOL    HW127951   3.434   0.933   0.651
 3603SOL    HW227952   3.370   0.795   0.653
 3604SOL     OW27953   6.302   0.106   7.468
 3604SOL    HW127954   6.363   0.044   7.509
 3604SOL    HW227955   6.258   0.148   7.542
 3605SOL     OW27956   6.300   5.960   0.226
 3605SOL    HW127957   6.330   6.023   0.291
 3605SOL    HW227958   6.344   5.987   0.145
 3606SOL     OW27959   4.183   6.044   7.566
 3606SOL    HW127960   4.131   6.115   7.527
 3606SOL    HW227961   4.122   6.001   7.626
 3607SOL     OW27962   2.316   1.949   0.193
 3607SOL    HW127963   2.403   1.953   0.232
 3607SOL    HW227964   2.332   1.920   0.103
 3608SOL     OW27965   2.571   3.661   5.074
 3608SOL    HW127966   2.667   3.655   5.076
 3608SOL    HW227967   2.547   3.706   5.154
 3609SOL     OW27968   2.173   3.286   6.734
 3609SOL    HW127969   2.146   3.194   6.733
 3609SOL    HW227970   2.224   3.296   6.815
 3610SOL     OW27971   5.447   5.863   1.041
 3610SOL    HW127972   5.533   5.844   1.080
 3610SOL    HW227973   5.403   5.779   1.038
 3611SOL     OW27974   1.339   5.847   0.287
 3611SOL    HW127975   1.322   5.755   0.269
 3611SOL    HW227976   1.254   5.884   0.308
 3612SOL     OW27977   6.373   1.695   6.492
 3612SOL    HW127978   6.363   1.713   6.399
 3612SOL    HW227979   6.431   1.619   6.496
 3613SOL     OW27980   4.093   0.015   7.209
 3613SOL    HW127981   4.023   0.012   7.274
 3613SOL    HW227982   4.122   0.106   7.207
 3614SOL     OW27983   3.225   0.249   1.005
 3614SOL    HW127984   3.135   0.250   1.036
 3614SOL    HW227985   3.227   0.315   0.935
 3615SOL     OW27986   2.882   5.750   5.948
 3615SOL    HW127987   2.820   5.793   5.890
 3615SOL    HW227988   2.955   5.723   5.892
 3616SOL     OW27989   1.889   5.343   6.931
 3616SOL    HW127990   1.828   5.304   6.869
 3616SOL    HW227991   1.916   5.271   6.988
 3617SOL     OW27992   2.441   3.215   6.523
 3617SOL    HW127993   2.355   3.186   6.554
 3617SOL    HW227994   2.487   3.242   6.602
 3618SOL     OW27995   4.369   0.734   5.855
 3618SOL    HW127996   4.323   0.770   5.779
 3618SOL    HW227997   4.456   0.711   5.821
 3619SOL     OW27998   6.202   6.374   7.288
 3619SOL    HW127999   6.125   6.387   7.345
 3619SOL    HW228000   6.273   6.418   7.334
 3620SOL     OW28001   6.280   4.098   1.482
 3620SOL    HW128002   6.360   4.148   1.465
 3620SOL    HW228003   6.298   4.052   1.563
 3621SOL     OW28004   2.843   0.433   6.952
 3621SOL    HW128005   2.753   0.419   6.984
 3621SOL    HW228006   2.832   0.447   6.858
 3622SOL     OW28007   6.243   1.716   0.176
 3622SOL    HW128008   6.241   1.776   0.250
 3622SOL    HW228009   6.163   1.735   0.127
 3623SOL     OW28010   0.552   4.077   7.278
 3623SOL    HW128011   0.613   4.022   7.327
 3623SOL    HW228012   0.507   4.128   7.345
 3624SOL     OW28013   1.203   1.399   7.340
 3624SOL    HW128014   1.139   1.420   7.272
 3624SOL    HW228015   1.157   1.340   7.400
 3625SOL     OW28016   2.845   3.055   4.767
 3625SOL    HW128017   2.906   3.005   4.713
 3625SOL    HW228018   2.882   3.052   4.855
 3626SOL     OW28019   1.210   1.272   6.900
 3626SOL    HW128020   1.288   1.222   6.924
 3626SOL    HW228021   1.182   1.313   6.981
 3627SOL     OW28022   0.820   5.518   0.207
 3627SOL    HW128023   0.765   5.571   0.150
 3627SOL    HW228024   0.818   5.563   0.292
 3628SOL     OW28025   6.272   0.120   6.912
 3628SOL    HW128026   6.285   0.031   6.943
 3628SOL    HW228027   6.177   0.129   6.901
 3629SOL     OW28028   1.007   4.986   2.214
 3629SOL    HW128029   1.055   4.915   2.171
 3629SOL    HW228030   1.056   5.002   2.294
 3630SOL     OW28031   4.895   3.668   1.405
 3630SOL    HW128032   4.883   3.723   1.482
 3630SOL    HW228033   4.875   3.579   1.435
 3631SOL     OW28034   3.014   3.956   0.342
 3631SOL    HW128035   2.962   4.005   0.279
 3631SOL    HW228036   3.007   4.005   0.424
 3632SOL     OW28037   3.755   1.440   6.929
 3632SOL    HW128038   3.797   1.506   6.984
 3632SOL    HW228039   3.697   1.490   6.872
 3633SOL     OW28040   2.403   2.103   6.544
 3633SOL    HW128041   2.463   2.090   6.471
 3633SOL    HW228042   2.457   2.094   6.622
 3634SOL     OW28043   4.452   1.064   7.513
 3634SOL    HW128044   4.522   1.012   7.472
 3634SOL    HW228045   4.380   1.002   7.524
 3635SOL     OW28046   6.424   1.143   6.814
 3635SOL    HW128047   6.407   1.224   6.767
 3635SOL    HW228048   6.510   1.114   6.782
 3636SOL     OW28049   2.482   3.184   5.818
 3636SOL    HW128050   2.558   3.175   5.876
 3636SOL    HW228051   2.519   3.211   5.734
 3637SOL     OW28052   1.768   2.563   1.437
 3637SOL    HW128053   1.690   2.605   1.473
 3637SOL    HW228054   1.841   2.619   1.464
 3638SOL     OW28055   4.918   1.282   1.828
 3638SOL    HW128056   4.936   1.195   1.863
 3638SOL    HW228057   4.982   1.294   1.758
 3639SOL     OW28058   1.018   1.239   5.788
 3639SOL    HW128059   1.112   1.223   5.780
 3639SOL    HW228060   0.992   1.273   5.702
 3640SOL     OW28061   0.607   3.096   6.403
 3640SOL    HW128062   0.571   3.184   6.393
 3640SOL    HW228063   0.599   3.057   6.316
 3641SOL     OW28064   2.247   2.070   2.388
 3641SOL    HW128065   2.310   2.108   2.449
 3641SOL    HW228066   2.238   1.978   2.415
 3642SOL     OW28067   4.824   1.567   7.366
 3642SOL    HW128068   4.812   1.543   7.274
 3642SOL    HW228069   4.901   1.623   7.366
 3643SOL     OW28070   0.462   5.155   0.827
 3643SOL    HW128071   0.434   5.166   0.736
 3643SOL    HW228072   0.556   5.175   0.825
 3644SOL     OW28073   5.302   5.084   0.390
 3644SOL    HW128074   5.355   5.158   0.360
 3644SOL    HW228075   5.274   5.108   0.478
 3645SOL     OW28076   4.708   4.216   0.879
 3645SOL    HW128077   4.693   4.194   0.971
 3645SOL    HW228078   4.768   4.147   0.848
 3646SOL     OW28079   5.130   2.563   7.231
 3646SOL    HW128080   5.042   2.526   7.241
 3646SOL    HW228081   5.119   2.657   7.249
 3647SOL     OW28082   5.606   1.758   6.310
 3647SOL    HW128083   5.533   1.704   6.338
 3647SOL    HW228084   5.647   1.787   6.392
 3648SOL     OW28085   1.867   3.898   6.533
 3648SOL    HW128086   1.820   3.883   6.615
 3648SOL    HW228087   1.876   3.994   6.527
 3649SOL     OW28088   4.181   5.720   6.048
 3649SOL    HW128089   4.202   5.683   5.962
 3649SOL    HW228090   4.208   5.812   6.042
 3650SOL     OW28091   2.796   4.667   5.103
 3650SOL    HW128092   2.793   4.588   5.048
 3650SOL    HW228093   2.889   4.681   5.119
 3651SOL     OW28094   2.500   1.290   0.678
 3651SOL    HW128095   2.504   1.382   0.705
 3651SOL    HW228096   2.420   1.284   0.627
 3652SOL     OW28097   1.009   5.465   7.679
 3652SOL    HW128098   1.043   5.539   7.630
 3652SOL    HW228099   0.948   5.421   7.619
 3653SOL     OW28100   2.408   4.234   6.128
 3653SOL    HW128101   2.373   4.295   6.064
 3653SOL    HW228102   2.496   4.267   6.147
 3654SOL     OW28103   5.630   5.309   6.801
 3654SOL    HW128104   5.645   5.403   6.809
 3654SOL    HW228105   5.693   5.280   6.735
 3655SOL     OW28106   4.454   5.630   0.029
 3655SOL    HW128107   4.482   5.713  -0.010
 3655SOL    HW228108   4.533   5.594   0.069
 3656SOL     OW28109   2.970   0.770   7.398
 3656SOL    HW128110   2.976   0.806   7.486
 3656SOL    HW228111   2.963   0.675   7.411
 3657SOL     OW28112   1.411   1.105   7.032
 3657SOL    HW128113   1.478   1.062   6.979
 3657SOL    HW228114   1.365   1.033   7.075
 3658SOL     OW28115   2.519   4.685   7.024
 3658SOL    HW128116   2.584   4.648   6.965
 3658SOL    HW228117   2.454   4.616   7.035
 3659SOL     OW28118   3.929   0.509   6.723
 3659SOL    HW128119   3.958   0.492   6.812
 3659SOL    HW228120   4.004   0.485   6.668
 3660SOL     OW28121   5.185   0.437   7.773
 3660SOL    HW128122   5.173   0.371   7.705
 3660SOL    HW228123   5.197   0.386   7.853
 3661SOL     OW28124   5.994   5.841   7.164
 3661SOL    HW128125   6.039   5.845   7.080
 3661SOL    HW228126   5.975   5.748   7.177
 3662SOL     OW28127   5.977   0.764   7.086
 3662SOL    HW128128   5.978   0.798   7.176
 3662SOL    HW228129   6.069   0.760   7.061
 3663SOL     OW28130   5.451   1.790   1.085
 3663SOL    HW128131   5.417   1.703   1.108
 3663SOL    HW228132   5.418   1.806   0.997
 3664SOL     OW28133   6.384   3.756   1.061
 3664SOL    HW128134   6.297   3.733   1.092
 3664SOL    HW228135   6.385   3.852   1.059
 3665SOL     OW28136   3.214   1.656   6.862
 3665SOL    HW128137   3.234   1.745   6.834
 3665SOL    HW228138   3.234   1.601   6.786
 3666SOL     OW28139   4.311   6.019   6.953
 3666SOL    HW128140   4.286   5.927   6.939
 3666SOL    HW228141   4.232   6.060   6.987
 3667SOL     OW28142   3.320   4.589   0.645
 3667SOL    HW128143   3.300   4.683   0.647
 3667SOL    HW228144   3.374   4.574   0.723
 3668SOL     OW28145   1.556   4.490   7.789
 3668SOL    HW128146   1.634   4.521   7.744
 3668SOL    HW228147   1.485   4.544   7.754
 3669SOL     OW28148   6.071   5.756   7.788
 3669SOL    HW128149   6.011   5.684   7.807
 3669SOL    HW228150   6.014   5.833   7.780
 3670SOL     OW28151   3.513   1.286   0.939
 3670SOL    HW128152   3.454   1.360   0.957
 3670SOL    HW228153   3.510   1.233   1.019
 3671SOL     OW28154   4.017   5.389   1.173
 3671SOL    HW128155   4.002   5.311   1.227
 3671SOL    HW228156   3.963   5.457   1.214
 3672SOL     OW28157   5.742   6.296   1.982
 3672SOL    HW128158   5.695   6.279   2.064
 3672SOL    HW228159   5.806   6.225   1.976
 3673SOL     OW28160   2.781   5.531   6.542
 3673SOL    HW128161   2.689   5.553   6.529
 3673SOL    HW228162   2.799   5.557   6.633
 3674SOL     OW28163   0.937   3.113   0.663
 3674SOL    HW128164   0.866   3.058   0.696
 3674SOL    HW228165   0.991   3.131   0.739
 3675SOL     OW28166   4.179   1.338   7.209
 3675SOL    HW128167   4.129   1.291   7.142
 3675SOL    HW228168   4.155   1.430   7.196
 3676SOL     OW28169   5.031   3.015   1.902
 3676SOL    HW128170   4.967   3.056   1.960
 3676SOL    HW228171   5.084   2.959   1.960
 3677SOL     OW28172   5.820   0.462   0.745
 3677SOL    HW128173   5.892   0.489   0.802
 3677SOL    HW228174   5.852   0.476   0.656
 3678SOL     OW28175   5.243   4.986   1.431
 3678SOL    HW128176   5.294   4.958   1.355
 3678SOL    HW228177   5.155   4.952   1.415
 3679SOL     OW28178   4.855   4.710   5.821
 3679SOL    HW128179   4.927   4.745   5.873
 3679SOL    HW228180   4.824   4.785   5.770
 3680SOL     OW28181   3.621   5.630   7.507
 3680SOL    HW128182   3.620   5.615   7.413
 3680SOL    HW228183   3.535   5.666   7.527
 3681SOL     OW28184   4.593   5.245   7.815
 3681SOL    HW128185   4.544   5.311   7.767
 3681SOL    HW228186   4.528   5.179   7.838
 3682SOL     OW28187   4.612   4.887   2.172
 3682SOL    HW128188   4.591   4.975   2.139
 3682SOL    HW228189   4.619   4.899   2.267
 3683SOL     OW28190   4.301   2.333   1.237
 3683SOL    HW128191   4.255   2.257   1.272
 3683SOL    HW228192   4.232   2.392   1.207
 3684SOL     OW28193   0.022   2.605   1.034
 3684SOL    HW128194  -0.024   2.630   1.114
 3684SOL    HW228195  -0.003   2.514   1.019
 3685SOL     OW28196   0.518   2.962   0.201
 3685SOL    HW128197   0.596   2.963   0.256
 3685SOL    HW228198   0.542   2.904   0.128
 3686SOL     OW28199   3.945   4.614   7.275
 3686SOL    HW128200   3.920   4.706   7.270
 3686SOL    HW228201   3.866   4.566   7.251
 3687SOL     OW28202   2.608   1.930   5.551
 3687SOL    HW128203   2.650   1.934   5.465
 3687SOL    HW228204   2.548   1.855   5.545
 3688SOL     OW28205   3.452   5.445   2.070
 3688SOL    HW128206   3.371   5.468   2.116
 3688SOL    HW228207   3.480   5.527   2.029
 3689SOL     OW28208   5.697   3.973   1.511
 3689SOL    HW128209   5.655   3.897   1.553
 3689SOL    HW228210   5.747   3.937   1.438
 3690SOL     OW28211   5.093   5.270   6.717
 3690SOL    HW128212   5.087   5.236   6.806
 3690SOL    HW228213   5.072   5.195   6.661
 3691SOL     OW28214   5.972   0.938   1.634
 3691SOL    HW128215   5.918   0.988   1.695
 3691SOL    HW228216   6.051   0.990   1.623
 3692SOL     OW28217   0.507   3.343   6.357
 3692SOL    HW128218   0.414   3.353   6.337
 3692SOL    HW228219   0.548   3.420   6.319
 3693SOL     OW28220   4.282   4.707   7.241
 3693SOL    HW128221   4.260   4.632   7.296
 3693SOL    HW228222   4.199   4.734   7.202
 3694SOL     OW28223   5.931   3.408   1.618
 3694SOL    HW128224   5.887   3.351   1.555
 3694SOL    HW228225   5.862   3.434   1.679
 3695SOL     OW28226   1.297   4.605   6.661
 3695SOL    HW128227   1.327   4.655   6.586
 3695SOL    HW228228   1.305   4.514   6.634
 3696SOL     OW28229   6.221   3.550   6.889
 3696SOL    HW128230   6.274   3.502   6.953
 3696SOL    HW228231   6.273   3.548   6.809
 3697SOL     OW28232   4.526   2.876   1.241
 3697SOL    HW128233   4.590   2.937   1.278
 3697SOL    HW228234   4.483   2.837   1.318
 3698SOL     OW28235   3.753   3.100   6.264
 3698SOL    HW128236   3.819   3.037   6.293
 3698SOL    HW228237   3.774   3.180   6.311
 3699SOL     OW28238   1.210   3.696   6.132
 3699SOL    HW128239   1.203   3.682   6.226
 3699SOL    HW228240   1.172   3.617   6.093
 3700SOL     OW28241   0.768   3.425   7.590
 3700SOL    HW128242   0.776   3.516   7.620
 3700SOL    HW228243   0.696   3.389   7.641
 3701SOL     OW28244   0.827   2.713   1.523
 3701SOL    HW128245   0.788   2.774   1.461
 3701SOL    HW228246   0.880   2.655   1.469
 3702SOL     OW28247   4.002   0.146   1.163
 3702SOL    HW128248   4.033   0.236   1.161
 3702SOL    HW228249   3.907   0.152   1.158
 3703SOL     OW28250   4.268   5.379   5.279
 3703SOL    HW128251   4.236   5.290   5.292
 3703SOL    HW228252   4.345   5.369   5.223
 3704SOL     OW28253   0.239   5.919   6.349
 3704SOL    HW128254   0.291   5.980   6.298
 3704SOL    HW228255   0.292   5.840   6.355
 3705SOL     OW28256   2.338   0.352   1.744
 3705SOL    HW128257   2.411   0.405   1.711
 3705SOL    HW228258   2.367   0.261   1.735
 3706SOL     OW28259   2.023   2.243   5.839
 3706SOL    HW128260   1.960   2.225   5.769
 3706SOL    HW228261   2.094   2.180   5.824
 3707SOL     OW28262   3.129   5.911   0.599
 3707SOL    HW128263   3.094   5.994   0.568
 3707SOL    HW228264   3.218   5.907   0.562
 3708SOL     OW28265   6.297   1.063   6.576
 3708SOL    HW128266   6.224   1.023   6.623
 3708SOL    HW228267   6.352   1.102   6.645
 3709SOL     OW28268   1.158   4.234   6.101
 3709SOL    HW128269   1.084   4.272   6.055
 3709SOL    HW228270   1.125   4.217   6.189
 3710SOL     OW28271   1.570   1.968   0.541
 3710SOL    HW128272   1.552   2.052   0.500
 3710SOL    HW228273   1.640   1.930   0.488
 3711SOL     OW28274   0.039   3.195   0.140
 3711SOL    HW128275  -0.051   3.172   0.163
 3711SOL    HW228276   0.080   3.219   0.223
 3712SOL     OW28277   1.700   3.857   7.097
 3712SOL    HW128278   1.622   3.805   7.117
 3712SOL    HW228279   1.708   3.917   7.171
 3713SOL     OW28280   1.366   1.777   6.418
 3713SOL    HW128281   1.357   1.861   6.463
 3713SOL    HW228282   1.284   1.766   6.371
 3714SOL     OW28283   0.955   5.713   1.201
 3714SOL    HW128284   0.995   5.770   1.135
 3714SOL    HW228285   0.935   5.771   1.274
 3715SOL     OW28286   3.083   3.570   0.845
 3715SOL    HW128287   3.093   3.530   0.931
 3715SOL    HW228288   2.991   3.559   0.823
 3716SOL     OW28289   4.664   3.530   0.629
 3716SOL    HW128290   4.722   3.456   0.648
 3716SOL    HW228291   4.716   3.587   0.572
 3717SOL     OW28292   1.066   0.725   0.197
 3717SOL    HW128293   1.133   0.704   0.132
 3717SOL    HW228294   1.085   0.668   0.271
 3718SOL     OW28295   3.614   3.829   0.238
 3718SOL    HW128296   3.707   3.811   0.255
 3718SOL    HW228297   3.606   3.823   0.143
 3719SOL     OW28298   1.420   3.723   1.054
 3719SOL    HW128299   1.421   3.638   1.099
 3719SOL    HW228300   1.470   3.708   0.974
 3720SOL     OW28301   3.680   5.982   6.439
 3720SOL    HW128302   3.696   5.888   6.445
 3720SOL    HW228303   3.736   6.020   6.506
 3721SOL     OW28304   4.355   2.684   5.922
 3721SOL    HW128305   4.406   2.763   5.905
 3721SOL    HW228306   4.342   2.645   5.836
 3722SOL     OW28307   2.696   4.063   0.494
 3722SOL    HW128308   2.691   4.158   0.494
 3722SOL    HW228309   2.718   4.040   0.403
 3723SOL     OW28310   2.107   2.775   7.104
 3723SOL    HW128311   2.113   2.682   7.084
 3723SOL    HW228312   2.148   2.818   7.029
 3724SOL     OW28313   3.521   3.139   6.847
 3724SOL    HW128314   3.499   3.113   6.936
 3724SOL    HW228315   3.612   3.112   6.836
 3725SOL     OW28316   1.713   0.786   7.259
 3725SOL    HW128317   1.708   0.691   7.271
 3725SOL    HW228318   1.676   0.823   7.338
 3726SOL     OW28319   4.774   0.617   1.830
 3726SOL    HW128320   4.837   0.559   1.872
 3726SOL    HW228321   4.826   0.690   1.797
 3727SOL     OW28322   0.923   0.942   6.437
 3727SOL    HW128323   1.001   0.887   6.430
 3727SOL    HW228324   0.956   1.027   6.468
 3728SOL     OW28325   5.422   3.140   7.263
 3728SOL    HW128326   5.473   3.221   7.255
 3728SOL    HW228327   5.356   3.159   7.329
 3729SOL     OW28328   4.152   0.537   1.975
 3729SOL    HW128329   4.236   0.574   1.999
 3729SOL    HW228330   4.154   0.448   2.012
 3730SOL     OW28331   4.772   4.433   6.848
 3730SOL    HW128332   4.684   4.420   6.883
 3730SOL    HW228333   4.803   4.345   6.828
 3731SOL     OW28334   5.899   3.561   1.871
 3731SOL    HW128335   5.821   3.523   1.829
 3731SOL    HW228336   5.964   3.491   1.867
 3732SOL     OW28337   0.268   6.210   6.556
 3732SOL    HW128338   0.320   6.289   6.554
 3732SOL    HW228339   0.253   6.188   6.464
 3733SOL     OW28340   3.731   2.218   5.946
 3733SOL    HW128341   3.652   2.203   5.998
 3733SOL    HW228342   3.802   2.225   6.011
 3734SOL     OW28343   4.215   3.381   6.152
 3734SOL    HW128344   4.154   3.349   6.218
 3734SOL    HW228345   4.211   3.316   6.082
 3735SOL     OW28346   3.135   4.948   5.584
 3735SOL    HW128347   3.200   5.018   5.588
 3735SOL    HW228348   3.068   4.974   5.646
 3736SOL     OW28349   1.303   6.188   7.413
 3736SOL    HW128350   1.294   6.281   7.393
 3736SOL    HW228351   1.330   6.186   7.505
 3737SOL     OW28352   2.155   4.129   6.164
 3737SOL    HW128353   2.234   4.179   6.144
 3737SOL    HW228354   2.144   4.138   6.259
 3738SOL     OW28355   4.655   1.959   7.700
 3738SOL    HW128356   4.739   2.004   7.705
 3738SOL    HW228357   4.672   1.872   7.735
 3739SOL     OW28358   2.762   4.981   1.986
 3739SOL    HW128359   2.720   4.908   1.939
 3739SOL    HW228360   2.691   5.043   2.001
 3740SOL     OW28361   5.976   2.195   0.246
 3740SOL    HW128362   6.013   2.283   0.235
 3740SOL    HW228363   5.911   2.205   0.315
 3741SOL     OW28364   6.055   4.740   2.661
 3741SOL    HW128365   5.979   4.739   2.602
 3741SOL    HW228366   6.130   4.756   2.604
 3742SOL     OW28367   1.923   5.001   0.306
 3742SOL    HW128368   1.890   4.995   0.396
 3742SOL    HW228369   2.008   4.957   0.308
 3743SOL     OW28370   0.192   4.263   0.490
 3743SOL    HW128371   0.270   4.246   0.543
 3743SOL    HW228372   0.207   4.349   0.451
 3744SOL     OW28373   1.152   2.589   6.889
 3744SOL    HW128374   1.238   2.625   6.913
 3744SOL    HW228375   1.105   2.583   6.973
 3745SOL     OW28376   5.910   4.372   0.364
 3745SOL    HW128377   5.966   4.397   0.437
 3745SOL    HW228378   5.830   4.424   0.376
 3746SOL     OW28379   6.264   6.063   0.914
 3746SOL    HW128380   6.245   6.138   0.971
 3746SOL    HW228381   6.287   6.102   0.830
 3747SOL     OW28382   0.466   2.719   6.395
 3747SOL    HW128383   0.491   2.805   6.427
 3747SOL    HW228384   0.385   2.735   6.346
 3748SOL     OW28385   6.166   1.222   7.111
 3748SOL    HW128386   6.093   1.160   7.112
 3748SOL    HW228387   6.138   1.290   7.050
 3749SOL     OW28388   5.074   3.422   1.170
 3749SOL    HW128389   5.118   3.428   1.086
 3749SOL    HW228390   4.992   3.471   1.159
 3750SOL     OW28391   5.289   2.967   0.726
 3750SOL    HW128392   5.367   2.913   0.735
 3750SOL    HW228393   5.216   2.907   0.741
 3751SOL     OW28394   2.109   2.988   1.191
 3751SOL    HW128395   2.097   2.893   1.199
 3751SOL    HW228396   2.131   3.017   1.280
 3752SOL     OW28397   0.528   6.160   6.088
 3752SOL    HW128398   0.448   6.203   6.061
 3752SOL    HW228399   0.555   6.207   6.167
 3753SOL     OW28400   3.616   1.423   2.535
 3753SOL    HW128401   3.643   1.503   2.489
 3753SOL    HW228402   3.542   1.390   2.485
 3754SOL     OW28403   0.759   5.958   1.039
 3754SOL    HW128404   0.851   5.979   1.050
 3754SOL    HW228405   0.759   5.868   1.005
 3755SOL     OW28406   2.203   2.730   1.713
 3755SOL    HW128407   2.266   2.714   1.783
 3755SOL    HW228408   2.119   2.737   1.757
 3756SOL     OW28409   4.334   1.558   1.329
 3756SOL    HW128410   4.344   1.569   1.423
 3756SOL    HW228411   4.242   1.532   1.317
 3757SOL     OW28412   0.376   0.042   5.784
 3757SOL    HW128413   0.306   0.024   5.721
 3757SOL    HW228414   0.443  -0.023   5.764
 3758SOL     OW28415   0.857   2.261   6.581
 3758SOL    HW128416   0.921   2.190   6.588
 3758SOL    HW228417   0.909   2.341   6.593
 3759SOL     OW28418   3.912   4.283   2.324
 3759SOL    HW128419   3.836   4.225   2.314
 3759SOL    HW228420   3.953   4.253   2.406
 3760SOL     OW28421   2.685   4.514   1.188
 3760SOL    HW128422   2.662   4.435   1.139
 3760SOL    HW228423   2.649   4.500   1.275
 3761SOL     OW28424   6.392   4.942   0.107
 3761SOL    HW128425   6.364   4.866   0.159
 3761SOL    HW228426   6.319   5.004   0.114
 3762SOL     OW28427   1.796   5.217   1.554
 3762SOL    HW128428   1.825   5.194   1.466
 3762SOL    HW228429   1.848   5.161   1.612
 3763SOL     OW28430   4.471   4.701   5.899
 3763SOL    HW128431   4.542   4.650   5.937
 3763SOL    HW228432   4.510   4.786   5.880
 3764SOL     OW28433   4.687   0.977   0.102
 3764SOL    HW128434   4.708   1.058   0.149
 3764SOL    HW228435   4.592   0.974   0.100
 3765SOL     OW28436   2.598   1.077   6.996
 3765SOL    HW128437   2.521   1.062   6.941
 3765SOL    HW228438   2.603   1.000   7.053
 3766SOL     OW28439   6.124   4.186   0.872
 3766SOL    HW128440   6.095   4.251   0.808
 3766SOL    HW228441   6.119   4.103   0.826
 3767SOL     OW28442   3.215   3.998   7.108
 3767SOL    HW128443   3.265   3.917   7.118
 3767SOL    HW228444   3.281   4.065   7.091
 3768SOL     OW28445   3.924   3.577   7.743
 3768SOL    HW128446   3.979   3.505   7.714
 3768SOL    HW228447   3.860   3.588   7.673
 3769SOL     OW28448   2.254   0.370   0.545
 3769SOL    HW128449   2.208   0.396   0.465
 3769SOL    HW228450   2.333   0.425   0.546
 3770SOL     OW28451   2.624   2.190   7.069
 3770SOL    HW128452   2.679   2.140   7.008
 3770SOL    HW228453   2.685   2.249   7.114
 3771SOL     OW28454   4.141   2.132   0.073
 3771SOL    HW128455   4.086   2.055   0.068
 3771SOL    HW228456   4.122   2.181  -0.007
 3772SOL     OW28457   2.077   2.859   5.317
 3772SOL    HW128458   2.168   2.846   5.344
 3772SOL    HW228459   2.027   2.857   5.398
 3773SOL     OW28460   1.366   4.192   5.898
 3773SOL    HW128461   1.318   4.178   5.979
 3773SOL    HW228462   1.300   4.227   5.837
 3774SOL     OW28463   5.011   5.284   7.087
 3774SOL    HW128464   5.092   5.253   7.048
 3774SOL    HW228465   5.036   5.311   7.175
 3775SOL     OW28466   5.415   6.312   5.373
 3775SOL    HW128467   5.392   6.399   5.340
 3775SOL    HW228468   5.345   6.255   5.341
 3776SOL     OW28469   3.977   3.332   6.746
 3776SOL    HW128470   4.060   3.373   6.771
 3776SOL    HW228471   3.921   3.404   6.718
 3777SOL     OW28472   3.965   3.550   5.662
 3777SOL    HW128473   3.928   3.534   5.575
 3777SOL    HW228474   3.970   3.646   5.668
 3778SOL     OW28475   0.018   6.215   6.664
 3778SOL    HW128476  -0.013   6.306   6.663
 3778SOL    HW228477   0.108   6.220   6.631
 3779SOL     OW28478   0.954   5.372   6.932
 3779SOL    HW128479   0.884   5.315   6.901
 3779SOL    HW228480   1.033   5.337   6.892
 3780SOL     OW28481   2.352   5.977   0.880
 3780SOL    HW128482   2.437   6.018   0.870
 3780SOL    HW228483   2.360   5.924   0.960
 3781SOL     OW28484   2.275   1.981   7.229
 3781SOL    HW128485   2.233   2.034   7.297
 3781SOL    HW228486   2.259   1.890   7.255
 3782SOL     OW28487   1.263   4.515   5.554
 3782SOL    HW128488   1.227   4.598   5.523
 3782SOL    HW228489   1.291   4.534   5.644
 3783SOL     OW28490   2.583   2.886   5.421
 3783SOL    HW128491   2.626   2.846   5.346
 3783SOL    HW228492   2.596   2.980   5.408
 3784SOL     OW28493   4.242   5.398   2.028
 3784SOL    HW128494   4.220   5.306   2.013
 3784SOL    HW228495   4.329   5.408   1.991
 3785SOL     OW28496   3.207   2.930   7.718
 3785SOL    HW128497   3.228   3.011   7.764
 3785SOL    HW228498   3.276   2.922   7.651
 3786SOL     OW28499   6.006   1.199   1.027
 3786SOL    HW128500   6.013   1.160   0.940
 3786SOL    HW228501   6.047   1.285   1.017
 3787SOL     OW28502   3.784   1.929   0.203
 3787SOL    HW128503   3.771   1.951   0.296
 3787SOL    HW228504   3.703   1.884   0.178
 3788SOL     OW28505   3.481   4.443   7.720
 3788SOL    HW128506   3.516   4.400   7.799
 3788SOL    HW228507   3.555   4.446   7.659
 3789SOL     OW28508   2.576   4.166   7.405
 3789SOL    HW128509   2.660   4.121   7.405
 3789SOL    HW228510   2.511   4.095   7.410
 3790SOL     OW28511   3.703   0.992   1.693
 3790SOL    HW128512   3.667   0.933   1.759
 3790SOL    HW228513   3.683   1.080   1.726
 3791SOL     OW28514   3.507   2.490   6.862
 3791SOL    HW128515   3.490   2.505   6.769
 3791SOL    HW228516   3.592   2.532   6.878
 3792SOL     OW28517   1.082   1.818   0.366
 3792SOL    HW128518   1.160   1.870   0.349
 3792SOL    HW228519   1.105   1.765   0.443
 3793SOL     OW28520   3.137   0.470   6.028
 3793SOL    HW128521   3.072   0.451   5.960
 3793SOL    HW228522   3.221   0.443   5.989
 3794SOL     OW28523   1.124   0.455   0.356
 3794SOL    HW128524   1.180   0.381   0.379
 3794SOL    HW228525   1.039   0.415   0.336
 3795SOL     OW28526   4.630   2.181   1.835
 3795SOL    HW128527   4.540   2.146   1.838
 3795SOL    HW228528   4.684   2.106   1.810
 3796SOL     OW28529   5.028   5.367   7.378
 3796SOL    HW128530   5.043   5.418   7.457
 3796SOL    HW228531   4.968   5.421   7.326
 3797SOL     OW28532   5.984   2.836   6.897
 3797SOL    HW128533   5.930   2.857   6.821
 3797SOL    HW228534   5.984   2.740   6.901
 3798SOL     OW28535   4.089   6.220   6.480
 3798SOL    HW128536   4.008   6.271   6.490
 3798SOL    HW228537   4.137   6.266   6.411
 3799SOL     OW28538   1.152   1.912   7.468
 3799SOL    HW128539   1.184   1.969   7.399
 3799SOL    HW228540   1.110   1.971   7.531
 3800SOL     OW28541   4.723   5.973   5.745
 3800SOL    HW128542   4.643   6.026   5.747
 3800SOL    HW228543   4.693   5.886   5.717
 3801SOL     OW28544   3.034   5.601   6.636
 3801SOL    HW128545   2.976   5.666   6.675
 3801SOL    HW228546   2.977   5.549   6.579
 3802SOL     OW28547   3.360   1.970   0.603
 3802SOL    HW128548   3.318   2.040   0.553
 3802SOL    HW228549   3.416   2.016   0.666
 3803SOL     OW28550   5.257   1.973   5.969
 3803SOL    HW128551   5.311   2.030   6.024
 3803SOL    HW228552   5.249   2.020   5.886
 3804SOL     OW28553   6.151   6.353   0.957
 3804SOL    HW128554   6.242   6.348   0.986
 3804SOL    HW228555   6.140   6.443   0.927
 3805SOL     OW28556   1.959   5.289   6.519
 3805SOL    HW128557   1.928   5.217   6.464
 3805SOL    HW228558   1.952   5.366   6.463
 3806SOL     OW28559   1.333   5.111   0.335
 3806SOL    HW128560   1.425   5.102   0.361
 3806SOL    HW228561   1.284   5.070   0.407
 3807SOL     OW28562   6.372   4.313   0.546
 3807SOL    HW128563   6.463   4.290   0.561
 3807SOL    HW228564   6.333   4.316   0.634
 3808SOL     OW28565   5.750   5.227   6.566
 3808SOL    HW128566   5.817   5.171   6.527
 3808SOL    HW228567   5.713   5.275   6.492
 3809SOL     OW28568   1.155   4.523   7.311
 3809SOL    HW128569   1.210   4.458   7.356
 3809SOL    HW228570   1.213   4.597   7.294
 3810SOL     OW28571   3.321   3.434   1.882
 3810SOL    HW128572   3.257   3.363   1.882
 3810SOL    HW228573   3.282   3.502   1.937
 3811SOL     OW28574   0.917   3.757   5.740
 3811SOL    HW128575   0.945   3.764   5.831
 3811SOL    HW228576   0.886   3.667   5.731
 3812SOL     OW28577   3.394   0.888   7.151
 3812SOL    HW128578   3.353   0.891   7.238
 3812SOL    HW228579   3.384   0.977   7.117
 3813SOL     OW28580   1.684   3.220   7.253
 3813SOL    HW128581   1.711   3.311   7.235
 3813SOL    HW228582   1.705   3.173   7.173
 3814SOL     OW28583   1.359   3.072   5.934
 3814SOL    HW128584   1.322   3.018   6.004
 3814SOL    HW228585   1.450   3.086   5.961
 3815SOL     OW28586   5.162   3.726   7.412
 3815SOL    HW128587   5.096   3.795   7.408
 3815SOL    HW228588   5.207   3.740   7.495
 3816SOL     OW28589   1.332   0.981   6.568
 3816SOL    HW128590   1.274   0.995   6.643
 3816SOL    HW228591   1.285   0.920   6.511
 3817SOL     OW28592   5.390   6.131   7.660
 3817SOL    HW128593   5.446   6.204   7.686
 3817SOL    HW228594   5.440   6.086   7.591
 3818SOL     OW28595   0.244   5.000   6.275
 3818SOL    HW128596   0.308   4.997   6.204
 3818SOL    HW228597   0.208   4.912   6.280
 3819SOL     OW28598   4.549   4.482   7.449
 3819SOL    HW128599   4.516   4.414   7.508
 3819SOL    HW228600   4.626   4.443   7.408
 3820SOL     OW28601   5.832   4.973   1.431
 3820SOL    HW128602   5.912   5.001   1.476
 3820SOL    HW228603   5.832   4.878   1.439
 3821SOL     OW28604   1.111   3.512   5.925
 3821SOL    HW128605   1.080   3.467   5.847
 3821SOL    HW228606   1.198   3.477   5.940
 3822SOL     OW28607   5.649   0.365   7.006
 3822SOL    HW128608   5.683   0.312   7.078
 3822SOL    HW228609   5.691   0.450   7.017
 3823SOL     OW28610   6.244   4.405   1.530
 3823SOL    HW128611   6.187   4.398   1.607
 3823SOL    HW228612   6.245   4.317   1.493
 3824SOL     OW28613   3.179   1.222   0.102
 3824SOL    HW128614   3.153   1.148   0.157
 3824SOL    HW228615   3.219   1.182   0.025
 3825SOL     OW28616   5.598   2.056   7.341
 3825SOL    HW128617   5.677   2.069   7.288
 3825SOL    HW228618   5.541   2.128   7.315
 3826SOL     OW28619   4.161   0.527   0.567
 3826SOL    HW128620   4.123   0.547   0.653
 3826SOL    HW228621   4.112   0.583   0.506
 3827SOL     OW28622   1.738   2.616   7.472
 3827SOL    HW128623   1.710   2.524   7.469
 3827SOL    HW228624   1.831   2.613   7.449
 3828SOL     OW28625   1.601   6.186   0.080
 3828SOL    HW128626   1.544   6.227   0.145
 3828SOL    HW228627   1.589   6.239   0.001
 3829SOL     OW28628   6.153   5.536   7.132
 3829SOL    HW128629   6.130   5.558   7.042
 3829SOL    HW228630   6.077   5.489   7.165
 3830SOL     OW28631   0.117   4.609   0.119
 3830SOL    HW128632   0.087   4.524   0.150
 3830SOL    HW228633   0.074   4.672   0.178
 3831SOL     OW28634   4.552   2.794   7.150
 3831SOL    HW128635   4.564   2.865   7.087
 3831SOL    HW228636   4.641   2.775   7.181
 3832SOL     OW28637   0.588   5.062   5.460
 3832SOL    HW128638   0.598   4.972   5.491
 3832SOL    HW228639   0.620   5.060   5.370
 3833SOL     OW28640   3.492   5.426   0.339
 3833SOL    HW128641   3.525   5.341   0.367
 3833SOL    HW228642   3.544   5.448   0.262
 3834SOL     OW28643   2.530   0.855   7.483
 3834SOL    HW128644   2.448   0.899   7.504
 3834SOL    HW228645   2.514   0.812   7.399
 3835SOL     OW28646   3.944   1.606   6.692
 3835SOL    HW128647   3.856   1.643   6.683
 3835SOL    HW228648   3.992   1.672   6.742
 3836SOL     OW28649   1.883   0.020   0.786
 3836SOL    HW128650   1.920  -0.065   0.807
 3836SOL    HW228651   1.889   0.026   0.691
 3837SOL     OW28652   5.798   3.364   5.504
 3837SOL    HW128653   5.782   3.455   5.479
 3837SOL    HW228654   5.712   3.329   5.525
 3838SOL     OW28655   3.173   2.075   7.706
 3838SOL    HW128656   3.234   2.081   7.633
 3838SOL    HW228657   3.093   2.039   7.668
 3839SOL     OW28658   0.385   0.843   5.526
 3839SOL    HW128659   0.312   0.798   5.482
 3839SOL    HW228660   0.368   0.936   5.512
 3840SOL     OW28661   6.158   4.737   7.639
 3840SOL    HW128662   6.099   4.701   7.704
 3840SOL    HW228663   6.130   4.828   7.628
 3841SOL     OW28664   4.812   5.540   6.113
 3841SOL    HW128665   4.778   5.463   6.067
 3841SOL    HW228666   4.751   5.610   6.091
 3842SOL     OW28667   4.926   6.088   7.056
 3842SOL    HW128668   4.911   6.182   7.066
 3842SOL    HW228669   4.906   6.071   6.964
 3843SOL     OW28670   4.565   5.799   6.871
 3843SOL    HW128671   4.472   5.784   6.888
 3843SOL    HW228672   4.597   5.836   6.954
 3844SOL     OW28673   0.189   2.246   7.308
 3844SOL    HW128674   0.246   2.313   7.345
 3844SOL    HW228675   0.101   2.272   7.335
 3845SOL     OW28676   4.632   3.908   0.772
 3845SOL    HW128677   4.591   3.990   0.745
 3845SOL    HW228678   4.562   3.844   0.771
 3846SOL     OW28679   1.115   6.098   6.810
 3846SOL    HW128680   1.074   6.064   6.889
 3846SOL    HW228681   1.208   6.079   6.821
 3847SOL     OW28682   6.441   4.655   0.853
 3847SOL    HW128683   6.485   4.717   0.796
 3847SOL    HW228684   6.425   4.704   0.934
 3848SOL     OW28685   5.495   3.838   7.258
 3848SOL    HW128686   5.565   3.879   7.308
 3848SOL    HW228687   5.458   3.773   7.318
 3849SOL     OW28688   5.492   2.702   5.955
 3849SOL    HW128689   5.422   2.652   5.996
 3849SOL    HW228690   5.572   2.664   5.989
 3850SOL     OW28691   0.006   4.386   0.257
 3850SOL    HW128692  -0.031   4.338   0.183
 3850SOL    HW228693  -0.037   4.350   0.334
 3851SOL     OW28694   1.352   5.588   0.126
 3851SOL    HW128695   1.342   5.494   0.108
 3851SOL    HW228696   1.445   5.599   0.143
 3852SOL     OW28697   5.201   4.613   1.918
 3852SOL    HW128698   5.126   4.604   1.858
 3852SOL    HW228699   5.191   4.701   1.954
 3853SOL     OW28700   1.256   0.877   0.601
 3853SOL    HW128701   1.257   0.820   0.678
 3853SOL    HW228702   1.256   0.966   0.637
 3854SOL     OW28703   2.744   0.772   6.378
 3854SOL    HW128704   2.825   0.823   6.376
 3854SOL    HW228705   2.772   0.682   6.392
 3855SOL     OW28706   1.948   2.086   2.355
 3855SOL    HW128707   2.037   2.094   2.387
 3855SOL    HW228708   1.905   2.168   2.379
 3856SOL     OW28709   3.587   1.021   0.722
 3856SOL    HW128710   3.555   1.052   0.806
 3856SOL    HW228711   3.676   1.056   0.716
 3857SOL     OW28712   4.999   0.129   6.122
 3857SOL    HW128713   5.093   0.141   6.128
 3857SOL    HW228714   4.966   0.210   6.084
 3858SOL     OW28715   4.848   2.124   1.035
 3858SOL    HW128716   4.893   2.040   1.038
 3858SOL    HW228717   4.799   2.127   1.118
 3859SOL     OW28718   3.585   1.070   0.388
 3859SOL    HW128719   3.550   0.981   0.393
 3859SOL    HW228720   3.513   1.126   0.418
 3860SOL     OW28721   1.259   4.545   0.577
 3860SOL    HW128722   1.164   4.536   0.581
 3860SOL    HW228723   1.278   4.556   0.484
 3861SOL     OW28724   2.670   6.382   0.564
 3861SOL    HW128725   2.761   6.374   0.593
 3861SOL    HW228726   2.637   6.459   0.610
 3862SOL     OW28727   6.275   1.920   0.380
 3862SOL    HW128728   6.183   1.923   0.406
 3862SOL    HW228729   6.293   2.007   0.345
 3863SOL     OW28730   6.085   4.817   6.005
 3863SOL    HW128731   6.011   4.760   5.984
 3863SOL    HW228732   6.050   4.906   5.997
 3864SOL     OW28733   3.607   3.727   5.268
 3864SOL    HW128734   3.687   3.778   5.283
 3864SOL    HW228735   3.537   3.790   5.284
 3865SOL     OW28736   4.654   2.206   6.271
 3865SOL    HW128737   4.704   2.126   6.257
 3865SOL    HW228738   4.720   2.276   6.271
 3866SOL     OW28739   1.578   0.703   6.773
 3866SOL    HW128740   1.642   0.632   6.773
 3866SOL    HW228741   1.586   0.744   6.687
 3867SOL     OW28742   5.043   1.349   7.291
 3867SOL    HW128743   5.044   1.435   7.334
 3867SOL    HW228744   5.067   1.288   7.360
 3868SOL     OW28745   0.056   1.382   7.254
 3868SOL    HW128746   0.118   1.433   7.307
 3868SOL    HW228747   0.101   1.367   7.171
 3869SOL     OW28748   4.471   1.747   0.454
 3869SOL    HW128749   4.471   1.818   0.518
 3869SOL    HW228750   4.552   1.760   0.405
 3870SOL     OW28751   6.254   6.122   1.382
 3870SOL    HW128752   6.173   6.165   1.410
 3870SOL    HW228753   6.226   6.056   1.319
 3871SOL     OW28754   4.703   6.396   0.863
 3871SOL    HW128755   4.736   6.370   0.948
 3871SOL    HW228756   4.737   6.484   0.849
 3872SOL     OW28757   4.902   3.057   6.811
 3872SOL    HW128758   4.981   3.028   6.856
 3872SOL    HW228759   4.914   3.151   6.798
 3873SOL     OW28760   4.153   0.291   7.191
 3873SOL    HW128761   4.137   0.344   7.270
 3873SOL    HW228762   4.215   0.343   7.140
 3874SOL     OW28763   2.502   5.729   5.544
 3874SOL    HW128764   2.437   5.664   5.517
 3874SOL    HW228765   2.450   5.799   5.584
 3875SOL     OW28766   3.542   2.458   7.326
 3875SOL    HW128767   3.546   2.535   7.382
 3875SOL    HW228768   3.475   2.479   7.261
 3876SOL     OW28769   3.533   6.340   1.606
 3876SOL    HW128770   3.544   6.354   1.700
 3876SOL    HW228771   3.500   6.423   1.573
 3877SOL     OW28772   0.605   1.045   6.738
 3877SOL    HW128773   0.657   1.102   6.795
 3877SOL    HW228774   0.562   0.984   6.798
 3878SOL     OW28775   0.849   6.322   5.752
 3878SOL    HW128776   0.838   6.244   5.806
 3878SOL    HW228777   0.797   6.389   5.795
 3879SOL     OW28778   2.018   3.343   6.995
 3879SOL    HW128779   2.049   3.259   7.030
 3879SOL    HW228780   2.096   3.397   6.987
 3880SOL     OW28781   2.948   0.240   5.224
 3880SOL    HW128782   2.855   0.262   5.217
 3880SOL    HW228783   2.953   0.147   5.201
 3881SOL     OW28784   5.717   1.609   6.910
 3881SOL    HW128785   5.730   1.582   6.820
 3881SOL    HW228786   5.623   1.626   6.917
 3882SOL     OW28787   1.263   2.448   6.505
 3882SOL    HW128788   1.188   2.488   6.549
 3882SOL    HW228789   1.321   2.422   6.577
 3883SOL     OW28790   2.839   5.464   7.285
 3883SOL    HW128791   2.788   5.479   7.365
 3883SOL    HW228792   2.857   5.370   7.286
 3884SOL     OW28793   5.753   6.023   6.359
 3884SOL    HW128794   5.803   5.956   6.313
 3884SOL    HW228795   5.663   5.991   6.360
 3885SOL     OW28796   5.414   1.832   0.771
 3885SOL    HW128797   5.328   1.811   0.733
 3885SOL    HW228798   5.475   1.824   0.698
 3886SOL     OW28799   0.801   4.935   2.054
 3886SOL    HW128800   0.719   4.906   2.095
 3886SOL    HW228801   0.857   4.959   2.128
 3887SOL     OW28802   0.995   3.075   7.722
 3887SOL    HW128803   0.904   3.095   7.701
 3887SOL    HW228804   0.993   3.042   7.811
 3888SOL     OW28805   2.584   1.846   6.492
 3888SOL    HW128806   2.579   1.824   6.585
 3888SOL    HW228807   2.548   1.769   6.447
 3889SOL     OW28808   1.083   2.631   7.156
 3889SOL    HW128809   1.114   2.719   7.178
 3889SOL    HW228810   1.110   2.577   7.231
 3890SOL     OW28811   4.095   2.493   1.120
 3890SOL    HW128812   4.009   2.485   1.077
 3890SOL    HW228813   4.076   2.540   1.201
 3891SOL     OW28814   1.438   4.761   1.198
 3891SOL    HW128815   1.423   4.666   1.193
 3891SOL    HW228816   1.472   4.785   1.112
 3892SOL     OW28817   4.735   0.296   0.139
 3892SOL    HW128818   4.697   0.212   0.163
 3892SOL    HW228819   4.668   0.361   0.159
 3893SOL     OW28820   0.557   2.330   7.428
 3893SOL    HW128821   0.579   2.328   7.521
 3893SOL    HW228822   0.474   2.377   7.423
 3894SOL     OW28823   5.772   0.643   1.227
 3894SOL    HW128824   5.748   0.673   1.140
 3894SOL    HW228825   5.823   0.715   1.264
 3895SOL     OW28826   2.970   0.975   6.959
 3895SOL    HW128827   2.989   1.028   7.036
 3895SOL    HW228828   2.907   0.910   6.990
 3896SOL     OW28829   4.579   5.470   1.571
 3896SOL    HW128830   4.624   5.483   1.488
 3896SOL    HW228831   4.649   5.477   1.637
 3897SOL     OW28832   3.173   2.093   5.868
 3897SOL    HW128833   3.153   2.103   5.775
 3897SOL    HW228834   3.247   2.033   5.870
 3898SOL     OW28835   5.914   3.853   1.023
 3898SOL    HW128836   5.907   3.948   1.011
 3898SOL    HW228837   5.862   3.817   0.951
 3899SOL     OW28838   0.050   4.963   7.484
 3899SOL    HW128839  -0.005   5.041   7.490
 3899SOL    HW228840   0.078   4.946   7.574
 3900SOL     OW28841   2.227   0.124   7.737
 3900SOL    HW128842   2.210   0.098   7.647
 3900SOL    HW228843   2.322   0.113   7.747
 3901SOL     OW28844   2.471   0.167   6.926
 3901SOL    HW128845   2.435   0.177   7.014
 3901SOL    HW228846   2.521   0.086   6.930
 3902SOL     OW28847   3.837   2.428   1.216
 3902SOL    HW128848   3.790   2.477   1.149
 3902SOL    HW228849   3.799   2.457   1.299
 3903SOL     OW28850   1.021   0.346   7.041
 3903SOL    HW128851   1.039   0.440   7.036
 3903SOL    HW228852   0.934   0.340   7.080
 3904SOL     OW28853   1.646   0.981   1.384
 3904SOL    HW128854   1.574   0.919   1.370
 3904SOL    HW228855   1.709   0.932   1.437
 3905SOL     OW28856   0.656   3.608   1.281
 3905SOL    HW128857   0.572   3.565   1.269
 3905SOL    HW228858   0.716   3.537   1.306
 3906SOL     OW28859   1.888   5.539   6.761
 3906SOL    HW128860   1.900   5.465   6.821
 3906SOL    HW228861   1.892   5.616   6.818
 3907SOL     OW28862   2.430   1.155   1.388
 3907SOL    HW128863   2.473   1.170   1.304
 3907SOL    HW228864   2.500   1.129   1.447
 3908SOL     OW28865   2.222   0.863   0.591
 3908SOL    HW128866   2.230   0.898   0.679
 3908SOL    HW228867   2.289   0.795   0.586
 3909SOL     OW28868   1.765   2.304   0.981
 3909SOL    HW128869   1.679   2.277   0.947
 3909SOL    HW228870   1.787   2.236   1.045
 3910SOL     OW28871   1.849   1.380   7.705
 3910SOL    HW128872   1.883   1.291   7.695
 3910SOL    HW228873   1.767   1.380   7.656
 3911SOL     OW28874   4.802   4.356   5.375
 3911SOL    HW128875   4.847   4.441   5.380
 3911SOL    HW228876   4.859   4.302   5.320
 3912SOL     OW28877   2.158   5.859   0.135
 3912SOL    HW128878   2.073   5.858   0.179
 3912SOL    HW228879   2.145   5.919   0.061
 3913SOL     OW28880   5.331   2.807   0.437
 3913SOL    HW128881   5.335   2.763   0.352
 3913SOL    HW228882   5.333   2.900   0.415
 3914SOL     OW28883   1.857   0.328   7.022
 3914SOL    HW128884   1.839   0.279   6.942
 3914SOL    HW228885   1.952   0.336   7.024
 3915SOL     OW28886   6.090   4.140   5.784
 3915SOL    HW128887   6.024   4.147   5.715
 3915SOL    HW228888   6.104   4.046   5.795
 3916SOL     OW28889   1.613   5.440   7.619
 3916SOL    HW128890   1.518   5.429   7.622
 3916SOL    HW228891   1.647   5.379   7.685
 3917SOL     OW28892   2.249   0.493   6.774
 3917SOL    HW128893   2.167   0.538   6.754
 3917SOL    HW228894   2.225   0.401   6.781
 3918SOL     OW28895   3.954   4.037   6.029
 3918SOL    HW128896   3.943   4.055   5.935
 3918SOL    HW228897   4.016   4.103   6.059
 3919SOL     OW28898   3.590   3.217   1.466
 3919SOL    HW128899   3.676   3.254   1.480
 3919SOL    HW228900   3.600   3.160   1.390
 3920SOL     OW28901   2.945   4.886   0.756
 3920SOL    HW128902   2.869   4.835   0.727
 3920SOL    HW228903   2.935   4.971   0.712
 3921SOL     OW28904   5.602   5.797   7.340
 3921SOL    HW128905   5.620   5.809   7.433
 3921SOL    HW228906   5.512   5.825   7.329
 3922SOL     OW28907   2.862   5.197   7.330
 3922SOL    HW128908   2.807   5.141   7.275
 3922SOL    HW228909   2.821   5.194   7.416
 3923SOL     OW28910   4.492   1.322   0.358
 3923SOL    HW128911   4.527   1.372   0.432
 3923SOL    HW228912   4.566   1.312   0.299
 3924SOL     OW28913   3.978   1.761   5.762
 3924SOL    HW128914   3.915   1.736   5.830
 3924SOL    HW228915   4.062   1.764   5.807
 3925SOL     OW28916   4.473   0.243   7.260
 3925SOL    HW128917   4.419   0.166   7.245
 3925SOL    HW228918   4.515   0.261   7.176
 3926SOL     OW28919   3.930   2.130   1.000
 3926SOL    HW128920   3.853   2.161   0.952
 3926SOL    HW228921   3.946   2.043   0.964
 3927SOL     OW28922   1.927   4.297   7.758
 3927SOL    HW128923   1.978   4.330   7.684
 3927SOL    HW228924   1.943   4.361   7.827
 3928SOL     OW28925   5.218   0.271   0.131
 3928SOL    HW128926   5.287   0.216   0.092
 3928SOL    HW228927   5.208   0.237   0.220
 3929SOL     OW28928   0.635   6.283   6.306
 3929SOL    HW128929   0.731   6.279   6.310
 3929SOL    HW228930   0.612   6.355   6.364
 3930SOL     OW28931   2.254   5.932   1.317
 3930SOL    HW128932   2.244   5.908   1.409
 3930SOL    HW228933   2.190   6.003   1.304
 3931SOL     OW28934   0.167   3.742   6.672
 3931SOL    HW128935   0.247   3.757   6.722
 3931SOL    HW228936   0.192   3.761   6.581
 3932SOL     OW28937   2.740   5.935   6.848
 3932SOL    HW128938   2.758   6.025   6.876
 3932SOL    HW228939   2.661   5.942   6.794
 3933SOL     OW28940   6.446   1.883   6.672
 3933SOL    HW128941   6.420   1.813   6.613
 3933SOL    HW228942   6.380   1.951   6.659
 3934SOL     OW28943   1.175   0.433   6.145
 3934SOL    HW128944   1.087   0.471   6.143
 3934SOL    HW228945   1.172   0.368   6.215
 3935SOL     OW28946   3.909   6.416   0.964
 3935SOL    HW128947   3.974   6.466   1.014
 3935SOL    HW228948   3.869   6.358   1.028
 3936SOL     OW28949   5.507   5.116   6.951
 3936SOL    HW128950   5.561   5.172   6.895
 3936SOL    HW228951   5.532   5.027   6.928
 3937SOL     OW28952   6.198   3.709   7.469
 3937SOL    HW128953   6.154   3.794   7.459
 3937SOL    HW228954   6.249   3.699   7.389
 3938SOL     OW28955   1.067   3.935   6.514
 3938SOL    HW128956   1.123   4.004   6.548
 3938SOL    HW228957   0.986   3.943   6.564
 3939SOL     OW28958   5.024   6.024   7.789
 3939SOL    HW128959   4.942   6.046   7.834
 3939SOL    HW228960   4.997   6.002   7.700
 3940SOL     OW28961   4.129   6.208   7.033
 3940SOL    HW128962   4.105   6.299   7.050
 3940SOL    HW228963   4.051   6.158   7.059
 3941SOL     OW28964   0.220   6.198   1.674
 3941SOL    HW128965   0.153   6.144   1.631
 3941SOL    HW228966   0.173   6.239   1.748
 3942SOL     OW28967   2.275   6.338   6.031
 3942SOL    HW128968   2.343   6.371   5.972
 3942SOL    HW228969   2.195   6.339   5.979
 3943SOL     OW28970   6.389   2.367   7.389
 3943SOL    HW128971   6.306   2.414   7.394
 3943SOL    HW228972   6.447   2.415   7.448
 3944SOL     OW28973   5.155   3.850   4.879
 3944SOL    HW128974   5.127   3.855   4.788
 3944SOL    HW228975   5.118   3.768   4.911
 3945SOL     OW28976   3.856   5.034   1.497
 3945SOL    HW128977   3.760   5.033   1.503
 3945SOL    HW228978   3.881   4.942   1.508
 3946SOL     OW28979   1.420   5.632   0.844
 3946SOL    HW128980   1.366   5.711   0.832
 3946SOL    HW228981   1.497   5.647   0.788
 3947SOL     OW28982   1.626   0.512   1.052
 3947SOL    HW128983   1.540   0.499   1.091
 3947SOL    HW228984   1.621   0.597   1.009
 3948SOL     OW28985   2.372   4.757   7.305
 3948SOL    HW128986   2.399   4.719   7.388
 3948SOL    HW228987   2.451   4.755   7.251
 3949SOL     OW28988   2.182   5.033   5.216
 3949SOL    HW128989   2.160   4.950   5.259
 3949SOL    HW228990   2.175   5.099   5.286
 3950SOL     OW28991   1.795   5.356   6.027
 3950SOL    HW128992   1.736   5.386   6.096
 3950SOL    HW228993   1.748   5.375   5.946
 3951SOL     OW28994   0.287   4.380   1.208
 3951SOL    HW128995   0.198   4.411   1.188
 3951SOL    HW228996   0.344   4.449   1.175
 3952SOL     OW28997   1.503   1.876   7.675
 3952SOL    HW128998   1.481   1.822   7.599
 3952SOL    HW228999   1.598   1.863   7.686
 3953SOL     OW29000   4.644   5.174   6.793
 3953SOL    HW129001   4.698   5.242   6.833
 3953SOL    HW229002   4.557   5.189   6.828
 3954SOL     OW29003   4.488   3.738   2.416
 3954SOL    HW129004   4.414   3.680   2.434
 3954SOL    HW229005   4.481   3.756   2.322
 3955SOL     OW29006   3.423   1.139   2.049
 3955SOL    HW129007   3.422   1.146   1.953
 3955SOL    HW229008   3.419   1.229   2.080
 3956SOL     OW29009   2.956   0.729   6.021
 3956SOL    HW129010   2.924   0.686   5.941
 3956SOL    HW229011   2.993   0.658   6.073
 3957SOL     OW29012   1.243   5.768   6.987
 3957SOL    HW129013   1.175   5.758   6.921
 3957SOL    HW229014   1.299   5.691   6.976
 3958SOL     OW29015   5.612   0.714   0.989
 3958SOL    HW129016   5.576   0.625   0.989
 3958SOL    HW229017   5.654   0.722   0.903
 3959SOL     OW29018   0.547   3.049   6.143
 3959SOL    HW129019   0.571   3.098   6.063
 3959SOL    HW229020   0.454   3.069   6.155
 3960SOL     OW29021   0.858   5.179   1.644
 3960SOL    HW129022   0.769   5.144   1.632
 3960SOL    HW229023   0.912   5.102   1.663
 3961SOL     OW29024   3.099   3.890   6.599
 3961SOL    HW129025   3.105   3.879   6.694
 3961SOL    HW229026   3.161   3.959   6.578
 3962SOL     OW29027   5.714   5.035   7.631
 3962SOL    HW129028   5.801   4.996   7.637
 3962SOL    HW229029   5.655   4.960   7.627
 3963SOL     OW29030   4.426   3.875   7.494
 3963SOL    HW129031   4.509   3.846   7.457
 3963SOL    HW229032   4.372   3.796   7.497
 3964SOL     OW29033   2.872   5.790   0.295
 3964SOL    HW129034   2.801   5.855   0.293
 3964SOL    HW229035   2.941   5.829   0.241
 3965SOL     OW29036   5.521   5.882   6.322
 3965SOL    HW129037   5.459   5.875   6.395
 3965SOL    HW229038   5.468   5.914   6.249
 3966SOL     OW29039   5.024   6.330   7.399
 3966SOL    HW129040   5.086   6.257   7.405
 3966SOL    HW229041   5.072   6.398   7.352
 3967SOL     OW29042   4.721   2.332   7.706
 3967SOL    HW129043   4.753   2.381   7.782
 3967SOL    HW229044   4.649   2.279   7.740
 3968SOL     OW29045   3.121   4.673   6.913
 3968SOL    HW129046   3.136   4.605   6.847
 3968SOL    HW229047   3.196   4.667   6.971
 3969SOL     OW29048   5.751   6.111   7.648
 3969SOL    HW129049   5.693   6.187   7.639
 3969SOL    HW229050   5.790   6.100   7.562
 3970SOL     OW29051   1.133   2.085   1.925
 3970SOL    HW129052   1.153   2.093   2.018
 3970SOL    HW229053   1.037   2.078   1.922
 3971SOL     OW29054   5.869   1.404   6.346
 3971SOL    HW129055   5.912   1.489   6.343
 3971SOL    HW229056   5.874   1.371   6.256
 3972SOL     OW29057   6.289   1.911   7.488
 3972SOL    HW129058   6.280   1.837   7.548
 3972SOL    HW229059   6.344   1.878   7.417
 3973SOL     OW29060   2.151   1.446   0.790
 3973SOL    HW129061   2.188   1.500   0.720
 3973SOL    HW229062   2.216   1.450   0.860
 3974SOL     OW29063   0.813   1.732   0.534
 3974SOL    HW129064   0.728   1.726   0.490
 3974SOL    HW229065   0.874   1.690   0.473
 3975SOL     OW29066   4.763   3.165   0.831
 3975SOL    HW129067   4.781   3.074   0.853
 3975SOL    HW229068   4.730   3.204   0.913
 3976SOL     OW29069   5.204   4.604   6.740
 3976SOL    HW129070   5.162   4.587   6.655
 3976SOL    HW229071   5.173   4.691   6.765
 3977SOL     OW29072   2.077   2.309   6.330
 3977SOL    HW129073   2.101   2.285   6.420
 3977SOL    HW229074   1.985   2.286   6.323
 3978SOL     OW29075   0.167   3.674   0.901
 3978SOL    HW129076   0.160   3.581   0.881
 3978SOL    HW229077   0.119   3.685   0.983
 3979SOL     OW29078   5.080   4.398   7.832
 3979SOL    HW129079   5.148   4.463   7.819
 3979SOL    HW229080   5.112   4.320   7.786
 3980SOL     OW29081   2.677   2.467   7.494
 3980SOL    HW129082   2.709   2.542   7.444
 3980SOL    HW229083   2.717   2.476   7.580
 3981SOL     OW29084   6.096   2.726   1.226
 3981SOL    HW129085   6.186   2.742   1.253
 3981SOL    HW229086   6.077   2.794   1.162
 3982SOL     OW29087   1.615   4.604   7.263
 3982SOL    HW129088   1.703   4.620   7.298
 3982SOL    HW229089   1.592   4.516   7.295
 3983SOL     OW29090   2.181   5.707   6.920
 3983SOL    HW129091   2.259   5.754   6.949
 3983SOL    HW229092   2.190   5.620   6.958
 3984SOL     OW29093   5.613   1.837   0.591
 3984SOL    HW129094   5.660   1.780   0.529
 3984SOL    HW229095   5.652   1.817   0.676
 3985SOL     OW29096   2.486   4.808   0.664
 3985SOL    HW129097   2.514   4.877   0.725
 3985SOL    HW229098   2.453   4.738   0.721
 3986SOL     OW29099   5.534   1.778   0.284
 3986SOL    HW129100   5.453   1.826   0.303
 3986SOL    HW229101   5.520   1.691   0.320
 3987SOL     OW29102   3.403   5.281   6.681
 3987SOL    HW129103   3.391   5.323   6.766
 3987SOL    HW229104   3.392   5.352   6.618
 3988SOL     OW29105   0.947   5.314   2.310
 3988SOL    HW129106   0.917   5.371   2.381
 3988SOL    HW229107   0.876   5.317   2.245
 3989SOL     OW29108   0.121   0.836   6.081
 3989SOL    HW129109   0.052   0.776   6.051
 3989SOL    HW229110   0.092   0.922   6.052
 3990SOL     OW29111   4.588   4.058   6.546
 3990SOL    HW129112   4.678   4.055   6.513
 3990SOL    HW229113   4.576   4.148   6.575
 3991SOL     OW29114   3.273   5.292   0.722
 3991SOL    HW129115   3.265   5.290   0.626
 3991SOL    HW229116   3.344   5.230   0.741
 3992SOL     OW29117   5.490   1.557   0.436
 3992SOL    HW129118   5.572   1.595   0.465
 3992SOL    HW229119   5.481   1.477   0.487
 3993SOL     OW29120   2.451   1.400   5.635
 3993SOL    HW129121   2.499   1.317   5.638
 3993SOL    HW229122   2.375   1.386   5.692
 3994SOL     OW29123   3.555   0.246   0.196
 3994SOL    HW129124   3.606   0.325   0.213
 3994SOL    HW229125   3.587   0.214   0.112
 3995SOL     OW29126   5.164   1.708   0.655
 3995SOL    HW129127   5.208   1.647   0.595
 3995SOL    HW229128   5.178   1.794   0.616
 3996SOL     OW29129   1.858   2.910   7.574
 3996SOL    HW129130   1.950   2.892   7.593
 3996SOL    HW229131   1.854   2.918   7.479
 3997SOL     OW29132   5.643   5.942   0.413
 3997SOL    HW129133   5.678   5.904   0.494
 3997SOL    HW229134   5.647   6.036   0.427
 3998SOL     OW29135   0.106   1.613   6.826
 3998SOL    HW129136   0.154   1.610   6.742
 3998SOL    HW229137   0.019   1.580   6.805
 3999SOL     OW29138   0.948   4.266   0.303
 3999SOL    HW129139   1.019   4.208   0.328
 3999SOL    HW229140   0.897   4.216   0.240
 4000SOL     OW29141   3.212   3.579   6.501
 4000SOL    HW129142   3.225   3.496   6.547
 4000SOL    HW229143   3.167   3.635   6.564
 4001SOL     OW29144   0.102   0.152   7.008
 4001SOL    HW129145   0.093   0.070   7.056
 4001SOL    HW229146   0.012   0.179   6.991
 4002SOL     OW29147   1.603   5.083   0.424
 4002SOL    HW129148   1.663   5.157   0.412
 4002SOL    HW229149   1.646   5.027   0.488
 4003SOL     OW29150   5.157   4.030   0.802
 4003SOL    HW129151   5.092   4.097   0.825
 4003SOL    HW229152   5.239   4.079   0.797
 4004SOL     OW29153   3.345   0.228   1.251
 4004SOL    HW129154   3.327   0.135   1.269
 4004SOL    HW229155   3.304   0.245   1.167
 4005SOL     OW29156   1.357   1.650   1.781
 4005SOL    HW129157   1.326   1.668   1.692
 4005SOL    HW229158   1.405   1.729   1.805
 4006SOL     OW29159   2.742   0.106   5.559
 4006SOL    HW129160   2.684   0.126   5.633
 4006SOL    HW229161   2.711   0.021   5.526
 4007SOL     OW29162   6.294   2.010   1.546
 4007SOL    HW129163   6.200   1.997   1.558
 4007SOL    HW229164   6.325   1.926   1.510
 4008SOL     OW29165   2.533   0.016   1.110
 4008SOL    HW129166   2.498   0.091   1.159
 4008SOL    HW229167   2.615   0.047   1.073
 4009SOL     OW29168   5.165   1.176   0.413
 4009SOL    HW129169   5.147   1.225   0.333
 4009SOL    HW229170   5.151   1.084   0.389
 4010SOL     OW29171   1.377   3.327   0.468
 4010SOL    HW129172   1.363   3.234   0.489
 4010SOL    HW229173   1.313   3.346   0.400
 4011SOL     OW29174   0.204   4.832   1.105
 4011SOL    HW129175   0.210   4.792   1.192
 4011SOL    HW229176   0.111   4.829   1.083
 4012SOL     OW29177   0.176   0.693   0.492
 4012SOL    HW129178   0.205   0.664   0.578
 4012SOL    HW229179   0.223   0.775   0.477
 4013SOL     OW29180   4.076   0.706   0.386
 4013SOL    HW129181   4.061   0.800   0.394
 4013SOL    HW229182   4.042   0.684   0.299
 4014SOL     OW29183   2.494   1.546   0.790
 4014SOL    HW129184   2.489   1.474   0.853
 4014SOL    HW229185   2.516   1.623   0.843
 4015SOL     OW29186   1.132   2.213   7.403
 4015SOL    HW129187   1.037   2.208   7.412
 4015SOL    HW229188   1.164   2.222   7.493
 4016SOL     OW29189   2.959   0.816   0.809
 4016SOL    HW129190   3.011   0.773   0.877
 4016SOL    HW229191   2.945   0.905   0.842
 4017SOL     OW29192   3.802   4.628   0.418
 4017SOL    HW129193   3.759   4.713   0.408
 4017SOL    HW229194   3.785   4.582   0.336
 4018SOL     OW29195   4.435   3.124   1.728
 4018SOL    HW129196   4.461   3.126   1.636
 4018SOL    HW229197   4.339   3.118   1.726
 4019SOL     OW29198   6.145   2.057   0.102
 4019SOL    HW129199   6.105   1.972   0.084
 4019SOL    HW229200   6.079   2.106   0.151
 4020SOL     OW29201   3.716   4.452   7.562
 4020SOL    HW129202   3.795   4.492   7.597
 4020SOL    HW229203   3.731   4.358   7.568
 4021SOL     OW29204   0.879   1.413   6.633
 4021SOL    HW129205   0.823   1.450   6.565
 4021SOL    HW229206   0.829   1.423   6.714
 4022SOL     OW29207   5.864   5.423   0.133
 4022SOL    HW129208   5.809   5.463   0.066
 4022SOL    HW229209   5.803   5.371   0.186
 4023SOL     OW29210   6.214   2.767   6.689
 4023SOL    HW129211   6.155   2.841   6.703
 4023SOL    HW229212   6.176   2.696   6.741
 4024SOL     OW29213   3.228   3.526   0.064
 4024SOL    HW129214   3.253   3.582   0.137
 4024SOL    HW229215   3.311   3.487   0.035
 4025SOL     OW29216   3.370   1.882   7.135
 4025SOL    HW129217   3.274   1.889   7.135
 4025SOL    HW229218   3.400   1.970   7.159
 4026SOL     OW29219   0.614   1.846   7.170
 4026SOL    HW129220   0.660   1.852   7.254
 4026SOL    HW229221   0.542   1.785   7.185
 4027SOL     OW29222   5.613   6.305   0.117
 4027SOL    HW129223   5.700   6.270   0.099
 4027SOL    HW229224   5.566   6.233   0.157
 4028SOL     OW29225   1.175   3.484   5.584
 4028SOL    HW129226   1.204   3.431   5.658
 4028SOL    HW229227   1.088   3.516   5.611
 4029SOL     OW29228   0.195   2.156   1.107
 4029SOL    HW129229   0.178   2.183   1.197
 4029SOL    HW229230   0.248   2.226   1.070
 4030SOL     OW29231   0.513   2.066   0.347
 4030SOL    HW129232   0.502   2.162   0.352
 4030SOL    HW229233   0.569   2.053   0.270
 4031SOL     OW29234   4.963   5.667   0.318
 4031SOL    HW129235   4.942   5.689   0.409
 4031SOL    HW229236   4.900   5.716   0.266
 4032SOL     OW29237   2.167   4.693   7.124
 4032SOL    HW129238   2.240   4.711   7.183
 4032SOL    HW229239   2.191   4.610   7.082
 4033SOL     OW29240   1.492   3.106   0.247
 4033SOL    HW129241   1.572   3.121   0.297
 4033SOL    HW229242   1.464   3.194   0.220
 4034SOL     OW29243   1.656   4.361   7.084
 4034SOL    HW129244   1.685   4.441   7.040
 4034SOL    HW229245   1.561   4.364   7.079
 4035SOL     OW29246   5.289   1.556   1.273
 4035SOL    HW129247   5.365   1.503   1.247
 4035SOL    HW229248   5.269   1.528   1.362
 4036SOL     OW29249   3.250   2.867   7.039
 4036SOL    HW129250   3.281   2.929   6.974
 4036SOL    HW229251   3.279   2.903   7.123
 4037SOL     OW29252   0.283   4.735   6.514
 4037SOL    HW129253   0.359   4.767   6.465
 4037SOL    HW229254   0.276   4.795   6.588
 4038SOL     OW29255   6.265   3.057   7.590
 4038SOL    HW129256   6.280   3.069   7.684
 4038SOL    HW229257   6.263   3.146   7.554
 4039SOL     OW29258   5.108   3.971   6.852
 4039SOL    HW129259   5.109   3.928   6.938
 4039SOL    HW229260   5.103   4.064   6.872
 4040SOL     OW29261   5.957   3.883   6.588
 4040SOL    HW129262   5.935   3.905   6.497
 4040SOL    HW229263   5.976   3.789   6.586
 4041SOL     OW29264   6.204   3.701   0.722
 4041SOL    HW129265   6.227   3.654   0.802
 4041SOL    HW229266   6.205   3.635   0.654
 4042SOL     OW29267   3.601   2.583   0.411
 4042SOL    HW129268   3.687   2.573   0.451
 4042SOL    HW229269   3.568   2.666   0.446
 4043SOL     OW29270   2.358   3.307   6.947
 4043SOL    HW129271   2.444   3.293   6.909
 4043SOL    HW229272   2.348   3.237   7.011
 4044SOL     OW29273   2.900   3.657   7.563
 4044SOL    HW129274   2.961   3.695   7.627
 4044SOL    HW229275   2.877   3.572   7.600
 4045SOL     OW29276   5.227   1.169   7.682
 4045SOL    HW129277   5.230   1.200   7.772
 4045SOL    HW229278   5.149   1.113   7.678
 4046SOL     OW29279   5.525   4.641   5.696
 4046SOL    HW129280   5.574   4.669   5.772
 4046SOL    HW229281   5.542   4.547   5.690
 4047SOL     OW29282   3.733   1.719   6.582
 4047SOL    HW129283   3.717   1.779   6.509
 4047SOL    HW229284   3.659   1.734   6.641
 4048SOL     OW29285   5.022   5.882   7.508
 4048SOL    HW129286   4.981   5.801   7.477
 4048SOL    HW229287   5.112   5.857   7.528
 4049SOL     OW29288   1.174   6.015   1.845
 4049SOL    HW129289   1.193   6.109   1.843
 4049SOL    HW229290   1.104   6.004   1.781
 4050SOL     OW29291   4.313   1.071   0.337
 4050SOL    HW129292   4.374   1.112   0.276
 4050SOL    HW229293   4.370   1.028   0.402
 4051SOL     OW29294   6.207   4.222   0.158
 4051SOL    HW129295   6.189   4.169   0.236
 4051SOL    HW229296   6.280   4.178   0.115
 4052SOL     OW29297   4.964   1.561   7.686
 4052SOL    HW129298   5.015   1.506   7.627
 4052SOL    HW229299   4.886   1.584   7.635
 4053SOL     OW29300   0.299   5.002   1.878
 4053SOL    HW129301   0.353   4.946   1.934
 4053SOL    HW229302   0.323   5.091   1.904
 4054SOL     OW29303   2.577   1.124   7.741
 4054SOL    HW129304   2.642   1.163   7.800
 4054SOL    HW229305   2.547   1.196   7.686
 4055SOL     OW29306   4.853   4.364   6.039
 4055SOL    HW129307   4.907   4.438   6.066
 4055SOL    HW229308   4.880   4.293   6.098
 4056SOL     OW29309   2.795   0.293   7.594
 4056SOL    HW129310   2.797   0.352   7.670
 4056SOL    HW229311   2.856   0.223   7.617
 4057SOL     OW29312   0.143   1.857   7.141
 4057SOL    HW129313   0.208   1.912   7.098
 4057SOL    HW229314   0.079   1.838   7.072
 4058SOL     OW29315   2.257   0.760   5.839
 4058SOL    HW129316   2.197   0.698   5.798
 4058SOL    HW229317   2.343   0.737   5.803
 4059SOL     OW29318   2.457   2.310   4.887
 4059SOL    HW129319   2.400   2.383   4.912
 4059SOL    HW229320   2.539   2.353   4.859
 4060SOL     OW29321   4.168   0.771   6.844
 4060SOL    HW129322   4.165   0.684   6.882
 4060SOL    HW229323   4.118   0.763   6.763
 4061SOL     OW29324   0.090   5.574   0.143
 4061SOL    HW129325   0.008   5.600   0.185
 4061SOL    HW229326   0.126   5.656   0.107
 4062SOL     OW29327   2.501   3.687   1.145
 4062SOL    HW129328   2.575   3.672   1.086
 4062SOL    HW229329   2.440   3.740   1.094
 4063SOL     OW29330   1.138   2.879   1.466
 4063SOL    HW129331   1.083   2.956   1.482
 4063SOL    HW229332   1.133   2.828   1.547
 4064SOL     OW29333   4.291   4.419   1.374
 4064SOL    HW129334   4.267   4.454   1.460
 4064SOL    HW229335   4.267   4.488   1.313
 4065SOL     OW29336   6.290   5.734   6.313
 4065SOL    HW129337   6.197   5.728   6.332
 4065SOL    HW229338   6.318   5.816   6.352
 4066SOL     OW29339   0.220   1.521   7.465
 4066SOL    HW129340   0.311   1.521   7.437
 4066SOL    HW229341   0.224   1.503   7.559
 4067SOL     OW29342   1.592   0.087   0.180
 4067SOL    HW129343   1.673   0.107   0.135
 4067SOL    HW229344   1.527   0.146   0.140
 4068SOL     OW29345   5.068   4.135   7.240
 4068SOL    HW129346   5.161   4.133   7.217
 4068SOL    HW229347   5.046   4.228   7.243
 4069SOL     OW29348   1.587   2.053   0.251
 4069SOL    HW129349   1.625   1.966   0.241
 4069SOL    HW229350   1.663   2.112   0.258
 4070SOL     OW29351   2.431   6.314   1.646
 4070SOL    HW129352   2.515   6.275   1.623
 4070SOL    HW229353   2.387   6.329   1.562
 4071SOL     OW29354   5.540   0.144   0.840
 4071SOL    HW129355   5.522   0.092   0.918
 4071SOL    HW229356   5.609   0.097   0.795
 4072SOL     OW29357   4.941   5.390   1.657
 4072SOL    HW129358   4.898   5.351   1.732
 4072SOL    HW229359   5.030   5.354   1.658
 4073SOL     OW29360   3.100   2.956   1.924
 4073SOL    HW129361   3.176   3.014   1.933
 4073SOL    HW229362   3.025   3.014   1.931
 4074SOL     OW29363   6.345   5.504   6.211
 4074SOL    HW129364   6.333   5.590   6.251
 4074SOL    HW229365   6.376   5.448   6.282
 4075SOL     OW29366   2.084   4.361   0.863
 4075SOL    HW129367   2.112   4.326   0.778
 4075SOL    HW229368   2.166   4.385   0.907
 4076SOL     OW29369   5.406   2.983   1.027
 4076SOL    HW129370   5.384   3.065   0.981
 4076SOL    HW229371   5.413   3.009   1.119
 4077SOL     OW29372   3.470   2.382   5.322
 4077SOL    HW129373   3.408   2.423   5.261
 4077SOL    HW229374   3.512   2.313   5.271
 4078SOL     OW29375   0.809   5.485   1.727
 4078SOL    HW129376   0.870   5.461   1.657
 4078SOL    HW229377   0.762   5.561   1.693
 4079SOL     OW29378   1.805   5.968   2.644
 4079SOL    HW129379   1.829   5.876   2.638
 4079SOL    HW229380   1.720   5.967   2.689
 4080SOL     OW29381   2.419   3.090   7.106
 4080SOL    HW129382   2.387   3.092   7.197
 4080SOL    HW229383   2.504   3.046   7.111
 4081SOL     OW29384   3.693   2.887   6.524
 4081SOL    HW129385   3.781   2.924   6.532
 4081SOL    HW229386   3.703   2.797   6.556
 4082SOL     OW29387   5.704   4.217   6.838
 4082SOL    HW129388   5.729   4.207   6.929
 4082SOL    HW229389   5.739   4.140   6.794
 4083SOL     OW29390   2.907   4.655   6.451
 4083SOL    HW129391   2.886   4.702   6.532
 4083SOL    HW229392   2.841   4.585   6.447
 4084SOL     OW29393   4.945   5.505   0.969
 4084SOL    HW129394   4.930   5.426   1.023
 4084SOL    HW229395   4.978   5.570   1.031
 4085SOL     OW29396   5.745   1.150   6.426
 4085SOL    HW129397   5.825   1.131   6.377
 4085SOL    HW229398   5.690   1.200   6.366
 4086SOL     OW29399   5.686   5.198   0.798
 4086SOL    HW129400   5.642   5.181   0.881
 4086SOL    HW229401   5.769   5.239   0.824
 4087SOL     OW29402   3.588   1.575   0.408
 4087SOL    HW129403   3.517   1.517   0.436
 4087SOL    HW229404   3.579   1.653   0.462
 4088SOL     OW29405   1.264   5.330   5.752
 4088SOL    HW129406   1.272   5.243   5.792
 4088SOL    HW229407   1.298   5.319   5.663
 4089SOL     OW29408   6.037   6.074   7.795
 4089SOL    HW129409   5.951   6.091   7.758
 4089SOL    HW229410   6.021   6.056   7.888
 4090SOL     OW29411   2.693   5.221   7.069
 4090SOL    HW129412   2.669   5.153   7.005
 4090SOL    HW229413   2.787   5.231   7.060
 4091SOL     OW29414   1.100   3.237   0.877
 4091SOL    HW129415   1.067   3.266   0.962
 4091SOL    HW229416   1.148   3.156   0.896
 4092SOL     OW29417   5.589   4.868   6.848
 4092SOL    HW129418   5.675   4.908   6.832
 4092SOL    HW229419   5.607   4.796   6.908
 4093SOL     OW29420   1.488   0.694   1.868
 4093SOL    HW129421   1.439   0.734   1.796
 4093SOL    HW229422   1.513   0.607   1.836
 4094SOL     OW29423   0.850   0.716   7.051
 4094SOL    HW129424   0.872   0.782   6.986
 4094SOL    HW229425   0.901   0.639   7.025
 4095SOL     OW29426   1.796   0.480   1.253
 4095SOL    HW129427   1.747   0.483   1.171
 4095SOL    HW229428   1.741   0.429   1.312
 4096SOL     OW29429   6.131   4.211   2.248
 4096SOL    HW129430   6.182   4.130   2.259
 4096SOL    HW229431   6.098   4.207   2.159
 4097SOL     OW29432   1.121   1.219   0.401
 4097SOL    HW129433   1.114   1.218   0.497
 4097SOL    HW229434   1.092   1.132   0.374
 4098SOL     OW29435   2.941   1.980   7.580
 4098SOL    HW129436   2.848   1.999   7.579
 4098SOL    HW229437   2.960   1.947   7.493
 4099SOL     OW29438   0.573   0.044   1.663
 4099SOL    HW129439   0.557   0.072   1.753
 4099SOL    HW229440   0.633   0.111   1.628
 4100SOL     OW29441   4.741   6.335   5.207
 4100SOL    HW129442   4.717   6.418   5.247
 4100SOL    HW229443   4.673   6.320   5.141
 4101SOL     OW29444   1.068   4.606   6.153
 4101SOL    HW129445   1.098   4.630   6.066
 4101SOL    HW229446   1.013   4.528   6.139
 4102SOL     OW29447   3.597   0.087   5.881
 4102SOL    HW129448   3.555   0.173   5.878
 4102SOL    HW229449   3.690   0.106   5.897
 4103SOL     OW29450   6.411   0.040   6.645
 4103SOL    HW129451   6.478   0.087   6.595
 4103SOL    HW229452   6.389   0.099   6.717
 4104SOL     OW29453   3.615   2.803   2.134
 4104SOL    HW129454   3.588   2.890   2.107
 4104SOL    HW229455   3.534   2.757   2.155
 4105SOL     OW29456   0.394   4.603   1.075
 4105SOL    HW129457   0.450   4.588   0.999
 4105SOL    HW229458   0.351   4.687   1.057
 4106SOL     OW29459   4.390   3.952   1.436
 4106SOL    HW129460   4.355   3.892   1.502
 4106SOL    HW229461   4.471   3.911   1.407
 4107SOL     OW29462   2.036   5.442   7.662
 4107SOL    HW129463   1.990   5.364   7.694
 4107SOL    HW229464   1.992   5.463   7.580
 4108SOL     OW29465   1.164   0.298   1.435
 4108SOL    HW129466   1.248   0.314   1.479
 4108SOL    HW229467   1.098   0.306   1.505
 4109SOL     OW29468   3.705   4.245   1.686
 4109SOL    HW129469   3.788   4.232   1.642
 4109SOL    HW229470   3.728   4.289   1.768
 4110SOL     OW29471   5.661   1.306   0.118
 4110SOL    HW129472   5.661   1.210   0.110
 4110SOL    HW229473   5.570   1.328   0.133
 4111SOL     OW29474   3.655   4.122   2.307
 4111SOL    HW129475   3.590   4.054   2.292
 4111SOL    HW229476   3.643   4.184   2.235
 4112SOL     OW29477   1.494   1.262   5.948
 4112SOL    HW129478   1.487   1.286   5.856
 4112SOL    HW229479   1.423   1.310   5.991
 4113SOL     OW29480   4.160   3.218   5.906
 4113SOL    HW129481   4.155   3.264   5.822
 4113SOL    HW229482   4.228   3.152   5.893
 4114SOL     OW29483   1.836   0.802   1.066
 4114SOL    HW129484   1.873   0.774   1.149
 4114SOL    HW229485   1.872   0.740   1.002
 4115SOL     OW29486   3.244   5.415   1.112
 4115SOL    HW129487   3.158   5.392   1.148
 4115SOL    HW229488   3.225   5.449   1.025
 4116SOL     OW29489   2.833   0.720   0.413
 4116SOL    HW129490   2.924   0.746   0.428
 4116SOL    HW229491   2.781   0.790   0.452
 4117SOL     OW29492   1.407   1.374   7.124
 4117SOL    HW129493   1.428   1.283   7.101
 4117SOL    HW229494   1.359   1.368   7.206
 4118SOL     OW29495   3.012   2.016   1.766
 4118SOL    HW129496   2.932   2.013   1.712
 4118SOL    HW229497   3.079   1.974   1.711
 4119SOL     OW29498   1.522   1.153   6.651
 4119SOL    HW129499   1.481   1.235   6.680
 4119SOL    HW229500   1.451   1.104   6.610
 4120SOL     OW29501   2.178   3.398   5.072
 4120SOL    HW129502   2.236   3.471   5.052
 4120SOL    HW229503   2.093   3.438   5.090
 4121SOL     OW29504   0.735   1.884   1.459
 4121SOL    HW129505   0.780   1.962   1.493
 4121SOL    HW229506   0.648   1.889   1.498
 4122SOL     OW29507   6.022   4.931   1.118
 4122SOL    HW129508   6.084   4.958   1.186
 4122SOL    HW229509   6.074   4.929   1.038
 4123SOL     OW29510   3.022   5.147   5.862
 4123SOL    HW129511   3.085   5.188   5.802
 4123SOL    HW229512   3.074   5.125   5.939
 4124SOL     OW29513   3.183   3.821   7.448
 4124SOL    HW129514   3.256   3.883   7.453
 4124SOL    HW229515   3.105   3.876   7.443
 4125SOL     OW29516   2.640   1.769   7.400
 4125SOL    HW129517   2.643   1.853   7.445
 4125SOL    HW229518   2.593   1.787   7.318
 4126SOL     OW29519   0.294   0.830   1.076
 4126SOL    HW129520   0.239   0.801   1.149
 4126SOL    HW229521   0.245   0.804   0.998
 4127SOL     OW29522   3.029   0.609   1.488
 4127SOL    HW129523   2.989   0.617   1.402
 4127SOL    HW229524   3.093   0.539   1.479
 4128SOL     OW29525   2.181   5.770   1.071
 4128SOL    HW129526   2.097   5.790   1.030
 4128SOL    HW229527   2.190   5.837   1.139
 4129SOL     OW29528   3.728   3.189   2.229
 4129SOL    HW129529   3.676   3.148   2.298
 4129SOL    HW229530   3.665   3.240   2.178
 4130SOL     OW29531   1.528   1.977   1.445
 4130SOL    HW129532   1.467   1.921   1.493
 4130SOL    HW229533   1.494   1.976   1.355
 4131SOL     OW29534   0.812   1.152   0.042
 4131SOL    HW129535   0.891   1.100   0.061
 4131SOL    HW229536   0.827   1.235   0.086
 4132SOL     OW29537   4.682   2.731   5.859
 4132SOL    HW129538   4.759   2.785   5.842
 4132SOL    HW229539   4.608   2.793   5.854
 4133SOL     OW29540   3.151   3.080   0.841
 4133SOL    HW129541   3.141   3.089   0.746
 4133SOL    HW229542   3.070   3.117   0.876
 4134SOL     OW29543   1.889   5.351   5.319
 4134SOL    HW129544   1.964   5.373   5.263
 4134SOL    HW229545   1.915   5.380   5.406
 4135SOL     OW29546   3.204   1.522   7.276
 4135SOL    HW129547   3.289   1.562   7.257
 4135SOL    HW229548   3.147   1.552   7.205
 4136SOL     OW29549   4.344   5.177   6.852
 4136SOL    HW129550   4.313   5.139   6.935
 4136SOL    HW229551   4.264   5.191   6.802
 4137SOL     OW29552   1.152   3.298   0.066
 4137SOL    HW129553   1.098   3.321  -0.010
 4137SOL    HW229554   1.210   3.229   0.034
 4138SOL     OW29555   0.109   6.370   0.506
 4138SOL    HW129556   0.189   6.408   0.542
 4138SOL    HW229557   0.049   6.445   0.499
 4139SOL     OW29558   0.180   1.283   0.726
 4139SOL    HW129559   0.205   1.295   0.818
 4139SOL    HW229560   0.189   1.189   0.711
 4140SOL     OW29561   1.480   3.762   0.198
 4140SOL    HW129562   1.549   3.799   0.254
 4140SOL    HW229563   1.402   3.814   0.218
 4141SOL     OW29564   5.573   3.484   6.923
 4141SOL    HW129565   5.622   3.477   7.005
 4141SOL    HW229566   5.604   3.410   6.871
 4142SOL     OW29567   0.433   4.684   5.795
 4142SOL    HW129568   0.454   4.721   5.882
 4142SOL    HW229569   0.357   4.628   5.811
 4143SOL     OW29570   3.962   1.258   6.494
 4143SOL    HW129571   3.914   1.260   6.577
 4143SOL    HW229572   3.976   1.350   6.473
 4144SOL     OW29573   4.922   5.424   0.187
 4144SOL    HW129574   4.982   5.353   0.207
 4144SOL    HW229575   4.945   5.493   0.250
 4145SOL     OW29576   5.686   1.358   1.158
 4145SOL    HW129577   5.751   1.400   1.214
 4145SOL    HW229578   5.615   1.422   1.152
 4146SOL     OW29579   5.315   5.513   2.316
 4146SOL    HW129580   5.364   5.589   2.345
 4146SOL    HW229581   5.310   5.456   2.393
 4147SOL     OW29582   1.831   4.390   0.953
 4147SOL    HW129583   1.805   4.305   0.986
 4147SOL    HW229584   1.923   4.381   0.931
 4148SOL     OW29585   1.095   4.300   6.528
 4148SOL    HW129586   1.020   4.356   6.512
 4148SOL    HW229587   1.166   4.361   6.551
 4149SOL     OW29588   0.703   4.802   6.541
 4149SOL    HW129589   0.694   4.779   6.633
 4149SOL    HW229590   0.797   4.815   6.528
 4150SOL     OW29591   3.609   0.644   1.000
 4150SOL    HW129592   3.637   0.713   1.060
 4150SOL    HW229593   3.614   0.564   1.052
 4151SOL     OW29594   5.494   2.773   0.822
 4151SOL    HW129595   5.487   2.827   0.900
 4151SOL    HW229596   5.445   2.694   0.842
 4152SOL     OW29597   0.000   2.522   1.370
 4152SOL    HW129598   0.079   2.570   1.397
 4152SOL    HW229599   0.031   2.434   1.351
 4153SOL     OW29600   2.145   0.919   6.306
 4153SOL    HW129601   2.199   0.856   6.259
 4153SOL    HW229602   2.206   0.987   6.333
 4154SOL     OW29603   4.763   5.367   6.963
 4154SOL    HW129604   4.847   5.322   6.965
 4154SOL    HW229605   4.770   5.435   7.030
 4155SOL     OW29606   0.449   3.592   7.312
 4155SOL    HW129607   0.435   3.534   7.387
 4155SOL    HW229608   0.541   3.620   7.321
 4156SOL     OW29609   3.085   5.327   6.488
 4156SOL    HW129610   3.123   5.397   6.434
 4156SOL    HW229611   2.992   5.326   6.463
 4157SOL     OW29612   5.904   4.645   5.853
 4157SOL    HW129613   5.859   4.561   5.859
 4157SOL    HW229614   5.916   4.659   5.759
 4158SOL     OW29615   2.612   4.316   1.636
 4158SOL    HW129616   2.699   4.289   1.666
 4158SOL    HW229617   2.552   4.256   1.679
 4159SOL     OW29618   2.897   2.963   5.918
 4159SOL    HW129619   2.930   3.044   5.957
 4159SOL    HW229620   2.899   2.979   5.824
 4160SOL     OW29621   3.326   3.382   5.206
 4160SOL    HW129622   3.283   3.445   5.264
 4160SOL    HW229623   3.387   3.434   5.155
 4161SOL     OW29624   1.984   0.040   2.329
 4161SOL    HW129625   2.001  -0.053   2.342
 4161SOL    HW229626   2.058   0.071   2.276
 4162SOL     OW29627   6.403   2.107   0.166
 4162SOL    HW129628   6.311   2.092   0.142
 4162SOL    HW229629   6.446   2.131   0.084
 4163SOL     OW29630   5.199   0.933   1.889
 4163SOL    HW129631   5.116   0.973   1.864
 4163SOL    HW229632   5.265   0.998   1.863
 4164SOL     OW29633   1.754   5.065   7.299
 4164SOL    HW129634   1.732   5.148   7.255
 4164SOL    HW229635   1.727   4.998   7.237
 4165SOL     OW29636   2.925   1.670   2.524
 4165SOL    HW129637   2.990   1.650   2.592
 4165SOL    HW229638   2.859   1.601   2.534
 4166SOL     OW29639   4.150   6.087   6.716
 4166SOL    HW129640   4.161   6.094   6.621
 4166SOL    HW229641   4.120   5.998   6.730
 4167SOL     OW29642   3.522   3.682   0.740
 4167SOL    HW129643   3.526   3.773   0.712
 4167SOL    HW229644   3.548   3.632   0.663
 4168SOL     OW29645   5.304   3.057   0.388
 4168SOL    HW129646   5.253   3.092   0.461
 4168SOL    HW229647   5.311   3.130   0.326
 4169SOL     OW29648   5.802   4.700   1.440
 4169SOL    HW129649   5.879   4.647   1.423
 4169SOL    HW229650   5.739   4.640   1.480
 4170SOL     OW29651   3.938   4.322   5.451
 4170SOL    HW129652   4.010   4.272   5.489
 4170SOL    HW229653   3.863   4.261   5.453
 4171SOL     OW29654   5.789   5.459   2.499
 4171SOL    HW129655   5.864   5.506   2.536
 4171SOL    HW229656   5.813   5.367   2.506
 4172SOL     OW29657   5.041   5.078   0.952
 4172SOL    HW129658   4.999   5.135   1.016
 4172SOL    HW229659   5.128   5.116   0.940
 4173SOL     OW29660   6.212   4.663   7.122
 4173SOL    HW129661   6.297   4.642   7.162
 4173SOL    HW229662   6.148   4.620   7.179
 4174SOL     OW29663   3.391   3.343   0.416
 4174SOL    HW129664   3.480   3.351   0.451
 4174SOL    HW229665   3.358   3.433   0.413
 4175SOL     OW29666   6.348   0.467   1.569
 4175SOL    HW129667   6.302   0.467   1.653
 4175SOL    HW229668   6.310   0.540   1.521
 4176SOL     OW29669   0.364   4.438   7.630
 4176SOL    HW129670   0.435   4.426   7.692
 4176SOL    HW229671   0.337   4.529   7.640
 4177SOL     OW29672   3.122   2.215   0.832
 4177SOL    HW129673   3.101   2.134   0.878
 4177SOL    HW229674   3.173   2.267   0.894
 4178SOL     OW29675   2.937   1.212   5.532
 4178SOL    HW129676   2.875   1.194   5.462
 4178SOL    HW229677   2.882   1.239   5.606
 4179SOL     OW29678   4.922   4.145   6.204
 4179SOL    HW129679   4.914   4.052   6.222
 4179SOL    HW229680   5.013   4.157   6.177
 4180SOL     OW29681   2.374   0.833   1.889
 4180SOL    HW129682   2.429   0.810   1.964
 4180SOL    HW229683   2.349   0.924   1.904
 4181SOL     OW29684   5.399   4.424   0.199
 4181SOL    HW129685   5.410   4.330   0.210
 4181SOL    HW229686   5.380   4.435   0.106
 4182SOL     OW29687   3.667   1.934   5.652
 4182SOL    HW129688   3.672   1.927   5.748
 4182SOL    HW229689   3.696   1.849   5.620
 4183SOL     OW29690   0.226   1.107   5.904
 4183SOL    HW129691   0.138   1.123   5.870
 4183SOL    HW229692   0.218   1.117   5.999
 4184SOL     OW29693   3.292   2.351   1.033
 4184SOL    HW129694   3.266   2.313   1.117
 4184SOL    HW229695   3.345   2.427   1.056
 4185SOL     OW29696   2.909   2.015   5.908
 4185SOL    HW129697   2.891   2.007   5.814
 4185SOL    HW229698   3.003   2.036   5.913
 4186SOL     OW29699   5.352   2.048   6.856
 4186SOL    HW129700   5.437   2.080   6.886
 4186SOL    HW229701   5.363   2.035   6.762
 4187SOL     OW29702   5.478   2.160   6.477
 4187SOL    HW129703   5.429   2.117   6.407
 4187SOL    HW229704   5.505   2.088   6.535
 4188SOL     OW29705   0.949   2.717   6.281
 4188SOL    HW129706   1.008   2.710   6.356
 4188SOL    HW229707   0.965   2.804   6.245
 4189SOL     OW29708   3.041   0.679   6.898
 4189SOL    HW129709   3.136   0.681   6.891
 4189SOL    HW229710   3.013   0.632   6.819
 4190SOL     OW29711   3.014   2.798   4.859
 4190SOL    HW129712   3.013   2.884   4.902
 4190SOL    HW229713   2.929   2.760   4.880
 4191SOL     OW29714   2.096   3.806   7.715
 4191SOL    HW129715   2.170   3.816   7.775
 4191SOL    HW229716   2.021   3.787   7.771
 4192SOL     OW29717   0.645   1.694   1.148
 4192SOL    HW129718   0.692   1.770   1.113
 4192SOL    HW229719   0.653   1.703   1.243
 4193SOL     OW29720   0.970   1.638   0.734
 4193SOL    HW129721   0.918   1.594   0.801
 4193SOL    HW229722   0.907   1.689   0.684
 4194SOL     OW29723   6.380   4.011   0.150
 4194SOL    HW129724   6.370   3.915   0.149
 4194SOL    HW229725   6.453   4.026   0.211
 4195SOL     OW29726   1.392   4.016   0.269
 4195SOL    HW129727   1.471   4.046   0.315
 4195SOL    HW229728   1.372   4.086   0.207
 4196SOL     OW29729   4.204   3.881   2.145
 4196SOL    HW129730   4.236   3.792   2.159
 4196SOL    HW229731   4.254   3.913   2.070
 4197SOL     OW29732   2.818   2.025   1.573
 4197SOL    HW129733   2.813   1.932   1.550
 4197SOL    HW229734   2.761   2.069   1.509
 4198SOL     OW29735   4.048   4.644   6.321
 4198SOL    HW129736   4.083   4.733   6.320
 4198SOL    HW229737   4.123   4.588   6.300
 4199SOL     OW29738   4.021   0.781   6.107
 4199SOL    HW129739   3.962   0.807   6.179
 4199SOL    HW229740   3.964   0.778   6.030
 4200SOL     OW29741   5.465   4.646   5.202
 4200SOL    HW129742   5.452   4.576   5.138
 4200SOL    HW229743   5.413   4.719   5.168
 4201SOL     OW29744   2.310   1.059   6.953
 4201SOL    HW129745   2.229   1.009   6.955
 4201SOL    HW229746   2.298   1.123   6.883
 4202SOL     OW29747   1.863   2.182   6.055
 4202SOL    HW129748   1.932   2.202   5.991
 4202SOL    HW229749   1.786   2.229   6.023
 4203SOL     OW29750   3.631   1.650   1.297
 4203SOL    HW129751   3.666   1.647   1.386
 4203SOL    HW229752   3.540   1.621   1.307
 4204SOL     OW29753   5.418   2.699   6.679
 4204SOL    HW129754   5.447   2.637   6.611
 4204SOL    HW229755   5.477   2.684   6.752
 4205SOL     OW29756   4.723   0.680   1.368
 4205SOL    HW129757   4.720   0.772   1.344
 4205SOL    HW229758   4.679   0.676   1.453
 4206SOL     OW29759   0.011   6.405   1.560
 4206SOL    HW129760   0.028   6.499   1.556
 4206SOL    HW229761  -0.059   6.397   1.625
 4207SOL     OW29762   4.214   0.257   7.650
 4207SOL    HW129763   4.216   0.163   7.664
 4207SOL    HW229764   4.282   0.274   7.585
 4208SOL     OW29765   3.168   6.023   7.030
 4208SOL    HW129766   3.121   5.970   7.094
 4208SOL    HW229767   3.168   5.970   6.950
 4209SOL     OW29768   5.689   5.389   2.144
 4209SOL    HW129769   5.614   5.340   2.111
 4209SOL    HW229770   5.661   5.480   2.145
 4210SOL     OW29771   1.137   5.544   1.289
 4210SOL    HW129772   1.077   5.609   1.254
 4210SOL    HW229773   1.114   5.536   1.381
 4211SOL     OW29774   5.682   1.145   5.654
 4211SOL    HW129775   5.705   1.052   5.662
 4211SOL    HW229776   5.638   1.165   5.737
 4212SOL     OW29777   1.860   1.980   2.134
 4212SOL    HW129778   1.933   1.934   2.092
 4212SOL    HW229779   1.892   2.000   2.222
 4213SOL     OW29780   0.866   6.045   6.100
 4213SOL    HW129781   0.884   6.059   6.007
 4213SOL    HW229782   0.796   5.980   6.102
 4214SOL     OW29783   3.328   4.247   6.383
 4214SOL    HW129784   3.421   4.241   6.363
 4214SOL    HW229785   3.310   4.170   6.438
 4215SOL     OW29786   0.191   0.062   7.498
 4215SOL    HW129787   0.249  -0.002   7.456
 4215SOL    HW229788   0.115   0.011   7.525
 4216SOL     OW29789   2.586   0.423   7.034
 4216SOL    HW129790   2.529   0.358   6.992
 4216SOL    HW229791   2.533   0.502   7.038
 4217SOL     OW29792   5.468   2.887   7.137
 4217SOL    HW129793   5.561   2.867   7.143
 4217SOL    HW229794   5.461   2.979   7.165
 4218SOL     OW29795   5.566   1.337   6.762
 4218SOL    HW129796   5.612   1.385   6.693
 4218SOL    HW229797   5.631   1.327   6.831
 4219SOL     OW29798   1.100   0.444   5.134
 4219SOL    HW129799   1.065   0.530   5.160
 4219SOL    HW229800   1.080   0.387   5.207
 4220SOL     OW29801   4.577   4.507   5.399
 4220SOL    HW129802   4.506   4.490   5.337
 4220SOL    HW229803   4.648   4.450   5.370
 4221SOL     OW29804   5.458   3.704   6.548
 4221SOL    HW129805   5.457   3.796   6.576
 4221SOL    HW229806   5.551   3.682   6.542
 4222SOL     OW29807   4.029   1.586   1.050
 4222SOL    HW129808   4.102   1.647   1.038
 4222SOL    HW229809   4.005   1.560   0.961
 4223SOL     OW29810   1.084   3.330   5.380
 4223SOL    HW129811   1.113   3.361   5.466
 4223SOL    HW229812   1.129   3.246   5.369
 4224SOL     OW29813   1.216   4.283   5.689
 4224SOL    HW129814   1.136   4.315   5.730
 4224SOL    HW229815   1.247   4.356   5.636
 4225SOL     OW29816   1.880   3.201   6.579
 4225SOL    HW129817   1.957   3.144   6.584
 4225SOL    HW229818   1.835   3.188   6.662
 4226SOL     OW29819   1.920   0.356   5.655
 4226SOL    HW129820   2.003   0.325   5.617
 4226SOL    HW229821   1.916   0.314   5.741
 4227SOL     OW29822   1.405   2.954   6.535
 4227SOL    HW129823   1.452   2.871   6.527
 4227SOL    HW229824   1.469   3.020   6.509
 4228SOL     OW29825   5.050   3.222   2.247
 4228SOL    HW129826   5.129   3.210   2.195
 4228SOL    HW229827   4.986   3.164   2.206
 4229SOL     OW29828   3.904   0.746   0.616
 4229SOL    HW129829   3.880   0.832   0.582
 4229SOL    HW229830   3.975   0.763   0.678
 4230SOL     OW29831   6.303   2.489   7.060
 4230SOL    HW129832   6.363   2.435   7.008
 4230SOL    HW229833   6.243   2.426   7.100
 4231SOL     OW29834   0.032   3.916   1.668
 4231SOL    HW129835  -0.049   3.958   1.697
 4231SOL    HW229836   0.052   3.852   1.736
 4232SOL     OW29837   2.305   5.325   7.683
 4232SOL    HW129838   2.277   5.244   7.640
 4232SOL    HW229839   2.235   5.388   7.664
 4233SOL     OW29840   1.323   4.498   1.253
 4233SOL    HW129841   1.277   4.476   1.333
 4233SOL    HW229842   1.415   4.502   1.278
 4234SOL     OW29843   1.646   1.745   6.270
 4234SOL    HW129844   1.639   1.809   6.340
 4234SOL    HW229845   1.616   1.662   6.309
 4235SOL     OW29846   3.355   2.193   1.943
 4235SOL    HW129847   3.445   2.199   1.974
 4235SOL    HW229848   3.304   2.237   2.012
 4236SOL     OW29849   3.381   3.913   5.376
 4236SOL    HW129850   3.315   3.897   5.309
 4236SOL    HW229851   3.373   4.007   5.395
 4237SOL     OW29852   4.770   5.192   0.251
 4237SOL    HW129853   4.862   5.206   0.273
 4237SOL    HW229854   4.771   5.120   0.188
 4238SOL     OW29855   3.552   2.963   7.293
 4238SOL    HW129856   3.534   2.994   7.204
 4238SOL    HW229857   3.487   3.009   7.347
 4239SOL     OW29858   6.193   3.103   0.873
 4239SOL    HW129859   6.209   3.063   0.787
 4239SOL    HW229860   6.118   3.160   0.860
 4240SOL     OW29861   4.497   1.943   7.174
 4240SOL    HW129862   4.556   1.996   7.120
 4240SOL    HW229863   4.538   1.944   7.261
 4241SOL     OW29864   0.509   1.115   7.515
 4241SOL    HW129865   0.481   1.182   7.577
 4241SOL    HW229866   0.450   1.041   7.532
 4242SOL     OW29867   3.152   3.525   5.880
 4242SOL    HW129868   3.160   3.589   5.951
 4242SOL    HW229869   3.224   3.547   5.821
 4243SOL     OW29870   4.383   1.491   0.201
 4243SOL    HW129871   4.458   1.480   0.143
 4243SOL    HW229872   4.399   1.429   0.273
 4244SOL     OW29873   4.501   1.656   1.833
 4244SOL    HW129874   4.432   1.661   1.900
 4244SOL    HW229875   4.556   1.732   1.849
 4245SOL     OW29876   1.644   5.607   5.884
 4245SOL    HW129877   1.580   5.609   5.813
 4245SOL    HW229878   1.592   5.595   5.963
 4246SOL     OW29879   2.275   1.325   0.510
 4246SOL    HW129880   2.190   1.309   0.470
 4246SOL    HW229881   2.284   1.421   0.510
 4247SOL     OW29882   6.250   2.679   2.018
 4247SOL    HW129883   6.196   2.754   1.993
 4247SOL    HW229884   6.188   2.612   2.044
 4248SOL     OW29885   0.067   5.899   0.568
 4248SOL    HW129886   0.003   5.956   0.612
 4248SOL    HW229887   0.145   5.954   0.560
 4249SOL     OW29888   2.889   4.905   5.772
 4249SOL    HW129889   2.936   4.983   5.801
 4249SOL    HW229890   2.827   4.939   5.706
 4250SOL     OW29891   6.319   1.425   0.413
 4250SOL    HW129892   6.292   1.382   0.332
 4250SOL    HW229893   6.334   1.516   0.387
 4251SOL     OW29894   0.711   1.638   1.425
 4251SOL    HW129895   0.716   1.730   1.453
 4251SOL    HW229896   0.802   1.610   1.419
 4252SOL     OW29897   5.435   2.217   7.180
 4252SOL    HW129898   5.370   2.247   7.243
 4252SOL    HW229899   5.506   2.281   7.186
 4253SOL     OW29900   1.078   4.057   0.953
 4253SOL    HW129901   1.134   3.991   0.913
 4253SOL    HW229902   1.051   4.113   0.880
 4254SOL     OW29903   4.384   0.607   6.643
 4254SOL    HW129904   4.311   0.566   6.690
 4254SOL    HW229905   4.352   0.615   6.553
 4255SOL     OW29906   2.253   0.909   1.086
 4255SOL    HW129907   2.322   0.864   1.135
 4255SOL    HW229908   2.226   0.980   1.143
 4256SOL     OW29909   4.301   2.474   0.110
 4256SOL    HW129910   4.263   2.402   0.060
 4256SOL    HW229911   4.340   2.432   0.186
 4257SOL     OW29912   1.013   6.377   0.218
 4257SOL    HW129913   0.936   6.433   0.226
 4257SOL    HW229914   1.087   6.438   0.220
 4258SOL     OW29915   0.504   4.831   6.376
 4258SOL    HW129916   0.508   4.925   6.357
 4258SOL    HW229917   0.577   4.816   6.436
 4259SOL     OW29918   4.232   1.114   7.803
 4259SOL    HW129919   4.223   1.209   7.811
 4259SOL    HW229920   4.276   1.101   7.719
 4260SOL     OW29921   3.471   1.320   7.569
 4260SOL    HW129922   3.503   1.302   7.481
 4260SOL    HW229923   3.377   1.331   7.558
 4261SOL     OW29924   4.809   2.817   0.611
 4261SOL    HW129925   4.809   2.873   0.534
 4261SOL    HW229926   4.831   2.730   0.578
 4262SOL     OW29927   4.479   0.162   0.459
 4262SOL    HW129928   4.407   0.224   0.474
 4262SOL    HW229929   4.535   0.172   0.536
 4263SOL     OW29930   2.523   2.459   6.653
 4263SOL    HW129931   2.532   2.488   6.562
 4263SOL    HW229932   2.574   2.378   6.658
 4264SOL     OW29933   3.848   1.932   7.034
 4264SOL    HW129934   3.795   1.992   7.087
 4264SOL    HW229935   3.824   1.845   7.064
 4265SOL     OW29936   6.271   0.751   0.044
 4265SOL    HW129937   6.220   0.711  -0.026
 4265SOL    HW229938   6.340   0.799  -0.002
 4266SOL     OW29939   4.305   4.708   1.824
 4266SOL    HW129940   4.295   4.803   1.820
 4266SOL    HW229941   4.388   4.694   1.871
 4267SOL     OW29942   5.271   4.774   7.613
 4267SOL    HW129943   5.215   4.768   7.536
 4267SOL    HW229944   5.360   4.763   7.579
 4268SOL     OW29945   3.348   1.249   6.747
 4268SOL    HW129946   3.357   1.186   6.818
 4268SOL    HW229947   3.263   1.230   6.707
 4269SOL     OW29948   3.540   4.987   2.393
 4269SOL    HW129949   3.540   5.083   2.388
 4269SOL    HW229950   3.492   4.959   2.316
 4270SOL     OW29951   0.933   5.499   0.739
 4270SOL    HW129952   0.935   5.434   0.669
 4270SOL    HW229953   0.955   5.450   0.818
 4271SOL     OW29954   4.927   4.428   0.592
 4271SOL    HW129955   4.869   4.418   0.516
 4271SOL    HW229956   5.015   4.427   0.556
 4272SOL     OW29957   3.613   1.988   1.399
 4272SOL    HW129958   3.571   1.920   1.347
 4272SOL    HW229959   3.668   2.036   1.337
 4273SOL     OW29960   5.038   4.817   7.775
 4273SOL    HW129961   4.983   4.767   7.715
 4273SOL    HW229962   5.122   4.826   7.730
 4274SOL     OW29963   5.584   4.809   7.645
 4274SOL    HW129964   5.570   4.730   7.592
 4274SOL    HW229965   5.529   4.796   7.722
 4275SOL     OW29966   0.729   1.723   6.948
 4275SOL    HW129967   0.696   1.766   7.027
 4275SOL    HW229968   0.674   1.758   6.878
 4276SOL     OW29969   1.894   6.238   7.420
 4276SOL    HW129970   1.825   6.283   7.371
 4276SOL    HW229971   1.874   6.145   7.410
 4277SOL     OW29972   2.654   3.145   1.549
 4277SOL    HW129973   2.634   3.145   1.643
 4277SOL    HW229974   2.637   3.235   1.521
 4278SOL     OW29975   1.748   2.177   6.915
 4278SOL    HW129976   1.680   2.212   6.972
 4278SOL    HW229977   1.816   2.244   6.913
 4279SOL     OW29978   4.558   5.533   6.775
 4279SOL    HW129979   4.553   5.624   6.805
 4279SOL    HW229980   4.623   5.492   6.834
 4280SOL     OW29981   1.599   2.426   1.706
 4280SOL    HW129982   1.671   2.489   1.701
 4280SOL    HW229983   1.619   2.361   1.639
 4281SOL     OW29984   4.100   0.726   6.555
 4281SOL    HW129985   4.119   0.806   6.506
 4281SOL    HW229986   4.057   0.669   6.492
 4282SOL     OW29987   5.804   4.943   7.146
 4282SOL    HW129988   5.811   5.016   7.085
 4282SOL    HW229989   5.855   4.970   7.223
 4283SOL     OW29990   3.095   1.864   0.352
 4283SOL    HW129991   3.142   1.923   0.293
 4283SOL    HW229992   3.003   1.880   0.333
 4284SOL     OW29993   1.449   4.935   5.712
 4284SOL    HW129994   1.393   4.871   5.756
 4284SOL    HW229995   1.389   4.989   5.662
 4285SOL     OW29996   0.226   4.424   7.277
 4285SOL    HW129997   0.248   4.514   7.303
 4285SOL    HW229998   0.307   4.390   7.239
 4286SOL     OW29999   5.775   0.933   6.100
 4286SOL    HW130000   5.753   0.878   6.026
 4286SOL    HW230001   5.750   1.021   6.073
 4287SOL     OW30002   4.678   1.470   6.551
 4287SOL    HW130003   4.636   1.459   6.636
 4287SOL    HW230004   4.713   1.559   6.552
 4288SOL     OW30005   2.041   5.309   0.223
 4288SOL    HW130006   1.958   5.263   0.233
 4288SOL    HW230007   2.054   5.354   0.307
 4289SOL     OW30008   0.384   5.514   0.871
 4289SOL    HW130009   0.348   5.503   0.782
 4289SOL    HW230010   0.472   5.478   0.866
 4290SOL     OW30011   3.653   3.382   1.135
 4290SOL    HW130012   3.692   3.469   1.142
 4290SOL    HW230013   3.649   3.365   1.041
 4291SOL     OW30014   2.272   1.924   6.761
 4291SOL    HW130015   2.293   1.837   6.728
 4291SOL    HW230016   2.284   1.982   6.686
 4292SOL     OW30017   3.978   3.481   5.928
 4292SOL    HW130018   3.976   3.520   5.840
 4292SOL    HW230019   4.017   3.395   5.915
 4293SOL     OW30020   0.498   5.790   7.414
 4293SOL    HW130021   0.490   5.708   7.462
 4293SOL    HW230022   0.538   5.765   7.331
 4294SOL     OW30023   1.346   1.072   2.141
 4294SOL    HW130024   1.322   1.009   2.209
 4294SOL    HW230025   1.414   1.126   2.181
 4295SOL     OW30026   4.255   3.763   6.781
 4295SOL    HW130027   4.181   3.731   6.729
 4295SOL    HW230028   4.308   3.813   6.718
 4296SOL     OW30029   2.522   4.312   1.957
 4296SOL    HW130030   2.472   4.321   2.038
 4296SOL    HW230031   2.529   4.218   1.942
 4297SOL     OW30032   2.199   5.457   6.667
 4297SOL    HW130033   2.117   5.480   6.711
 4297SOL    HW230034   2.176   5.382   6.611
 4298SOL     OW30035   3.848   0.764   5.908
 4298SOL    HW130036   3.823   0.672   5.919
 4298SOL    HW230037   3.786   0.798   5.844
 4299SOL     OW30038   4.169   6.265   5.770
 4299SOL    HW130039   4.128   6.342   5.730
 4299SOL    HW230040   4.258   6.295   5.792
 4300SOL     OW30041   1.124   3.037   5.375
 4300SOL    HW130042   1.182   2.963   5.397
 4300SOL    HW230043   1.036   3.003   5.389
 4301SOL     OW30044   4.499   3.049   6.421
 4301SOL    HW130045   4.546   3.032   6.339
 4301SOL    HW230046   4.411   3.016   6.405
 4302SOL     OW30047   1.496   1.184   0.540
 4302SOL    HW130048   1.580   1.191   0.587
 4302SOL    HW230049   1.435   1.153   0.606
 4303SOL     OW30050   5.556   2.148   1.222
 4303SOL    HW130051   5.517   2.174   1.139
 4303SOL    HW230052   5.639   2.194   1.225
 4304SOL     OW30053   1.001   3.395   1.712
 4304SOL    HW130054   0.950   3.316   1.730
 4304SOL    HW230055   1.060   3.369   1.641
 4305SOL     OW30056   3.576   1.905   2.333
 4305SOL    HW130057   3.525   1.985   2.323
 4305SOL    HW230058   3.663   1.928   2.300
 4306SOL     OW30059   0.314   2.014   7.741
 4306SOL    HW130060   0.270   2.006   7.656
 4306SOL    HW230061   0.336   2.107   7.748
 4307SOL     OW30062   4.692   1.420   1.124
 4307SOL    HW130063   4.750   1.486   1.086
 4307SOL    HW230064   4.741   1.338   1.117
 4308SOL     OW30065   3.950   4.758   5.963
 4308SOL    HW130066   4.027   4.804   5.931
 4308SOL    HW230067   3.969   4.665   5.946
 4309SOL     OW30068   2.011   2.671   1.466
 4309SOL    HW130069   2.071   2.707   1.532
 4309SOL    HW230070   2.056   2.686   1.382
 4310SOL     OW30071   3.491   5.707   1.920
 4310SOL    HW130072   3.482   5.803   1.920
 4310SOL    HW230073   3.534   5.687   1.837
 4311SOL     OW30074   4.640   0.264   7.050
 4311SOL    HW130075   4.646   0.183   6.999
 4311SOL    HW230076   4.666   0.332   6.988
 4312SOL     OW30077   5.065   3.321   7.063
 4312SOL    HW130078   5.142   3.335   7.008
 4312SOL    HW230079   5.037   3.409   7.088
 4313SOL     OW30080   1.031   6.160   6.275
 4313SOL    HW130081   0.979   6.131   6.201
 4313SOL    HW230082   1.008   6.252   6.286
 4314SOL     OW30083   4.345   3.106   0.614
 4314SOL    HW130084   4.400   3.047   0.562
 4314SOL    HW230085   4.406   3.170   0.651
 4315SOL     OW30086   3.055   5.655   7.304
 4315SOL    HW130087   3.069   5.672   7.211
 4315SOL    HW230088   2.993   5.582   7.305
 4316SOL     OW30089   1.922   0.957   6.556
 4316SOL    HW130090   1.903   1.020   6.486
 4316SOL    HW230091   1.863   0.983   6.627
 4317SOL     OW30092   4.108   6.185   6.137
 4317SOL    HW130093   4.033   6.239   6.114
 4317SOL    HW230094   4.072   6.096   6.142
 4318SOL     OW30095   3.066   0.290   7.505
 4318SOL    HW130096   3.139   0.348   7.529
 4318SOL    HW230097   2.990   0.332   7.545
 4319SOL     OW30098   5.471   4.128   1.416
 4319SOL    HW130099   5.554   4.114   1.371
 4319SOL    HW230100   5.479   4.079   1.498
 4320SOL     OW30101   0.072   0.146   1.857
 4320SOL    HW130102   0.011   0.096   1.803
 4320SOL    HW230103   0.028   0.229   1.873
 4321SOL     OW30104   4.881   3.001   6.047
 4321SOL    HW130105   4.916   2.954   5.972
 4321SOL    HW230106   4.951   3.063   6.070
 4322SOL     OW30107   5.056   0.123   6.855
 4322SOL    HW130108   5.067   0.206   6.901
 4322SOL    HW230109   5.094   0.138   6.768
 4323SOL     OW30110   4.101   3.833   6.329
 4323SOL    HW130111   4.039   3.905   6.345
 4323SOL    HW230112   4.056   3.777   6.265
 4324SOL     OW30113   6.373   5.744   1.207
 4324SOL    HW130114   6.287   5.774   1.237
 4324SOL    HW230115   6.398   5.807   1.139
 4325SOL     OW30116   1.618   3.460   7.653
 4325SOL    HW130117   1.573   3.535   7.693
 4325SOL    HW230118   1.567   3.384   7.681
 4326SOL     OW30119   3.586   5.827   1.138
 4326SOL    HW130120   3.604   5.760   1.073
 4326SOL    HW230121   3.557   5.903   1.087
 4327SOL     OW30122   0.732   2.904   1.357
 4327SOL    HW130123   0.737   2.860   1.272
 4327SOL    HW230124   0.759   2.994   1.339
 4328SOL     OW30125   1.849   2.537   6.111
 4328SOL    HW130126   1.829   2.444   6.104
 4328SOL    HW230127   1.764   2.580   6.109
 4329SOL     OW30128   2.968   2.489   0.548
 4329SOL    HW130129   2.949   2.582   0.560
 4329SOL    HW230130   2.908   2.460   0.479
 4330SOL     OW30131   4.629   4.163   1.133
 4330SOL    HW130132   4.559   4.206   1.182
 4330SOL    HW230133   4.619   4.070   1.155
 4331SOL     OW30134   2.402   3.481   7.365
 4331SOL    HW130135   2.320   3.449   7.404
 4331SOL    HW230136   2.373   3.543   7.297
 4332SOL     OW30137   5.345   5.629   1.701
 4332SOL    HW130138   5.298   5.546   1.707
 4332SOL    HW230139   5.395   5.635   1.782
 4333SOL     OW30140   2.534   0.482   0.675
 4333SOL    HW130141   2.607   0.542   0.694
 4333SOL    HW230142   2.525   0.429   0.753
 4334SOL     OW30143   1.756   4.634   1.064
 4334SOL    HW130144   1.789   4.571   1.000
 4334SOL    HW230145   1.689   4.684   1.016
 4335SOL     OW30146   4.427   4.667   1.532
 4335SOL    HW130147   4.492   4.665   1.462
 4335SOL    HW230148   4.474   4.700   1.608
 4336SOL     OW30149   1.005   1.480   0.447
 4336SOL    HW130150   1.011   1.391   0.411
 4336SOL    HW230151   0.972   1.468   0.536
 4337SOL     OW30152   2.794   4.614   6.142
 4337SOL    HW130153   2.832   4.650   6.062
 4337SOL    HW230154   2.766   4.690   6.192
 4338SOL     OW30155   5.209   3.205   7.444
 4338SOL    HW130156   5.182   3.146   7.514
 4338SOL    HW230157   5.189   3.293   7.476
 4339SOL     OW30158   4.009   0.786   1.958
 4339SOL    HW130159   4.061   0.714   1.922
 4339SOL    HW230160   4.070   0.859   1.965
 4340SOL     OW30161   0.786   0.840   1.583
 4340SOL    HW130162   0.859   0.825   1.643
 4340SOL    HW230163   0.790   0.766   1.521
 4341SOL     OW30164   2.982   4.673   2.204
 4341SOL    HW130165   3.070   4.685   2.240
 4341SOL    HW230166   2.930   4.743   2.243
 4342SOL     OW30167   3.921   6.269   0.659
 4342SOL    HW130168   3.867   6.336   0.618
 4342SOL    HW230169   3.919   6.290   0.752
 4343SOL     OW30170   2.165   0.108   1.945
 4343SOL    HW130171   2.166   0.117   2.041
 4343SOL    HW230172   2.251   0.140   1.918
 4344SOL     OW30173   1.852   0.131   1.572
 4344SOL    HW130174   1.782   0.118   1.637
 4344SOL    HW230175   1.926   0.163   1.624
 4345SOL     OW30176   2.808   4.922   7.206
 4345SOL    HW130177   2.787   4.938   7.114
 4345SOL    HW230178   2.834   4.830   7.209
 4346SOL     OW30179   2.475   5.437   6.654
 4346SOL    HW130180   2.381   5.453   6.640
 4346SOL    HW230181   2.496   5.487   6.732
 4347SOL     OW30182   1.837   1.492   6.390
 4347SOL    HW130183   1.873   1.553   6.454
 4347SOL    HW230184   1.914   1.447   6.354
 4348SOL     OW30185   2.859   3.383   7.448
 4348SOL    HW130186   2.806   3.406   7.525
 4348SOL    HW230187   2.799   3.336   7.390
 4349SOL     OW30188   4.239   4.893   1.552
 4349SOL    HW130189   4.252   4.934   1.637
 4349SOL    HW230190   4.300   4.819   1.552
 4350SOL     OW30191   2.744   1.127   6.765
 4350SOL    HW130192   2.722   1.125   6.858
 4350SOL    HW230193   2.797   1.049   6.752
 4351SOL     OW30194   1.863   0.611   7.637
 4351SOL    HW130195   1.826   0.682   7.690
 4351SOL    HW230196   1.903   0.552   7.701
 4352SOL     OW30197   1.224   5.490   6.798
 4352SOL    HW130198   1.148   5.548   6.798
 4352SOL    HW230199   1.193   5.409   6.838
 4353SOL     OW30200   5.339   4.159   1.903
 4353SOL    HW130201   5.246   4.175   1.923
 4353SOL    HW230202   5.370   4.242   1.868
 4354SOL     OW30203   0.573   5.530   6.219
 4354SOL    HW130204   0.519   5.487   6.153
 4354SOL    HW230205   0.645   5.569   6.169
 4355SOL     OW30206   1.319   1.322   0.197
 4355SOL    HW130207   1.268   1.288   0.271
 4355SOL    HW230208   1.260   1.313   0.122
 4356SOL     OW30209   2.939   3.581   7.305
 4356SOL    HW130210   2.946   3.653   7.368
 4356SOL    HW230211   2.933   3.503   7.360
 4357SOL     OW30212   0.102   3.782   0.635
 4357SOL    HW130213   0.176   3.838   0.613
 4357SOL    HW230214   0.094   3.790   0.730
 4358SOL     OW30215   3.418   6.146   6.145
 4358SOL    HW130216   3.404   6.224   6.091
 4358SOL    HW230217   3.448   6.182   6.229
 4359SOL     OW30218   3.597   4.793   7.354
 4359SOL    HW130219   3.516   4.844   7.346
 4359SOL    HW230220   3.630   4.815   7.441
 4360SOL     OW30221   4.251   4.189   5.764
 4360SOL    HW130222   4.277   4.229   5.681
 4360SOL    HW230223   4.269   4.256   5.830
 4361SOL     OW30224   1.904   2.913   7.308
 4361SOL    HW130225   1.975   2.884   7.250
 4361SOL    HW230226   1.842   2.956   7.249
 4362SOL     OW30227   3.529   0.379   7.290
 4362SOL    HW130228   3.454   0.413   7.241
 4362SOL    HW230229   3.527   0.427   7.373
 4363SOL     OW30230   5.020   5.076   6.533
 4363SOL    HW130231   5.112   5.061   6.514
 4363SOL    HW230232   4.979   4.990   6.521
 4364SOL     OW30233   3.849   6.079   6.627
 4364SOL    HW130234   3.778   6.140   6.648
 4364SOL    HW230235   3.923   6.110   6.679
 4365SOL     OW30236   1.314   0.825   7.545
 4365SOL    HW130237   1.253   0.794   7.478
 4365SOL    HW230238   1.259   0.873   7.607
 4366SOL     OW30239   4.568   6.040   1.227
 4366SOL    HW130240   4.541   5.957   1.267
 4366SOL    HW230241   4.663   6.031   1.216
 4367SOL     OW30242   5.893   4.647   0.933
 4367SOL    HW130243   5.855   4.620   1.017
 4367SOL    HW230244   5.988   4.641   0.947
 4368SOL     OW30245   0.637   3.133   7.227
 4368SOL    HW130246   0.673   3.046   7.215
 4368SOL    HW230247   0.700   3.178   7.284
 4369SOL     OW30248   5.854   5.062   6.126
 4369SOL    HW130249   5.899   5.057   6.042
 4369SOL    HW230250   5.767   5.097   6.105
 4370SOL     OW30251   1.187   1.730   1.196
 4370SOL    HW130252   1.191   1.670   1.271
 4370SOL    HW230253   1.119   1.793   1.220
 4371SOL     OW30254   5.251   4.452   6.321
 4371SOL    HW130255   5.214   4.384   6.265
 4371SOL    HW230256   5.344   4.431   6.328
 4372SOL     OW30257   5.190   0.478   6.437
 4372SOL    HW130258   5.173   0.433   6.520
 4372SOL    HW230259   5.219   0.565   6.463
 4373SOL     OW30260   4.764   5.001   1.512
 4373SOL    HW130261   4.670   4.983   1.517
 4373SOL    HW230262   4.771   5.079   1.457
 4374SOL     OW30263   3.631   1.523   1.589
 4374SOL    HW130264   3.580   1.598   1.620
 4374SOL    HW230265   3.621   1.457   1.657
 4375SOL     OW30266   0.963   1.395   0.114
 4375SOL    HW130267   1.023   1.348   0.056
 4375SOL    HW230268   1.016   1.465   0.152
 4376SOL     OW30269   5.774   2.931   6.714
 4376SOL    HW130270   5.762   2.967   6.802
 4376SOL    HW230271   5.688   2.939   6.673
 4377SOL     OW30272   4.850   3.716   6.953
 4377SOL    HW130273   4.941   3.705   6.924
 4377SOL    HW230274   4.799   3.718   6.872
 4378SOL     OW30275   5.400   6.130   2.121
 4378SOL    HW130276   5.315   6.173   2.122
 4378SOL    HW230277   5.453   6.183   2.062
 4379SOL     OW30278   1.248   0.239   6.363
 4379SOL    HW130279   1.291   0.308   6.412
 4379SOL    HW230280   1.311   0.166   6.364
 4380SOL     OW30281   4.993   1.938   0.374
 4380SOL    HW130282   4.988   1.980   0.288
 4380SOL    HW230283   4.925   1.982   0.425
 4381SOL     OW30284   4.420   4.984   5.356
 4381SOL    HW130285   4.442   5.004   5.265
 4381SOL    HW230286   4.434   4.890   5.364
 4382SOL     OW30287   3.173   4.287   4.993
 4382SOL    HW130288   3.206   4.328   4.913
 4382SOL    HW230289   3.097   4.237   4.964
 4383SOL     OW30290   3.195   2.921   0.525
 4383SOL    HW130291   3.167   2.859   0.593
 4383SOL    HW230292   3.128   2.914   0.457
 4384SOL     OW30293   5.704   4.615   6.129
 4384SOL    HW130294   5.760   4.689   6.154
 4384SOL    HW230295   5.763   4.540   6.128
 4385SOL     OW30296   6.269   2.929   6.199
 4385SOL    HW130297   6.317   2.980   6.133
 4385SOL    HW230298   6.333   2.864   6.229
 4386SOL     OW30299   5.653   6.279   1.589
 4386SOL    HW130300   5.634   6.249   1.500
 4386SOL    HW230301   5.700   6.205   1.629
 4387SOL     OW30302   6.016   4.636   0.003
 4387SOL    HW130303   6.085   4.619   0.068
 4387SOL    HW230304   5.937   4.649   0.054
 4388SOL     OW30305   2.969   0.098   0.460
 4388SOL    HW130306   3.026   0.051   0.399
 4388SOL    HW230307   2.974   0.048   0.541
 4389SOL     OW30308   3.853   0.621   5.480
 4389SOL    HW130309   3.766   0.628   5.518
 4389SOL    HW230310   3.843   0.560   5.408
 4390SOL     OW30311   6.139   0.447   6.217
 4390SOL    HW130312   6.178   0.508   6.279
 4390SOL    HW230313   6.154   0.487   6.131
 4391SOL     OW30314   2.077   4.759   7.491
 4391SOL    HW130315   2.084   4.787   7.582
 4391SOL    HW230316   2.142   4.689   7.483
 4392SOL     OW30317   2.797   5.599   0.797
 4392SOL    HW130318   2.834   5.607   0.885
 4392SOL    HW230319   2.872   5.580   0.742
 4393SOL     OW30320   5.837   6.355   1.304
 4393SOL    HW130321   5.813   6.369   1.213
 4393SOL    HW230322   5.764   6.390   1.355
 4394SOL     OW30323   3.417   2.563   1.334
 4394SOL    HW130324   3.363   2.639   1.355
 4394SOL    HW230325   3.364   2.487   1.356
 4395SOL     OW30326   2.467   2.858   6.741
 4395SOL    HW130327   2.379   2.852   6.702
 4395SOL    HW230328   2.524   2.879   6.667
 4396SOL     OW30329   4.558   1.375   1.941
 4396SOL    HW130330   4.521   1.463   1.928
 4396SOL    HW230331   4.602   1.380   2.025
 4397SOL     OW30332   3.826   5.463   5.936
 4397SOL    HW130333   3.778   5.384   5.908
 4397SOL    HW230334   3.874   5.490   5.858
 4398SOL     OW30335   2.548   0.107   0.747
 4398SOL    HW130336   2.453   0.102   0.737
 4398SOL    HW230337   2.562   0.184   0.803
 4399SOL     OW30338   3.231   0.992   6.555
 4399SOL    HW130339   3.140   1.019   6.542
 4399SOL    HW230340   3.242   0.988   6.650
 4400SOL     OW30341   3.343   4.983   0.519
 4400SOL    HW130342   3.331   4.949   0.607
 4400SOL    HW230343   3.257   5.017   0.495
 4401SOL     OW30344   6.066   3.234   1.252
 4401SOL    HW130345   6.071   3.200   1.342
 4401SOL    HW230346   6.019   3.166   1.203
 4402SOL     OW30347   3.503   4.329   1.470
 4402SOL    HW130348   3.577   4.272   1.490
 4402SOL    HW230349   3.489   4.319   1.376
 4403SOL     OW30350   1.968   3.457   5.223
 4403SOL    HW130351   1.906   3.474   5.295
 4403SOL    HW230352   2.018   3.381   5.252
 4404SOL     OW30353   4.065   3.783   6.987
 4404SOL    HW130354   4.104   3.814   6.905
 4404SOL    HW230355   4.136   3.740   7.033
 4405SOL     OW30356   1.213   0.286   7.517
 4405SOL    HW130357   1.119   0.266   7.521
 4405SOL    HW230358   1.250   0.243   7.594
 4406SOL     OW30359   4.422   6.044   0.966
 4406SOL    HW130360   4.456   6.066   1.052
 4406SOL    HW230361   4.490   6.074   0.905
 4407SOL     OW30362   4.203   2.390   6.377
 4407SOL    HW130363   4.286   2.357   6.412
 4407SOL    HW230364   4.136   2.343   6.427
 4408SOL     OW30365   0.270   3.448   0.218
 4408SOL    HW130366   0.244   3.501   0.143
 4408SOL    HW230367   0.338   3.500   0.262
 4409SOL     OW30368   2.225   0.630   7.736
 4409SOL    HW130369   2.138   0.624   7.696
 4409SOL    HW230370   2.210   0.680   7.817
 4410SOL     OW30371   2.528   5.439   7.619
 4410SOL    HW130372   2.452   5.395   7.657
 4410SOL    HW230373   2.602   5.408   7.670
 4411SOL     OW30374   5.693   5.016   5.827
 4411SOL    HW130375   5.628   5.082   5.804
 4411SOL    HW230376   5.777   5.059   5.815
 4412SOL     OW30377   1.409   5.526   7.058
 4412SOL    HW130378   1.376   5.503   7.145
 4412SOL    HW230379   1.401   5.445   7.007
 4413SOL     OW30380   5.123   6.316   6.027
 4413SOL    HW130381   5.216   6.336   6.014
 4413SOL    HW230382   5.082   6.401   6.041
 4414SOL     OW30383   5.171   5.230   1.547
 4414SOL    HW130384   5.155   5.217   1.640
 4414SOL    HW230385   5.204   5.146   1.516
 4415SOL     OW30386   1.834   1.540   6.991
 4415SOL    HW130387   1.818   1.464   6.935
 4415SOL    HW230388   1.771   1.530   7.063
 4416SOL     OW30389   0.094   0.926   7.253
 4416SOL    HW130390   0.031   0.966   7.192
 4416SOL    HW230391   0.160   0.887   7.196
 4417SOL     OW30392   6.426   1.080   0.472
 4417SOL    HW130393   6.481   1.128   0.534
 4417SOL    HW230394   6.459   1.105   0.386
 4418SOL     OW30395   0.898   2.826   0.396
 4418SOL    HW130396   0.967   2.760   0.395
 4418SOL    HW230397   0.824   2.783   0.439
 4419SOL     OW30398   3.077   2.508   6.762
 4419SOL    HW130399   3.041   2.593   6.787
 4419SOL    HW230400   3.148   2.530   6.701
 4420SOL     OW30401   4.159   3.345   5.668
 4420SOL    HW130402   4.096   3.416   5.657
 4420SOL    HW230403   4.169   3.307   5.581
 4421SOL     OW30404   2.370   0.138   0.271
 4421SOL    HW130405   2.409   0.061   0.314
 4421SOL    HW230406   2.320   0.101   0.198
 4422SOL     OW30407   6.256   6.299   6.976
 4422SOL    HW130408   6.223   6.273   7.062
 4422SOL    HW230409   6.179   6.294   6.919
 4423SOL     OW30410   2.722   1.511   6.886
 4423SOL    HW130411   2.705   1.601   6.914
 4423SOL    HW230412   2.637   1.469   6.890
 4424SOL     OW30413   2.242   5.513   6.326
 4424SOL    HW130414   2.192   5.446   6.279
 4424SOL    HW230415   2.175   5.566   6.368
 4425SOL     OW30416   5.956   4.287   0.087
 4425SOL    HW130417   6.043   4.264   0.121
 4425SOL    HW230418   5.904   4.308   0.164
 4426SOL     OW30419   2.926   5.748   6.329
 4426SOL    HW130420   2.912   5.778   6.418
 4426SOL    HW230421   3.008   5.790   6.303
 4427SOL     OW30422   4.241   3.876   1.764
 4427SOL    HW130423   4.309   3.815   1.737
 4427SOL    HW230424   4.275   3.917   1.843
 4428SOL     OW30425   5.078   4.836   6.137
 4428SOL    HW130426   4.982   4.832   6.142
 4428SOL    HW230427   5.097   4.839   6.043
 4429SOL     OW30428   0.811   3.559   0.351
 4429SOL    HW130429   0.857   3.553   0.267
 4429SOL    HW230430   0.878   3.542   0.417
 4430SOL     OW30431   1.873   2.552   0.966
 4430SOL    HW130432   1.814   2.478   0.951
 4430SOL    HW230433   1.901   2.578   0.878
 4431SOL     OW30434   6.247   5.081   1.717
 4431SOL    HW130435   6.331   5.043   1.692
 4431SOL    HW230436   6.265   5.174   1.728
 4432SOL     OW30437   2.028   4.638   0.424
 4432SOL    HW130438   2.082   4.592   0.488
 4432SOL    HW230439   2.082   4.712   0.395
 4433SOL     OW30440   0.748   1.441   6.923
 4433SOL    HW130441   0.679   1.431   6.989
 4433SOL    HW230442   0.764   1.535   6.919
 4434SOL     OW30443   3.985   5.521   0.154
 4434SOL    HW130444   3.956   5.454   0.215
 4434SOL    HW230445   4.036   5.582   0.207
 4435SOL     OW30446   1.938   2.830   0.778
 4435SOL    HW130447   1.848   2.800   0.782
 4435SOL    HW230448   1.956   2.842   0.684
 4436SOL     OW30449   4.192   5.719   1.741
 4436SOL    HW130450   4.114   5.674   1.709
 4436SOL    HW230451   4.177   5.811   1.719
 4437SOL     OW30452   3.253   3.039   6.811
 4437SOL    HW130453   3.262   2.962   6.755
 4437SOL    HW230454   3.339   3.082   6.806
 4438SOL     OW30455   6.017   1.158   2.146
 4438SOL    HW130456   6.020   1.189   2.055
 4438SOL    HW230457   5.982   1.232   2.195
 4439SOL     OW30458   3.545   4.099   7.661
 4439SOL    HW130459   3.546   4.140   7.747
 4439SOL    HW230460   3.636   4.101   7.632
 4440SOL     OW30461   1.268   3.872   0.855
 4440SOL    HW130462   1.315   3.832   0.928
 4440SOL    HW230463   1.329   3.868   0.782
 4441SOL     OW30464   3.777   0.709   6.327
 4441SOL    HW130465   3.735   0.789   6.358
 4441SOL    HW230466   3.709   0.643   6.330
 4442SOL     OW30467   3.430   5.049   5.680
 4442SOL    HW130468   3.491   5.070   5.609
 4442SOL    HW230469   3.347   5.090   5.654
 4443SOL     OW30470   6.249   1.137   1.330
 4443SOL    HW130471   6.242   1.137   1.426
 4443SOL    HW230472   6.158   1.131   1.300
 4444SOL     OW30473   1.975   6.063   1.069
 4444SOL    HW130474   1.949   5.985   1.020
 4444SOL    HW230475   1.910   6.069   1.140
 4445SOL     OW30476   2.369   1.389   0.006
 4445SOL    HW130477   2.421   1.457  -0.038
 4445SOL    HW230478   2.294   1.374  -0.051
 4446SOL     OW30479   1.493   2.410   0.775
 4446SOL    HW130480   1.483   2.503   0.794
 4446SOL    HW230481   1.403   2.379   0.759
 4447SOL     OW30482   1.143   1.355   1.097
 4447SOL    HW130483   1.131   1.450   1.098
 4447SOL    HW230484   1.221   1.339   1.149
 4448SOL     OW30485   2.165   2.984   6.376
 4448SOL    HW130486   2.076   2.951   6.371
 4448SOL    HW230487   2.182   3.022   6.289
 4449SOL     OW30488   6.388   3.692   7.268
 4449SOL    HW130489   6.400   3.754   7.196
 4449SOL    HW230490   6.468   3.700   7.321
 4450SOL     OW30491   1.546   0.021   6.966
 4450SOL    HW130492   1.563  -0.072   6.953
 4450SOL    HW230493   1.606   0.065   6.906
 4451SOL     OW30494   1.476   6.423   0.644
 4451SOL    HW130495   1.392   6.390   0.612
 4451SOL    HW230496   1.541   6.382   0.587
 4452SOL     OW30497   0.737   0.170   6.158
 4452SOL    HW130498   0.818   0.203   6.198
 4452SOL    HW230499   0.669   0.231   6.186
 4453SOL     OW30500   1.685   6.387   0.468
 4453SOL    HW130501   1.732   6.455   0.517
 4453SOL    HW230502   1.658   6.430   0.387
 4454SOL     OW30503   4.025   1.690   7.430
 4454SOL    HW130504   4.102   1.744   7.450
 4454SOL    HW230505   3.972   1.693   7.509
 4455SOL     OW30506   3.030   1.514   1.258
 4455SOL    HW130507   3.024   1.478   1.170
 4455SOL    HW230508   2.969   1.588   1.257
 4456SOL     OW30509   0.410   2.361   0.194
 4456SOL    HW130510   0.363   2.339   0.275
 4456SOL    HW230511   0.484   2.415   0.223
 4457SOL     OW30512   3.591   1.475   6.410
 4457SOL    HW130513   3.623   1.534   6.478
 4457SOL    HW230514   3.537   1.411   6.457
 4458SOL     OW30515   2.452   2.245   1.192
 4458SOL    HW130516   2.401   2.285   1.262
 4458SOL    HW230517   2.508   2.316   1.159
 4459SOL     OW30518   0.907   1.397   6.009
 4459SOL    HW130519   0.822   1.439   6.002
 4459SOL    HW230520   0.920   1.353   5.926
 4460SOL     OW30521   2.637   1.364   6.078
 4460SOL    HW130522   2.685   1.377   5.996
 4460SOL    HW230523   2.549   1.339   6.050
 4461SOL     OW30524   2.241   4.622   0.585
 4461SOL    HW130525   2.297   4.588   0.655
 4461SOL    HW230526   2.299   4.626   0.509
 4462SOL     OW30527   4.469   0.305   6.468
 4462SOL    HW130528   4.405   0.252   6.515
 4462SOL    HW230529   4.552   0.291   6.514
 4463SOL     OW30530   2.191   1.565   5.792
 4463SOL    HW130531   2.206   1.473   5.771
 4463SOL    HW230532   2.214   1.573   5.884
 4464SOL     OW30533   4.699   3.588   0.044
 4464SOL    HW130534   4.631   3.654   0.028
 4464SOL    HW230535   4.669   3.511  -0.003
 4465SOL     OW30536   3.512   3.331   6.005
 4465SOL    HW130537   3.593   3.382   6.011
 4465SOL    HW230538   3.533   3.247   6.046
 4466SOL     OW30539   2.187   6.025   2.179
 4466SOL    HW130540   2.134   5.967   2.125
 4466SOL    HW230541   2.266   5.974   2.198
 4467SOL     OW30542   3.984   4.331   6.771
 4467SOL    HW130543   4.016   4.244   6.748
 4467SOL    HW230544   4.061   4.379   6.799
 4468SOL     OW30545   3.841   4.750   6.927
 4468SOL    HW130546   3.842   4.793   6.842
 4468SOL    HW230547   3.771   4.794   6.976
 4469SOL     OW30548   3.677   2.535   1.429
 4469SOL    HW130549   3.590   2.543   1.392
 4469SOL    HW230550   3.696   2.621   1.466
 4470SOL     OW30551   1.173   6.262   0.019
 4470SOL    HW130552   1.147   6.324  -0.049
 4470SOL    HW230553   1.127   6.291   0.097
 4471SOL     OW30554   1.488   0.820   1.132
 4471SOL    HW130555   1.498   0.770   1.212
 4471SOL    HW230556   1.577   0.853   1.113
 4472SOL     OW30557   4.140   1.188   5.328
 4472SOL    HW130558   4.207   1.256   5.333
 4472SOL    HW230559   4.081   1.217   5.258
 4473SOL     OW30560   3.260   1.974   0.141
 4473SOL    HW130561   3.313   2.053   0.152
 4473SOL    HW230562   3.260   1.957   0.047
 4474SOL     OW30563   3.015   0.820   6.357
 4474SOL    HW130564   3.018   0.847   6.265
 4474SOL    HW230565   3.025   0.902   6.406
 4475SOL     OW30566   3.671   5.826   0.054
 4475SOL    HW130567   3.696   5.918   0.058
 4475SOL    HW230568   3.742   5.784   0.006
 4476SOL     OW30569   4.486   3.362   6.315
 4476SOL    HW130570   4.440   3.278   6.312
 4476SOL    HW230571   4.430   3.422   6.264
 4477SOL     OW30572   0.940   4.130   0.053
 4477SOL    HW130573   0.986   4.049   0.028
 4477SOL    HW230574   0.847   4.108   0.046
 4478SOL     OW30575   5.955   5.685   0.229
 4478SOL    HW130576   5.908   5.604   0.209
 4478SOL    HW230577   5.964   5.685   0.324
 4479SOL     OW30578   4.980   4.372   1.007
 4479SOL    HW130579   5.031   4.376   0.926
 4479SOL    HW230580   4.934   4.288   1.003
 4480SOL     OW30581   3.317   5.675   7.419
 4480SOL    HW130582   3.225   5.672   7.393
 4480SOL    HW230583   3.319   5.634   7.505
 4481SOL     OW30584   3.482   2.222   6.736
 4481SOL    HW130585   3.516   2.234   6.647
 4481SOL    HW230586   3.536   2.279   6.791
 4482SOL     OW30587   4.180   5.133   5.346
 4482SOL    HW130588   4.257   5.079   5.365
 4482SOL    HW230589   4.123   5.120   5.422
 4483SOL     OW30590   2.187   5.156   6.591
 4483SOL    HW130591   2.240   5.209   6.530
 4483SOL    HW230592   2.098   5.189   6.580
 4484SOL     OW30593   0.659   2.328   6.391
 4484SOL    HW130594   0.715   2.299   6.463
 4484SOL    HW230595   0.668   2.260   6.325
 4485SOL     OW30596   0.995   6.108   7.635
 4485SOL    HW130597   1.047   6.124   7.714
 4485SOL    HW230598   1.053   6.055   7.579
 4486SOL     OW30599   0.221   4.136   6.239
 4486SOL    HW130600   0.158   4.109   6.172
 4486SOL    HW230601   0.262   4.214   6.202
 4487SOL     OW30602   2.061   3.389   1.192
 4487SOL    HW130603   2.023   3.406   1.278
 4487SOL    HW230604   2.132   3.327   1.209
 4488SOL     OW30605   5.833   4.498   0.717
 4488SOL    HW130606   5.874   4.577   0.753
 4488SOL    HW230607   5.754   4.487   0.769
 4489SOL     OW30608   4.806   3.540   7.381
 4489SOL    HW130609   4.848   3.565   7.299
 4489SOL    HW230610   4.877   3.511   7.438
 4490SOL     OW30611   3.245   3.295   6.046
 4490SOL    HW130612   3.191   3.349   5.988
 4490SOL    HW230613   3.329   3.340   6.049
 4491SOL     OW30614   0.199   1.884   6.016
 4491SOL    HW130615   0.105   1.877   6.033
 4491SOL    HW230616   0.207   1.958   5.956
 4492SOL     OW30617   1.691   5.919   0.100
 4492SOL    HW130618   1.663   6.011   0.099
 4492SOL    HW230619   1.778   5.921   0.140
 4493SOL     OW30620   4.339   0.669   1.222
 4493SOL    HW130621   4.310   0.760   1.225
 4493SOL    HW230622   4.292   0.626   1.294
 4494SOL     OW30623   0.970   0.288   0.231
 4494SOL    HW130624   0.906   0.228   0.269
 4494SOL    HW230625   1.024   0.231   0.174
 4495SOL     OW30626   0.597   4.518   0.859
 4495SOL    HW130627   0.636   4.433   0.836
 4495SOL    HW230628   0.657   4.554   0.925
 4496SOL     OW30629   1.216   0.810   1.135
 4496SOL    HW130630   1.173   0.729   1.163
 4496SOL    HW230631   1.308   0.785   1.127
 4497SOL     OW30632   2.682   1.965   0.766
 4497SOL    HW130633   2.706   1.949   0.675
 4497SOL    HW230634   2.612   1.902   0.783
 4498SOL     OW30635   2.611   4.808   0.401
 4498SOL    HW130636   2.554   4.827   0.475
 4498SOL    HW230637   2.676   4.878   0.402
 4499SOL     OW30638   1.952   2.824   6.632
 4499SOL    HW130639   1.879   2.809   6.693
 4499SOL    HW230640   2.022   2.766   6.664
 4500SOL     OW30641   0.642   5.022   1.828
 4500SOL    HW130642   0.677   5.011   1.916
 4500SOL    HW230643   0.627   4.933   1.797
 4501SOL     OW30644   2.847   5.848   6.596
 4501SOL    HW130645   2.855   5.936   6.558
 4501SOL    HW230646   2.822   5.863   6.687
 4502SOL     OW30647   5.672   5.307   1.842
 4502SOL    HW130648   5.722   5.237   1.883
 4502SOL    HW230649   5.584   5.298   1.877
 4503SOL     OW30650   3.371   0.804   5.482
 4503SOL    HW130651   3.314   0.736   5.447
 4503SOL    HW230652   3.340   0.819   5.571
 4504SOL     OW30653   3.054   5.195   7.720
 4504SOL    HW130654   3.096   5.265   7.670
 4504SOL    HW230655   3.111   5.119   7.706
 4505SOL     OW30656   2.790   0.321   0.454
 4505SOL    HW130657   2.836   0.241   0.428
 4505SOL    HW230658   2.702   0.291   0.479
 4506SOL     OW30659   3.219   5.618   0.450
 4506SOL    HW130660   3.289   5.621   0.515
 4506SOL    HW230661   3.256   5.660   0.372
 4507SOL     OW30662   5.102   3.824   1.237
 4507SOL    HW130663   5.055   3.906   1.252
 4507SOL    HW230664   5.047   3.757   1.276
 4508SOL     OW30665   2.756   2.361   0.401
 4508SOL    HW130666   2.693   2.295   0.428
 4508SOL    HW230667   2.828   2.311   0.362
 4509SOL     OW30668   5.853   5.839   1.555
 4509SOL    HW130669   5.792   5.770   1.528
 4509SOL    HW230670   5.856   5.832   1.651
 4510SOL     OW30671   5.041   3.446   2.100
 4510SOL    HW130672   5.034   3.393   2.178
 4510SOL    HW230673   5.087   3.525   2.128
 4511SOL     OW30674   1.573   5.855   0.411
 4511SOL    HW130675   1.495   5.844   0.355
 4511SOL    HW230676   1.635   5.904   0.356
 4512SOL     OW30677   3.476   4.949   5.330
 4512SOL    HW130678   3.532   4.874   5.348
 4512SOL    HW230679   3.504   5.015   5.394
 4513SOL     OW30680   3.870   3.336   1.508
 4513SOL    HW130681   3.864   3.334   1.604
 4513SOL    HW230682   3.858   3.428   1.485
 4514SOL     OW30683   4.823   5.212   7.499
 4514SOL    HW130684   4.831   5.226   7.594
 4514SOL    HW230685   4.881   5.277   7.460
 4515SOL     OW30686   1.380   6.170   7.694
 4515SOL    HW130687   1.304   6.223   7.718
 4515SOL    HW230688   1.394   6.111   7.768
 4516SOL     OW30689   0.092   0.454   1.370
 4516SOL    HW130690   0.038   0.404   1.432
 4516SOL    HW230691   0.159   0.496   1.425
 4517SOL     OW30692   3.358   3.724   2.116
 4517SOL    HW130693   3.420   3.728   2.043
 4517SOL    HW230694   3.302   3.649   2.096
 4518SOL     OW30695   2.835   5.540   1.365
 4518SOL    HW130696   2.843   5.628   1.328
 4518SOL    HW230697   2.760   5.502   1.319
 4519SOL     OW30698   1.780   2.752   5.849
 4519SOL    HW130699   1.722   2.730   5.922
 4519SOL    HW230700   1.813   2.839   5.869
 4520SOL     OW30701   2.279   3.633   5.023
 4520SOL    HW130702   2.266   3.678   5.106
 4520SOL    HW230703   2.373   3.617   5.017
 4521SOL     OW30704   0.444   5.093   7.319
 4521SOL    HW130705   0.437   5.137   7.235
 4521SOL    HW230706   0.354   5.074   7.345
 4522SOL     OW30707   4.109   3.707   6.554
 4522SOL    HW130708   4.144   3.624   6.523
 4522SOL    HW230709   4.119   3.766   6.480
 4523SOL     OW30710   0.041   0.116   5.840
 4523SOL    HW130711   0.102   0.092   5.771
 4523SOL    HW230712  -0.029   0.051   5.834
 4524SOL     OW30713   1.432   6.163   6.019
 4524SOL    HW130714   1.358   6.212   5.983
 4524SOL    HW230715   1.510   6.204   5.981
 4525SOL     OW30716   5.564   4.775   5.415
 4525SOL    HW130717   5.517   4.732   5.343
 4525SOL    HW230718   5.499   4.779   5.486
 4526SOL     OW30719   2.984   4.111   7.069
 4526SOL    HW130720   3.056   4.053   7.094
 4526SOL    HW230721   2.982   4.108   6.973
 4527SOL     OW30722   0.777   4.490   0.323
 4527SOL    HW130723   0.713   4.504   0.393
 4527SOL    HW230724   0.799   4.397   0.329
 4528SOL     OW30725   3.240   0.689   2.014
 4528SOL    HW130726   3.244   0.784   2.010
 4528SOL    HW230727   3.330   0.660   2.000
 4529SOL     OW30728   3.385   0.582   1.717
 4529SOL    HW130729   3.342   0.498   1.702
 4529SOL    HW230730   3.444   0.566   1.791
 4530SOL     OW30731   5.471   0.355   0.024
 4530SOL    HW130732   5.486   0.397   0.109
 4530SOL    HW230733   5.518   0.272   0.030
 4531SOL     OW30734   3.409   2.594   1.065
 4531SOL    HW130735   3.394   2.591   1.159
 4531SOL    HW230736   3.424   2.686   1.046
 4532SOL     OW30737   4.706   2.440   1.103
 4532SOL    HW130738   4.663   2.355   1.113
 4532SOL    HW230739   4.799   2.419   1.094
 4533SOL     OW30740   4.294   4.129   7.397
 4533SOL    HW130741   4.332   4.049   7.435
 4533SOL    HW230742   4.216   4.098   7.352
 4534SOL     OW30743   2.486   0.572   7.694
 4534SOL    HW130744   2.521   0.640   7.636
 4534SOL    HW230745   2.403   0.608   7.725
 4535SOL     OW30746   3.867   0.897   1.144
 4535SOL    HW130747   3.779   0.934   1.138
 4535SOL    HW230748   3.892   0.908   1.236
 4536SOL     OW30749   4.894   2.422   1.453
 4536SOL    HW130750   4.909   2.328   1.450
 4536SOL    HW230751   4.942   2.456   1.377
 4537SOL     OW30752   1.280   6.180   1.010
 4537SOL    HW130753   1.350   6.244   1.024
 4537SOL    HW230754   1.223   6.221   0.945
 4538SOL     OW30755   0.649   0.387   7.362
 4538SOL    HW130756   0.638   0.419   7.452
 4538SOL    HW230757   0.637   0.464   7.307
 4539SOL     OW30758   5.459   1.452   0.964
 4539SOL    HW130759   5.449   1.357   0.968
 4539SOL    HW230760   5.514   1.466   0.887
 4540SOL     OW30761   2.647   0.269   1.859
 4540SOL    HW130762   2.733   0.308   1.843
 4540SOL    HW230763   2.617   0.310   1.940
 4541SOL     OW30764   1.685   5.319   7.235
 4541SOL    HW130765   1.660   5.395   7.288
 4541SOL    HW230766   1.777   5.335   7.214
 4542SOL     OW30767   0.088   5.530   6.005
 4542SOL    HW130768   0.011   5.543   6.061
 4542SOL    HW230769   0.154   5.492   6.063
 4543SOL     OW30770   1.976   4.861   5.947
 4543SOL    HW130771   1.976   4.811   6.028
 4543SOL    HW230772   1.964   4.952   5.975
 4544SOL     OW30773   4.307   1.967   0.811
 4544SOL    HW130774   4.401   1.945   0.812
 4544SOL    HW230775   4.303   2.050   0.764
 4545SOL     OW30776   1.171   5.194   6.804
 4545SOL    HW130777   1.153   5.113   6.851
 4545SOL    HW230778   1.221   5.167   6.727
 4546SOL     OW30779   1.195   1.666   0.598
 4546SOL    HW130780   1.125   1.653   0.662
 4546SOL    HW230781   1.186   1.592   0.537
 4547SOL     OW30782   5.056   1.672   0.897
 4547SOL    HW130783   5.092   1.583   0.900
 4547SOL    HW230784   5.091   1.709   0.816
 4548SOL     OW30785   0.105   6.345   7.116
 4548SOL    HW130786   0.028   6.289   7.128
 4548SOL    HW230787   0.154   6.304   7.045
 4549SOL     OW30788   5.460   3.402   1.352
 4549SOL    HW130789   5.514   3.356   1.416
 4549SOL    HW230790   5.382   3.347   1.341
 4550SOL     OW30791   1.149   2.165   0.485
 4550SOL    HW130792   1.072   2.180   0.541
 4550SOL    HW230793   1.117   2.178   0.396
 4551SOL     OW30794   3.744   1.390   6.173
 4551SOL    HW130795   3.835   1.412   6.153
 4551SOL    HW230796   3.721   1.448   6.245
 4552SOL     OW30797   4.284   4.232   6.336
 4552SOL    HW130798   4.351   4.235   6.266
 4552SOL    HW230799   4.205   4.203   6.291
 4553SOL     OW30800   5.220   5.938   0.843
 4553SOL    HW130801   5.302   5.971   0.807
 4553SOL    HW230802   5.235   5.844   0.855
 4554SOL     OW30803   1.979   2.479   1.213
 4554SOL    HW130804   1.958   2.524   1.131
 4554SOL    HW230805   1.896   2.476   1.261
 4555SOL     OW30806   5.941   3.601   6.366
 4555SOL    HW130807   5.942   3.529   6.302
 4555SOL    HW230808   6.032   3.608   6.395
 4556SOL     OW30809   5.214   5.552   6.477
 4556SOL    HW130810   5.196   5.483   6.541
 4556SOL    HW230811   5.127   5.574   6.442
 4557SOL     OW30812   3.143   1.284   5.689
 4557SOL    HW130813   3.095   1.330   5.758
 4557SOL    HW230814   3.077   1.267   5.622
 4558SOL     OW30815   2.627   4.073   6.361
 4558SOL    HW130816   2.625   3.991   6.311
 4558SOL    HW230817   2.701   4.063   6.420
 4559SOL     OW30818   5.722   5.613   7.809
 4559SOL    HW130819   5.717   5.678   7.739
 4559SOL    HW230820   5.679   5.655   7.883
 4560SOL     OW30821   4.802   4.114   6.804
 4560SOL    HW130822   4.854   4.089   6.881
 4560SOL    HW230823   4.720   4.066   6.814
 4561SOL     OW30824   5.144   0.360   6.974
 4561SOL    HW130825   5.215   0.422   6.990
 4561SOL    HW230826   5.095   0.358   7.057
 4562SOL     OW30827   1.617   3.360   6.348
 4562SOL    HW130828   1.641   3.370   6.256
 4562SOL    HW230829   1.654   3.437   6.391
 4563SOL     OW30830   1.599   4.718   6.100
 4563SOL    HW130831   1.676   4.702   6.046
 4563SOL    HW230832   1.556   4.793   6.059
 4564SOL     OW30833   5.490   0.623   6.653
 4564SOL    HW130834   5.556   0.690   6.667
 4564SOL    HW230835   5.465   0.595   6.741
 4565SOL     OW30836   1.356   1.431   6.148
 4565SOL    HW130837   1.438   1.411   6.194
 4565SOL    HW230838   1.365   1.523   6.123
 4566SOL     OW30839   1.485   6.016   5.479
 4566SOL    HW130840   1.417   5.999   5.544
 4566SOL    HW230841   1.552   5.950   5.498
 4567SOL     OW30842   3.250   3.773   1.178
 4567SOL    HW130843   3.314   3.794   1.110
 4567SOL    HW230844   3.233   3.680   1.167
 4568SOL     OW30845   4.268   3.619   2.170
 4568SOL    HW130846   4.260   3.523   2.172
 4568SOL    HW230847   4.363   3.634   2.168
 4569SOL     OW30848   0.559   0.570   6.680
 4569SOL    HW130849   0.477   0.591   6.634
 4569SOL    HW230850   0.622   0.634   6.647
 4570SOL     OW30851   2.964   3.509   1.702
 4570SOL    HW130852   2.953   3.511   1.797
 4570SOL    HW230853   2.884   3.468   1.669
 4571SOL     OW30854   5.684   1.869   1.226
 4571SOL    HW130855   5.616   1.892   1.163
 4571SOL    HW230856   5.708   1.953   1.267
 4572SOL     OW30857   3.080   1.127   0.564
 4572SOL    HW130858   3.123   1.107   0.481
 4572SOL    HW230859   3.074   1.223   0.565
 4573SOL     OW30860   3.399   3.424   0.774
 4573SOL    HW130861   3.353   3.389   0.698
 4573SOL    HW230862   3.381   3.518   0.772
 4574SOL     OW30863   1.916   4.030   0.431
 4574SOL    HW130864   1.903   3.980   0.511
 4574SOL    HW230865   1.864   4.109   0.444
 4575SOL     OW30866   1.937   4.242   6.664
 4575SOL    HW130867   2.011   4.222   6.721
 4575SOL    HW230868   1.860   4.227   6.719
 4576SOL     OW30869   5.106   4.304   1.929
 4576SOL    HW130870   5.142   4.393   1.926
 4576SOL    HW230871   5.115   4.278   2.021
 4577SOL     OW30872   0.411   5.562   7.079
 4577SOL    HW130873   0.355   5.639   7.077
 4577SOL    HW230874   0.367   5.498   7.024
 4578SOL     OW30875   4.006   1.914   0.014
 4578SOL    HW130876   3.931   1.963   0.048
 4578SOL    HW230877   3.985   1.822   0.034
 4579SOL     OW30878   0.487   0.522   6.978
 4579SOL    HW130879   0.429   0.446   6.974
 4579SOL    HW230880   0.506   0.543   6.887
 4580SOL     OW30881   0.402   2.476   6.262
 4580SOL    HW130882   0.477   2.422   6.236
 4580SOL    HW230883   0.436   2.534   6.330
 4581SOL     OW30884   1.171   4.803   2.096
 4581SOL    HW130885   1.248   4.777   2.145
 4581SOL    HW230886   1.205   4.836   2.013
 4582SOL     OW30887   0.022   2.418   6.718
 4582SOL    HW130888   0.099   2.362   6.723
 4582SOL    HW230889   0.031   2.464   6.635
 4583SOL     OW30890   4.755   0.333   6.823
 4583SOL    HW130891   4.732   0.422   6.795
 4583SOL    HW230892   4.773   0.287   6.742
 4584SOL     OW30893   3.952   1.487   5.996
 4584SOL    HW130894   4.036   1.533   5.993
 4584SOL    HW230895   3.887   1.555   5.976
 4585SOL     OW30896   3.390   0.699   0.861
 4585SOL    HW130897   3.321   0.635   0.844
 4585SOL    HW230898   3.461   0.649   0.901
 4586SOL     OW30899   3.207   1.269   1.880
 4586SOL    HW130900   3.190   1.297   1.970
 4586SOL    HW230901   3.279   1.207   1.888
 4587SOL     OW30902   0.605   0.294   0.256
 4587SOL    HW130903   0.676   0.357   0.268
 4587SOL    HW230904   0.569   0.281   0.344
 4588SOL     OW30905   5.841   5.821   6.190
 4588SOL    HW130906   5.785   5.743   6.190
 4588SOL    HW230907   5.814   5.870   6.113
 4589SOL     OW30908   3.773   3.417   6.073
 4589SOL    HW130909   3.846   3.448   6.019
 4589SOL    HW230910   3.812   3.404   6.160
 4590SOL     OW30911   6.002   4.495   1.350
 4590SOL    HW130912   6.069   4.537   1.296
 4590SOL    HW230913   6.051   4.450   1.419
 4591SOL     OW30914   2.860   2.024   0.971
 4591SOL    HW130915   2.799   1.989   1.035
 4591SOL    HW230916   2.812   2.020   0.888
 4592SOL     OW30917   4.630   3.838   0.474
 4592SOL    HW130918   4.565   3.808   0.538
 4592SOL    HW230919   4.677   3.759   0.449
 4593SOL     OW30920   4.293   1.197   6.021
 4593SOL    HW130921   4.231   1.182   6.093
 4593SOL    HW230922   4.362   1.251   6.060
 4594SOL     OW30923   1.964   1.931   0.011
 4594SOL    HW130924   1.879   1.900  -0.020
 4594SOL    HW230925   2.027   1.868  -0.025
 4595SOL     OW30926   0.233   2.692   1.457
 4595SOL    HW130927   0.324   2.722   1.458
 4595SOL    HW230928   0.187   2.750   1.517
 4596SOL     OW30929   2.921   1.823   7.349
 4596SOL    HW130930   2.966   1.742   7.370
 4596SOL    HW230931   2.828   1.803   7.360
 4597SOL     OW30932   3.545   5.627   1.661
 4597SOL    HW130933   3.547   5.648   1.567
 4597SOL    HW230934   3.610   5.557   1.671
 4598SOL     OW30935   0.175   1.983   7.501
 4598SOL    HW130936   0.099   2.040   7.509
 4598SOL    HW230937   0.140   1.903   7.460
 4599SOL     OW30938   3.791   6.120   7.575
 4599SOL    HW130939   3.708   6.110   7.529
 4599SOL    HW230940   3.848   6.166   7.514
 4600SOL     OW30941   0.991   4.035   1.621
 4600SOL    HW130942   1.035   4.117   1.601
 4600SOL    HW230943   0.920   4.060   1.681
 4601SOL     OW30944   2.378   5.679   2.006
 4601SOL    HW130945   2.472   5.666   1.993
 4601SOL    HW230946   2.339   5.597   1.976
 4602SOL     OW30947   5.594   4.561   6.544
 4602SOL    HW130948   5.537   4.612   6.600
 4602SOL    HW230949   5.660   4.525   6.603
 4603SOL     OW30950   5.294   3.277   6.381
 4603SOL    HW130951   5.242   3.318   6.312
 4603SOL    HW230952   5.364   3.340   6.398
 4604SOL     OW30953   4.080   4.230   0.464
 4604SOL    HW130954   4.098   4.296   0.531
 4604SOL    HW230955   4.063   4.281   0.384
 4605SOL     OW30956   5.710   0.166   1.406
 4605SOL    HW130957   5.683   0.181   1.497
 4605SOL    HW230958   5.691   0.249   1.362
 4606SOL     OW30959   1.030   3.825   0.011
 4606SOL    HW130960   1.101   3.841  -0.052
 4606SOL    HW230961   0.952   3.812  -0.042
 4607SOL     OW30962   5.454   0.075   7.083
 4607SOL    HW130963   5.371   0.033   7.060
 4607SOL    HW230964   5.472   0.134   7.010
 4608SOL     OW30965   0.903   2.574   0.908
 4608SOL    HW130966   0.969   2.547   0.972
 4608SOL    HW230967   0.862   2.492   0.880
 4609SOL     OW30968   3.734   3.346   5.612
 4609SOL    HW130969   3.776   3.432   5.609
 4609SOL    HW230970   3.785   3.292   5.552
 4610SOL     OW30971   5.168   2.642   6.744
 4610SOL    HW130972   5.180   2.583   6.819
 4610SOL    HW230973   5.256   2.669   6.720
 4611SOL     OW30974   0.032   0.249   1.551
 4611SOL    HW130975   0.120   0.268   1.582
 4611SOL    HW230976  -0.018   0.329   1.570
 4612SOL     OW30977   1.472   5.329   0.613
 4612SOL    HW130978   1.487   5.238   0.587
 4612SOL    HW230979   1.408   5.362   0.550
 4613SOL     OW30980   0.459   5.524   7.489
 4613SOL    HW130981   0.543   5.543   7.532
 4613SOL    HW230982   0.431   5.440   7.527
 4614SOL     OW30983   2.269   3.213   7.814
 4614SOL    HW130984   2.278   3.118   7.826
 4614SOL    HW230985   2.329   3.233   7.742
 4615SOL     OW30986   1.046   1.289   0.686
 4615SOL    HW130987   1.121   1.347   0.698
 4615SOL    HW230988   1.029   1.253   0.773
 4616SOL     OW30989   2.340   2.540   4.971
 4616SOL    HW130990   2.253   2.580   4.967
 4616SOL    HW230991   2.375   2.568   5.056
 4617SOL     OW30992   0.332   6.418   0.100
 4617SOL    HW130993   0.370   6.381   0.180
 4617SOL    HW230994   0.392   6.488   0.075
 4618SOL     OW30995   0.753   0.522   0.307
 4618SOL    HW130996   0.775   0.562   0.223
 4618SOL    HW230997   0.669   0.561   0.331
 4619SOL     OW30998   4.894   2.443   7.279
 4619SOL    HW130999   4.847   2.423   7.198
 4619SOL    HW231000   4.825   2.461   7.343
 4620SOL     OW31001   0.292   3.491   1.146
 4620SOL    HW131002   0.320   3.565   1.200
 4620SOL    HW231003   0.205   3.468   1.180
 4621SOL     OW31004   5.812   4.111   0.939
 4621SOL    HW131005   5.813   4.129   0.845
 4621SOL    HW231006   5.720   4.104   0.962
 4622SOL     OW31007   1.973   4.224   7.184
 4622SOL    HW131008   2.049   4.171   7.161
 4622SOL    HW231009   1.961   4.282   7.109
 4623SOL     OW31010   6.195   2.310   1.130
 4623SOL    HW131011   6.229   2.231   1.172
 4623SOL    HW231012   6.100   2.297   1.128
 4624SOL     OW31013   3.078   0.655   0.997
 4624SOL    HW131014   3.019   0.611   1.058
 4624SOL    HW231015   3.158   0.671   1.047
 4625SOL     OW31016   5.960   6.020   6.710
 4625SOL    HW131017   5.901   6.081   6.667
 4625SOL    HW231018   6.018   5.989   6.640
 4626SOL     OW31019   5.255   6.198   0.130
 4626SOL    HW131020   5.321   6.136   0.162
 4626SOL    HW231021   5.207   6.148   0.064
 4627SOL     OW31022   1.948   5.236   7.193
 4627SOL    HW131023   2.034   5.249   7.152
 4627SOL    HW231024   1.960   5.161   7.252
 4628SOL     OW31025   0.828   0.987   5.679
 4628SOL    HW131026   0.772   0.993   5.602
 4628SOL    HW231027   0.894   1.054   5.667
 4629SOL     OW31028   2.470   3.524   6.376
 4629SOL    HW131029   2.525   3.550   6.302
 4629SOL    HW231030   2.381   3.549   6.349
 4630SOL     OW31031   0.396   0.180   0.993
 4630SOL    HW131032   0.456   0.240   0.947
 4630SOL    HW231033   0.441   0.161   1.076
 4631SOL     OW31034   0.289   3.540   6.182
 4631SOL    HW131035   0.332   3.624   6.194
 4631SOL    HW231036   0.353   3.487   6.134
 4632SOL     OW31037   3.744   0.516   5.952
 4632SOL    HW131038   3.663   0.479   5.916
 4632SOL    HW231039   3.784   0.445   6.002
 4633SOL     OW31040   3.119   2.484   5.533
 4633SOL    HW131041   3.078   2.470   5.448
 4633SOL    HW231042   3.178   2.409   5.544
 4634SOL     OW31043   2.111   1.774   7.664
 4634SOL    HW131044   2.144   1.710   7.727
 4634SOL    HW231045   2.063   1.721   7.600
 4635SOL     OW31046   2.470   0.341   1.185
 4635SOL    HW131047   2.385   0.332   1.142
 4635SOL    HW231048   2.471   0.272   1.251
 4636SOL     OW31049   2.288   1.606   0.548
 4636SOL    HW131050   2.251   1.680   0.499
 4636SOL    HW231051   2.364   1.642   0.593
 4637SOL     OW31052   2.777   6.271   2.753
 4637SOL    HW131053   2.799   6.213   2.680
 4637SOL    HW231054   2.752   6.354   2.712
 4638SOL     OW31055   2.715   1.443   7.653
 4638SOL    HW131056   2.716   1.393   7.571
 4638SOL    HW231057   2.635   1.495   7.648
 4639SOL     OW31058   4.299   2.893   2.185
 4639SOL    HW131059   4.310   2.816   2.129
 4639SOL    HW231060   4.240   2.863   2.255
 4640SOL     OW31061   0.703   3.746   6.442
 4640SOL    HW131062   0.683   3.717   6.531
 4640SOL    HW231063   0.741   3.833   6.454
 4641SOL     OW31064   0.717   5.754   0.053
 4641SOL    HW131065   0.672   5.838   0.048
 4641SOL    HW231066   0.809   5.774   0.035
 4642SOL     OW31067   1.541   3.070   7.418
 4642SOL    HW131068   1.602   3.118   7.361
 4642SOL    HW231069   1.456   3.078   7.374
 4643SOL     OW31070   5.739   6.173   2.232
 4643SOL    HW131071   5.822   6.133   2.260
 4643SOL    HW231072   5.672   6.113   2.264
 4644SOL     OW31073   0.530   1.589   0.916
 4644SOL    HW131074   0.559   1.619   1.002
 4644SOL    HW231075   0.444   1.629   0.905
 4645SOL     OW31076   5.579   1.008   1.223
 4645SOL    HW131077   5.672   1.027   1.212
 4645SOL    HW231078   5.559   1.039   1.311
 4646SOL     OW31079   5.303   3.470   7.333
 4646SOL    HW131080   5.274   3.549   7.379
 4646SOL    HW231081   5.222   3.423   7.312
 4647SOL     OW31082   3.416   5.190   1.119
 4647SOL    HW131083   3.379   5.278   1.126
 4647SOL    HW231084   3.501   5.196   1.162
 4648SOL     OW31085   2.656   3.577   6.177
 4648SOL    HW131086   2.751   3.586   6.177
 4648SOL    HW231087   2.633   3.561   6.085
 4649SOL     OW31088   4.075   3.396   7.627
 4649SOL    HW131089   4.079   3.305   7.599
 4649SOL    HW231090   4.074   3.446   7.545
 4650SOL     OW31091   5.069   4.540   6.499
 4650SOL    HW131092   5.151   4.513   6.457
 4650SOL    HW231093   5.021   4.458   6.512
 4651SOL     OW31094   0.647   2.844   7.238
 4651SOL    HW131095   0.703   2.877   7.308
 4651SOL    HW231096   0.705   2.831   7.164
 4652SOL     OW31097   4.115   3.395   1.699
 4652SOL    HW131098   4.044   3.424   1.756
 4652SOL    HW231099   4.193   3.399   1.754
 4653SOL     OW31100   1.198   4.399   0.106
 4653SOL    HW131101   1.281   4.353   0.096
 4653SOL    HW231102   1.134   4.330   0.123
 4654SOL     OW31103   2.117   3.132   7.454
 4654SOL    HW131104   2.101   3.059   7.514
 4654SOL    HW231105   2.029   3.159   7.427
 4655SOL     OW31106   2.788   5.362   0.060
 4655SOL    HW131107   2.839   5.281   0.063
 4655SOL    HW231108   2.717   5.348   0.122
 4656SOL     OW31109   2.382   4.433   5.733
 4656SOL    HW131110   2.440   4.424   5.657
 4656SOL    HW231111   2.298   4.398   5.703
 4657SOL     OW31112   2.546   2.222   0.526
 4657SOL    HW131113   2.470   2.278   0.512
 4657SOL    HW231114   2.568   2.235   0.618
 4658SOL     OW31115   2.047   1.771   7.296
 4658SOL    HW131116   1.998   1.689   7.296
 4658SOL    HW231117   1.980   1.839   7.292
 4659SOL     OW31118   5.234   6.390   6.972
 4659SOL    HW131119   5.170   6.456   6.944
 4659SOL    HW231120   5.246   6.334   6.895
 4660SOL     OW31121   3.885   4.473   6.212
 4660SOL    HW131122   3.802   4.516   6.195
 4660SOL    HW231123   3.941   4.541   6.249
 4661SOL     OW31124   1.003   5.985   1.608
 4661SOL    HW131125   0.917   5.961   1.641
 4661SOL    HW231126   1.039   5.903   1.573
 4662SOL     OW31127   1.568   6.002   6.774
 4662SOL    HW131128   1.527   5.992   6.688
 4662SOL    HW231129   1.501   5.973   6.836
 4663SOL     OW31130   3.300   6.062   0.122
 4663SOL    HW131131   3.352   6.051   0.043
 4663SOL    HW231132   3.364   6.080   0.191
 4664SOL     OW31133   5.821   5.116   0.353
 4664SOL    HW131134   5.909   5.150   0.340
 4664SOL    HW231135   5.790   5.159   0.433
 4665SOL     OW31136   5.246   2.370   0.831
 4665SOL    HW131137   5.169   2.350   0.778
 4665SOL    HW231138   5.314   2.393   0.767
 4666SOL     OW31139   0.322   0.211   1.848
 4666SOL    HW131140   0.312   0.223   1.753
 4666SOL    HW231141   0.241   0.168   1.875
 4667SOL     OW31142   5.890   4.393   7.006
 4667SOL    HW131143   5.854   4.371   7.092
 4667SOL    HW231144   5.880   4.488   7.000
 4668SOL     OW31145   0.282   4.661   7.420
 4668SOL    HW131146   0.306   4.692   7.508
 4668SOL    HW231147   0.340   4.709   7.361
 4669SOL     OW31148   1.546   2.415   7.310
 4669SOL    HW131149   1.458   2.448   7.292
 4669SOL    HW231150   1.538   2.320   7.300
 4670SOL     OW31151   5.485   6.003   5.863
 4670SOL    HW131152   5.498   6.052   5.782
 4670SOL    HW231153   5.429   5.929   5.838
 4671SOL     OW31154   3.950   2.197   1.702
 4671SOL    HW131155   4.034   2.187   1.747
 4671SOL    HW231156   3.965   2.267   1.640
 4672SOL     OW31157   2.431   6.212   7.467
 4672SOL    HW131158   2.419   6.243   7.556
 4672SOL    HW231159   2.356   6.155   7.451
 4673SOL     OW31160   2.307   0.693   1.666
 4673SOL    HW131161   2.333   0.731   1.750
 4673SOL    HW231162   2.310   0.766   1.604
 4674SOL     OW31163   3.920   0.413   1.003
 4674SOL    HW131164   3.915   0.481   1.071
 4674SOL    HW231165   3.840   0.362   1.015
 4675SOL     OW31166   2.770   5.541   0.400
 4675SOL    HW131167   2.789   5.634   0.391
 4675SOL    HW231168   2.699   5.525   0.338
 4676SOL     OW31169   3.554   4.214   1.219
 4676SOL    HW131170   3.618   4.164   1.169
 4676SOL    HW231171   3.502   4.260   1.153
 4677SOL     OW31172   2.967   1.407   0.477
 4677SOL    HW131173   2.933   1.410   0.387
 4677SOL    HW231174   2.891   1.380   0.530
 4678SOL     OW31175   3.552   0.160   1.453
 4678SOL    HW131176   3.543   0.158   1.358
 4678SOL    HW231177   3.643   0.132   1.469
 4679SOL     OW31178   1.070   2.211   0.219
 4679SOL    HW131179   1.139   2.224   0.155
 4679SOL    HW231180   1.016   2.142   0.183
 4680SOL     OW31181   2.181   2.727   0.844
 4680SOL    HW131182   2.090   2.740   0.817
 4680SOL    HW231183   2.195   2.791   0.914
 4681SOL     OW31184   4.882   6.329   7.165
 4681SOL    HW131185   4.914   6.307   7.253
 4681SOL    HW231186   4.788   6.343   7.177
 4682SOL     OW31187   1.545   6.009   0.651
 4682SOL    HW131188   1.541   5.984   0.559
 4682SOL    HW231189   1.626   6.060   0.659
 4683SOL     OW31190   3.262   3.571   7.540
 4683SOL    HW131191   3.220   3.656   7.524
 4683SOL    HW231192   3.349   3.594   7.572
 4684SOL     OW31193   1.905   5.310   1.018
 4684SOL    HW131194   1.810   5.321   1.013
 4684SOL    HW231195   1.941   5.394   0.988
 4685SOL     OW31196   5.165   4.428   1.598
 4685SOL    HW131197   5.250   4.384   1.606
 4685SOL    HW231198   5.156   4.446   1.505
 4686SOL     OW31199   5.424   5.882   7.529
 4686SOL    HW131200   5.430   5.874   7.624
 4686SOL    HW231201   5.368   5.809   7.502
 4687SOL     OW31202   0.526   3.298   0.283
 4687SOL    HW131203   0.500   3.225   0.226
 4687SOL    HW231204   0.544   3.370   0.222
 4688SOL     OW31205   1.135   5.254   6.376
 4688SOL    HW131206   1.092   5.306   6.444
 4688SOL    HW231207   1.209   5.213   6.420
 4689SOL     OW31208   1.048   4.549   0.940
 4689SOL    HW131209   1.100   4.629   0.936
 4689SOL    HW231210   1.109   4.479   0.919
 4690SOL     OW31211   4.125   0.394   0.048
 4690SOL    HW131212   4.140   0.321   0.107
 4690SOL    HW231213   4.164   0.367  -0.035
 4691SOL     OW31214   1.355   1.348   1.259
 4691SOL    HW131215   1.372   1.424   1.315
 4691SOL    HW231216   1.442   1.320   1.229
 4692SOL     OW31217   3.941   0.796   0.898
 4692SOL    HW131218   3.876   0.851   0.855
 4692SOL    HW231219   3.938   0.822   0.990
 4693SOL     OW31220   3.239   6.029   1.779
 4693SOL    HW131221   3.259   6.122   1.771
 4693SOL    HW231222   3.318   5.990   1.816
 4694SOL     OW31223   0.032   2.872   1.858
 4694SOL    HW131224   0.104   2.859   1.919
 4694SOL    HW231225  -0.044   2.835   1.901
 4695SOL     OW31226   2.463   1.433   6.990
 4695SOL    HW131227   2.403   1.478   7.050
 4695SOL    HW231228   2.406   1.402   6.919
 4696SOL     OW31229   2.618   6.183   1.537
 4696SOL    HW131230   2.646   6.210   1.450
 4696SOL    HW231231   2.622   6.087   1.535
 4697SOL     OW31232   0.676   1.081   0.401
 4697SOL    HW131233   0.691   1.175   0.409
 4697SOL    HW231234   0.712   1.044   0.482
 4698SOL     OW31235   4.250   3.838   1.226
 4698SOL    HW131236   4.307   3.876   1.293
 4698SOL    HW231237   4.169   3.819   1.272
 4699SOL     OW31238   3.252   3.552   6.979
 4699SOL    HW131239   3.234   3.559   7.072
 4699SOL    HW231240   3.344   3.527   6.974
 4700SOL     OW31241   4.815   6.441   7.541
 4700SOL    HW131242   4.833   6.445   7.634
 4700SOL    HW231243   4.899   6.418   7.501
 4701SOL     OW31244   1.560   0.469   1.725
 4701SOL    HW131245   1.629   0.491   1.663
 4701SOL    HW231246   1.537   0.379   1.705
 4702SOL     OW31247   4.491   0.749   7.457
 4702SOL    HW131248   4.398   0.738   7.478
 4702SOL    HW231249   4.537   0.709   7.531
 4703SOL     OW31250   1.333   5.921   1.044
 4703SOL    HW131251   1.429   5.912   1.040
 4703SOL    HW231252   1.318   6.015   1.038
 4704SOL     OW31253   4.809   4.896   0.467
 4704SOL    HW131254   4.840   4.828   0.526
 4704SOL    HW231255   4.856   4.975   0.494
 4705SOL     OW31256   2.996   4.556   7.431
 4705SOL    HW131257   2.974   4.514   7.515
 4705SOL    HW231258   3.067   4.503   7.396
 4706SOL     OW31259   0.302   3.394   0.898
 4706SOL    HW131260   0.323   3.422   0.987
 4706SOL    HW231261   0.208   3.376   0.900
 4707SOL     OW31262   2.870   5.101   0.070
 4707SOL    HW131263   2.826   5.029   0.025
 4707SOL    HW231264   2.927   5.140   0.004
 4708SOL     OW31265   4.064   4.084   1.687
 4708SOL    HW131266   4.109   4.157   1.727
 4708SOL    HW231267   4.117   4.007   1.709
 4709SOL     OW31268   2.562   4.176   7.080
 4709SOL    HW131269   2.615   4.251   7.107
 4709SOL    HW231270   2.479   4.188   7.125
 4710SOL     OW31271   2.806   1.102   0.318
 4710SOL    HW131272   2.727   1.151   0.292
 4710SOL    HW231273   2.808   1.028   0.257
 4711SOL     OW31274   5.601   3.792   0.222
 4711SOL    HW131275   5.549   3.800   0.302
 4711SOL    HW231276   5.635   3.703   0.224
 4712SOL     OW31277   2.847   0.989   0.545
 4712SOL    HW131278   2.939   0.964   0.546
 4712SOL    HW231279   2.839   1.049   0.471
 4713SOL     OW31280   6.062   1.207   6.514
 4713SOL    HW131281   6.012   1.200   6.432
 4713SOL    HW231282   6.145   1.163   6.496
 4714SOL     OW31283   3.019   1.589   6.530
 4714SOL    HW131284   3.017   1.541   6.447
 4714SOL    HW231285   2.971   1.533   6.591
 4715SOL     OW31286   4.832   2.892   7.423
 4715SOL    HW131287   4.911   2.867   7.375
 4715SOL    HW231288   4.815   2.982   7.397
 4716SOL     OW31289   3.842   5.071   7.808
 4716SOL    HW131290   3.903   5.128   7.854
 4716SOL    HW231291   3.795   5.129   7.748
 4717SOL     OW31292   4.969   3.673   5.894
 4717SOL    HW131293   5.056   3.636   5.883
 4717SOL    HW231294   4.925   3.655   5.811
 4718SOL     OW31295   4.184   4.828   5.836
 4718SOL    HW131296   4.158   4.775   5.761
 4718SOL    HW231297   4.279   4.817   5.842
 4719SOL     OW31298   6.222   0.231   0.306
 4719SOL    HW131299   6.228   0.163   0.239
 4719SOL    HW231300   6.250   0.311   0.262
 4720SOL     OW31301   0.611   6.182   1.002
 4720SOL    HW131302   0.646   6.093   0.996
 4720SOL    HW231303   0.684   6.235   1.035
 4721SOL     OW31304   3.076   3.193   5.197
 4721SOL    HW131305   3.000   3.219   5.249
 4721SOL    HW231306   3.144   3.257   5.219
 4722SOL     OW31307   2.567   0.007   6.125
 4722SOL    HW131308   2.528   0.014   6.038
 4722SOL    HW231309   2.620   0.086   6.134
 4723SOL     OW31310   3.588   2.194   5.591
 4723SOL    HW131311   3.666   2.244   5.613
 4723SOL    HW231312   3.614   2.102   5.599
 4724SOL     OW31313   3.068   0.663   1.810
 4724SOL    HW131314   3.126   0.632   1.880
 4724SOL    HW231315   3.094   0.613   1.733
 4725SOL     OW31316   5.622   0.794   2.100
 4725SOL    HW131317   5.531   0.821   2.099
 4725SOL    HW231318   5.671   0.874   2.081
 4726SOL     OW31319   5.172   5.503   6.803
 4726SOL    HW131320   5.129   5.575   6.757
 4726SOL    HW231321   5.119   5.426   6.782
 4727SOL     OW31322   5.033   2.503   1.840
 4727SOL    HW131323   5.106   2.469   1.892
 4727SOL    HW231324   5.066   2.506   1.751
 4728SOL     OW31325   0.057   0.802   0.922
 4728SOL    HW131326  -0.004   0.875   0.937
 4728SOL    HW231327   0.068   0.762   1.009
 4729SOL     OW31328   0.887   3.045   0.244
 4729SOL    HW131329   0.868   2.968   0.297
 4729SOL    HW231330   0.908   3.010   0.157
 4730SOL     OW31331   0.549   4.842   2.083
 4730SOL    HW131332   0.566   4.784   2.158
 4730SOL    HW231333   0.477   4.799   2.036
 4731SOL     OW31334   4.244   0.138   5.835
 4731SOL    HW131335   4.169   0.100   5.790
 4731SOL    HW231336   4.309   0.068   5.838
 4732SOL     OW31337   0.157   3.783   7.426
 4732SOL    HW131338   0.125   3.859   7.377
 4732SOL    HW231339   0.244   3.810   7.457
 4733SOL     OW31340   3.678   6.253   6.986
 4733SOL    HW131341   3.649   6.334   6.944
 4733SOL    HW231342   3.597   6.214   7.020
 4734SOL     OW31343   3.049   3.223   7.036
 4734SOL    HW131344   2.995   3.233   6.957
 4734SOL    HW231345   3.064   3.313   7.066
 4735SOL     OW31346   0.438   3.724   5.351
 4735SOL    HW131347   0.365   3.785   5.351
 4735SOL    HW231348   0.513   3.776   5.321
 4736SOL     OW31349   4.472   4.855   0.500
 4736SOL    HW131350   4.508   4.877   0.414
 4736SOL    HW231351   4.380   4.881   0.495
 4737SOL     OW31352   3.969   5.453   5.538
 4737SOL    HW131353   3.972   5.464   5.443
 4737SOL    HW231354   3.901   5.387   5.552
 4738SOL     OW31355   6.367   1.791   1.411
 4738SOL    HW131356   6.296   1.728   1.399
 4738SOL    HW231357   6.430   1.745   1.467
 4739SOL     OW31358   2.463   1.975   1.080
 4739SOL    HW131359   2.448   2.063   1.114
 4739SOL    HW231360   2.381   1.928   1.097
 4740SOL     OW31361   2.022   0.360   1.185
 4740SOL    HW131362   1.938   0.396   1.213
 4740SOL    HW231363   2.000   0.298   1.116
 4741SOL     OW31364   6.157   4.155   1.230
 4741SOL    HW131365   6.175   4.108   1.312
 4741SOL    HW231366   6.070   4.193   1.243
 4742SOL     OW31367   2.536   3.686   0.591
 4742SOL    HW131368   2.474   3.645   0.532
 4742SOL    HW231369   2.605   3.719   0.533
 4743SOL     OW31370   3.326   2.818   1.349
 4743SOL    HW131371   3.400   2.854   1.299
 4743SOL    HW231372   3.260   2.887   1.347
 4744SOL     OW31373   2.557   6.174   1.040
 4744SOL    HW131374   2.544   6.269   1.046
 4744SOL    HW231375   2.584   6.160   0.949
 4745SOL     OW31376   0.815   5.582   7.032
 4745SOL    HW131377   0.854   5.645   6.971
 4745SOL    HW231378   0.861   5.500   7.014
 4746SOL     OW31379   1.004   6.140   2.134
 4746SOL    HW131380   0.982   6.093   2.054
 4746SOL    HW231381   0.933   6.204   2.146
 4747SOL     OW31382   0.427   6.429   6.553
 4747SOL    HW131383   0.497   6.481   6.593
 4747SOL    HW231384   0.415   6.467   6.466
 4748SOL     OW31385   3.610   4.251   5.569
 4748SOL    HW131386   3.586   4.318   5.505
 4748SOL    HW231387   3.644   4.178   5.517
 4749SOL     OW31388   3.216   1.381   0.971
 4749SOL    HW131389   3.123   1.404   0.977
 4749SOL    HW231390   3.230   1.317   1.041
 4750SOL     OW31391   4.227   1.629   6.050
 4750SOL    HW131392   4.221   1.659   5.959
 4750SOL    HW231393   4.192   1.702   6.101
 4751SOL     OW31394   0.565   3.334   7.790
 4751SOL    HW131395   0.470   3.338   7.780
 4751SOL    HW231396   0.587   3.413   7.841
 4752SOL     OW31397   4.152   3.129   1.616
 4752SOL    HW131398   4.121   3.219   1.627
 4752SOL    HW231399   4.115   3.082   1.691
 4753SOL     OW31400   4.520   2.189   7.790
 4753SOL    HW131401   4.537   2.101   7.760
 4753SOL    HW231402   4.489   2.178   7.880
 4754SOL     OW31403   6.394   1.409   1.108
 4754SOL    HW131404   6.378   1.400   1.202
 4754SOL    HW231405   6.428   1.498   1.098
 4755SOL     OW31406   3.751   4.031   6.783
 4755SOL    HW131407   3.824   3.989   6.737
 4755SOL    HW231408   3.737   4.113   6.736
 4756SOL     OW31409   4.820   3.319   2.008
 4756SOL    HW131410   4.906   3.358   2.022
 4756SOL    HW231411   4.828   3.230   2.043
 4757SOL     OW31412   1.027   0.578   1.554
 4757SOL    HW131413   1.012   0.487   1.580
 4757SOL    HW231414   1.076   0.616   1.626
 4758SOL     OW31415   1.833   3.020   7.053
 4758SOL    HW131416   1.822   2.925   7.052
 4758SOL    HW231417   1.915   3.034   7.100
 4759SOL     OW31418   0.670   4.621   7.605
 4759SOL    HW131419   0.628   4.560   7.665
 4759SOL    HW231420   0.759   4.630   7.638
 4760SOL     OW31421   1.497   1.500   7.787
 4760SOL    HW131422   1.535   1.467   7.705
 4760SOL    HW231423   1.572   1.510   7.846
 4761SOL     OW31424   3.019   4.889   6.283
 4761SOL    HW131425   3.037   4.949   6.355
 4761SOL    HW231426   2.959   4.824   6.319
 4762SOL     OW31427   0.012   6.021   1.564
 4762SOL    HW131428  -0.048   6.061   1.501
 4762SOL    HW231429  -0.045   5.987   1.634
 4763SOL     OW31430   4.175   0.890   1.260
 4763SOL    HW131431   4.094   0.939   1.271
 4763SOL    HW231432   4.243   0.957   1.252
 4764SOL     OW31433   1.596   1.339   7.576
 4764SOL    HW131434   1.601   1.244   7.573
 4764SOL    HW231435   1.565   1.364   7.489
 4765SOL     OW31436   5.039   1.473   1.177
 4765SOL    HW131437   5.056   1.435   1.091
 4765SOL    HW231438   5.125   1.491   1.214
 4766SOL     OW31439   0.457   0.217   1.253
 4766SOL    HW131440   0.446   0.312   1.255
 4766SOL    HW231441   0.386   0.184   1.307
 4767SOL     OW31442   6.177   5.394   6.696
 4767SOL    HW131443   6.119   5.463   6.728
 4767SOL    HW231444   6.135   5.361   6.617
 4768SOL     OW31445   3.208   0.050   7.420
 4768SOL    HW131446   3.151   0.127   7.417
 4768SOL    HW231447   3.273   0.066   7.352
 4769SOL     OW31448   3.033   0.399   6.274
 4769SOL    HW131449   3.057   0.322   6.327
 4769SOL    HW231450   3.068   0.379   6.187
 4770SOL     OW31451   3.003   1.421   1.744
 4770SOL    HW131452   3.089   1.386   1.768
 4770SOL    HW231453   2.958   1.433   1.828
 4771SOL     OW31454   2.754   2.458   6.476
 4771SOL    HW131455   2.812   2.440   6.402
 4771SOL    HW231456   2.777   2.392   6.541
 4772SOL     OW31457   3.980   5.363   7.769
 4772SOL    HW131458   4.075   5.357   7.774
 4772SOL    HW231459   3.956   5.427   7.836
 4773SOL     OW31460   3.267   2.523   6.300
 4773SOL    HW131461   3.233   2.596   6.248
 4773SOL    HW231462   3.362   2.531   6.293
 4774SOL     OW31463   3.090   5.089   7.253
 4774SOL    HW131464   3.020   5.142   7.291
 4774SOL    HW231465   3.081   5.003   7.294
 4775SOL     OW31466   2.726   4.461   7.033
 4775SOL    HW131467   2.804   4.413   7.063
 4775SOL    HW231468   2.731   4.457   6.937
 4776SOL     OW31469   3.441   6.059   5.782
 4776SOL    HW131470   3.536   6.052   5.782
 4776SOL    HW231471   3.410   5.970   5.794
 4777SOL     OW31472   5.556   4.965   0.565
 4777SOL    HW131473   5.531   4.874   0.581
 4777SOL    HW231474   5.548   4.975   0.470
 4778SOL     OW31475   3.165   3.494   1.113
 4778SOL    HW131476   3.206   3.415   1.077
 4778SOL    HW231477   3.102   3.462   1.177
 4779SOL     OW31478   1.912   5.142   2.077
 4779SOL    HW131479   2.005   5.123   2.077
 4779SOL    HW231480   1.904   5.223   2.127
 4780SOL     OW31481   0.183   0.292   0.485
 4780SOL    HW131482   0.107   0.251   0.527
 4780SOL    HW231483   0.240   0.317   0.558
 4781SOL     OW31484   0.243   5.783   0.055
 4781SOL    HW131485   0.226   5.787  -0.039
 4781SOL    HW231486   0.276   5.870   0.077
 4782SOL     OW31487   1.022   1.423   7.141
 4782SOL    HW131488   1.028   1.518   7.148
 4782SOL    HW231489   0.944   1.407   7.090
 4783SOL     OW31490   1.996   4.802   7.767
 4783SOL    HW131491   1.906   4.822   7.794
 4783SOL    HW231492   2.049   4.872   7.806
 4784SOL     OW31493   4.460   5.039   6.590
 4784SOL    HW131494   4.499   5.076   6.669
 4784SOL    HW231495   4.370   5.074   6.589
 4785SOL     OW31496   0.825   1.561   0.929
 4785SOL    HW131497   0.746   1.612   0.942
 4785SOL    HW231498   0.834   1.508   1.008
 4786SOL     OW31499   5.003   0.461   1.874
 4786SOL    HW131500   5.086   0.505   1.854
 4786SOL    HW231501   5.028   0.383   1.923
 4787SOL     OW31502   1.266   2.245   0.752
 4787SOL    HW131503   1.208   2.253   0.828
 4787SOL    HW231504   1.213   2.203   0.685
 4788SOL     OW31505   3.688   3.436   5.223
 4788SOL    HW131506   3.686   3.526   5.255
 4788SOL    HW231507   3.635   3.437   5.143
 4789SOL     OW31508   4.404   5.945   7.312
 4789SOL    HW131509   4.332   5.889   7.282
 4789SOL    HW231510   4.368   5.993   7.386
 4790SOL     OW31511   4.990   2.344   0.694
 4790SOL    HW131512   4.906   2.382   0.719
 4790SOL    HW231513   4.967   2.273   0.634
 4791SOL     OW31514   5.544   0.528   2.026
 4791SOL    HW131515   5.555   0.611   2.072
 4791SOL    HW231516   5.625   0.516   1.977
 4792SOL     OW31517   3.663   2.148   0.953
 4792SOL    HW131518   3.593   2.203   0.918
 4792SOL    HW231519   3.649   2.063   0.911
 4793SOL     OW31520   2.050   3.245   5.382
 4793SOL    HW131521   2.015   3.180   5.443
 4793SOL    HW231522   2.126   3.282   5.427
 4794SOL     OW31523   4.471   1.706   1.130
 4794SOL    HW131524   4.480   1.624   1.082
 4794SOL    HW231525   4.431   1.681   1.213
 4795SOL     OW31526   3.453   2.115   0.277
 4795SOL    HW131527   3.487   2.028   0.298
 4795SOL    HW231528   3.510   2.175   0.325
 4796SOL     OW31529   3.944   2.386   1.522
 4796SOL    HW131530   4.004   2.409   1.451
 4796SOL    HW231531   3.895   2.466   1.539
 4797SOL     OW31532   6.189   3.904   6.314
 4797SOL    HW131533   6.228   3.983   6.279
 4797SOL    HW231534   6.232   3.892   6.399
 4798SOL     OW31535   4.633   6.192   7.478
 4798SOL    HW131536   4.678   6.155   7.403
 4798SOL    HW231537   4.657   6.285   7.478
 4799SOL     OW31538   3.897   0.423   1.519
 4799SOL    HW131539   3.947   0.342   1.508
 4799SOL    HW231540   3.961   0.486   1.553
 4800SOL     OW31541   1.409   6.268   5.626
 4800SOL    HW131542   1.427   6.175   5.612
 4800SOL    HW231543   1.348   6.291   5.555
 4801SOL     OW31544   5.413   5.553   1.202
 4801SOL    HW131545   5.430   5.488   1.270
 4801SOL    HW231546   5.386   5.631   1.251
 4802SOL     OW31547   4.379   4.872   0.897
 4802SOL    HW131548   4.336   4.812   0.836
 4802SOL    HW231549   4.441   4.921   0.843
 4803SOL     OW31550   4.431   6.210   6.032
 4803SOL    HW131551   4.483   6.130   6.040
 4803SOL    HW231552   4.434   6.232   5.939
 4804SOL     OW31553   1.441   1.577   5.292
 4804SOL    HW131554   1.486   1.662   5.293
 4804SOL    HW231555   1.434   1.553   5.384
 4805SOL     OW31556   6.357   3.237   0.610
 4805SOL    HW131557   6.396   3.324   0.600
 4805SOL    HW231558   6.430   3.177   0.596
 4806SOL     OW31559   5.821   5.550   6.460
 4806SOL    HW131560   5.775   5.564   6.377
 4806SOL    HW231561   5.837   5.455   6.462
 4807SOL     OW31562   4.828   3.211   0.145
 4807SOL    HW131563   4.792   3.194   0.232
 4807SOL    HW231564   4.763   3.176   0.084
 4808SOL     OW31565   3.953   2.247   6.116
 4808SOL    HW131566   3.980   2.162   6.081
 4808SOL    HW231567   3.930   2.229   6.207
 4809SOL     OW31568   1.617   2.337   1.970
 4809SOL    HW131569   1.675   2.412   1.979
 4809SOL    HW231570   1.580   2.346   1.882
 4810SOL     OW31571   2.900   5.274   0.340
 4810SOL    HW131572   2.958   5.338   0.299
 4810SOL    HW231573   2.855   5.324   0.408
 4811SOL     OW31574   5.378   2.600   0.978
 4811SOL    HW131575   5.447   2.559   1.030
 4811SOL    HW231576   5.310   2.533   0.971
 4812SOL     OW31577   4.159   3.148   2.126
 4812SOL    HW131578   4.200   3.203   2.194
 4812SOL    HW231579   4.207   3.065   2.131
 4813SOL     OW31580   0.977   1.922   7.264
 4813SOL    HW131581   1.040   1.929   7.336
 4813SOL    HW231582   0.930   2.005   7.265
 4814SOL     OW31583   2.662   2.247   0.782
 4814SOL    HW131584   2.686   2.156   0.799
 4814SOL    HW231585   2.744   2.295   0.792
 4815SOL     OW31586   2.840   6.420   0.202
 4815SOL    HW131587   2.787   6.499   0.186
 4815SOL    HW231588   2.850   6.417   0.297
 4816SOL     OW31589   0.781   6.351   1.838
 4816SOL    HW131590   0.728   6.407   1.896
 4816SOL    HW231591   0.769   6.389   1.751
 4817SOL     OW31592   6.306   1.350   6.348
 4817SOL    HW131593   6.268   1.365   6.261
 4817SOL    HW231594   6.305   1.255   6.359
 4818SOL     OW31595   4.385   5.905   7.749
 4818SOL    HW131596   4.367   5.949   7.832
 4818SOL    HW231597   4.336   5.955   7.684
 4819SOL     OW31598   3.321   2.856   5.136
 4819SOL    HW131599   3.346   2.948   5.123
 4819SOL    HW231600   3.402   2.813   5.165
 4820SOL     OW31601   0.035   2.828   6.780
 4820SOL    HW131602   0.080   2.823   6.695
 4820SOL    HW231603  -0.056   2.807   6.760
 4821SOL     OW31604   1.604   4.226   2.006
 4821SOL    HW131605   1.697   4.243   1.994
 4821SOL    HW231606   1.564   4.313   2.010
 4822SOL     OW31607   5.587   3.354   0.403
 4822SOL    HW131608   5.623   3.353   0.492
 4822SOL    HW231609   5.657   3.391   0.349
 4823SOL     OW31610   5.367   0.990   7.478
 4823SOL    HW131611   5.348   1.072   7.524
 4823SOL    HW231612   5.309   0.990   7.403
 4824SOL     OW31613   2.816   6.168   2.475
 4824SOL    HW131614   2.813   6.228   2.400
 4824SOL    HW231615   2.902   6.126   2.468
 4825SOL     OW31616   3.856   0.334   7.756
 4825SOL    HW131617   3.951   0.328   7.767
 4825SOL    HW231618   3.826   0.386   7.830
 4826SOL     OW31619   3.681   4.751   5.341
 4826SOL    HW131620   3.678   4.656   5.342
 4826SOL    HW231621   3.675   4.776   5.433
 4827SOL     OW31622   1.441   1.786   7.409
 4827SOL    HW131623   1.363   1.841   7.418
 4827SOL    HW231624   1.466   1.794   7.317
 4828SOL     OW31625   5.579   4.360   7.628
 4828SOL    HW131626   5.664   4.391   7.659
 4828SOL    HW231627   5.564   4.279   7.677
 4829SOL     OW31628   2.955   2.788   7.560
 4829SOL    HW131629   2.887   2.855   7.574
 4829SOL    HW231630   3.034   2.826   7.598
 4830SOL     OW31631   1.193   0.233   0.883
 4830SOL    HW131632   1.149   0.179   0.817
 4830SOL    HW231633   1.284   0.206   0.879
 4831SOL     OW31634   3.233   2.498   7.579
 4831SOL    HW131635   3.281   2.549   7.645
 4831SOL    HW231636   3.295   2.432   7.549
 4832SOL     OW31637   4.089   6.167   1.357
 4832SOL    HW131638   4.049   6.153   1.271
 4832SOL    HW231639   4.098   6.262   1.364
 4833SOL     OW31640   5.445   0.095   6.423
 4833SOL    HW131641   5.363   0.046   6.430
 4833SOL    HW231642   5.428   0.160   6.355
 4834SOL     OW31643   6.052   5.463   0.713
 4834SOL    HW131644   6.020   5.385   0.757
 4834SOL    HW231645   6.135   5.437   0.674
 4835SOL     OW31646   3.906   5.388   0.912
 4835SOL    HW131647   3.944   5.374   0.999
 4835SOL    HW231648   3.973   5.439   0.865
 4836SOL     OW31649   3.213   4.024   1.418
 4836SOL    HW131650   3.235   4.009   1.511
 4836SOL    HW231651   3.297   4.011   1.372
 4837SOL     OW31652   6.209   4.740   5.765
 4837SOL    HW131653   6.182   4.776   5.849
 4837SOL    HW231654   6.127   4.719   5.720
 4838SOL     OW31655   4.077   0.076   6.764
 4838SOL    HW131656   4.145   0.008   6.766
 4838SOL    HW231657   4.090   0.120   6.680
 4839SOL     OW31658   0.698   2.476   1.149
 4839SOL    HW131659   0.626   2.435   1.197
 4839SOL    HW231660   0.775   2.425   1.174
 4840SOL     OW31661   0.569   5.185   7.540
 4840SOL    HW131662   0.485   5.219   7.571
 4840SOL    HW231663   0.547   5.141   7.458
 4841SOL     OW31664   5.088   3.871   6.287
 4841SOL    HW131665   5.094   3.888   6.381
 4841SOL    HW231666   4.995   3.878   6.267
 4842SOL     OW31667   4.920   2.779   6.720
 4842SOL    HW131668   5.007   2.749   6.747
 4842SOL    HW231669   4.927   2.874   6.718
 4843SOL     OW31670   2.942   3.045   7.233
 4843SOL    HW131671   3.022   2.998   7.257
 4843SOL    HW231672   2.966   3.091   7.152
 4844SOL     OW31673   2.061   5.436   1.303
 4844SOL    HW131674   1.992   5.371   1.294
 4844SOL    HW231675   2.088   5.430   1.395
 4845SOL     OW31676   5.415   0.251   6.869
 4845SOL    HW131677   5.332   0.281   6.906
 4845SOL    HW231678   5.476   0.323   6.885
 4846SOL     OW31679   4.523   2.980   0.443
 4846SOL    HW131680   4.586   3.051   0.426
 4846SOL    HW231681   4.512   2.937   0.358
 4847SOL     OW31682   5.329   0.875   6.853
 4847SOL    HW131683   5.277   0.848   6.778
 4847SOL    HW231684   5.388   0.802   6.869
 4848SOL     OW31685   3.219   5.832   6.322
 4848SOL    HW131686   3.203   5.888   6.398
 4848SOL    HW231687   3.273   5.885   6.264
 4849SOL     OW31688   2.621   5.998   5.339
 4849SOL    HW131689   2.618   5.982   5.433
 4849SOL    HW231690   2.623   6.094   5.331
 4850SOL     OW31691   0.374   4.059   1.760
 4850SOL    HW131692   0.427   4.037   1.683
 4850SOL    HW231693   0.423   4.128   1.805
 4851SOL     OW31694   0.750   5.183   6.866
 4851SOL    HW131695   0.779   5.153   6.780
 4851SOL    HW231696   0.693   5.258   6.848
 4852SOL     OW31697   3.514   3.806   6.945
 4852SOL    HW131698   3.437   3.798   7.001
 4852SOL    HW231699   3.482   3.783   6.858
 4853SOL     OW31700   5.791   0.164   6.462
 4853SOL    HW131701   5.885   0.151   6.468
 4853SOL    HW231702   5.756   0.119   6.540
 4854SOL     OW31703   1.409   2.685   0.819
 4854SOL    HW131704   1.343   2.631   0.775
 4854SOL    HW231705   1.368   2.771   0.827
 4855SOL     OW31706   4.464   1.105   6.549
 4855SOL    HW131707   4.479   1.032   6.610
 4855SOL    HW231708   4.543   1.107   6.495
 4856SOL     OW31709   2.254   4.103   7.206
 4856SOL    HW131710   2.207   4.037   7.257
 4856SOL    HW231711   2.329   4.056   7.169
 4857SOL     OW31712   3.533   5.882   0.614
 4857SOL    HW131713   3.579   5.798   0.606
 4857SOL    HW231714   3.600   5.947   0.593
 4858SOL     OW31715   2.780   0.463   6.315
 4858SOL    HW131716   2.767   0.482   6.408
 4858SOL    HW231717   2.875   0.457   6.304
 4859SOL     OW31718   3.539   1.302   7.310
 4859SOL    HW131719   3.506   1.344   7.230
 4859SOL    HW231720   3.558   1.212   7.283
 4860SOL     OW31721   4.947   5.560   0.693
 4860SOL    HW131722   4.949   5.533   0.785
 4860SOL    HW231723   4.937   5.655   0.697
 4861SOL     OW31724   1.749   4.747   7.027
 4861SOL    HW131725   1.762   4.713   7.116
 4861SOL    HW231726   1.671   4.801   7.033
 4862SOL     OW31727   2.655   4.511   1.808
 4862SOL    HW131728   2.642   4.440   1.745
 4862SOL    HW231729   2.612   4.480   1.888
 4863SOL     OW31730   1.470   0.558   2.145
 4863SOL    HW131731   1.462   0.607   2.063
 4863SOL    HW231732   1.423   0.476   2.129
 4864SOL     OW31733   2.925   0.342   5.599
 4864SOL    HW131734   2.855   0.276   5.597
 4864SOL    HW231735   3.002   0.295   5.629
 4865SOL     OW31736   4.477   4.022   0.354
 4865SOL    HW131737   4.543   3.969   0.399
 4865SOL    HW231738   4.405   3.961   0.338
 4866SOL     OW31739   0.052   4.476   1.453
 4866SOL    HW131740   0.101   4.399   1.481
 4866SOL    HW231741  -0.038   4.460   1.482
 4867SOL     OW31742   1.259   4.183   7.602
 4867SOL    HW131743   1.349   4.168   7.631
 4867SOL    HW231744   1.267   4.251   7.535
 4868SOL     OW31745   2.164   3.783   0.234
 4868SOL    HW131746   2.166   3.706   0.177
 4868SOL    HW231747   2.096   3.839   0.198
 4869SOL     OW31748   1.843   4.077   7.529
 4869SOL    HW131749   1.885   4.131   7.596
 4869SOL    HW231750   1.844   4.131   7.450
 4870SOL     OW31751   5.197   2.556   1.599
 4870SOL    HW131752   5.280   2.515   1.624
 4870SOL    HW231753   5.193   2.544   1.504
 4871SOL     OW31754   4.153   0.431   1.720
 4871SOL    HW131755   4.116   0.508   1.676
 4871SOL    HW231756   4.179   0.463   1.806
 4872SOL     OW31757   3.733   1.685   7.339
 4872SOL    HW131758   3.687   1.730   7.409
 4872SOL    HW231759   3.826   1.705   7.354
 4873SOL     OW31760   4.469   6.078   1.692
 4873SOL    HW131761   4.378   6.092   1.664
 4873SOL    HW231762   4.462   6.038   1.778
 4874SOL     OW31763   1.516   1.600   6.573
 4874SOL    HW131764   1.590   1.657   6.593
 4874SOL    HW231765   1.462   1.651   6.513
 4875SOL     OW31766   4.095   2.600   6.772
 4875SOL    HW131767   4.139   2.669   6.822
 4875SOL    HW231768   4.142   2.520   6.796
 4876SOL     OW31769   1.002   1.975   0.014
 4876SOL    HW131770   1.043   1.890   0.031
 4876SOL    HW231771   0.940   1.958  -0.057
 4877SOL     OW31772   3.966   2.620   0.213
 4877SOL    HW131773   3.950   2.597   0.305
 4877SOL    HW231774   3.989   2.537   0.171
 4878SOL     OW31775   2.758   0.592   0.803
 4878SOL    HW131776   2.707   0.580   0.884
 4878SOL    HW231777   2.798   0.678   0.813
 4879SOL     OW31778   3.755   0.699   0.037
 4879SOL    HW131779   3.796   0.748  -0.035
 4879SOL    HW231780   3.687   0.758   0.070
 4880SOL     OW31781   5.989   0.519   0.936
 4880SOL    HW131782   5.981   0.582   1.008
 4880SOL    HW231783   6.064   0.465   0.960
 4881SOL     OW31784   2.518   2.234   5.719
 4881SOL    HW131785   2.556   2.184   5.648
 4881SOL    HW231786   2.530   2.326   5.693
 4882SOL     OW31787   0.998   3.258   1.155
 4882SOL    HW131788   0.935   3.199   1.197
 4882SOL    HW231789   1.008   3.331   1.216
 4883SOL     OW31790   3.286   3.216   7.710
 4883SOL    HW131791   3.209   3.272   7.706
 4883SOL    HW231792   3.319   3.226   7.799
 4884SOL     OW31793   2.360   3.927   0.695
 4884SOL    HW131794   2.322   3.895   0.614
 4884SOL    HW231795   2.285   3.941   0.753
 4885SOL     OW31796   0.469   2.137   1.346
 4885SOL    HW131797   0.458   2.075   1.275
 4885SOL    HW231798   0.503   2.086   1.419
 4886SOL     OW31799   4.209   1.238   0.535
 4886SOL    HW131800   4.272   1.310   0.530
 4886SOL    HW231801   4.223   1.187   0.456
 4887SOL     OW31802   5.475   4.672   1.271
 4887SOL    HW131803   5.408   4.608   1.299
 4887SOL    HW231804   5.535   4.621   1.217
 4888SOL     OW31805   2.647   5.289   1.000
 4888SOL    HW131806   2.665   5.209   1.049
 4888SOL    HW231807   2.732   5.318   0.968
 4889SOL     OW31808   5.535   0.291   5.964
 4889SOL    HW131809   5.548   0.207   6.007
 4889SOL    HW231810   5.461   0.331   6.010
 4890SOL     OW31811   3.886   3.822   0.812
 4890SOL    HW131812   3.871   3.729   0.831
 4890SOL    HW231813   3.816   3.846   0.751
 4891SOL     OW31814   0.553   0.545   5.756
 4891SOL    HW131815   0.628   0.594   5.722
 4891SOL    HW231816   0.505   0.516   5.679
 4892SOL     OW31817   5.500   2.284   0.131
 4892SOL    HW131818   5.415   2.315   0.100
 4892SOL    HW231819   5.495   2.189   0.127
 4893SOL     OW31820   4.284   1.500   6.956
 4893SOL    HW131821   4.308   1.418   7.000
 4893SOL    HW231822   4.197   1.484   6.921
 4894SOL     OW31823   0.628   0.649   7.156
 4894SOL    HW131824   0.580   0.613   7.082
 4894SOL    HW231825   0.711   0.679   7.119
 4895SOL     OW31826   1.229   0.137   0.208
 4895SOL    HW131827   1.290   0.096   0.270
 4895SOL    HW231828   1.286   0.174   0.141
 4896SOL     OW31829   4.598   5.867   6.601
 4896SOL    HW131830   4.578   5.841   6.691
 4896SOL    HW231831   4.568   5.958   6.595
 4897SOL     OW31832   4.192   1.889   1.337
 4897SOL    HW131833   4.216   1.816   1.279
 4897SOL    HW231834   4.119   1.931   1.293
 4898SOL     OW31835   2.133   1.615   0.081
 4898SOL    HW131836   2.141   1.686   0.145
 4898SOL    HW231837   2.180   1.541   0.120
 4899SOL     OW31838   1.148   3.816   0.516
 4899SOL    HW131839   1.083   3.860   0.569
 4899SOL    HW231840   1.101   3.743   0.475
 4900SOL     OW31841   1.949   0.834   7.129
 4900SOL    HW131842   1.938   0.762   7.067
 4900SOL    HW231843   1.883   0.818   7.197
 4901SOL     OW31844   3.068   6.187   0.121
 4901SOL    HW131845   3.006   6.180   0.194
 4901SOL    HW231846   3.131   6.118   0.137
 4902SOL     OW31847   4.023   2.559   6.251
 4902SOL    HW131848   4.029   2.526   6.162
 4902SOL    HW231849   4.087   2.508   6.301
 4903SOL     OW31850   4.727   1.194   6.081
 4903SOL    HW131851   4.663   1.257   6.114
 4903SOL    HW231852   4.812   1.227   6.111
 4904SOL     OW31853   0.393   4.847   0.877
 4904SOL    HW131854   0.312   4.861   0.926
 4904SOL    HW231855   0.370   4.868   0.786
 4905SOL     OW31856   3.041   1.582   7.072
 4905SOL    HW131857   3.101   1.610   7.004
 4905SOL    HW231858   2.996   1.506   7.035
 4906SOL     OW31859   1.730   1.661   7.506
 4906SOL    HW131860   1.690   1.575   7.491
 4906SOL    HW231861   1.824   1.646   7.491
 4907SOL     OW31862   1.563   0.475   7.619
 4907SOL    HW131863   1.648   0.448   7.653
 4907SOL    HW231864   1.549   0.419   7.542
 4908SOL     OW31865   4.731   1.366   7.545
 4908SOL    HW131866   4.752   1.430   7.477
 4908SOL    HW231867   4.637   1.378   7.561
 4909SOL     OW31868   0.986   1.718   6.651
 4909SOL    HW131869   1.036   1.683   6.576
 4909SOL    HW231870   0.981   1.644   6.712
 4910SOL     OW31871   4.307   3.311   2.305
 4910SOL    HW131872   4.301   3.404   2.324
 4910SOL    HW231873   4.287   3.268   2.389
 4911SOL     OW31874   4.776   3.403   1.481
 4911SOL    HW131875   4.834   3.334   1.450
 4911SOL    HW231876   4.753   3.378   1.570
 4912SOL     OW31877   2.890   2.760   0.521
 4912SOL    HW131878   2.950   2.787   0.451
 4912SOL    HW231879   2.818   2.822   0.516
 4913SOL     OW31880   1.325   4.935   7.169
 4913SOL    HW131881   1.406   4.944   7.119
 4913SOL    HW231882   1.256   4.941   7.103
 4914SOL     OW31883   3.291   0.072   1.829
 4914SOL    HW131884   3.287  -0.018   1.860
 4914SOL    HW231885   3.288   0.125   1.909
 4915SOL     OW31886   2.260   4.653   6.184
 4915SOL    HW131887   2.295   4.659   6.273
 4915SOL    HW231888   2.322   4.703   6.131
 4916SOL     OW31889   2.931   4.173   1.013
 4916SOL    HW131890   3.013   4.142   1.053
 4916SOL    HW231891   2.876   4.094   1.007
 4917SOL     OW31892   3.193   3.597   5.340
 4917SOL    HW131893   3.233   3.653   5.274
 4917SOL    HW231894   3.193   3.649   5.420
 4918SOL     OW31895   5.300   3.194   0.911
 4918SOL    HW131896   5.322   3.143   0.833
 4918SOL    HW231897   5.208   3.174   0.928
 4919SOL     OW31898   6.067   0.760   0.760
 4919SOL    HW131899   6.150   0.781   0.717
 4919SOL    HW231900   6.085   0.678   0.807
 4920SOL     OW31901   5.790   6.426   1.020
 4920SOL    HW131902   5.822   6.478   0.947
 4920SOL    HW231903   5.704   6.463   1.040
 4921SOL     OW31904   3.690   4.243   0.820
 4921SOL    HW131905   3.758   4.303   0.791
 4921SOL    HW231906   3.716   4.218   0.909
 4922SOL     OW31907   4.627   4.937   7.570
 4922SOL    HW131908   4.648   5.023   7.533
 4922SOL    HW231909   4.580   4.891   7.499
 4923SOL     OW31910   5.006   3.251   1.759
 4923SOL    HW131911   5.036   3.169   1.797
 4923SOL    HW231912   4.938   3.282   1.819
 4924SOL     OW31913   2.359   2.226   7.122
 4924SOL    HW131914   2.444   2.217   7.078
 4924SOL    HW231915   2.333   2.136   7.142
 4925SOL     OW31916   2.197   0.338   0.056
 4925SOL    HW131917   2.112   0.379   0.041
 4925SOL    HW231918   2.211   0.284  -0.022
 4926SOL     OW31919   3.715   1.392   1.189
 4926SOL    HW131920   3.686   1.483   1.183
 4926SOL    HW231921   3.763   1.377   1.108
 4927SOL     OW31922   5.307   4.520   7.791
 4927SOL    HW131923   5.280   4.605   7.755
 4927SOL    HW231924   5.381   4.493   7.737
 4928SOL     OW31925   6.148   0.374   0.632
 4928SOL    HW131926   6.069   0.348   0.585
 4928SOL    HW231927   6.180   0.451   0.586
 4929SOL     OW31928   4.352   5.269   2.253
 4929SOL    HW131929   4.437   5.290   2.212
 4929SOL    HW231930   4.287   5.302   2.191
 4930SOL     OW31931   2.703   0.293   5.922
 4930SOL    HW131932   2.663   0.233   5.860
 4930SOL    HW231933   2.677   0.380   5.892
 4931SOL     OW31934   2.043   0.876   6.035
 4931SOL    HW131935   2.124   0.886   5.985
 4931SOL    HW231936   2.063   0.915   6.120
 4932SOL     OW31937   4.410   6.093   0.181
 4932SOL    HW131938   4.441   6.173   0.140
 4932SOL    HW231939   4.331   6.120   0.229
 4933SOL     OW31940   5.054   2.185   6.215
 4933SOL    HW131941   5.046   2.137   6.133
 4933SOL    HW231942   5.067   2.276   6.189
 4934SOL     OW31943   4.183   5.011   1.298
 4934SOL    HW131944   4.225   4.969   1.223
 4934SOL    HW231945   4.215   4.963   1.374
 4935SOL     OW31946   1.902   2.349   6.631
 4935SOL    HW131947   1.959   2.424   6.649
 4935SOL    HW231948   1.825   2.387   6.591
 4936SOL     OW31949   0.971   0.362   6.544
 4936SOL    HW131950   1.050   0.356   6.597
 4936SOL    HW231951   0.921   0.283   6.566
 4937SOL     OW31952   5.253   6.083   5.558
 4937SOL    HW131953   5.333   6.111   5.602
 4937SOL    HW231954   5.261   6.121   5.470
 4938SOL     OW31955   5.841   0.470   0.074
 4938SOL    HW131956   5.838   0.442   0.165
 4938SOL    HW231957   5.769   0.532   0.065
 4939SOL     OW31958   1.492   1.571   0.840
 4939SOL    HW131959   1.472   1.583   0.932
 4939SOL    HW231960   1.460   1.650   0.797
 4940SOL     OW31961   3.159   1.608   0.525
 4940SOL    HW131962   3.163   1.674   0.456
 4940SOL    HW231963   3.083   1.554   0.503
 4941SOL     OW31964   2.011   1.951   4.935
 4941SOL    HW131965   2.044   1.999   5.011
 4941SOL    HW231966   2.052   1.994   4.859
 4942SOL     OW31967   5.414   4.623   0.380
 4942SOL    HW131968   5.412   4.563   0.305
 4942SOL    HW231969   5.377   4.705   0.345
 4943SOL     OW31970   0.836   0.577   6.198
 4943SOL    HW131971   0.754   0.559   6.244
 4943SOL    HW231972   0.819   0.555   6.107
 4944SOL     OW31973   5.183   1.230   0.684
 4944SOL    HW131974   5.171   1.221   0.589
 4944SOL    HW231975   5.181   1.141   0.717
 4945SOL     OW31976   0.523   3.804   7.069
 4945SOL    HW131977   0.508   3.828   7.160
 4945SOL    HW231978   0.463   3.859   7.019
 4946SOL     OW31979   1.671   3.907   7.643
 4946SOL    HW131980   1.673   3.822   7.600
 4946SOL    HW231981   1.740   3.957   7.600
 4947SOL     OW31982   0.698   2.488   5.780
 4947SOL    HW131983   0.705   2.548   5.705
 4947SOL    HW231984   0.666   2.543   5.851
 4948SOL     OW31985   5.878   1.495   2.010
 4948SOL    HW131986   5.923   1.415   1.983
 4948SOL    HW231987   5.872   1.488   2.105
 4949SOL     OW31988   2.094   5.654   1.689
 4949SOL    HW131989   2.079   5.563   1.714
 4949SOL    HW231990   2.030   5.703   1.740
 4950SOL     OW31991   6.351   4.678   1.374
 4950SOL    HW131992   6.412   4.608   1.399
 4950SOL    HW231993   6.324   4.718   1.456
 4951SOL     OW31994   2.113   3.098   7.109
 4951SOL    HW131995   2.167   3.160   7.160
 4951SOL    HW231996   2.175   3.031   7.081
 4952SOL     OW31997   0.790   3.754   1.783
 4952SOL    HW131998   0.883   3.738   1.801
 4952SOL    HW231999   0.777   3.720   1.695
 4953SOL     OW32000   4.129   0.632   7.171
 4953SOL    HW132001   4.176   0.562   7.126
 4953SOL    HW232002   4.181   0.711   7.154
 4954SOL     OW32003   5.009   2.353   1.085
 4954SOL    HW132004   5.003   2.282   1.021
 4954SOL    HW232005   5.054   2.314   1.160
 4955SOL     OW32006   4.131   4.387   2.138
 4955SOL    HW132007   4.189   4.447   2.186
 4955SOL    HW232008   4.069   4.357   2.204
 4956SOL     OW32009   0.560   0.284   0.774
 4956SOL    HW132010   0.579   0.360   0.719
 4956SOL    HW232011   0.646   0.259   0.809
 4957SOL     OW32012   1.746   0.207   7.648
 4957SOL    HW132013   1.813   0.216   7.715
 4957SOL    HW232014   1.789   0.233   7.567
 4958SOL     OW32015   5.047   3.613   6.200
 4958SOL    HW132016   5.058   3.708   6.208
 4958SOL    HW232017   5.004   3.600   6.115
 4959SOL     OW32018   2.845   2.883   0.875
 4959SOL    HW132019   2.891   2.855   0.796
 4959SOL    HW232020   2.760   2.840   0.869
 4960SOL     OW32021   2.102   2.007   7.491
 4960SOL    HW132022   2.023   2.060   7.488
 4960SOL    HW232023   2.081   1.936   7.552
 4961SOL     OW32024   5.711   2.637   1.460
 4961SOL    HW132025   5.648   2.570   1.485
 4961SOL    HW232026   5.698   2.707   1.524
 4962SOL     OW32027   2.854   3.103   1.958
 4962SOL    HW132028   2.799   3.047   2.013
 4962SOL    HW232029   2.809   3.187   1.956
 4963SOL     OW32030   5.169   6.328   0.361
 4963SOL    HW132031   5.219   6.315   0.280
 4963SOL    HW232032   5.095   6.268   0.353
 4964SOL     OW32033   3.693   5.548   1.043
 4964SOL    HW132034   3.748   5.532   0.966
 4964SOL    HW232035   3.755   5.555   1.115
 4965SOL     OW32036   5.871   5.037   0.645
 4965SOL    HW132037   5.796   5.093   0.668
 4965SOL    HW232038   5.889   5.058   0.554
 4966SOL     OW32039   3.787   0.888   1.426
 4966SOL    HW132040   3.753   0.876   1.514
 4966SOL    HW232041   3.839   0.968   1.431
 4967SOL     OW32042   4.116   4.312   6.045
 4967SOL    HW132043   4.052   4.350   6.106
 4967SOL    HW232044   4.188   4.282   6.100
 4968SOL     OW32045   4.236   0.920   7.227
 4968SOL    HW132046   4.221   0.921   7.321
 4968SOL    HW232047   4.331   0.916   7.217
 4969SOL     OW32048   2.813   2.993   7.685
 4969SOL    HW132049   2.794   3.021   7.596
 4969SOL    HW232050   2.862   3.066   7.724
 4970SOL     OW32051   4.741   3.983   0.025
 4970SOL    HW132052   4.780   3.992  -0.062
 4970SOL    HW232053   4.808   4.016   0.085
 4971SOL     OW32054   0.624   2.271   7.695
 4971SOL    HW132055   0.535   2.268   7.730
 4971SOL    HW232056   0.660   2.184   7.713
 4972SOL     OW32057   0.385   1.688   7.191
 4972SOL    HW132058   0.355   1.779   7.197
 4972SOL    HW232059   0.320   1.645   7.135
 4973SOL     OW32060   0.527   5.105   2.143
 4973SOL    HW132061   0.435   5.100   2.167
 4973SOL    HW232062   0.552   5.014   2.125
 4974SOL     OW32063   2.701   0.900   7.714
 4974SOL    HW132064   2.647   0.844   7.658
 4974SOL    HW232065   2.654   0.984   7.715
 4975SOL     OW32066   1.923   1.557   0.862
 4975SOL    HW132067   1.927   1.639   0.812
 4975SOL    HW232068   2.000   1.508   0.834
 4976SOL     OW32069   0.706   4.884   0.467
 4976SOL    HW132070   0.760   4.848   0.537
 4976SOL    HW232071   0.740   4.844   0.387
 4977SOL     OW32072   0.175   2.235   0.289
 4977SOL    HW132073   0.095   2.196   0.255
 4977SOL    HW232074   0.245   2.174   0.263
 4978SOL     OW32075   1.803   5.714   7.056
 4978SOL    HW132076   1.723   5.669   7.086
 4978SOL    HW232077   1.874   5.661   7.091
 4979SOL     OW32078   0.296   0.350   7.052
 4979SOL    HW132079   0.213   0.309   7.031
 4979SOL    HW232080   0.297   0.355   7.148
 4980SOL     OW32081   5.664   3.225   6.845
 4980SOL    HW132082   5.757   3.242   6.831
 4980SOL    HW232083   5.662   3.143   6.895
 4981SOL     OW32084   3.013   0.472   5.363
 4981SOL    HW132085   3.017   0.395   5.306
 4981SOL    HW232086   2.948   0.449   5.429
 4982SOL     OW32087   1.983   4.966   5.022
 4982SOL    HW132088   2.064   5.015   5.033
 4982SOL    HW232089   1.914   5.032   5.034
 4983SOL     OW32090   2.793   5.286   1.785
 4983SOL    HW132091   2.860   5.218   1.777
 4983SOL    HW232092   2.713   5.238   1.806
 4984SOL     OW32093   5.978   2.268   7.303
 4984SOL    HW132094   5.914   2.213   7.258
 4984SOL    HW232095   5.999   2.220   7.383
 4985SOL     OW32096   4.189   5.703   5.446
 4985SOL    HW132097   4.144   5.767   5.500
 4985SOL    HW232098   4.265   5.676   5.497
 4986SOL     OW32099   5.850   1.977   7.589
 4986SOL    HW132100   5.801   2.040   7.535
 4986SOL    HW232101   5.824   1.998   7.679
 4987SOL     OW32102   5.808   3.765   1.373
 4987SOL    HW132103   5.780   3.688   1.421
 4987SOL    HW232104   5.856   3.731   1.298
 4988SOL     OW32105   1.117   1.779   6.320
 4988SOL    HW132106   1.092   1.704   6.265
 4988SOL    HW232107   1.049   1.844   6.304
 4989SOL     OW32108   0.439   0.240   0.030
 4989SOL    HW132109   0.512   0.263   0.087
 4989SOL    HW232110   0.376   0.310   0.042
 4990SOL     OW32111   5.435   1.360   1.412
 4990SOL    HW132112   5.501   1.428   1.400
 4990SOL    HW232113   5.395   1.381   1.497
 4991SOL     OW32114   2.227   2.229   0.210
 4991SOL    HW132115   2.133   2.218   0.197
 4991SOL    HW232116   2.259   2.143   0.236
 4992SOL     OW32117   0.531   0.870   0.284
 4992SOL    HW132118   0.476   0.889   0.360
 4992SOL    HW232119   0.608   0.925   0.295
 4993SOL     OW32120   3.993   0.923   7.075
 4993SOL    HW132121   4.043   0.923   7.157
 4993SOL    HW232122   3.937   0.846   7.081
 4994SOL     OW32123   4.497   5.284   5.158
 4994SOL    HW132124   4.570   5.344   5.166
 4994SOL    HW232125   4.534   5.205   5.119
 4995SOL     OW32126   3.239   0.910   7.396
 4995SOL    HW132127   3.171   0.847   7.373
 4995SOL    HW232128   3.191   0.984   7.434
 4996SOL     OW32129   1.997   1.556   7.547
 4996SOL    HW132130   2.078   1.507   7.533
 4996SOL    HW232131   1.945   1.500   7.605
 4997SOL     OW32132   3.216   2.193   6.783
 4997SOL    HW132133   3.165   2.257   6.733
 4997SOL    HW232134   3.307   2.219   6.770
 4998SOL     OW32135   3.677   0.572   0.715
 4998SOL    HW132136   3.758   0.615   0.690
 4998SOL    HW232137   3.645   0.622   0.790
 4999SOL     OW32138   5.087   1.509   6.062
 4999SOL    HW132139   5.076   1.604   6.064
 4999SOL    HW232140   5.115   1.490   5.972
 5000SOL     OW32141   4.864   1.704   6.362
 5000SOL    HW132142   4.820   1.732   6.441
 5000SOL    HW232143   4.928   1.638   6.391
 5001SOL     OW32144   4.568   4.022   6.920
 5001SOL    HW132145   4.517   4.072   6.856
 5001SOL    HW232146   4.533   4.049   7.005
 5002SOL     OW32147   5.158   0.108   7.305
 5002SOL    HW132148   5.204   0.081   7.226
 5002SOL    HW232149   5.122   0.194   7.283
 5003SOL     OW32150   1.919   1.901   6.506
 5003SOL    HW132151   1.902   1.954   6.428
 5003SOL    HW232152   1.896   1.958   6.579
 5004SOL     OW32153   1.438   2.948   7.641
 5004SOL    HW132154   1.475   3.005   7.573
 5004SOL    HW232155   1.507   2.941   7.706
 5005SOL     OW32156   4.333   4.712   5.386
 5005SOL    HW132157   4.350   4.639   5.326
 5005SOL    HW232158   4.266   4.764   5.342
 5006SOL     OW32159   1.179   3.077   6.395
 5006SOL    HW132160   1.224   3.160   6.382
 5006SOL    HW232161   1.243   3.021   6.439
 5007SOL     OW32162   3.767   5.586   6.947
 5007SOL    HW132163   3.733   5.582   6.858
 5007SOL    HW232164   3.764   5.496   6.978
 5008SOL     OW32165   5.997   0.967   7.730
 5008SOL    HW132166   6.024   0.914   7.805
 5008SOL    HW232167   6.063   0.949   7.663
 5009SOL     OW32168   3.774   1.561   2.143
 5009SOL    HW132169   3.847   1.521   2.094
 5009SOL    HW232170   3.734   1.621   2.080
 5010SOL     OW32171   0.865   3.498   6.066
 5010SOL    HW132172   0.826   3.457   5.989
 5010SOL    HW232173   0.959   3.487   6.054
 5011SOL     OW32174   6.167   5.091   0.132
 5011SOL    HW132175   6.093   5.031   0.141
 5011SOL    HW232176   6.130   5.170   0.093
 5012SOL     OW32177   0.684   0.939   5.888
 5012SOL    HW132178   0.756   0.942   5.825
 5012SOL    HW232179   0.607   0.916   5.835
 5013SOL     OW32180   0.727   4.610   1.509
 5013SOL    HW132181   0.810   4.607   1.461
 5013SOL    HW232182   0.663   4.643   1.446
 5014SOL     OW32183   5.513   4.068   6.256
 5014SOL    HW132184   5.492   4.157   6.229
 5014SOL    HW232185   5.608   4.064   6.255
 5015SOL     OW32186   4.311   5.764   6.606
 5015SOL    HW132187   4.271   5.734   6.525
 5015SOL    HW232188   4.396   5.799   6.580
 5016SOL     OW32189   5.288   1.677   7.331
 5016SOL    HW132190   5.355   1.713   7.272
 5016SOL    HW232191   5.337   1.624   7.394
 5017SOL     OW32192   4.518   4.775   7.383
 5017SOL    HW132193   4.527   4.686   7.418
 5017SOL    HW232194   4.455   4.766   7.312
 5018SOL     OW32195   2.766   3.208   6.274
 5018SOL    HW132196   2.781   3.115   6.291
 5018SOL    HW232197   2.854   3.245   6.267
 5019SOL     OW32198   2.784   0.406   1.402
 5019SOL    HW132199   2.776   0.314   1.427
 5019SOL    HW232200   2.806   0.451   1.484
 5020SOL     OW32201   5.879   6.393   0.448
 5020SOL    HW132202   5.931   6.329   0.497
 5020SOL    HW232203   5.925   6.476   0.460
 5021SOL     OW32204   3.657   3.209   7.801
 5021SOL    HW132205   3.707   3.240   7.877
 5021SOL    HW232206   3.628   3.121   7.826
 5022SOL     OW32207   2.842   1.967   6.533
 5022SOL    HW132208   2.876   1.923   6.612
 5022SOL    HW232209   2.756   1.927   6.519
 5023SOL     OW32210   0.437   0.488   1.277
 5023SOL    HW132211   0.391   0.491   1.362
 5023SOL    HW232212   0.460   0.578   1.259
 5024SOL     OW32213   1.129   3.459   0.726
 5024SOL    HW132214   1.095   3.518   0.793
 5024SOL    HW232215   1.128   3.373   0.767
 5025SOL     OW32216   3.348   3.063   2.014
 5025SOL    HW132217   3.440   3.059   1.989
 5025SOL    HW232218   3.332   2.981   2.061
 5026SOL     OW32219   1.468   1.669   1.111
 5026SOL    HW132220   1.375   1.675   1.131
 5026SOL    HW232221   1.508   1.743   1.157
 5027SOL     OW32222   6.088   0.524   7.784
 5027SOL    HW132223   6.152   0.456   7.806
 5027SOL    HW232224   6.009   0.499   7.832
 5028SOL     OW32225   1.904   1.661   6.648
 5028SOL    HW132226   1.913   1.755   6.629
 5028SOL    HW232227   1.816   1.652   6.683
 5029SOL     OW32228   6.163   0.048   0.123
 5029SOL    HW132229   6.223  -0.007   0.072
 5029SOL    HW232230   6.083  -0.004   0.132
 5030SOL     OW32231   4.171   0.916   5.378
 5030SOL    HW132232   4.077   0.897   5.384
 5030SOL    HW232233   4.176   1.011   5.375
 5031SOL     OW32234   1.518   5.130   6.322
 5031SOL    HW132235   1.440   5.086   6.287
 5031SOL    HW232236   1.590   5.097   6.268
 5032SOL     OW32237   1.389   1.070   6.298
 5032SOL    HW132238   1.415   1.020   6.221
 5032SOL    HW232239   1.413   1.014   6.372
 5033SOL     OW32240   0.137   4.882   0.765
 5033SOL    HW132241   0.096   4.967   0.780
 5033SOL    HW232242   0.143   4.874   0.670
 5034SOL     OW32243   0.490   2.492   6.600
 5034SOL    HW132244   0.499   2.410   6.551
 5034SOL    HW232245   0.400   2.520   6.584
 5035SOL     OW32246   2.244   3.964   6.500
 5035SOL    HW132247   2.171   4.025   6.493
 5035SOL    HW232248   2.307   3.993   6.434
 5036SOL     OW32249   3.476   2.170   7.816
 5036SOL    HW132250   3.442   2.189   7.904
 5036SOL    HW232251   3.424   2.224   7.757
 5037SOL     OW32252   3.870   0.968   0.113
 5037SOL    HW132253   3.899   0.965   0.021
 5037SOL    HW232254   3.777   0.947   0.109
 5038SOL     OW32255   2.921   1.746   2.246
 5038SOL    HW132256   2.882   1.663   2.220
 5038SOL    HW232257   2.933   1.738   2.341
 5039SOL     OW32258   1.500   0.721   7.715
 5039SOL    HW132259   1.512   0.629   7.694
 5039SOL    HW232260   1.445   0.755   7.644
 5040SOL     OW32261   1.295   2.287   0.089
 5040SOL    HW132262   1.346   2.216   0.051
 5040SOL    HW232263   1.348   2.365   0.072
 5041SOL     OW32264   2.847   2.457   1.017
 5041SOL    HW132265   2.880   2.381   1.063
 5041SOL    HW232266   2.843   2.429   0.925
 5042SOL     OW32267   2.314   5.698   7.820
 5042SOL    HW132268   2.241   5.757   7.839
 5042SOL    HW232269   2.282   5.611   7.842
 5043SOL     OW32270   5.738   4.825   0.794
 5043SOL    HW132271   5.803   4.791   0.856
 5043SOL    HW232272   5.788   4.883   0.737
 5044SOL     OW32273   1.634   4.234   5.810
 5044SOL    HW132274   1.631   4.251   5.716
 5044SOL    HW232275   1.547   4.202   5.832
 5045SOL     OW32276   2.229   2.759   7.364
 5045SOL    HW132277   2.205   2.784   7.275
 5045SOL    HW232278   2.324   2.743   7.359
 5046SOL     OW32279   0.666   2.567   7.712
 5046SOL    HW132280   0.678   2.613   7.629
 5046SOL    HW232281   0.651   2.476   7.686
 5047SOL     OW32282   2.390   0.627   7.345
 5047SOL    HW132283   2.477   0.641   7.307
 5047SOL    HW232284   2.384   0.532   7.356
 5048SOL     OW32285   0.691   2.480   7.017
 5048SOL    HW132286   0.677   2.440   6.931
 5048SOL    HW232287   0.758   2.547   7.001
 5049SOL     OW32288   3.294   3.734   1.459
 5049SOL    HW132289   3.342   3.817   1.460
 5049SOL    HW232290   3.250   3.733   1.374
 5050SOL     OW32291   3.193   2.648   5.881
 5050SOL    HW132292   3.224   2.737   5.894
 5050SOL    HW232293   3.263   2.606   5.830
 5051SOL     OW32294   4.805   0.943   6.757
 5051SOL    HW132295   4.790   0.919   6.848
 5051SOL    HW232296   4.817   1.038   6.760
 5052SOL     OW32297   0.924   5.697   0.456
 5052SOL    HW132298   0.983   5.691   0.380
 5052SOL    HW232299   0.968   5.758   0.515
 5053SOL     OW32300   0.497   3.778   0.208
 5053SOL    HW132301   0.462   3.867   0.198
 5053SOL    HW232302   0.553   3.783   0.285
 5054SOL     OW32303   0.409   3.405   7.497
 5054SOL    HW132304   0.394   3.320   7.455
 5054SOL    HW232305   0.383   3.392   7.588
 5055SOL     OW32306   5.244   2.205   0.532
 5055SOL    HW132307   5.200   2.240   0.455
 5055SOL    HW232308   5.286   2.282   0.573
 5056SOL     OW32309   3.962   3.817   5.698
 5056SOL    HW132310   3.934   3.880   5.631
 5056SOL    HW232311   4.048   3.849   5.726
 5057SOL     OW32312   0.411   2.225   5.965
 5057SOL    HW132313   0.365   2.169   5.903
 5057SOL    HW232314   0.343   2.285   5.997
 5058SOL     OW32315   5.032   5.260   0.550
 5058SOL    HW132316   4.953   5.291   0.594
 5058SOL    HW232317   5.061   5.186   0.603
 5059SOL     OW32318   1.899   6.394   1.092
 5059SOL    HW132319   1.936   6.386   1.180
 5059SOL    HW232320   1.955   6.341   1.037
 5060SOL     OW32321   5.037   0.429   6.671
 5060SOL    HW132322   5.106   0.364   6.681
 5060SOL    HW232323   5.047   0.486   6.747
 5061SOL     OW32324   2.324   2.827   6.500
 5061SOL    HW132325   2.347   2.765   6.430
 5061SOL    HW232326   2.261   2.886   6.459
 5062SOL     OW32327   5.610   3.892   5.684
 5062SOL    HW132328   5.670   3.890   5.759
 5062SOL    HW232329   5.601   3.984   5.662
 5063SOL     OW32330   4.910   0.999   7.355
 5063SOL    HW132331   4.898   0.906   7.333
 5063SOL    HW232332   4.868   1.045   7.283
 5064SOL     OW32333   2.763   3.773   0.427
 5064SOL    HW132334   2.840   3.820   0.396
 5064SOL    HW232335   2.710   3.761   0.349
 5065SOL     OW32336   4.642   2.249   7.250
 5065SOL    HW132337   4.625   2.337   7.219
 5065SOL    HW232338   4.648   2.196   7.170
 5066SOL     OW32339   3.012   4.455   5.751
 5066SOL    HW132340   3.050   4.396   5.816
 5066SOL    HW232341   3.034   4.416   5.667
 5067SOL     OW32342   1.557   4.168   1.375
 5067SOL    HW132343   1.476   4.212   1.401
 5067SOL    HW232344   1.607   4.161   1.456
 5068SOL     OW32345   4.113   2.224   6.628
 5068SOL    HW132346   4.164   2.144   6.640
 5068SOL    HW232347   4.146   2.285   6.694
 5069SOL     OW32348   4.084   4.529   1.851
 5069SOL    HW132349   4.128   4.461   1.902
 5069SOL    HW232350   4.138   4.607   1.862
 5070SOL     OW32351   3.254   3.194   1.612
 5070SOL    HW132352   3.239   3.220   1.703
 5070SOL    HW232353   3.290   3.272   1.570
 5071SOL     OW32354   2.418   5.839   6.934
 5071SOL    HW132355   2.447   5.857   6.845
 5071SOL    HW232356   2.465   5.901   6.988
 5072SOL     OW32357   5.839   4.365   6.142
 5072SOL    HW132358   5.904   4.394   6.206
 5072SOL    HW232359   5.825   4.272   6.161
 5073SOL     OW32360   3.538   1.929   7.714
 5073SOL    HW132361   3.520   2.014   7.754
 5073SOL    HW232362   3.610   1.945   7.654
 5074SOL     OW32363   1.465   0.071   7.236
 5074SOL    HW132364   1.532   0.138   7.224
 5074SOL    HW232365   1.466   0.022   7.153
 5075SOL     OW32366   1.913   3.499   0.619
 5075SOL    HW132367   1.839   3.552   0.589
 5075SOL    HW232368   1.961   3.478   0.538
 5076SOL     OW32369   5.662   1.096   7.384
 5076SOL    HW132370   5.580   1.054   7.411
 5076SOL    HW232371   5.680   1.059   7.297
 5077SOL     OW32372   1.658   5.107   5.887
 5077SOL    HW132373   1.594   5.073   5.825
 5077SOL    HW232374   1.684   5.192   5.852
 5078SOL     OW32375   5.562   5.940   2.226
 5078SOL    HW132376   5.525   5.929   2.313
 5078SOL    HW232377   5.501   5.997   2.180
 5079SOL     OW32378   1.747   5.718   1.684
 5079SOL    HW132379   1.809   5.708   1.755
 5079SOL    HW232380   1.724   5.628   1.659
 5080SOL     OW32381   4.835   5.019   1.788
 5080SOL    HW132382   4.854   5.055   1.701
 5080SOL    HW232383   4.749   4.977   1.778
 5081SOL     OW32384   2.273   5.326   4.939
 5081SOL    HW132385   2.254   5.235   4.918
 5081SOL    HW232386   2.338   5.321   5.010
 5082SOL     OW32387   5.066   0.374   0.975
 5082SOL    HW132388   5.110   0.381   0.890
 5082SOL    HW232389   5.134   0.396   1.039
 5083SOL     OW32390   4.941   0.153   5.308
 5083SOL    HW132391   4.948   0.242   5.343
 5083SOL    HW232392   4.847   0.133   5.312
 5084SOL     OW32393   4.229   4.853   6.789
 5084SOL    HW132394   4.268   4.771   6.758
 5084SOL    HW232395   4.181   4.887   6.714
 5085SOL     OW32396   3.223   2.194   0.471
 5085SOL    HW132397   3.235   2.262   0.537
 5085SOL    HW232398   3.307   2.192   0.424
 5086SOL     OW32399   1.816   2.505   7.200
 5086SOL    HW132400   1.875   2.535   7.269
 5086SOL    HW232401   1.751   2.452   7.246
 5087SOL     OW32402   0.040   1.630   1.595
 5087SOL    HW132403   0.127   1.606   1.626
 5087SOL    HW232404  -0.006   1.661   1.674
 5088SOL     OW32405   3.103   4.472   0.124
 5088SOL    HW132406   3.195   4.447   0.126
 5088SOL    HW232407   3.074   4.460   0.214
 5089SOL     OW32408   2.988   3.153   7.815
 5089SOL    HW132409   2.998   3.209   7.892
 5089SOL    HW232410   3.012   3.209   7.741
 5090SOL     OW32411   3.670   4.577   0.117
 5090SOL    HW132412   3.719   4.649   0.076
 5090SOL    HW232413   3.596   4.620   0.159
 5091SOL     OW32414   3.989   4.776   1.452
 5091SOL    HW132415   4.007   4.683   1.467
 5091SOL    HW232416   4.065   4.821   1.487
 5092SOL     OW32417   0.383   1.779   6.189
 5092SOL    HW132418   0.405   1.694   6.151
 5092SOL    HW232419   0.324   1.819   6.126
 5093SOL     OW32420   3.212   5.782   0.824
 5093SOL    HW132421   3.254   5.728   0.758
 5093SOL    HW232422   3.146   5.832   0.777
 5094SOL     OW32423   3.533   4.461   1.787
 5094SOL    HW132424   3.467   4.429   1.848
 5094SOL    HW232425   3.567   4.381   1.746
 5095SOL     OW32426   0.804   4.653   1.029
 5095SOL    HW132427   0.873   4.602   0.988
 5095SOL    HW232428   0.845   4.736   1.052
 5096SOL     OW32429   5.854   1.095   0.395
 5096SOL    HW132430   5.793   1.075   0.324
 5096SOL    HW232431   5.887   1.009   0.422
 5097SOL     OW32432   1.454   6.400   6.366
 5097SOL    HW132433   1.433   6.317   6.323
 5097SOL    HW232434   1.491   6.454   6.297
 5098SOL     OW32435   1.868   3.112   7.781
 5098SOL    HW132436   1.917   3.036   7.748
 5098SOL    HW232437   1.778   3.080   7.792
 5099SOL     OW32438   3.704   4.588   0.917
 5099SOL    HW132439   3.739   4.591   1.006
 5099SOL    HW232440   3.610   4.579   0.929
 5100SOL     OW32441   1.732   5.583   0.372
 5100SOL    HW132442   1.664   5.607   0.435
 5100SOL    HW232443   1.809   5.631   0.401
 5101SOL     OW32444   1.011   3.919   5.517
 5101SOL    HW132445   0.950   3.900   5.446
 5101SOL    HW232446   0.981   3.865   5.590
 5102SOL     OW32447   4.703   1.223   6.448
 5102SOL    HW132448   4.798   1.218   6.454
 5102SOL    HW232449   4.680   1.303   6.494
 5103SOL     OW32450   6.252   3.310   7.490
 5103SOL    HW132451   6.261   3.367   7.413
 5103SOL    HW232452   6.251   3.371   7.564
 5104SOL     OW32453   6.428   2.619   7.489
 5104SOL    HW132454   6.394   2.680   7.555
 5104SOL    HW232455   6.407   2.661   7.406
 5105SOL     OW32456   5.980   0.207   0.442
 5105SOL    HW132457   6.064   0.230   0.403
 5105SOL    HW232458   5.915   0.244   0.382
 5106SOL     OW32459   3.812   1.187   2.312
 5106SOL    HW132460   3.754   1.243   2.260
 5106SOL    HW232461   3.874   1.152   2.248
 5107SOL     OW32462   3.357   1.760   7.800
 5107SOL    HW132463   3.418   1.806   7.742
 5107SOL    HW232464   3.380   1.667   7.790
 5108SOL     OW32465   1.315   1.801   1.500
 5108SOL    HW132466   1.255   1.737   1.463
 5108SOL    HW232467   1.261   1.853   1.560
 5109SOL     OW32468   5.533   4.683   0.655
 5109SOL    HW132469   5.602   4.705   0.718
 5109SOL    HW232470   5.464   4.645   0.709
 5110SOL     OW32471   2.960   0.194   7.271
 5110SOL    HW132472   2.976   0.213   7.364
 5110SOL    HW232473   2.916   0.109   7.272
 5111SOL     OW32474   2.609   5.808   1.001
 5111SOL    HW132475   2.702   5.816   1.019
 5111SOL    HW232476   2.566   5.859   1.070
 5112SOL     OW32477   1.778   1.038   0.947
 5112SOL    HW132478   1.782   1.021   1.041
 5112SOL    HW232479   1.834   0.971   0.909
 5113SOL     OW32480   4.723   4.601   6.031
 5113SOL    HW132481   4.741   4.508   6.041
 5113SOL    HW232482   4.759   4.624   5.946
 5114SOL     OW32483   0.292   0.775   6.858
 5114SOL    HW132484   0.221   0.720   6.891
 5114SOL    HW232485   0.266   0.797   6.769
 5115SOL     OW32486   2.185   1.829   0.380
 5115SOL    HW132487   2.255   1.868   0.327
 5115SOL    HW232488   2.106   1.841   0.327
 5116SOL     OW32489   5.406   4.187   6.031
 5116SOL    HW132490   5.480   4.139   5.994
 5116SOL    HW232491   5.443   4.272   6.056
 5117SOL     OW32492   3.103   5.931   1.538
 5117SOL    HW132493   3.192   5.913   1.506
 5117SOL    HW232494   3.115   5.962   1.628
 5118SOL     OW32495   4.748   5.162   6.062
 5118SOL    HW132496   4.751   5.176   6.156
 5118SOL    HW232497   4.657   5.139   6.044
 5119SOL     OW32498   1.735   5.719   1.145
 5119SOL    HW132499   1.761   5.722   1.237
 5119SOL    HW232500   1.644   5.692   1.146
 5120SOL     OW32501   4.478   0.642   1.899
 5120SOL    HW132502   4.568   0.616   1.881
 5120SOL    HW232503   4.484   0.705   1.971
 5121SOL     OW32504   2.290   0.287   0.972
 5121SOL    HW132505   2.196   0.304   0.966
 5121SOL    HW232506   2.317   0.274   0.882
 5122SOL     OW32507   1.615   3.877   0.739
 5122SOL    HW132508   1.624   3.793   0.784
 5122SOL    HW232509   1.541   3.865   0.679
 5123SOL     OW32510   4.271   2.140   0.297
 5123SOL    HW132511   4.275   2.055   0.339
 5123SOL    HW232512   4.205   2.130   0.229
 5124SOL     OW32513   4.428   2.684   6.182
 5124SOL    HW132514   4.509   2.735   6.183
 5124SOL    HW232515   4.391   2.699   6.095
 5125SOL     OW32516   2.499   4.072   2.205
 5125SOL    HW132517   2.508   4.067   2.110
 5125SOL    HW232518   2.406   4.089   2.220
 5126SOL     OW32519   1.279   5.277   7.062
 5126SOL    HW132520   1.236   5.305   7.143
 5126SOL    HW232521   1.214   5.223   7.018
 5127SOL     OW32522   6.197   0.738   1.143
 5127SOL    HW132523   6.220   0.654   1.105
 5127SOL    HW232524   6.114   0.762   1.101
 5128SOL     OW32525   4.407   2.511   0.436
 5128SOL    HW132526   4.361   2.569   0.496
 5128SOL    HW232527   4.500   2.519   0.460
 5129SOL     OW32528   0.357   2.028   5.672
 5129SOL    HW132529   0.286   2.050   5.733
 5129SOL    HW232530   0.352   2.094   5.603
 5130SOL     OW32531   2.788   3.921   0.967
 5130SOL    HW132532   2.727   3.917   0.893
 5130SOL    HW232533   2.870   3.885   0.933
 5131SOL     OW32534   1.568   1.127   2.270
 5131SOL    HW132535   1.551   1.220   2.277
 5131SOL    HW232536   1.656   1.121   2.232
 5132SOL     OW32537   2.330   4.254   1.255
 5132SOL    HW132538   2.321   4.309   1.333
 5132SOL    HW232539   2.365   4.171   1.288
 5133SOL     OW32540   0.504   5.781   0.857
 5133SOL    HW132541   0.593   5.748   0.869
 5133SOL    HW232542   0.449   5.703   0.854
 5134SOL     OW32543   6.034   6.244   0.636
 5134SOL    HW132544   5.992   6.279   0.714
 5134SOL    HW232545   5.994   6.158   0.623
 5135SOL     OW32546   5.034   3.043   7.178
 5135SOL    HW132547   4.947   3.082   7.174
 5135SOL    HW232548   5.093   3.119   7.180
 5136SOL     OW32549   4.473   5.413   7.626
 5136SOL    HW132550   4.477   5.508   7.639
 5136SOL    HW232551   4.495   5.400   7.533
 5137SOL     OW32552   2.322   1.930   1.985
 5137SOL    HW132553   2.344   1.888   2.068
 5137SOL    HW232554   2.284   2.014   2.010
 5138SOL     OW32555   6.369   4.721   0.277
 5138SOL    HW132556   6.300   4.666   0.239
 5138SOL    HW232557   6.374   4.694   0.368
 5139SOL     OW32558   1.069   1.099   7.090
 5139SOL    HW132559   1.050   1.120   6.999
 5139SOL    HW232560   1.038   1.174   7.140
 5140SOL     OW32561   2.221   0.210   6.797
 5140SOL    HW132562   2.291   0.161   6.841
 5140SOL    HW232563   2.148   0.149   6.791
 5141SOL     OW32564   5.167   3.046   6.890
 5141SOL    HW132565   5.189   2.971   6.945
 5141SOL    HW232566   5.190   3.123   6.944
 5142SOL     OW32567   1.037   3.342   6.255
 5142SOL    HW132568   1.068   3.375   6.339
 5142SOL    HW232569   1.117   3.317   6.209
 5143SOL     OW32570   1.059   4.937   6.549
 5143SOL    HW132571   1.032   4.860   6.499
 5143SOL    HW232572   1.106   4.992   6.485
 5144SOL     OW32573   1.166   3.862   7.029
 5144SOL    HW132574   1.173   3.772   7.062
 5144SOL    HW232575   1.227   3.866   6.955
 5145SOL     OW32576   0.487   1.895   0.559
 5145SOL    HW132577   0.495   1.809   0.517
 5145SOL    HW232578   0.481   1.957   0.487
 5146SOL     OW32579   4.507   0.713   6.286
 5146SOL    HW132580   4.551   0.709   6.371
 5146SOL    HW232581   4.487   0.806   6.274
 5147SOL     OW32582   3.280   3.725   6.149
 5147SOL    HW132583   3.295   3.683   6.234
 5147SOL    HW232584   3.340   3.799   6.148
 5148SOL     OW32585   1.948   5.131   5.987
 5148SOL    HW132586   1.871   5.186   5.998
 5148SOL    HW232587   1.983   5.156   5.901
 5149SOL     OW32588   3.209   2.705   0.709
 5149SOL    HW132589   3.148   2.681   0.779
 5149SOL    HW232590   3.285   2.741   0.755
 5150SOL     OW32591   0.797   3.310   0.976
 5150SOL    HW132592   0.853   3.299   1.053
 5150SOL    HW232593   0.769   3.221   0.953
 5151SOL     OW32594   6.241   5.477   0.344
 5151SOL    HW132595   6.258   5.448   0.434
 5151SOL    HW232596   6.286   5.561   0.337
 5152SOL     OW32597   6.358   2.568   0.504
 5152SOL    HW132598   6.299   2.503   0.466
 5152SOL    HW232599   6.322   2.653   0.477
 5153SOL     OW32600   4.241   1.943   0.515
 5153SOL    HW132601   4.167   2.004   0.514
 5153SOL    HW232602   4.207   1.863   0.555
 5154SOL     OW32603   3.778   0.733   6.704
 5154SOL    HW132604   3.828   0.654   6.684
 5154SOL    HW232605   3.825   0.803   6.660
 5155SOL     OW32606   1.791   2.184   0.353
 5155SOL    HW132607   1.742   2.264   0.370
 5155SOL    HW232608   1.859   2.210   0.291
 5156SOL     OW32609   1.655   0.715   6.478
 5156SOL    HW132610   1.657   0.777   6.405
 5156SOL    HW232611   1.747   0.698   6.497
 5157SOL     OW32612   2.081   3.034   6.771
 5157SOL    HW132613   2.113   3.002   6.856
 5157SOL    HW232614   2.036   2.959   6.733
 5158SOL     OW32615   2.061   4.437   1.798
 5158SOL    HW132616   2.145   4.392   1.790
 5158SOL    HW232617   2.049   4.480   1.713
 5159SOL     OW32618   4.268   3.133   1.361
 5159SOL    HW132619   4.217   3.081   1.299
 5159SOL    HW232620   4.223   3.121   1.445
 5160SOL     OW32621   0.773   0.522   7.609
 5160SOL    HW132622   0.745   0.609   7.637
 5160SOL    HW232623   0.793   0.476   7.691
 5161SOL     OW32624   0.222   3.707   0.075
 5161SOL    HW132625   0.193   3.741  -0.010
 5161SOL    HW232626   0.284   3.773   0.107
 5162SOL     OW32627   2.842   3.940   6.543
 5162SOL    HW132628   2.926   3.898   6.559
 5162SOL    HW232629   2.790   3.922   6.622
 5163SOL     OW32630   4.948   1.953   0.748
 5163SOL    HW132631   4.857   1.984   0.744
 5163SOL    HW232632   4.961   1.932   0.841
 5164SOL     OW32633   4.198   1.379   1.796
 5164SOL    HW132634   4.191   1.441   1.869
 5164SOL    HW232635   4.157   1.299   1.829
 5165SOL     OW32636   3.458   6.177   7.765
 5165SOL    HW132637   3.459   6.176   7.669
 5165SOL    HW232638   3.437   6.268   7.787
 5166SOL     OW32639   1.830   2.659   6.403
 5166SOL    HW132640   1.871   2.725   6.461
 5166SOL    HW232641   1.888   2.656   6.327
 5167SOL     OW32642   0.921   4.183   0.650
 5167SOL    HW132643   1.010   4.208   0.625
 5167SOL    HW232644   0.924   4.088   0.653
 5168SOL     OW32645   2.184   3.362   0.178
 5168SOL    HW132646   2.252   3.429   0.180
 5168SOL    HW232647   2.207   3.307   0.103
 5169SOL     OW32648   0.899   0.064   5.103
 5169SOL    HW132649   0.890   0.138   5.164
 5169SOL    HW232650   0.919  -0.011   5.159
 5170SOL     OW32651   2.671   3.812   6.340
 5170SOL    HW132652   2.672   3.731   6.289
 5170SOL    HW232653   2.747   3.805   6.398
 5171SOL     OW32654   4.609   2.845   1.616
 5171SOL    HW132655   4.630   2.919   1.673
 5171SOL    HW232656   4.694   2.813   1.586
 5172SOL     OW32657   5.700   4.425   0.164
 5172SOL    HW132658   5.654   4.347   0.131
 5172SOL    HW232659   5.636   4.467   0.221
 5173SOL     OW32660   2.107   5.511   1.036
 5173SOL    HW132661   2.075   5.476   1.119
 5173SOL    HW232662   2.121   5.604   1.052
 5174SOL     OW32663   5.904   0.526   0.460
 5174SOL    HW132664   5.991   0.522   0.421
 5174SOL    HW232665   5.846   0.488   0.393
 5175SOL     OW32666   1.251   3.538   7.533
 5175SOL    HW132667   1.299   3.555   7.614
 5175SOL    HW232668   1.166   3.506   7.563
 5176SOL     OW32669   5.860   3.153   0.241
 5176SOL    HW132670   5.861   3.230   0.184
 5176SOL    HW232671   5.857   3.189   0.330
 5177SOL     OW32672   5.712   3.527   0.207
 5177SOL    HW132673   5.792   3.559   0.249
 5177SOL    HW232674   5.743   3.476   0.132
 5178SOL     OW32675   4.134   4.852   5.260
 5178SOL    HW132676   4.154   4.945   5.267
 5178SOL    HW232677   4.081   4.832   5.337
 5179SOL     OW32678   4.156   0.212   1.583
 5179SOL    HW132679   4.157   0.138   1.643
 5179SOL    HW232680   4.145   0.288   1.640
 5180SOL     OW32681   4.957   3.894   7.349
 5180SOL    HW132682   4.890   3.880   7.282
 5180SOL    HW232683   4.992   3.981   7.331
 5181SOL     OW32684   1.902   6.243   0.483
 5181SOL    HW132685   1.931   6.245   0.392
 5181SOL    HW232686   1.814   6.282   0.481
 5182SOL     OW32687   0.624   5.441   6.858
 5182SOL    HW132688   0.659   5.509   6.801
 5182SOL    HW232689   0.606   5.487   6.941
 5183SOL     OW32690   1.042   3.464   1.325
 5183SOL    HW132691   0.947   3.472   1.335
 5183SOL    HW232692   1.069   3.409   1.399
 5184SOL     OW32693   2.415   1.793   5.260
 5184SOL    HW132694   2.444   1.717   5.310
 5184SOL    HW232695   2.368   1.847   5.324
 5185SOL     OW32696   2.505   2.186   2.447
 5185SOL    HW132697   2.503   2.268   2.397
 5185SOL    HW232698   2.561   2.128   2.396
 5186SOL     OW32699   1.415   2.667   0.342
 5186SOL    HW132700   1.490   2.715   0.377
 5186SOL    HW232701   1.437   2.575   0.354
 5187SOL     OW32702   2.284   3.710   6.266
 5187SOL    HW132703   2.325   3.796   6.263
 5187SOL    HW232704   2.207   3.723   6.321
 5188SOL     OW32705   0.809   3.231   7.412
 5188SOL    HW132706   0.903   3.246   7.410
 5188SOL    HW232707   0.773   3.305   7.461
 5189SOL     OW32708   3.991   3.925   1.036
 5189SOL    HW132709   4.084   3.916   1.016
 5189SOL    HW232710   3.947   3.889   0.959
 5190SOL     OW32711   2.977   0.109   7.818
 5190SOL    HW132712   2.998   0.047   7.748
 5190SOL    HW232713   2.961   0.055   7.895
 5191SOL     OW32714   1.109   3.623   5.337
 5191SOL    HW132715   1.156   3.548   5.302
 5191SOL    HW232716   1.123   3.619   5.432
 5192SOL     OW32717   2.861   1.362   2.508
 5192SOL    HW132718   2.852   1.369   2.413
 5192SOL    HW232719   2.776   1.389   2.543
 5193SOL     OW32720   3.664   0.582   7.523
 5193SOL    HW132721   3.749   0.618   7.547
 5193SOL    HW232722   3.630   0.642   7.457
 5194SOL     OW32723   0.158   0.147   1.109
 5194SOL    HW132724   0.235   0.158   1.053
 5194SOL    HW232725   0.193   0.139   1.197
 5195SOL     OW32726   3.687   3.652   0.977
 5195SOL    HW132727   3.635   3.662   0.896
 5195SOL    HW232728   3.772   3.620   0.947
 5196SOL     OW32729   4.504   2.088   0.537
 5196SOL    HW132730   4.486   2.100   0.631
 5196SOL    HW232731   4.421   2.109   0.494
 5197SOL     OW32732   2.947   5.786   1.113
 5197SOL    HW132733   3.028   5.740   1.093
 5197SOL    HW232734   2.938   5.781   1.208
 5198SOL     OW32735   2.395   0.768   1.256
 5198SOL    HW132736   2.338   0.691   1.255
 5198SOL    HW232737   2.429   0.772   1.346
 5199SOL     OW32738   6.411   4.698   7.367
 5199SOL    HW132739   6.406   4.794   7.369
 5199SOL    HW232740   6.492   4.678   7.414
 5200SOL     OW32741   5.475   5.376   1.406
 5200SOL    HW132742   5.551   5.348   1.457
 5200SOL    HW232743   5.401   5.329   1.445
 5201SOL     OW32744   2.320   2.972   0.984
 5201SOL    HW132745   2.253   2.960   1.051
 5201SOL    HW232746   2.403   2.960   1.030
 5202SOL     OW32747   4.290   4.387   6.570
 5202SOL    HW132748   4.344   4.465   6.557
 5202SOL    HW232749   4.284   4.347   6.484
 5203SOL     OW32750   1.975   0.252   0.953
 5203SOL    HW132751   1.940   0.326   0.904
 5203SOL    HW232752   1.947   0.175   0.904
 5204SOL     OW32753   4.195   1.199   7.483
 5204SOL    HW132754   4.160   1.203   7.394
 5204SOL    HW232755   4.184   1.287   7.517
 5205SOL     OW32756   5.569   2.441   7.227
 5205SOL    HW132757   5.653   2.443   7.272
 5205SOL    HW232758   5.522   2.518   7.259
 5206SOL     OW32759   1.378   5.552   1.670
 5206SOL    HW132760   1.355   5.633   1.717
 5206SOL    HW232761   1.412   5.494   1.738
 5207SOL     OW32762   2.021   1.247   0.423
 5207SOL    HW132763   2.011   1.251   0.327
 5207SOL    HW232764   1.988   1.331   0.454
 5208SOL     OW32765   3.070   5.043   6.507
 5208SOL    HW132766   3.126   5.001   6.572
 5208SOL    HW232767   3.101   5.134   6.504
 5209SOL     OW32768   0.098   0.641   7.712
 5209SOL    HW132769   0.140   0.668   7.631
 5209SOL    HW232770   0.090   0.721   7.764
 5210SOL     OW32771   6.164   5.653   5.901
 5210SOL    HW132772   6.226   5.712   5.944
 5210SOL    HW232773   6.219   5.594   5.850
 5211SOL     OW32774   4.091   4.805   7.015
 5211SOL    HW132775   3.997   4.819   7.002
 5211SOL    HW232776   4.127   4.804   6.926
 5212SOL     OW32777   3.820   3.260   1.771
 5212SOL    HW132778   3.838   3.172   1.805
 5212SOL    HW232779   3.846   3.318   1.842
 5213SOL     OW32780   5.965   3.002   1.176
 5213SOL    HW132781   5.931   2.949   1.249
 5213SOL    HW232782   5.912   2.975   1.101
 5214SOL     OW32783   5.974   0.298   6.673
 5214SOL    HW132784   5.886   0.328   6.695
 5214SOL    HW232785   6.004   0.253   6.752
 5215SOL     OW32786   0.497   5.013   0.025
 5215SOL    HW132787   0.421   5.037   0.079
 5215SOL    HW232788   0.543   5.096   0.011
 5216SOL     OW32789   3.383   1.287   5.823
 5216SOL    HW132790   3.295   1.300   5.788
 5216SOL    HW232791   3.423   1.223   5.764
 5217SOL     OW32792   4.022   4.323   1.175
 5217SOL    HW132793   4.039   4.269   1.252
 5217SOL    HW232794   4.098   4.380   1.168
 5218SOL     OW32795   2.254   1.666   6.664
 5218SOL    HW132796   2.182   1.632   6.718
 5218SOL    HW232797   2.235   1.634   6.576
 5219SOL     OW32798   5.631   5.290   7.589
 5219SOL    HW132799   5.545   5.307   7.552
 5219SOL    HW232800   5.639   5.194   7.587
 5220SOL     OW32801   3.262   0.101   6.033
 5220SOL    HW132802   3.275   0.191   6.001
 5220SOL    HW232803   3.281   0.046   5.957
 5221SOL     OW32804   5.675   0.150   0.099
 5221SOL    HW132805   5.755   0.136   0.048
 5221SOL    HW232806   5.638   0.063   0.111
 5222SOL     OW32807   3.190   5.512   7.049
 5222SOL    HW132808   3.118   5.470   7.098
 5222SOL    HW232809   3.178   5.481   6.960
 5223SOL     OW32810   5.603   5.596   6.857
 5223SOL    HW132811   5.638   5.658   6.921
 5223SOL    HW232812   5.509   5.615   6.856
 5224SOL     OW32813   5.159   4.770   0.620
 5224SOL    HW132814   5.234   4.731   0.665
 5224SOL    HW232815   5.169   4.743   0.528
 5225SOL     OW32816   5.066   3.911   5.980
 5225SOL    HW132817   5.049   3.820   5.955
 5225SOL    HW232818   5.143   3.905   6.038
 5226SOL     OW32819   4.019   5.999   0.699
 5226SOL    HW132820   4.093   5.970   0.752
 5226SOL    HW232821   4.025   6.094   0.699
 5227SOL     OW32822   2.336   5.406   6.007
 5227SOL    HW132823   2.383   5.359   6.076
 5227SOL    HW232824   2.385   5.488   5.996
 5228SOL     OW32825   3.580   0.000   6.782
 5228SOL    HW132826   3.634  -0.041   6.715
 5228SOL    HW232827   3.592   0.094   6.768
 5229SOL     OW32828   2.044   2.769   6.163
 5229SOL    HW132829   1.986   2.717   6.108
 5229SOL    HW232830   2.112   2.709   6.190
 5230SOL     OW32831   5.535   0.457   0.874
 5230SOL    HW132832   5.511   0.364   0.873
 5230SOL    HW232833   5.607   0.464   0.813
 5231SOL     OW32834   0.402   1.229   1.783
 5231SOL    HW132835   0.337   1.173   1.740
 5231SOL    HW232836   0.481   1.217   1.731
 5232SOL     OW32837   5.559   2.698   0.560
 5232SOL    HW132838   5.497   2.759   0.520
 5232SOL    HW232839   5.565   2.727   0.652
 5233SOL     OW32840   3.809   1.222   0.225
 5233SOL    HW132841   3.864   1.156   0.182
 5233SOL    HW232842   3.734   1.172   0.257
 5234SOL     OW32843   3.459   2.870   1.099
 5234SOL    HW132844   3.550   2.840   1.099
 5234SOL    HW232845   3.465   2.964   1.119
 5235SOL     OW32846   3.461   5.830   7.693
 5235SOL    HW132847   3.510   5.912   7.681
 5235SOL    HW232848   3.372   5.851   7.665
 5236SOL     OW32849   1.293   2.042   7.244
 5236SOL    HW132850   1.219   2.102   7.250
 5236SOL    HW232851   1.327   2.054   7.155
 5237SOL     OW32852   0.605   5.974   7.803
 5237SOL    HW132853   0.513   5.983   7.829
 5237SOL    HW232854   0.601   5.932   7.717
 5238SOL     OW32855   1.938   3.697   6.821
 5238SOL    HW132856   2.011   3.732   6.770
 5238SOL    HW232857   1.920   3.612   6.782
 5239SOL     OW32858   1.191   1.626   0.954
 5239SOL    HW132859   1.211   1.674   1.034
 5239SOL    HW232860   1.106   1.659   0.926
 5240SOL     OW32861   2.772   2.928   6.362
 5240SOL    HW132862   2.683   2.947   6.390
 5240SOL    HW232863   2.761   2.873   6.284
 5241SOL     OW32864   4.428   5.006   5.088
 5241SOL    HW132865   4.346   5.043   5.057
 5241SOL    HW232866   4.448   4.935   5.028
 5242SOL     OW32867   4.762   0.204   7.328
 5242SOL    HW132868   4.676   0.199   7.287
 5242SOL    HW232869   4.768   0.126   7.382
 5243SOL     OW32870   6.177   4.251   6.309
 5243SOL    HW132871   6.146   4.341   6.321
 5243SOL    HW232872   6.143   4.204   6.386
 5244SOL     OW32873   1.568   2.512   5.796
 5244SOL    HW132874   1.631   2.583   5.812
 5244SOL    HW232875   1.483   2.554   5.804
 5245SOL     OW32876   2.007   4.851   0.908
 5245SOL    HW132877   1.946   4.911   0.951
 5245SOL    HW232878   1.953   4.775   0.884
 5246SOL     OW32879   2.545   5.136   0.392
 5246SOL    HW132880   2.637   5.110   0.390
 5246SOL    HW232881   2.543   5.220   0.346
 5247SOL     OW32882   4.885   4.586   7.320
 5247SOL    HW132883   4.858   4.495   7.333
 5247SOL    HW232884   4.870   4.603   7.227
 5248SOL     OW32885   5.176   1.554   0.436
 5248SOL    HW132886   5.266   1.529   0.415
 5248SOL    HW232887   5.121   1.496   0.384
 5249SOL     OW32888   3.929   2.828   6.950
 5249SOL    HW132889   4.012   2.813   6.994
 5249SOL    HW232890   3.872   2.757   6.981
 5250SOL     OW32891   1.736   5.554   6.534
 5250SOL    HW132892   1.787   5.587   6.608
 5250SOL    HW232893   1.698   5.472   6.564
 5251SOL     OW32894   3.644   5.513   0.057
 5251SOL    HW132895   3.600   5.502  -0.027
 5251SOL    HW232896   3.696   5.592   0.047
 5252SOL     OW32897   1.598   4.452   0.379
 5252SOL    HW132898   1.505   4.470   0.366
 5252SOL    HW232899   1.635   4.457   0.290
 5253SOL     OW32900   3.001   5.264   1.488
 5253SOL    HW132901   2.909   5.285   1.475
 5253SOL    HW232902   3.005   5.218   1.571
 5254SOL     OW32903   1.582   2.718   6.490
 5254SOL    HW132904   1.542   2.647   6.541
 5254SOL    HW232905   1.665   2.682   6.460
 5255SOL     OW32906   1.871   4.799   1.828
 5255SOL    HW132907   1.870   4.890   1.858
 5255SOL    HW232908   1.900   4.804   1.737
 5256SOL     OW32909   6.215   1.088   0.208
 5256SOL    HW132910   6.302   1.124   0.196
 5256SOL    HW232911   6.162   1.161   0.238
 5257SOL     OW32912   1.831   2.499   5.606
 5257SOL    HW132913   1.744   2.460   5.595
 5257SOL    HW232914   1.886   2.452   5.544
 5258SOL     OW32915   4.735   6.023   7.730
 5258SOL    HW132916   4.689   5.940   7.739
 5258SOL    HW232917   4.713   6.052   7.641
 5259SOL     OW32918   2.178   0.996   1.486
 5259SOL    HW132919   2.166   1.040   1.570
 5259SOL    HW232920   2.218   1.062   1.430
 5260SOL     OW32921   6.246   0.788   7.073
 5260SOL    HW132922   6.285   0.702   7.059
 5260SOL    HW232923   6.320   0.846   7.092
 5261SOL     OW32924   4.158   6.371   0.555
 5261SOL    HW132925   4.207   6.386   0.636
 5261SOL    HW232926   4.073   6.338   0.584
 5262SOL     OW32927   1.396   6.000   6.991
 5262SOL    HW132928   1.378   5.920   7.040
 5262SOL    HW232929   1.450   6.053   7.050
 5263SOL     OW32930   5.001   4.177   5.282
 5263SOL    HW132931   4.973   4.093   5.247
 5263SOL    HW232932   5.097   4.175   5.274
 5264SOL     OW32933   0.948   6.349   6.838
 5264SOL    HW132934   0.886   6.328   6.908
 5264SOL    HW232935   0.965   6.266   6.795
 5265SOL     OW32936   0.244   4.514   0.380
 5265SOL    HW132937   0.328   4.552   0.354
 5265SOL    HW232938   0.188   4.523   0.303
 5266SOL     OW32939   4.858   4.964   7.382
 5266SOL    HW132940   4.841   5.058   7.372
 5266SOL    HW232941   4.800   4.938   7.454
 5267SOL     OW32942   5.364   0.985   0.281
 5267SOL    HW132943   5.374   0.946   0.368
 5267SOL    HW232944   5.396   0.917   0.221
 5268SOL     OW32945   5.490   1.525   7.759
 5268SOL    HW132946   5.490   1.452   7.820
 5268SOL    HW232947   5.576   1.565   7.770
 5269SOL     OW32948   0.747   3.623   7.307
 5269SOL    HW132949   0.730   3.546   7.253
 5269SOL    HW232950   0.825   3.600   7.358
 5270SOL     OW32951   0.586   4.002   0.619
 5270SOL    HW132952   0.508   3.947   0.608
 5270SOL    HW232953   0.604   3.998   0.713
 5271SOL     OW32954   0.105   1.650   1.094
 5271SOL    HW132955   0.179   1.652   1.155
 5271SOL    HW232956   0.146   1.661   1.008
 5272SOL     OW32957   4.772   1.117   0.737
 5272SOL    HW132958   4.683   1.145   0.758
 5272SOL    HW232959   4.806   1.082   0.819
 5273SOL     OW32960   0.209   2.688   5.351
 5273SOL    HW132961   0.153   2.751   5.306
 5273SOL    HW232962   0.158   2.607   5.353
 5274SOL     OW32963   2.120   2.604   7.692
 5274SOL    HW132964   2.067   2.530   7.663
 5274SOL    HW232965   2.179   2.567   7.758
 5275SOL     OW32966   0.936   5.038   7.436
 5275SOL    HW132967   0.929   5.002   7.524
 5275SOL    HW232968   1.027   5.066   7.428
 5276SOL     OW32969   5.440   1.919   6.612
 5276SOL    HW132970   5.388   1.839   6.620
 5276SOL    HW232971   5.529   1.889   6.598
 5277SOL     OW32972   0.450   1.575   6.746
 5277SOL    HW132973   0.464   1.670   6.741
 5277SOL    HW232974   0.492   1.549   6.828
 5278SOL     OW32975   1.734   2.655   0.726
 5278SOL    HW132976   1.757   2.579   0.673
 5278SOL    HW232977   1.655   2.690   0.684
 5279SOL     OW32978   5.410   2.432   0.637
 5279SOL    HW132979   5.430   2.429   0.543
 5279SOL    HW232980   5.496   2.431   0.679
 5280SOL     OW32981   4.666   0.181   1.090
 5280SOL    HW132982   4.651   0.191   1.184
 5280SOL    HW232983   4.734   0.113   1.084
 5281SOL     OW32984   3.305   5.320   0.012
 5281SOL    HW132985   3.314   5.284  -0.077
 5281SOL    HW232986   3.258   5.402   0.000
 5282SOL     OW32987   5.405   2.026   0.133
 5282SOL    HW132988   5.348   1.975   0.190
 5282SOL    HW232989   5.403   1.980   0.049
 5283SOL     OW32990   1.970   4.446   1.263
 5283SOL    HW132991   2.025   4.484   1.331
 5283SOL    HW232992   1.922   4.520   1.226
 5284SOL     OW32993   0.512   0.098   7.631
 5284SOL    HW132994   0.514   0.004   7.650
 5284SOL    HW232995   0.472   0.137   7.708
 5285SOL     OW32996   5.751   2.279   1.365
 5285SOL    HW132997   5.793   2.223   1.430
 5285SOL    HW232998   5.685   2.328   1.414
 5286SOL     OW32999   5.042   1.525   6.421
 5286SOL    HW133000   5.049   1.466   6.497
 5286SOL    HW233001   5.131   1.528   6.385
 5287SOL     OW33002   2.408   6.268   0.067
 5287SOL    HW133003   2.484   6.247   0.014
 5287SOL    HW233004   2.432   6.242   0.155
 5288SOL     OW33005   3.447   2.756   6.408
 5288SOL    HW133006   3.386   2.821   6.373
 5288SOL    HW233007   3.534   2.795   6.395
 5289SOL     OW33008   5.892   0.086   7.752
 5289SOL    HW133009   5.905   0.046   7.666
 5289SOL    HW233010   5.963   0.052   7.805
 5290SOL     OW33011   6.437   0.814   1.573
 5290SOL    HW133012   6.424   0.908   1.577
 5290SOL    HW233013   6.366   0.782   1.518
 5291SOL     OW33014   5.693   0.798   0.713
 5291SOL    HW133015   5.772   0.754   0.680
 5291SOL    HW233016   5.711   0.891   0.700
 5292SOL     OW33017   5.119   4.525   1.355
 5292SOL    HW133018   5.081   4.598   1.305
 5292SOL    HW233019   5.183   4.486   1.297
 5293SOL     OW33020   2.279   2.436   6.729
 5293SOL    HW133021   2.364   2.458   6.689
 5293SOL    HW233022   2.269   2.343   6.712
 5294SOL     OW33023   1.539   4.064   7.800
 5294SOL    HW133024   1.566   3.996   7.738
 5294SOL    HW233025   1.620   4.087   7.847
 5295SOL     OW33026   0.334   0.738   5.760
 5295SOL    HW133027   0.369   0.649   5.758
 5295SOL    HW233028   0.349   0.772   5.671
 5296SOL     OW33029   6.108   4.275   1.738
 5296SOL    HW133030   6.037   4.261   1.800
 5296SOL    HW233031   6.160   4.195   1.742
 5297SOL     OW33032   5.159   2.277   5.921
 5297SOL    HW133033   5.092   2.214   5.896
 5297SOL    HW233034   5.110   2.354   5.951
 5298SOL     OW33035   5.215   0.082   5.310
 5298SOL    HW133036   5.128   0.109   5.283
 5298SOL    HW233037   5.232   0.131   5.391
 5299SOL     OW33038   0.336   4.415   6.425
 5299SOL    HW133039   0.266   4.381   6.480
 5299SOL    HW233040   0.308   4.503   6.401
 5300SOL     OW33041   0.245   2.863   7.081
 5300SOL    HW133042   0.160   2.900   7.055
 5300SOL    HW233043   0.296   2.939   7.109
 5301SOL     OW33044   1.651   1.322   1.153
 5301SOL    HW133045   1.682   1.330   1.063
 5301SOL    HW233046   1.711   1.260   1.193
 5302SOL     OW33047   3.222   1.752   7.448
 5302SOL    HW133048   3.177   1.702   7.380
 5302SOL    HW233049   3.311   1.717   7.448
 5303SOL     OW33050   6.191   4.941   0.853
 5303SOL    HW133051   6.242   5.017   0.824
 5303SOL    HW233052   6.169   4.895   0.773
 5304SOL     OW33053   2.663   4.859   6.266
 5304SOL    HW133054   2.590   4.849   6.205
 5304SOL    HW233055   2.703   4.943   6.242
 5305SOL     OW33056   2.225   5.102   7.565
 5305SOL    HW133057   2.149   5.059   7.604
 5305SOL    HW233058   2.221   5.078   7.472
 5306SOL     OW33059   0.775   5.142   6.352
 5306SOL    HW133060   0.807   5.231   6.337
 5306SOL    HW233061   0.685   5.143   6.318
 5307SOL     OW33062   3.217   4.482   7.282
 5307SOL    HW133063   3.175   4.455   7.200
 5307SOL    HW233064   3.278   4.411   7.302
 5308SOL     OW33065   1.272   1.372   0.788
 5308SOL    HW133066   1.368   1.364   0.793
 5308SOL    HW233067   1.248   1.415   0.870
 5309SOL     OW33068   1.571   2.731   7.271
 5309SOL    HW133069   1.582   2.818   7.310
 5309SOL    HW233070   1.604   2.670   7.336
 5310SOL     OW33071   4.652   0.438   0.392
 5310SOL    HW133072   4.715   0.420   0.462
 5310SOL    HW233073   4.569   0.454   0.438
 5311SOL     OW33074   3.065   0.938   6.107
 5311SOL    HW133075   3.028   1.012   6.059
 5311SOL    HW233076   3.023   0.861   6.068
 5312SOL     OW33077   4.734   6.146   6.136
 5312SOL    HW133078   4.822   6.122   6.107
 5312SOL    HW233079   4.687   6.062   6.139
 5313SOL     OW33080   1.752   4.676   6.500
 5313SOL    HW133081   1.725   4.593   6.538
 5313SOL    HW233082   1.847   4.680   6.516
 5314SOL     OW33083   6.292   1.349   7.823
 5314SOL    HW133084   6.327   1.436   7.805
 5314SOL    HW233085   6.356   1.289   7.785
 5315SOL     OW33086   6.235   2.349   0.371
 5315SOL    HW133087   6.141   2.349   0.390
 5315SOL    HW233088   6.271   2.284   0.430
 5316SOL     OW33089   1.844   4.570   5.714
 5316SOL    HW133090   1.771   4.540   5.659
 5316SOL    HW233091   1.830   4.664   5.722
 5317SOL     OW33092   2.609   2.145   1.431
 5317SOL    HW133093   2.588   2.097   1.351
 5317SOL    HW233094   2.602   2.237   1.407
 5318SOL     OW33095   5.713   0.221   6.220
 5318SOL    HW133096   5.741   0.196   6.309
 5318SOL    HW233097   5.636   0.167   6.203
 5319SOL     OW33098   4.541   5.870   6.329
 5319SOL    HW133099   4.581   5.834   6.409
 5319SOL    HW233100   4.480   5.937   6.361
 5320SOL     OW33101   3.145   5.114   0.298
 5320SOL    HW133102   3.059   5.121   0.255
 5320SOL    HW233103   3.164   5.203   0.328
 5321SOL     OW33104   6.283   4.960   0.476
 5321SOL    HW133105   6.326   5.011   0.407
 5321SOL    HW233106   6.240   5.026   0.531
 5322SOL     OW33107   0.478   0.592   0.288
 5322SOL    HW133108   0.480   0.687   0.281
 5322SOL    HW233109   0.420   0.564   0.217
 5323SOL     OW33110   2.736   3.443   7.674
 5323SOL    HW133111   2.651   3.400   7.678
 5323SOL    HW233112   2.747   3.483   7.760
 5324SOL     OW33113   6.274   2.303   0.721
 5324SOL    HW133114   6.334   2.269   0.656
 5324SOL    HW233115   6.325   2.307   0.802
 5325SOL     OW33116   0.440   4.255   7.429
 5325SOL    HW133117   0.532   4.282   7.424
 5325SOL    HW233118   0.397   4.325   7.478
 5326SOL     OW33119   1.942   5.202   7.701
 5326SOL    HW133120   1.929   5.161   7.616
 5326SOL    HW233121   1.989   5.137   7.753
 5327SOL     OW33122   1.781   4.602   7.615
 5327SOL    HW133123   1.818   4.680   7.655
 5327SOL    HW233124   1.855   4.561   7.569
 5328SOL     OW33125   1.241   5.070   7.672
 5328SOL    HW133126   1.242   5.058   7.578
 5328SOL    HW233127   1.149   5.070   7.696
 5329SOL     OW33128   2.459   3.561   6.644
 5329SOL    HW133129   2.377   3.585   6.600
 5329SOL    HW233130   2.503   3.502   6.584
 5330SOL     OW33131   0.593   1.879   6.781
 5330SOL    HW133132   0.656   1.905   6.713
 5330SOL    HW233133   0.600   1.948   6.847
 5331SOL     OW33134   0.675   2.619   7.428
 5331SOL    HW133135   0.669   2.686   7.360
 5331SOL    HW233136   0.655   2.537   7.383
 5332SOL     OW33137   2.914   0.481   7.765
 5332SOL    HW133138   2.975   0.554   7.752
 5332SOL    HW233139   2.867   0.503   7.846
 5333SOL     OW33140   2.178   4.892   0.377
 5333SOL    HW133141   2.127   4.951   0.433
 5333SOL    HW233142   2.247   4.947   0.340
 5334SOL     OW33143   0.587   5.320   1.862
 5334SOL    HW133144   0.641   5.372   1.803
 5334SOL    HW233145   0.608   5.229   1.840
 5335SOL     OW33146   4.092   5.167   7.268
 5335SOL    HW133147   4.110   5.236   7.333
 5335SOL    HW233148   4.005   5.189   7.234
 5336SOL     OW33149   3.069   4.029   5.487
 5336SOL    HW133150   3.143   4.089   5.485
 5336SOL    HW233151   3.000   4.077   5.533
 5337SOL     OW33152   5.869   2.586   7.076
 5337SOL    HW133153   5.934   2.590   7.147
 5337SOL    HW233154   5.903   2.519   7.017
 5338SOL     OW33155   3.315   5.230   7.132
 5338SOL    HW133156   3.332   5.298   7.066
 5338SOL    HW233157   3.233   5.189   7.105
 5339SOL     OW33158   4.192   1.963   6.660
 5339SOL    HW133159   4.152   1.918   6.586
 5339SOL    HW233160   4.270   1.912   6.681
 5340SOL     OW33161   0.347   2.581   1.218
 5340SOL    HW133162   0.307   2.620   1.295
 5340SOL    HW233163   0.394   2.504   1.251
 5341SOL     OW33164   0.795   5.235   0.187
 5341SOL    HW133165   0.776   5.325   0.160
 5341SOL    HW233166   0.778   5.183   0.108
 5342SOL     OW33167   5.100   0.672   0.836
 5342SOL    HW133168   5.158   0.600   0.810
 5342SOL    HW233169   5.021   0.660   0.782
 5343SOL     OW33170   2.630   2.013   7.498
 5343SOL    HW133171   2.631   2.082   7.432
 5343SOL    HW233172   2.539   2.005   7.523
 5344SOL     OW33173   3.621   6.412   0.250
 5344SOL    HW133174   3.581   6.399   0.163
 5344SOL    HW233175   3.616   6.506   0.265
 5345SOL     OW33176   0.427   6.278   1.556
 5345SOL    HW133177   0.454   6.355   1.607
 5345SOL    HW233178   0.346   6.249   1.597
 5346SOL     OW33179   3.154   1.838   1.326
 5346SOL    HW133180   3.220   1.897   1.287
 5346SOL    HW233181   3.156   1.859   1.419
 5347SOL     OW33182   6.050   5.443   7.568
 5347SOL    HW133183   6.139   5.477   7.567
 5347SOL    HW233184   5.996   5.515   7.537
 5348SOL     OW33185   3.758   0.038   0.594
 5348SOL    HW133186   3.776   0.126   0.628
 5348SOL    HW233187   3.663   0.028   0.605
 5349SOL     OW33188   4.169   0.603   6.290
 5349SOL    HW133189   4.262   0.623   6.279
 5349SOL    HW233190   4.125   0.660   6.227
 5350SOL     OW33191   1.800   4.729   0.158
 5350SOL    HW133192   1.712   4.757   0.184
 5350SOL    HW233193   1.859   4.793   0.198
 5351SOL     OW33194   0.176   2.768   2.081
 5351SOL    HW133195   0.111   2.709   2.042
 5351SOL    HW233196   0.252   2.712   2.097
 5352SOL     OW33197   5.246   0.239   5.521
 5352SOL    HW133198   5.269   0.331   5.508
 5352SOL    HW233199   5.177   0.240   5.588
 5353SOL     OW33200   2.326   5.259   6.833
 5353SOL    HW133201   2.335   5.340   6.782
 5353SOL    HW233202   2.266   5.205   6.782
 5354SOL     OW33203   0.352   2.319   7.773
 5354SOL    HW133204   0.354   2.409   7.740
 5354SOL    HW233205   0.357   2.328   7.869
 5355SOL     OW33206   2.768   3.109   5.419
 5355SOL    HW133207   2.774   3.068   5.333
 5355SOL    HW233208   2.804   3.197   5.406
 5356SOL     OW33209   1.048   0.164   0.661
 5356SOL    HW133210   0.988   0.219   0.610
 5356SOL    HW233211   1.039   0.077   0.623
 5357SOL     OW33212   3.980   1.247   7.029
 5357SOL    HW133213   4.014   1.312   6.967
 5357SOL    HW233214   3.965   1.169   6.976
 5358SOL     OW33215   6.417   6.310   7.567
 5358SOL    HW133216   6.475   6.233   7.565
 5358SOL    HW233217   6.352   6.290   7.633
 5359SOL     OW33218   5.319   4.721   7.040
 5359SOL    HW133219   5.228   4.699   7.020
 5359SOL    HW233220   5.369   4.686   6.966
 5360SOL     OW33221   1.126   5.830   0.547
 5360SOL    HW133222   1.161   5.771   0.613
 5360SOL    HW233223   1.173   5.913   0.561
 5361SOL     OW33224   5.445   2.056   6.183
 5361SOL    HW133225   5.428   2.150   6.183
 5361SOL    HW233226   5.536   2.048   6.156
 5362SOL     OW33227   0.862   2.973   7.053
 5362SOL    HW133228   0.903   3.050   7.093
 5362SOL    HW233229   0.799   3.009   6.990
 5363SOL     OW33230   2.310   5.414   0.096
 5363SOL    HW133231   2.233   5.372   0.135
 5363SOL    HW233232   2.335   5.356   0.025
 5364SOL     OW33233   3.583   3.551   0.502
 5364SOL    HW133234   3.674   3.580   0.490
 5364SOL    HW233235   3.534   3.600   0.435
 5365SOL     OW33236   1.264   6.259   0.528
 5365SOL    HW133237   1.279   6.263   0.433
 5365SOL    HW233238   1.175   6.291   0.539
 5366SOL     OW33239   2.837   4.156   5.938
 5366SOL    HW133240   2.777   4.218   5.978
 5366SOL    HW233241   2.924   4.189   5.959
 5367SOL     OW33242   6.118   5.901   1.207
 5367SOL    HW133243   6.036   5.914   1.254
 5367SOL    HW233244   6.093   5.899   1.114
 5368SOL     OW33245   4.560   4.972   0.713
 5368SOL    HW133246   4.538   4.922   0.635
 5368SOL    HW233247   4.582   5.059   0.680
 5369SOL     OW33248   2.788   1.688   0.628
 5369SOL    HW133249   2.806   1.769   0.582
 5369SOL    HW233250   2.788   1.621   0.560
 5370SOL     OW33251   1.829   0.255   2.016
 5370SOL    HW133252   1.842   0.291   2.104
 5370SOL    HW233253   1.736   0.234   2.013
 5371SOL     OW33254   1.986   3.074   1.618
 5371SOL    HW133255   1.914   3.011   1.626
 5371SOL    HW233256   2.046   3.051   1.688
 5372SOL     OW33257   0.618   1.973   7.683
 5372SOL    HW133258   0.571   1.911   7.738
 5372SOL    HW233259   0.599   1.945   7.594
 5373SOL     OW33260   1.292   2.898   6.111
 5373SOL    HW133261   1.310   2.806   6.092
 5373SOL    HW233262   1.360   2.924   6.173
 5374SOL     OW33263   5.395   3.748   1.041
 5374SOL    HW133264   5.375   3.655   1.036
 5374SOL    HW233265   5.431   3.761   1.128
 5375SOL     OW33266   1.821   5.806   0.722
 5375SOL    HW133267   1.899   5.795   0.668
 5375SOL    HW233268   1.809   5.901   0.727
 5376SOL     OW33269   4.717   1.687   6.774
 5376SOL    HW133270   4.750   1.658   6.860
 5376SOL    HW233271   4.635   1.732   6.794
 5377SOL     OW33272   5.794   2.170   0.485
 5377SOL    HW133273   5.789   2.145   0.577
 5377SOL    HW233274   5.716   2.132   0.444
 5378SOL     OW33275   4.103   1.185   0.771
 5378SOL    HW133276   4.118   1.187   0.677
 5378SOL    HW233277   4.126   1.274   0.801
 5379SOL     OW33278   2.255   2.417   0.007
 5379SOL    HW133279   2.239   2.363   0.084
 5379SOL    HW233280   2.264   2.355  -0.065
 5380SOL     OW33281   1.245   4.253   0.554
 5380SOL    HW133282   1.299   4.218   0.625
 5380SOL    HW233283   1.264   4.347   0.555
 5381SOL     OW33284   5.798   3.520   7.458
 5381SOL    HW133285   5.848   3.562   7.387
 5381SOL    HW233286   5.743   3.591   7.493
 5382SOL     OW33287   4.551   4.597   0.604
 5382SOL    HW133288   4.507   4.670   0.562
 5382SOL    HW233289   4.621   4.637   0.656
 5383SOL     OW33290   4.908   5.271   7.758
 5383SOL    HW133291   4.851   5.269   7.835
 5383SOL    HW233292   4.996   5.284   7.793
 5384SOL     OW33293   5.674   1.966   0.948
 5384SOL    HW133294   5.579   1.954   0.949
 5384SOL    HW233295   5.708   1.882   0.918
 5385SOL     OW33296   3.881   0.584   1.202
 5385SOL    HW133297   3.798   0.627   1.224
 5385SOL    HW233298   3.941   0.613   1.271
 5386SOL     OW33299   5.256   2.893   7.536
 5386SOL    HW133300   5.350   2.911   7.532
 5386SOL    HW233301   5.221   2.960   7.595
 5387SOL     OW33302   1.280   5.561   0.445
 5387SOL    HW133303   1.294   5.651   0.416
 5387SOL    HW233304   1.202   5.532   0.399
 5388SOL     OW33305   5.323   6.305   0.811
 5388SOL    HW133306   5.384   6.273   0.877
 5388SOL    HW233307   5.373   6.301   0.729
 5389SOL     OW33308   1.308   1.109   0.744
 5389SOL    HW133309   1.263   1.193   0.757
 5389SOL    HW233310   1.358   1.096   0.824
 5390SOL     OW33311   0.015   0.344   0.745
 5390SOL    HW133312  -0.009   0.430   0.710
 5390SOL    HW233313   0.104   0.357   0.780
 5391SOL     OW33314   2.920   2.487   5.727
 5391SOL    HW133315   2.879   2.572   5.712
 5391SOL    HW233316   2.996   2.486   5.669
 5392SOL     OW33317   4.099   5.205   6.723
 5392SOL    HW133318   4.065   5.135   6.666
 5392SOL    HW233319   4.023   5.234   6.773
 5393SOL     OW33320   0.460   3.656   0.870
 5393SOL    HW133321   0.526   3.618   0.929
 5393SOL    HW233322   0.391   3.590   0.866
 5394SOL     OW33323   6.268   4.604   6.364
 5394SOL    HW133324   6.308   4.575   6.446
 5394SOL    HW233325   6.297   4.694   6.353
 5395SOL     OW33326   5.206   4.968   7.126
 5395SOL    HW133327   5.121   4.924   7.120
 5395SOL    HW233328   5.268   4.897   7.145
 5396SOL     OW33329   3.968   4.177   2.581
 5396SOL    HW133330   4.003   4.090   2.559
 5396SOL    HW233331   3.877   4.161   2.603
 5397SOL     OW33332   3.696   1.938   6.321
 5397SOL    HW133333   3.726   2.027   6.338
 5397SOL    HW233334   3.602   1.940   6.337
 5398SOL     OW33335   6.007   6.227   1.443
 5398SOL    HW133336   5.951   6.297   1.409
 5398SOL    HW233337   5.970   6.208   1.529
 5399SOL     OW33338   0.307   6.312   7.319
 5399SOL    HW133339   0.389   6.342   7.280
 5399SOL    HW233340   0.248   6.301   7.244
 5400SOL     OW33341   4.368   6.203   6.316
 5400SOL    HW133342   4.287   6.253   6.325
 5400SOL    HW233343   4.393   6.213   6.224
 5401SOL     OW33344   1.761   2.732   7.054
 5401SOL    HW133345   1.703   2.738   7.130
 5401SOL    HW233346   1.808   2.650   7.065
 5402SOL     OW33347   5.343   4.740   6.231
 5402SOL    HW133348   5.320   4.659   6.278
 5402SOL    HW233349   5.265   4.761   6.180
 5403SOL     OW33350   3.839   0.963   6.562
 5403SOL    HW133351   3.898   1.036   6.540
 5403SOL    HW233352   3.829   0.968   6.657
 5404SOL     OW33353   2.462   1.312   7.549
 5404SOL    HW133354   2.446   1.265   7.468
 5404SOL    HW233355   2.482   1.402   7.522
 5405SOL     OW33356   6.319   0.344   6.678
 5405SOL    HW133357   6.235   0.319   6.639
 5405SOL    HW233358   6.305   0.432   6.711
 5406SOL     OW33359   2.282   4.294   1.769
 5406SOL    HW133360   2.336   4.215   1.760
 5406SOL    HW233361   2.342   4.359   1.804
 5407SOL     OW33362   2.594   0.247   1.567
 5407SOL    HW133363   2.560   0.336   1.569
 5407SOL    HW233364   2.612   0.226   1.659
 5408SOL     OW33365   6.404   6.295   1.063
 5408SOL    HW133366   6.442   6.250   1.138
 5408SOL    HW233367   6.476   6.304   1.001
 5409SOL     OW33368   3.712   4.120   2.592
 5409SOL    HW133369   3.637   4.061   2.604
 5409SOL    HW233370   3.718   4.131   2.497
 5410SOL     OW33371   5.983   3.331   0.887
 5410SOL    HW133372   5.917   3.270   0.855
 5410SOL    HW233373   5.944   3.371   0.964
 5411SOL     OW33374   5.101   5.800   6.152
 5411SOL    HW133375   5.009   5.789   6.177
 5411SOL    HW233376   5.133   5.869   6.210
 5412SOL     OW33377   2.900   1.752   1.151
 5412SOL    HW133378   2.917   1.708   1.068
 5412SOL    HW233379   2.987   1.772   1.186
 5413SOL     OW33380   5.971   1.382   6.677
 5413SOL    HW133381   6.008   1.309   6.628
 5413SOL    HW233382   6.039   1.449   6.675
 5414SOL     OW33383   4.732   0.243   6.564
 5414SOL    HW133384   4.796   0.192   6.515
 5414SOL    HW233385   4.761   0.334   6.555
 5415SOL     OW33386   5.076   4.044   0.120
 5415SOL    HW133387   5.097   4.110   0.053
 5415SOL    HW233388   5.063   4.094   0.200
 5416SOL     OW33389   3.127   6.330   6.465
 5416SOL    HW133390   3.163   6.368   6.384
 5416SOL    HW233391   3.066   6.263   6.434
 5417SOL     OW33392   2.705   1.104   5.412
 5417SOL    HW133393   2.643   1.059   5.355
 5417SOL    HW233394   2.651   1.140   5.483
 5418SOL     OW33395   0.814   0.731   0.840
 5418SOL    HW133396   0.732   0.770   0.811
 5418SOL    HW233397   0.868   0.726   0.761
 5419SOL     OW33398   5.987   2.355   6.928
 5419SOL    HW133399   6.035   2.273   6.938
 5419SOL    HW233400   5.902   2.337   6.968
 5420SOL     OW33401   6.224   1.725   7.687
 5420SOL    HW133402   6.245   1.776   7.766
 5420SOL    HW233403   6.128   1.723   7.686
 5421SOL     OW33404   5.446   4.326   1.688
 5421SOL    HW133405   5.522   4.369   1.729
 5421SOL    HW233406   5.480   4.242   1.657
 5422SOL     OW33407   3.909   0.869   5.433
 5422SOL    HW133408   3.902   0.778   5.461
 5422SOL    HW233409   3.819   0.902   5.436
 5423SOL     OW33410   3.553   3.069   6.078
 5423SOL    HW133411   3.553   2.978   6.051
 5423SOL    HW233412   3.623   3.075   6.143
 5424SOL     OW33413   1.350   3.125   7.236
 5424SOL    HW133414   1.354   3.202   7.292
 5424SOL    HW233415   1.411   3.143   7.165
 5425SOL     OW33416   2.674   1.790   2.562
 5425SOL    HW133417   2.765   1.817   2.566
 5425SOL    HW233418   2.678   1.694   2.560
 5426SOL     OW33419   4.093   5.470   6.674
 5426SOL    HW133420   4.114   5.379   6.655
 5426SOL    HW233421   4.076   5.509   6.588
 5427SOL     OW33422   6.162   0.927   7.530
 5427SOL    HW133423   6.212   0.847   7.515
 5427SOL    HW233424   6.218   0.998   7.499
 5428SOL     OW33425   5.320   5.782   0.577
 5428SOL    HW133426   5.280   5.753   0.659
 5428SOL    HW233427   5.375   5.857   0.602
 5429SOL     OW33428   3.402   4.459   0.270
 5429SOL    HW133429   3.451   4.408   0.335
 5429SOL    HW233430   3.337   4.398   0.236
 5430SOL     OW33431   4.877   0.140   0.495
 5430SOL    HW133432   4.920   0.084   0.560
 5430SOL    HW233433   4.802   0.176   0.542
 5431SOL     OW33434   3.508   3.688   1.901
 5431SOL    HW133435   3.537   3.722   1.816
 5431SOL    HW233436   3.577   3.628   1.928
 5432SOL     OW33437   1.756   3.357   7.003
 5432SOL    HW133438   1.851   3.348   6.996
 5432SOL    HW233439   1.744   3.424   7.071
 5433SOL     OW33440   5.486   4.596   7.507
 5433SOL    HW133441   5.521   4.513   7.540
 5433SOL    HW233442   5.428   4.571   7.435
 5434SOL     OW33443   0.200   1.623   0.325
 5434SOL    HW133444   0.141   1.669   0.385
 5434SOL    HW233445   0.242   1.556   0.380
 5435SOL     OW33446   2.744   4.832   0.986
 5435SOL    HW133447   2.721   4.743   0.959
 5435SOL    HW233448   2.839   4.836   0.979
 5436SOL     OW33449   1.372   2.297   6.001
 5436SOL    HW133450   1.452   2.284   5.951
 5436SOL    HW233451   1.307   2.324   5.936
 5437SOL     OW33452   5.923   5.540   5.980
 5437SOL    HW133453   6.012   5.576   5.974
 5437SOL    HW233454   5.929   5.455   5.938
 5438SOL     OW33455   0.791   0.081   0.223
 5438SOL    HW133456   0.710   0.130   0.239
 5438SOL    HW233457   0.798   0.079   0.127
 5439SOL     OW33458   4.616   4.673   1.305
 5439SOL    HW133459   4.653   4.594   1.265
 5439SOL    HW233460   4.685   4.739   1.296
 5440SOL     OW33461   4.377   4.805   6.495
 5440SOL    HW133462   4.293   4.845   6.473
 5440SOL    HW233463   4.434   4.878   6.518
 5441SOL     OW33464   4.571   1.521   2.371
 5441SOL    HW133465   4.549   1.607   2.336
 5441SOL    HW233466   4.633   1.485   2.308
 5442SOL     OW33467   4.508   6.274   0.738
 5442SOL    HW133468   4.423   6.308   0.767
 5442SOL    HW233469   4.571   6.339   0.769
 5443SOL     OW33470   4.896   3.579   1.877
 5443SOL    HW133471   4.973   3.602   1.929
 5443SOL    HW233472   4.846   3.519   1.932
 5444SOL     OW33473   3.822   1.016   6.845
 5444SOL    HW133474   3.763   1.056   6.909
 5444SOL    HW233475   3.900   0.993   6.895
 5445SOL     OW33476   5.618   0.454   7.319
 5445SOL    HW133477   5.621   0.414   7.406
 5445SOL    HW233478   5.709   0.454   7.289
 5446SOL     OW33479   0.765   1.046   0.682
 5446SOL    HW133480   0.752   1.133   0.719
 5446SOL    HW233481   0.717   0.988   0.741
 5447SOL     OW33482   0.498   1.531   0.207
 5447SOL    HW133483   0.410   1.555   0.233
 5447SOL    HW233484   0.517   1.587   0.132
 5448SOL     OW33485   1.741   0.716   1.546
 5448SOL    HW133486   1.827   0.755   1.530
 5448SOL    HW233487   1.757   0.622   1.544
 5449SOL     OW33488   3.524   6.111   0.280
 5449SOL    HW133489   3.524   6.204   0.305
 5449SOL    HW233490   3.567   6.110   0.195
 5450SOL     OW33491   3.955   3.042   6.682
 5450SOL    HW133492   3.993   3.127   6.704
 5450SOL    HW233493   3.997   2.981   6.743
 5451SOL     OW33494   4.678   0.920   1.266
 5451SOL    HW133495   4.674   1.010   1.300
 5451SOL    HW233496   4.589   0.903   1.234
 5452SOL     OW33497   5.830   2.677   0.548
 5452SOL    HW133498   5.734   2.674   0.554
 5452SOL    HW233499   5.860   2.634   0.628
 5453SOL     OW33500   4.735   1.364   5.595
 5453SOL    HW133501   4.822   1.327   5.579
 5453SOL    HW233502   4.704   1.321   5.674
 5454SOL     OW33503   4.041   0.551   0.795
 5454SOL    HW133504   3.993   0.631   0.817
 5454SOL    HW233505   3.984   0.480   0.826
 5455SOL     OW33506   3.280   1.502   6.642
 5455SOL    HW133507   3.227   1.479   6.566
 5455SOL    HW233508   3.305   1.417   6.680
 5456SOL     OW33509   0.281   5.421   0.337
 5456SOL    HW133510   0.333   5.355   0.292
 5456SOL    HW233511   0.220   5.453   0.270
 5457SOL     OW33512   3.842   3.259   0.211
 5457SOL    HW133513   3.824   3.246   0.304
 5457SOL    HW233514   3.937   3.267   0.206
 5458SOL     OW33515   3.992   2.045   0.636
 5458SOL    HW133516   4.003   2.036   0.731
 5458SOL    HW233517   3.971   1.957   0.606
 5459SOL     OW33518   1.702   3.839   6.825
 5459SOL    HW133519   1.689   3.845   6.919
 5459SOL    HW233520   1.783   3.789   6.815
 5460SOL     OW33521   2.195   6.373   2.553
 5460SOL    HW133522   2.106   6.405   2.541
 5460SOL    HW233523   2.185   6.282   2.580
 5461SOL     OW33524   1.246   1.567   7.777
 5461SOL    HW133525   1.332   1.527   7.784
 5461SOL    HW233526   1.206   1.524   7.702
 5462SOL     OW33527   1.369   3.336   7.395
 5462SOL    HW133528   1.317   3.410   7.425
 5462SOL    HW233529   1.459   3.358   7.419
 5463SOL     OW33530   2.170   1.697   1.669
 5463SOL    HW133531   2.115   1.764   1.628
 5463SOL    HW233532   2.114   1.656   1.735
 5464SOL     OW33533   5.704   5.402   1.594
 5464SOL    HW133534   5.688   5.376   1.684
 5464SOL    HW233535   5.744   5.324   1.554
 5465SOL     OW33536   4.448   3.711   0.665
 5465SOL    HW133537   4.514   3.642   0.658
 5465SOL    HW233538   4.374   3.669   0.709
 5466SOL     OW33539   2.822   2.771   6.120
 5466SOL    HW133540   2.841   2.836   6.052
 5466SOL    HW233541   2.864   2.691   6.090
 5467SOL     OW33542   3.363   5.511   6.544
 5467SOL    HW133543   3.308   5.554   6.610
 5467SOL    HW233544   3.321   5.532   6.461
 5468SOL     OW33545   3.200   0.469   0.824
 5468SOL    HW133546   3.162   0.547   0.863
 5468SOL    HW233547   3.134   0.438   0.762
 5469SOL     OW33548   5.410   5.439   7.515
 5469SOL    HW133549   5.355   5.381   7.462
 5469SOL    HW233550   5.476   5.472   7.455
 5470SOL     OW33551   1.930   0.030   6.369
 5470SOL    HW133552   1.980  -0.025   6.428
 5470SOL    HW233553   1.904  -0.028   6.298
 5471SOL     OW33554   0.837   4.661   5.859
 5471SOL    HW133555   0.818   4.572   5.830
 5471SOL    HW233556   0.929   4.660   5.883
 5472SOL     OW33557   1.272   1.981   5.068
 5472SOL    HW133558   1.296   2.007   4.979
 5472SOL    HW233559   1.351   1.996   5.120
 5473SOL     OW33560   4.976   6.383   0.051
 5473SOL    HW133561   5.034   6.307   0.041
 5473SOL    HW233562   4.916   6.358   0.121
 5474SOL     OW33563   4.370   5.938   5.692
 5474SOL    HW133564   4.409   6.021   5.722
 5474SOL    HW233565   4.444   5.888   5.658
 5475SOL     OW33566   1.593   5.911   1.395
 5475SOL    HW133567   1.503   5.882   1.381
 5475SOL    HW233568   1.604   5.908   1.490
 5476SOL     OW33569   0.834   3.708   6.816
 5476SOL    HW133570   0.827   3.722   6.910
 5476SOL    HW233571   0.825   3.614   6.804
 5477SOL     OW33572   0.341   4.333   6.086
 5477SOL    HW133573   0.318   4.309   5.996
 5477SOL    HW233574   0.433   4.359   6.081
 5478SOL     OW33575   1.287   5.875   2.600
 5478SOL    HW133576   1.244   5.918   2.527
 5478SOL    HW233577   1.227   5.805   2.626
 5479SOL     OW33578   5.182   4.203   7.689
 5479SOL    HW133579   5.128   4.161   7.622
 5479SOL    HW233580   5.249   4.250   7.640
 5480SOL     OW33581   6.271   5.936   7.427
 5480SOL    HW133582   6.310   6.009   7.378
 5480SOL    HW233583   6.277   5.861   7.367
 5481SOL     OW33584   3.853   6.295   7.773
 5481SOL    HW133585   3.817   6.237   7.705
 5481SOL    HW233586   3.936   6.326   7.737
 5482SOL     OW33587   2.884   0.835   1.708
 5482SOL    HW133588   2.850   0.889   1.780
 5482SOL    HW233589   2.949   0.778   1.749
 5483SOL     OW33590   0.913   6.018   7.142
 5483SOL    HW133591   1.005   6.041   7.154
 5483SOL    HW233592   0.875   6.022   7.229
 5484SOL     OW33593   1.629   2.057   6.412
 5484SOL    HW133594   1.584   2.131   6.370
 5484SOL    HW233595   1.575   2.036   6.488
 5485SOL     OW33596   4.596   4.947   0.271
 5485SOL    HW133597   4.628   5.030   0.233
 5485SOL    HW233598   4.662   4.924   0.336
 5486SOL     OW33599   0.552   1.840   7.452
 5486SOL    HW133600   0.502   1.759   7.460
 5486SOL    HW233601   0.491   1.901   7.410
 5487SOL     OW33602   0.550   4.241   0.302
 5487SOL    HW133603   0.521   4.258   0.392
 5487SOL    HW233604   0.623   4.180   0.312
 5488SOL     OW33605   1.473   0.446   6.127
 5488SOL    HW133606   1.379   0.444   6.142
 5488SOL    HW233607   1.490   0.536   6.098
 5489SOL     OW33608   2.997   5.644   0.619
 5489SOL    HW133609   2.995   5.739   0.615
 5489SOL    HW233610   3.068   5.619   0.560
 5490SOL     OW33611   3.282   4.688   7.786
 5490SOL    HW133612   3.327   4.704   7.869
 5490SOL    HW233613   3.310   4.601   7.759
 5491SOL     OW33614   1.452   1.507   7.405
 5491SOL    HW133615   1.360   1.489   7.382
 5491SOL    HW233616   1.453   1.600   7.426
 5492SOL     OW33617   1.376   5.558   7.328
 5492SOL    HW133618   1.334   5.479   7.361
 5492SOL    HW233619   1.318   5.629   7.355
 5493SOL     OW33620   1.113   0.392   4.852
 5493SOL    HW133621   1.132   0.401   4.946
 5493SOL    HW233622   1.184   0.337   4.819
 5494SOL     OW33623   1.898   4.313   5.922
 5494SOL    HW133624   1.826   4.279   5.869
 5494SOL    HW233625   1.948   4.369   5.863
 5495SOL     OW33626   2.492   5.364   0.590
 5495SOL    HW133627   2.582   5.333   0.585
 5495SOL    HW233628   2.461   5.334   0.676
 5496SOL     OW33629   4.321   6.300   2.041
 5496SOL    HW133630   4.365   6.300   2.126
 5496SOL    HW233631   4.251   6.365   2.051
 5497SOL     OW33632   1.894   4.649   7.301
 5497SOL    HW133633   1.952   4.653   7.225
 5497SOL    HW233634   1.948   4.678   7.374
 5498SOL     OW33635   4.916   4.918   7.108
 5498SOL    HW133636   4.882   4.950   7.191
 5498SOL    HW233637   4.863   4.960   7.041
 5499SOL     OW33638   3.917   1.416   1.952
 5499SOL    HW133639   4.004   1.455   1.958
 5499SOL    HW233640   3.931   1.331   1.910
 5500SOL     OW33641   2.295   2.868   5.073
 5500SOL    HW133642   2.222   2.814   5.042
 5500SOL    HW233643   2.254   2.931   5.133
 5501SOL     OW33644   4.957   0.121   1.627
 5501SOL    HW133645   4.953   0.118   1.532
 5501SOL    HW233646   4.918   0.038   1.655
 5502SOL     OW33647   6.230   6.249   7.753
 5502SOL    HW133648   6.160   6.186   7.772
 5502SOL    HW233649   6.283   6.250   7.832
 5503SOL     OW33650   1.777   0.776   0.406
 5503SOL    HW133651   1.868   0.759   0.429
 5503SOL    HW233652   1.758   0.862   0.445
 5504SOL     OW33653   2.285   6.335   0.959
 5504SOL    HW133654   2.327   6.390   1.025
 5504SOL    HW233655   2.358   6.299   0.908
 5505SOL     OW33656   5.777   1.081   0.687
 5505SOL    HW133657   5.798   1.120   0.602
 5505SOL    HW233658   5.747   1.155   0.741
 5506SOL     OW33659   2.122   0.503   0.784
 5506SOL    HW133660   2.184   0.574   0.800
 5506SOL    HW233661   2.170   0.441   0.730
 5507SOL     OW33662   3.732   1.981   2.118
 5507SOL    HW133663   3.808   1.975   2.060
 5507SOL    HW233664   3.684   2.058   2.086
 5508SOL     OW33665   1.654   1.771   0.268
 5508SOL    HW133666   1.575   1.758   0.216
 5508SOL    HW233667   1.635   1.727   0.351
 5509SOL     OW33668   0.630   5.615   1.415
 5509SOL    HW133669   0.606   5.652   1.500
 5509SOL    HW233670   0.557   5.557   1.392
 5510SOL     OW33671   4.760   4.857   5.189
 5510SOL    HW133672   4.715   4.859   5.274
 5510SOL    HW233673   4.814   4.779   5.193
 5511SOL     OW33674   2.105   6.019   6.277
 5511SOL    HW133675   2.014   6.028   6.303
 5511SOL    HW233676   2.146   6.102   6.301
 5512SOL     OW33677   1.712   5.447   1.647
 5512SOL    HW133678   1.720   5.450   1.742
 5512SOL    HW233679   1.756   5.366   1.622
 5513SOL     OW33680   2.420   2.805   2.246
 5513SOL    HW133681   2.452   2.780   2.160
 5513SOL    HW233682   2.331   2.837   2.231
 5514SOL     OW33683   2.571   4.087   1.359
 5514SOL    HW133684   2.529   4.067   1.275
 5514SOL    HW233685   2.502   4.076   1.424
 5515SOL     OW33686   2.313   2.836   1.470
 5515SOL    HW133687   2.284   2.801   1.554
 5515SOL    HW233688   2.274   2.924   1.467
 5516SOL     OW33689   4.979   5.635   1.216
 5516SOL    HW133690   4.941   5.590   1.291
 5516SOL    HW233691   4.940   5.722   1.218
 5517SOL     OW33692   2.173   3.758   6.693
 5517SOL    HW133693   2.190   3.682   6.638
 5517SOL    HW233694   2.196   3.833   6.638
 5518SOL     OW33695   2.758   6.089   0.573
 5518SOL    HW133696   2.671   6.101   0.535
 5518SOL    HW233697   2.761   5.996   0.597
 5519SOL     OW33698   5.904   3.168   1.491
 5519SOL    HW133699   5.982   3.136   1.536
 5519SOL    HW233700   5.831   3.121   1.531
 5520SOL     OW33701   3.552   3.943   6.594
 5520SOL    HW133702   3.538   3.858   6.635
 5520SOL    HW233703   3.635   3.974   6.631
 5521SOL     OW33704   5.100   0.195   5.789
 5521SOL    HW133705   5.119   0.285   5.815
 5521SOL    HW233706   5.007   0.196   5.764
 5522SOL     OW33707   2.455   3.069   2.076
 5522SOL    HW133708   2.488   3.072   2.166
 5522SOL    HW233709   2.508   3.001   2.033
 5523SOL     OW33710   1.982   0.723   6.455
 5523SOL    HW133711   1.964   0.802   6.507
 5523SOL    HW233712   2.033   0.756   6.380
 5524SOL     OW33713   2.173   6.415   0.121
 5524SOL    HW133714   2.161   6.473   0.045
 5524SOL    HW233715   2.246   6.358   0.096
 5525SOL     OW33716   3.001   1.365   6.042
 5525SOL    HW133717   3.011   1.422   5.967
 5525SOL    HW233718   2.974   1.281   6.005
 5526SOL     OW33719   6.272   0.226   7.709
 5526SOL    HW133720   6.356   0.270   7.696
 5526SOL    HW233721   6.271   0.206   7.803
 5527SOL     OW33722   2.034   5.375   1.761
 5527SOL    HW133723   1.939   5.379   1.770
 5527SOL    HW233724   2.064   5.323   1.835
 5528SOL     OW33725   4.500   0.252   7.742
 5528SOL    HW133726   4.465   0.318   7.803
 5528SOL    HW233727   4.527   0.303   7.665
 5529SOL     OW33728   0.805   2.426   1.792
 5529SOL    HW133729   0.852   2.503   1.757
 5529SOL    HW233730   0.844   2.352   1.746
 5530SOL     OW33731   3.632   2.757   7.718
 5530SOL    HW133732   3.628   2.844   7.679
 5530SOL    HW233733   3.648   2.774   7.811
 5531SOL     OW33734   6.160   0.839   0.313
 5531SOL    HW133735   6.172   0.932   0.292
 5531SOL    HW233736   6.195   0.792   0.237
 5532SOL     OW33737   4.576   4.168   0.621
 5532SOL    HW133738   4.633   4.203   0.689
 5532SOL    HW233739   4.517   4.240   0.600
 5533SOL     OW33740   5.126   0.765   1.696
 5533SOL    HW133741   5.031   0.777   1.705
 5533SOL    HW233742   5.163   0.813   1.770
 5534SOL     OW33743   4.588   0.677   6.964
 5534SOL    HW133744   4.656   0.744   6.976
 5534SOL    HW233745   4.615   0.629   6.886
 5535SOL     OW33746   2.760   0.406   7.275
 5535SOL    HW133747   2.798   0.318   7.272
 5535SOL    HW233748   2.711   0.413   7.193
 5536SOL     OW33749   5.129   3.768   2.085
 5536SOL    HW133750   5.211   3.817   2.090
 5536SOL    HW233751   5.081   3.793   2.165
 5537SOL     OW33752   3.829   1.629   7.089
 5537SOL    HW133753   3.785   1.610   7.172
 5537SOL    HW233754   3.922   1.633   7.112
 5538SOL     OW33755   0.271   2.998   0.274
 5538SOL    HW133756   0.224   2.942   0.212
 5538SOL    HW233757   0.361   3.000   0.241
 5539SOL     OW33758   6.281   4.385   0.958
 5539SOL    HW133759   6.229   4.465   0.953
 5539SOL    HW233760   6.218   4.314   0.950
 5540SOL     OW33761   0.612   4.432   7.068
 5540SOL    HW133762   0.530   4.481   7.059
 5540SOL    HW233763   0.629   4.432   7.162
 5541SOL     OW33764   5.406   1.160   0.959
 5541SOL    HW133765   5.388   1.110   1.039
 5541SOL    HW233766   5.391   1.098   0.888
 5542SOL     OW33767   3.331   0.452   7.125
 5542SOL    HW133768   3.252   0.401   7.106
 5542SOL    HW233769   3.324   0.530   7.070
 5543SOL     OW33770   1.075   4.129   6.328
 5543SOL    HW133771   1.075   4.202   6.390
 5543SOL    HW233772   1.075   4.050   6.383
 5544SOL     OW33773   0.896   6.387   6.368
 5544SOL    HW133774   0.850   6.378   6.452
 5544SOL    HW233775   0.932   6.476   6.371
 5545SOL     OW33776   4.424   3.595   7.581
 5545SOL    HW133777   4.506   3.546   7.579
 5545SOL    HW233778   4.395   3.590   7.672
 5546SOL     OW33779   2.565   5.342   0.197
 5546SOL    HW133780   2.498   5.291   0.153
 5546SOL    HW233781   2.523   5.426   0.216
 5547SOL     OW33782   5.391   2.662   7.291
 5547SOL    HW133783   5.313   2.619   7.257
 5547SOL    HW233784   5.395   2.746   7.246
 5548SOL     OW33785   0.661   3.104   0.445
 5548SOL    HW133786   0.573   3.141   0.437
 5548SOL    HW233787   0.712   3.149   0.378
 5549SOL     OW33788   3.797   5.500   5.147
 5549SOL    HW133789   3.883   5.496   5.187
 5549SOL    HW233790   3.785   5.414   5.106
 5550SOL     OW33791   2.932   4.433   7.684
 5550SOL    HW133792   2.929   4.342   7.656
 5550SOL    HW233793   2.972   4.430   7.771
 5551SOL     OW33794   1.058   2.029   5.515
 5551SOL    HW133795   1.106   2.080   5.580
 5551SOL    HW233796   1.006   1.967   5.566
 5552SOL     OW33797   2.637   4.254   7.820
 5552SOL    HW133798   2.548   4.226   7.797
 5552SOL    HW233799   2.690   4.175   7.808
 5553SOL     OW33800   0.376   4.675   1.962
 5553SOL    HW133801   0.288   4.698   1.929
 5553SOL    HW233802   0.391   4.586   1.930
 5554SOL     OW33803   3.473   5.068   5.938
 5554SOL    HW133804   3.415   5.135   5.973
 5554SOL    HW233805   3.451   5.062   5.845
 5555SOL     OW33806   0.804   0.913   7.702
 5555SOL    HW133807   0.793   0.984   7.765
 5555SOL    HW233808   0.884   0.936   7.655
 5556SOL     OW33809   1.422   3.538   6.524
 5556SOL    HW133810   1.468   3.497   6.451
 5556SOL    HW233811   1.329   3.528   6.502
 5557SOL     OW33812   0.739   3.325   6.567
 5557SOL    HW133813   0.687   3.339   6.488
 5557SOL    HW233814   0.826   3.301   6.534
 5558SOL     OW33815   6.285   2.770   7.660
 5558SOL    HW133816   6.268   2.864   7.660
 5558SOL    HW233817   6.204   2.732   7.693
 5559SOL     OW33818   5.309   4.415   6.910
 5559SOL    HW133819   5.397   4.449   6.930
 5559SOL    HW233820   5.267   4.485   6.861
 5560SOL     OW33821   1.980   3.735   5.235
 5560SOL    HW133822   1.979   3.643   5.208
 5560SOL    HW233823   2.072   3.756   5.247
 5561SOL     OW33824   2.586   3.260   6.800
 5561SOL    HW133825   2.656   3.309   6.841
 5561SOL    HW233826   2.619   3.170   6.794
 5562SOL     OW33827   0.347   5.309   7.630
 5562SOL    HW133828   0.348   5.395   7.672
 5562SOL    HW233829   0.314   5.250   7.698
 5563SOL     OW33830   4.441   2.910   1.899
 5563SOL    HW133831   4.443   2.966   1.822
 5563SOL    HW233832   4.508   2.945   1.956
 5564SOL     OW33833   5.156   2.590   7.618
 5564SOL    HW133834   5.082   2.529   7.622
 5564SOL    HW233835   5.115   2.677   7.621
 5565SOL     OW33836   5.970   1.529   1.684
 5565SOL    HW133837   5.890   1.570   1.717
 5565SOL    HW233838   5.941   1.444   1.652
 5566SOL     OW33839   2.163   5.331   1.535
 5566SOL    HW133840   2.115   5.336   1.617
 5566SOL    HW233841   2.228   5.263   1.548
 5567SOL     OW33842   1.606   0.088   6.186
 5567SOL    HW133843   1.654   0.166   6.214
 5567SOL    HW233844   1.557   0.117   6.109
 5568SOL     OW33845   2.427   5.344   5.255
 5568SOL    HW133846   2.443   5.259   5.214
 5568SOL    HW233847   2.513   5.386   5.256
 5569SOL     OW33848   4.529   0.316   0.873
 5569SOL    HW133849   4.556   0.264   0.949
 5569SOL    HW233850   4.438   0.291   0.858
 5570SOL     OW33851   3.984   1.413   0.336
 5570SOL    HW133852   3.919   1.344   0.331
 5570SOL    HW233853   4.046   1.393   0.266
 5571SOL     OW33854   2.073   6.021   7.760
 5571SOL    HW133855   2.129   6.035   7.683
 5571SOL    HW233856   2.046   5.930   7.753
 5572SOL     OW33857   5.107   1.403   0.237
 5572SOL    HW133858   5.072   1.352   0.164
 5572SOL    HW233859   5.110   1.493   0.204
 5573SOL     OW33860   0.521   2.402   1.331
 5573SOL    HW133861   0.500   2.308   1.327
 5573SOL    HW233862   0.606   2.406   1.374
 5574SOL     OW33863   3.678   5.979   6.106
 5574SOL    HW133864   3.655   5.892   6.139
 5574SOL    HW233865   3.608   6.036   6.140
 5575SOL     OW33866   1.685   3.851   0.348
 5575SOL    HW133867   1.759   3.852   0.288
 5575SOL    HW233868   1.685   3.938   0.388
 5576SOL     OW33869   6.219   4.034   7.541
 5576SOL    HW133870   6.276   4.102   7.505
 5576SOL    HW233871   6.262   4.010   7.624
 5577SOL     OW33872   1.840   3.405   6.157
 5577SOL    HW133873   1.761   3.410   6.104
 5577SOL    HW233874   1.901   3.353   6.104
 5578SOL     OW33875   4.574   1.560   5.483
 5578SOL    HW133876   4.598   1.596   5.397
 5578SOL    HW233877   4.647   1.503   5.506
 5579SOL     OW33878   3.778   5.403   6.188
 5579SOL    HW133879   3.804   5.480   6.240
 5579SOL    HW233880   3.790   5.431   6.097
 5580SOL     OW33881   1.910   0.313   5.954
 5580SOL    HW133882   1.876   0.276   6.036
 5580SOL    HW233883   1.887   0.406   5.958
 5581SOL     OW33884   3.437   0.421   6.723
 5581SOL    HW133885   3.455   0.381   6.808
 5581SOL    HW233886   3.490   0.500   6.722
 5582SOL     OW33887   5.819   3.470   7.065
 5582SOL    HW133888   5.764   3.427   7.130
 5582SOL    HW233889   5.882   3.520   7.118
 5583SOL     OW33890   3.080   3.360   7.602
 5583SOL    HW133891   3.142   3.427   7.573
 5583SOL    HW233892   3.003   3.375   7.546
 5584SOL     OW33893   3.433   0.821   6.517
 5584SOL    HW133894   3.368   0.890   6.528
 5584SOL    HW233895   3.508   0.865   6.477
 5585SOL     OW33896   4.032   0.661   0.101
 5585SOL    HW133897   3.938   0.654   0.083
 5585SOL    HW233898   4.068   0.576   0.075
 5586SOL     OW33899   4.971   3.649   2.550
 5586SOL    HW133900   4.876   3.653   2.564
 5586SOL    HW233901   4.994   3.559   2.575
 5587SOL     OW33902   4.096   4.015   7.225
 5587SOL    HW133903   4.139   3.930   7.237
 5587SOL    HW233904   4.098   4.030   7.131
 5588SOL     OW33905   2.688   3.935   6.792
 5588SOL    HW133906   2.670   3.914   6.883
 5588SOL    HW233907   2.608   3.911   6.745
 5589SOL     OW33908   2.124   0.705   7.465
 5589SOL    HW133909   2.206   0.660   7.486
 5589SOL    HW233910   2.082   0.649   7.400
 5590SOL     OW33911   6.126   0.437   7.009
 5590SOL    HW133912   6.163   0.356   6.973
 5590SOL    HW233913   6.093   0.412   7.095
 5591SOL     OW33914   6.145   6.015   7.006
 5591SOL    HW133915   6.097   6.044   6.929
 5591SOL    HW233916   6.224   5.974   6.971
 5592SOL     OW33917   3.908   6.214   1.566
 5592SOL    HW133918   3.889   6.120   1.568
 5592SOL    HW233919   3.964   6.225   1.488
 5593SOL     OW33920   2.316   1.040   7.420
 5593SOL    HW133921   2.243   1.015   7.364
 5593SOL    HW233922   2.344   1.125   7.387
 5594SOL     OW33923   2.596   4.417   7.284
 5594SOL    HW133924   2.584   4.327   7.314
 5594SOL    HW233925   2.674   4.414   7.230
 5595SOL     OW33926   5.705   2.317   6.385
 5595SOL    HW133927   5.697   2.329   6.290
 5595SOL    HW233928   5.632   2.259   6.408
 5596SOL     OW33929   4.165   3.406   2.015
 5596SOL    HW133930   4.170   3.312   2.028
 5596SOL    HW233931   4.079   3.421   1.975
 5597SOL     OW33932   2.536   5.613   6.437
 5597SOL    HW133933   2.468   5.552   6.466
 5597SOL    HW233934   2.508   5.698   6.472
 5598SOL     OW33935   2.602   1.665   0.140
 5598SOL    HW133936   2.634   1.598   0.201
 5598SOL    HW233937   2.681   1.711   0.111
 5599SOL     OW33938   0.336   0.572   6.507
 5599SOL    HW133939   0.323   0.482   6.479
 5599SOL    HW233940   0.249   0.611   6.505
 5600SOL     OW33941   5.624   3.910   2.085
 5600SOL    HW133942   5.670   3.956   2.014
 5600SOL    HW233943   5.692   3.891   2.149
 5601SOL     OW33944   6.064   4.343   0.648
 5601SOL    HW133945   5.991   4.401   0.670
 5601SOL    HW233946   6.110   4.388   0.577
 5602SOL     OW33947   4.750   3.515   6.580
 5602SOL    HW133948   4.835   3.559   6.579
 5602SOL    HW233949   4.754   3.454   6.507
 5603SOL     OW33950   2.485   6.279   0.379
 5603SOL    HW133951   2.555   6.319   0.432
 5603SOL    HW233952   2.469   6.194   0.421
 5604SOL     OW33953   0.326   1.491   6.338
 5604SOL    HW133954   0.383   1.531   6.273
 5604SOL    HW233955   0.238   1.495   6.300
 5605SOL     OW33956   4.112   2.355   7.089
 5605SOL    HW133957   4.074   2.273   7.121
 5605SOL    HW233958   4.195   2.362   7.136
 5606SOL     OW33959   5.450   2.329   6.165
 5606SOL    HW133960   5.543   2.342   6.145
 5606SOL    HW233961   5.408   2.409   6.135
 5607SOL     OW33962   3.245   2.050   7.435
 5607SOL    HW133963   3.165   2.059   7.383
 5607SOL    HW233964   3.273   1.959   7.420
 5608SOL     OW33965   5.625   5.123   1.094
 5608SOL    HW133966   5.719   5.133   1.109
 5608SOL    HW233967   5.584   5.181   1.157
 5609SOL     OW33968   0.954   3.775   1.454
 5609SOL    HW133969   0.903   3.700   1.486
 5609SOL    HW233970   0.938   3.844   1.518
 5610SOL     OW33971   3.641   5.689   5.851
 5610SOL    HW133972   3.637   5.704   5.946
 5610SOL    HW233973   3.721   5.639   5.838
 5611SOL     OW33974   0.768   0.759   6.581
 5611SOL    HW133975   0.786   0.822   6.650
 5611SOL    HW233976   0.833   0.777   6.514
 5612SOL     OW33977   2.380   0.948   7.789
 5612SOL    HW133978   2.438   0.911   7.855
 5612SOL    HW233979   2.429   1.021   7.751
 5613SOL     OW33980   5.173   5.840   0.072
 5613SOL    HW133981   5.181   5.856   0.166
 5613SOL    HW233982   5.124   5.915   0.039
 5614SOL     OW33983   2.341   5.093   0.553
 5614SOL    HW133984   2.364   5.109   0.645
 5614SOL    HW233985   2.426   5.093   0.508
 5615SOL     OW33986   4.762   5.855   0.259
 5615SOL    HW133987   4.772   5.946   0.228
 5615SOL    HW233988   4.668   5.840   0.259
 5616SOL     OW33989   3.750   4.345   7.236
 5616SOL    HW133990   3.777   4.403   7.164
 5616SOL    HW233991   3.684   4.395   7.283
 5617SOL     OW33992   5.921   1.283   1.591
 5617SOL    HW133993   6.003   1.247   1.559
 5617SOL    HW233994   5.886   1.216   1.650
 5618SOL     OW33995   2.594   2.183   7.723
 5618SOL    HW133996   2.625   2.104   7.680
 5618SOL    HW233997   2.542   2.228   7.656
 5619SOL     OW33998   1.824   5.478   1.899
 5619SOL    HW133999   1.866   5.563   1.910
 5619SOL    HW234000   1.746   5.483   1.955
 5620SOL     OW34001   3.297   0.031   6.301
 5620SOL    HW134002   3.323   0.121   6.319
 5620SOL    HW234003   3.275   0.031   6.208
 5621SOL     OW34004   3.532   2.530   6.551
 5621SOL    HW134005   3.507   2.612   6.509
 5621SOL    HW234006   3.618   2.510   6.514
 5622SOL     OW34007   1.980   4.544   6.201
 5622SOL    HW134008   2.069   4.577   6.192
 5622SOL    HW234009   1.940   4.598   6.269
 5623SOL     OW34010   2.948   1.196   0.815
 5623SOL    HW134011   3.036   1.179   0.781
 5623SOL    HW234012   2.894   1.208   0.737
 5624SOL     OW34013   4.749   0.521   7.164
 5624SOL    HW134014   4.729   0.429   7.180
 5624SOL    HW234015   4.665   0.558   7.136
 5625SOL     OW34016   4.385   3.584   0.047
 5625SOL    HW134017   4.392   3.557   0.138
 5625SOL    HW234018   4.411   3.677   0.048
 5626SOL     OW34019   3.676   2.042   7.210
 5626SOL    HW134020   3.586   2.065   7.185
 5626SOL    HW234021   3.716   2.126   7.234
 5627SOL     OW34022   1.425   4.379   7.372
 5627SOL    HW134023   1.471   4.314   7.426
 5627SOL    HW234024   1.398   4.330   7.294
 5628SOL     OW34025   3.526   6.067   7.477
 5628SOL    HW134026   3.460   6.005   7.448
 5628SOL    HW234027   3.523   6.138   7.413
 5629SOL     OW34028   2.600   1.126   2.418
 5629SOL    HW134029   2.607   1.059   2.350
 5629SOL    HW234030   2.619   1.208   2.373
 5630SOL     OW34031   3.408   1.165   6.323
 5630SOL    HW134032   3.474   1.177   6.256
 5630SOL    HW234033   3.456   1.173   6.406
 5631SOL     OW34034   1.654   6.316   7.343
 5631SOL    HW134035   1.622   6.275   7.263
 5631SOL    HW234036   1.640   6.410   7.331
 5632SOL     OW34037   4.011   1.518   6.412
 5632SOL    HW134038   3.940   1.572   6.375
 5632SOL    HW234039   4.021   1.550   6.501
 5633SOL     OW34040   2.676   0.871   1.262
 5633SOL    HW134041   2.666   0.964   1.242
 5633SOL    HW234042   2.617   0.855   1.335
 5634SOL     OW34043   1.000   2.368   1.233
 5634SOL    HW134044   1.028   2.282   1.263
 5634SOL    HW234045   0.996   2.421   1.312
 5635SOL     OW34046   2.412   2.301   7.392
 5635SOL    HW134047   2.508   2.304   7.394
 5635SOL    HW234048   2.390   2.288   7.300
 5636SOL     OW34049   5.391   3.949   0.033
 5636SOL    HW134050   5.400   3.961   0.127
 5636SOL    HW234051   5.434   4.026  -0.005
 5637SOL     OW34052   1.781   1.836   5.510
 5637SOL    HW134053   1.699   1.806   5.549
 5637SOL    HW234054   1.759   1.857   5.419
 5638SOL     OW34055   2.314   3.697   6.924
 5638SOL    HW134056   2.244   3.749   6.963
 5638SOL    HW234057   2.300   3.705   6.830
 5639SOL     OW34058   6.218   2.318   5.938
 5639SOL    HW134059   6.298   2.275   5.968
 5639SOL    HW234060   6.238   2.412   5.942
 5640SOL     OW34061   3.439   2.131   2.297
 5640SOL    HW134062   3.401   2.162   2.379
 5640SOL    HW234063   3.461   2.211   2.249
 5641SOL     OW34064   3.716   2.057   1.779
 5641SOL    HW134065   3.687   2.086   1.865
 5641SOL    HW234066   3.794   2.110   1.761
 5642SOL     OW34067   1.135   0.812   0.848
 5642SOL    HW134068   1.047   0.844   0.829
 5642SOL    HW234069   1.153   0.839   0.938
 5643SOL     OW34070   4.213   5.784   7.529
 5643SOL    HW134071   4.232   5.877   7.539
 5643SOL    HW234072   4.194   5.753   7.617
 5644SOL     OW34073   2.034   1.923   5.882
 5644SOL    HW134074   2.079   1.979   5.945
 5644SOL    HW234075   1.960   1.976   5.852
 5645SOL     OW34076   2.143   6.328   6.563
 5645SOL    HW134077   2.081   6.255   6.558
 5645SOL    HW234078   2.167   6.345   6.472
 5646SOL     OW34079   6.294   5.750   7.231
 5646SOL    HW134080   6.245   5.669   7.218
 5646SOL    HW234081   6.300   5.790   7.144
 5647SOL     OW34082   3.736   6.229   1.183
 5647SOL    HW134083   3.663   6.250   1.125
 5647SOL    HW234084   3.696   6.224   1.270
 5648SOL     OW34085   3.841   5.267   0.480
 5648SOL    HW134086   3.768   5.262   0.419
 5648SOL    HW234087   3.842   5.359   0.508
 5649SOL     OW34088   6.368   0.120   0.920
 5649SOL    HW134089   6.412   0.181   0.860
 5649SOL    HW234090   6.433   0.101   0.987
 5650SOL     OW34091   1.938   6.151   6.515
 5650SOL    HW134092   1.875   6.166   6.586
 5650SOL    HW234093   1.890   6.098   6.452
 5651SOL     OW34094   0.145   2.160   6.147
 5651SOL    HW134095   0.083   2.140   6.076
 5651SOL    HW234096   0.183   2.076   6.170
 5652SOL     OW34097   2.898   2.211   1.165
 5652SOL    HW134098   2.911   2.146   1.097
 5652SOL    HW234099   2.855   2.164   1.236
 5653SOL     OW34100   3.703   4.918   5.831
 5653SOL    HW134101   3.665   4.969   5.902
 5653SOL    HW234102   3.777   4.873   5.871
 5654SOL     OW34103   1.688   4.430   6.651
 5654SOL    HW134104   1.689   4.357   6.589
 5654SOL    HW234105   1.628   4.403   6.720
 5655SOL     OW34106   1.247   2.796   5.477
 5655SOL    HW134107   1.249   2.700   5.477
 5655SOL    HW234108   1.309   2.821   5.546
 5656MOL     C134109   4.041   3.026   7.371
 5656MOL     C234110   4.069   2.944   7.490
 5656MOL     N134111   3.800   3.029   7.408
 5656MOL     N234112   4.010   2.962   7.603
 5656MOL     C334113   3.782   3.038   7.544
 5656MOL     C434114   3.905   3.060   7.632
 5656MOL     H134115   3.946   3.159   7.607
 5656MOL     H234116   3.880   3.053   7.739
 5656MOL     C534117   3.891   3.114   7.201
 5656MOL     C634118   3.999   3.155   7.123
 5656MOL     C734119   3.911   3.052   7.325
 5656MOL     C834120   4.129   3.131   7.169
 5656MOL     C934121   4.149   3.069   7.293
 5656MOL     H334122   3.988   3.188   7.020
 5656MOL     H434123   4.253   3.059   7.324
 5656MOL     H534124   3.794   3.137   7.157
 5656MOL     O134125   3.668   3.021   7.582
 5656MOL    C1034126   4.156   2.825   7.474
 5656MOL    C1134127   4.223   2.773   7.585
 5656MOL     N334128   4.166   2.757   7.360
 5656MOL    C1234129   4.294   2.653   7.584
 5656MOL    C1334130   4.247   2.651   7.349
 5656MOL    C1434131   4.306   2.589   7.460
 5656MOL     H634132   4.214   2.828   7.678
 5656MOL     H734133   4.343   2.614   7.673
 5656MOL     H834134   4.264   2.609   7.250
 5656MOL     H934135   4.379   2.514   7.431
 5656MOL    H1034136   3.708   3.023   7.366
 5656MOL    BR134137   4.276   3.213   7.080
 5656MOL     EP34138   4.432   3.300   6.985
   6.44257   6.44257   7.83290
